<LesHouchesEvents version="3.0">
<header>
<!--
#*********************************************************************
#                                                                    *
#                        MadGraph5_aMC@NLO                           *
#                                                                    *
#                           Going Beyond                             *
#                                                                    *
#                   http://madgraph.hep.uiuc.edu                     *
#                   http://madgraph.phys.ucl.ac.be                   *
#                   http://amcatnlo.cern.ch                          *
#                                                                    *
#                     The MadGraph5_aMC@NLO team                     *
#                                                                    *
#....................................................................*
#                                                                    *
# This file contains all the information necessary to reproduce      *
# the events generated:                                              *
#                                                                    *
# 1. software version                                                *
# 2. proc_card          : code generation info including model       *
# 3. param_card         : model primary parameters in the LH format  *
# 4. run_card           : running parameters (collider and cuts)     *
# 5. pythia_card        : present only if pythia has been run        *
# 6. pgs_card           : present only if pgs has been run           *
# 7. delphes_cards      : present only if delphes has been run       *
#                                                                    *
#                                                                    *
#*********************************************************************
-->
<MGVersion>
#5.2.2.3
</MGVersion>
<MG5ProcCard>
#************************************************************
#*                     MadGraph5_aMC@NLO                    *
#*                                                          *
#*                *                       *                 *
#*                  *        * *        *                   *
#*                    * * * * 5 * * * *                     *
#*                  *        * *        *                   *
#*                *                       *                 *
#*                                                          *
#*                                                          *
#*         VERSION 2.2.3                 2015-02-10         *
#*                                                          *
#*    The MadGraph5_aMC@NLO Development Team - Find us at   *
#*    https://server06.fynu.ucl.ac.be/projects/madgraph     *
#*                                                          *
#************************************************************
#*                                                          *
#*               Command File for MadGraph5_aMC@NLO         *
#*                                                          *
#*     run as ./bin/mg5_aMC  filename                       *
#*                                                          *
#************************************************************
set group_subprocesses Auto
set ignore_six_quark_processes False
set loop_optimized_output True
set gauge unitary
set complex_mass_scheme False
import model sm
define p = g u c d s u~ c~ d~ s~
define j = g u c d s u~ c~ d~ s~
define l+ = e+ mu+
define l- = e- mu-
define vl = ve vm vt
define vl~ = ve~ vm~ vt~
import model Zprime_UFO
generate p p > zph, zph > j j
add process p p > zph, zph > b b~
output Dijet_signal
</MG5ProcCard>
<MGProcCard>
#*********************************************************************
#                        MadGraph/MadEvent                           *
#                   http://madgraph.hep.uiuc.edu                     *
#                                                                    *
#                          proc_card.dat                             *
#*********************************************************************
#                                                                    *
#            This Files is generated by MADGRAPH 5                   *
#                                                                    *
# WARNING: This Files is generated for MADEVENT (compatibility issue)*
#          This files is NOT a valid MG4 proc_card.dat               *
#          Running this in MG4 will NEVER reproduce the result of MG5*
#                                                                    *
#*********************************************************************
#*********************************************************************
# Process(es) requested : mg2 input                                  *
#*********************************************************************
# Begin PROCESS # This is TAG. Do not modify this line
p p > zph , zph > j j           #Process
# Be carefull the coupling are here in MG5 convention
          
end_coup           # End the couplings input

done               # this tells MG there are no more procs
# End PROCESS  # This is TAG. Do not modify this line
#*********************************************************************
# Model information                                                  *
#*********************************************************************
# Begin MODEL  # This is TAG. Do not modify this line
Zprime_UFO
# End   MODEL  # This is TAG. Do not modify this line
#*********************************************************************
# Start multiparticle definitions                                    *
#*********************************************************************
# Begin MULTIPARTICLES # This is TAG. Do not modify this line

# End  MULTIPARTICLES # This is TAG. Do not modify this line
</MGProcCard>
<MGRunCard>
#*********************************************************************
#                       MadGraph5_aMC@NLO                            *
#                                                                    *
#                     run_card.dat MadEvent                          *
#                                                                    *
#  This file is used to set the parameters of the run.               *
#                                                                    *
#  Some notation/conventions:                                        *
#                                                                    *
#   Lines starting with a '# ' are info or comments                  *
#                                                                    *
#   mind the format:   value    = variable     ! comment             *
#*********************************************************************
#
#*******************                                                 
# Running parameters
#*******************                                                 
#                                                                    
#*********************************************************************
# Tag name for the run (one word)                                    *
#*********************************************************************
  tag_1     = run_tag ! name of the run 
#*********************************************************************
# Run to generate the grid pack                                      *
#*********************************************************************
  .false.     = gridpack  !True = setting up the grid pack
#*********************************************************************
# Number of events and rnd seed                                      *
# Warning: Do not generate more than 1M events in a single run       *
# If you want to run Pythia, avoid more than 50k events in a run.    *
#*********************************************************************
  2000 = nevents ! Number of unweighted events requested 
 1821 = iseed   ! rnd seed (0=assigned automatically=default))
#*********************************************************************
# Collider type and energy                                           *
# lpp: 0=No PDF, 1=proton, -1=antiproton, 2=photon from proton,      *
#                                         3=photon from electron     *
#*********************************************************************
        1     = lpp1    ! beam 1 type 
        1     = lpp2    ! beam 2 type
     4000     = ebeam1  ! beam 1 total energy in GeV
     4000     = ebeam2  ! beam 2 total energy in GeV
#*********************************************************************
# Beam polarization from -100 (left-handed) to 100 (right-handed)    *
#*********************************************************************
        0     = polbeam1 ! beam polarization for beam 1
        0     = polbeam2 ! beam polarization for beam 2
#*********************************************************************
# PDF CHOICE: this automatically fixes also alpha_s and its evol.    *
#*********************************************************************
 'nn23lo1'    = pdlabel     ! PDF set                                     
 230000    = lhaid     ! if pdlabel=lhapdf, this is the lhapdf number
#*********************************************************************
# Renormalization and factorization scales                           *
#*********************************************************************
 F        = fixed_ren_scale  ! if .true. use fixed ren scale
 F        = fixed_fac_scale  ! if .true. use fixed fac scale
 91.1880  = scale            ! fixed ren scale
 91.1880  = dsqrt_q2fact1    ! fixed fact scale for pdf1
 91.1880  = dsqrt_q2fact2    ! fixed fact scale for pdf2
 1        = scalefact        ! scale factor for event-by-event scales
#*********************************************************************
# Matching - Warning! ickkw > 1 is still beta
#*********************************************************************
 0        = ickkw            ! 0 no matching, 1 MLM, 2 CKKW matching
 1        = highestmult      ! for ickkw=2, highest mult group
 1        = ktscheme         ! for ickkw=1, 1 Durham kT, 2 Pythia pTE
 1        = alpsfact         ! scale factor for QCD emission vx
 F        = chcluster        ! cluster only according to channel diag
 T        = pdfwgt           ! for ickkw=1, perform pdf reweighting
 5        = asrwgtflavor     ! highest quark flavor for a_s reweight
 T        = clusinfo         ! include clustering tag in output
 3.0      = lhe_version       ! Change the way clustering information pass to shower.        
#*********************************************************************
#**********************************************************
#
#**********************************************************
# Automatic ptj and mjj cuts if xqcut > 0
# (turn off for VBF and single top processes)
#**********************************************************
   T  = auto_ptj_mjj  ! Automatic setting of ptj and mjj
#**********************************************************
#                                                                    
#**********************************
# BW cutoff (M+/-bwcutoff*Gamma)
#**********************************
  15  = bwcutoff      ! (M+/-bwcutoff*Gamma)
#**********************************************************
# Apply pt/E/eta/dr/mij cuts on decay products or not
# (note that etmiss/ptll/ptheavy/ht/sorted cuts always apply)
#**********************************************************
   T  = cut_decays    ! Cut decay products 
#*************************************************************
# Number of helicities to sum per event (0 = all helicities)
# 0 gives more stable result, but longer run time (needed for
# long decay chains e.g.).
# Use >=2 if most helicities contribute, e.g. pure QCD.
#*************************************************************
   0  = nhel          ! Number of helicities used per event
#*******************                                                 
# Standard Cuts
#*******************                                                 
#                                                                    
#*********************************************************************
# Minimum and maximum pt's (for max, -1 means no cut)                *
#*********************************************************************
 20  = ptj       ! minimum pt for the jets 
  0  = ptb       ! minimum pt for the b 
 10  = pta       ! minimum pt for the photons 
 10  = ptl       ! minimum pt for the charged leptons 
  0  = misset    ! minimum missing Et (sum of neutrino's momenta)
  0  = ptheavy   ! minimum pt for one heavy final state
 1.0 = ptonium   ! minimum pt for the quarkonium states
 -1  = ptjmax    ! maximum pt for the jets
 -1  = ptbmax    ! maximum pt for the b
 -1  = ptamax    ! maximum pt for the photons
 -1  = ptlmax    ! maximum pt for the charged leptons
 -1  = missetmax ! maximum missing Et (sum of neutrino's momenta)
#*********************************************************************
# Minimum and maximum E's (in the center of mass frame)              *
#*********************************************************************
  0  = ej     ! minimum E for the jets 
  0  = eb     ! minimum E for the b 
  0  = ea     ! minimum E for the photons 
  0  = el     ! minimum E for the charged leptons 
 -1   = ejmax ! maximum E for the jets
 -1   = ebmax ! maximum E for the b
 -1   = eamax ! maximum E for the photons
 -1   = elmax ! maximum E for the charged leptons
#*********************************************************************
# Maximum and minimum absolute rapidity (for max, -1 means no cut)   *
#*********************************************************************
   5  = etaj    ! max rap for the jets 
  -1  = etab    ! max rap for the b
 2.5  = etaa    ! max rap for the photons 
 2.5  = etal    ! max rap for the charged leptons 
 0.6  = etaonium ! max rap for the quarkonium states
   0  = etajmin ! min rap for the jets
   0  = etabmin ! min rap for the b
   0  = etaamin ! min rap for the photons
   0  = etalmin ! main rap for the charged leptons
#*********************************************************************
# Minimum and maximum DeltaR distance                                *
#*********************************************************************
 0.4 = drjj    ! min distance between jets 
 0   = drbb    ! min distance between b's 
 0.4 = drll    ! min distance between leptons 
 0.4 = draa    ! min distance between gammas 
 0   = drbj    ! min distance between b and jet 
 0.4 = draj    ! min distance between gamma and jet 
 0.4 = drjl    ! min distance between jet and lepton 
 0   = drab    ! min distance between gamma and b 
 0   = drbl    ! min distance between b and lepton 
 0.4 = dral    ! min distance between gamma and lepton 
 -1  = drjjmax ! max distance between jets
 -1  = drbbmax ! max distance between b's
 -1  = drllmax ! max distance between leptons
 -1  = draamax ! max distance between gammas
 -1  = drbjmax ! max distance between b and jet
 -1  = drajmax ! max distance between gamma and jet
 -1  = drjlmax ! max distance between jet and lepton
 -1  = drabmax ! max distance between gamma and b
 -1  = drblmax ! max distance between b and lepton
 -1  = dralmax ! maxdistance between gamma and lepton
#*********************************************************************
# Minimum and maximum invariant mass for pairs                       *
# WARNING: for four lepton final state mmll cut require to have      *
#          different lepton masses for each flavor!                  *           
#*********************************************************************
 0   = mmjj    ! min invariant mass of a jet pair 
 0   = mmbb    ! min invariant mass of a b pair 
 0   = mmaa    ! min invariant mass of gamma gamma pair
 0   = mmll    ! min invariant mass of l+l- (same flavour) lepton pair
 -1  = mmjjmax ! max invariant mass of a jet pair
 -1  = mmbbmax ! max invariant mass of a b pair
 -1  = mmaamax ! max invariant mass of gamma gamma pair
 -1  = mmllmax ! max invariant mass of l+l- (same flavour) lepton pair
#*********************************************************************
# Minimum and maximum invariant mass for all letpons                 *
#*********************************************************************
 0   = mmnl    ! min invariant mass for all letpons (l+- and vl) 
 -1  = mmnlmax ! max invariant mass for all letpons (l+- and vl) 
#*********************************************************************
# Minimum and maximum pt for 4-momenta sum of leptons                *
#*********************************************************************
 0   = ptllmin  ! Minimum pt for 4-momenta sum of leptons(l and vl)
 -1  = ptllmax  ! Maximum pt for 4-momenta sum of leptons(l and vl)
#*********************************************************************
# Inclusive cuts                                                     *
#*********************************************************************
 0  = xptj ! minimum pt for at least one jet  
 0  = xptb ! minimum pt for at least one b 
 0  = xpta ! minimum pt for at least one photon 
 0  = xptl ! minimum pt for at least one charged lepton 
#*********************************************************************
# Control the pt's of the jets sorted by pt                          *
#*********************************************************************
 0   = ptj1min ! minimum pt for the leading jet in pt
 0   = ptj2min ! minimum pt for the second jet in pt
 0   = ptj3min ! minimum pt for the third jet in pt
 0   = ptj4min ! minimum pt for the fourth jet in pt
 -1  = ptj1max ! maximum pt for the leading jet in pt 
 -1  = ptj2max ! maximum pt for the second jet in pt
 -1  = ptj3max ! maximum pt for the third jet in pt
 -1  = ptj4max ! maximum pt for the fourth jet in pt
 0   = cutuse  ! reject event if fails any (0) / all (1) jet pt cuts
#*********************************************************************
# Control the pt's of leptons sorted by pt                           *
#*********************************************************************
 0   = ptl1min ! minimum pt for the leading lepton in pt
 0   = ptl2min ! minimum pt for the second lepton in pt
 0   = ptl3min ! minimum pt for the third lepton in pt
 0   = ptl4min ! minimum pt for the fourth lepton in pt
 -1  = ptl1max ! maximum pt for the leading lepton in pt 
 -1  = ptl2max ! maximum pt for the second lepton in pt
 -1  = ptl3max ! maximum pt for the third lepton in pt
 -1  = ptl4max ! maximum pt for the fourth lepton in pt
#*********************************************************************
# Control the Ht(k)=Sum of k leading jets                            *
#*********************************************************************
 0   = htjmin ! minimum jet HT=Sum(jet pt)
 -1  = htjmax ! maximum jet HT=Sum(jet pt)
 0   = ihtmin  !inclusive Ht for all partons (including b)
 -1  = ihtmax  !inclusive Ht for all partons (including b)
 0   = ht2min ! minimum Ht for the two leading jets
 0   = ht3min ! minimum Ht for the three leading jets
 0   = ht4min ! minimum Ht for the four leading jets
 -1  = ht2max ! maximum Ht for the two leading jets
 -1  = ht3max ! maximum Ht for the three leading jets
 -1  = ht4max ! maximum Ht for the four leading jets
#***********************************************************************
# Photon-isolation cuts, according to hep-ph/9801442                   *
# When ptgmin=0, all the other parameters are ignored                  *
# When ptgmin>0, pta and draj are not going to be used                 *
#***********************************************************************
   0 = ptgmin ! Min photon transverse momentum
 0.4 = R0gamma ! Radius of isolation code
 1.0 = xn ! n parameter of eq.(3.4) in hep-ph/9801442
 1.0 = epsgamma ! epsilon_gamma parameter of eq.(3.4) in hep-ph/9801442
 .true. = isoEM ! isolate photons from EM energy (photons and leptons)
#*********************************************************************
# WBF cuts                                                           *
#*********************************************************************
 0   = xetamin ! minimum rapidity for two jets in the WBF case  
 0   = deltaeta ! minimum rapidity for two jets in the WBF case 
#*********************************************************************
# KT DURHAM CUT                                                      *
#*********************************************************************
 -1    =  ktdurham        
 0.4  =  dparameter 
#*********************************************************************
# maximal pdg code for quark to be considered as a light jet         *
# (otherwise b cuts are applied)                                     *
#*********************************************************************
 4 = maxjetflavor    ! Maximum jet pdg code
#*********************************************************************
# Jet measure cuts                                                   *
#*********************************************************************
 0   = xqcut   ! minimum kt jet measure between partons
#*********************************************************************
#
#*********************************************************************
# Store info for systematics studies                                 *
# WARNING: If use_syst is T, matched Pythia output is                *
#          meaningful ONLY if plotted taking matchscale              *
#          reweighting into account!                                 *
#*********************************************************************
   F  = use_syst      ! Enable systematics studies
#
#**************************************
# Parameter of the systematics study
#  will be used by SysCalc (if installed)
#**************************************                                  
#
0.5 1 2 = sys_scalefact  # factorization/renormalization scale factor
0.5 1 2 = sys_alpsfact  # \alpha_s emission scale factors
30 50 = sys_matchscale # variation of merging scale
# PDF sets and number of members (0 or none for all members).
CT10nlo.LHgrid = sys_pdf # matching scales
# MSTW2008nlo68cl.LHgrid 1  = sys_pdf
</MGRunCard>
<slha>
######################################################################
## PARAM_CARD AUTOMATICALY GENERATED BY MG5 FOLLOWING UFO MODEL   ####
######################################################################
##                                                                  ##
##  Width set on Auto will be computed following the information    ##
##        present in the decay.py files of the model.               ##
##        See  arXiv:1402.1178 for more details.                    ##
##                                                                  ##
######################################################################

###################################
## INFORMATION FOR CKMBLOCK
###################################
Block ckmblock 
    1 2.277360e-01 # cabi 

###################################
## INFORMATION FOR FRBLOCK
###################################
Block frblock 
    1 1.000000e+00 # gz 

###################################
## INFORMATION FOR MASS
###################################
Block mass 
    1 5.040000e-03 # MD 
    2 2.550000e-03 # MU 
    3 1.010000e-01 # MS 
    4 1.270000e+00 # MC 
    5 4.700000e+00 # MB 
    6 1.720000e+02 # MT 
   11 5.110000e-04 # Me 
   13 1.056600e-01 # MM 
   15 1.777000e+00 # MTA 
   23 9.118760e+01 # MZ 
   25 1.200000e+02 # MH 
  10030 8.000000e+02 # MZph 
  10031 3.000000e+02 # MZpl 
## Dependent parameters, given by model restrictions.
## Those values should be edited following the 
## analytical expression. MG5 ignores those values 
## but they are important for interfacing the output of MG5
## to external program such as Pythia.
  12 0.000000 # ve : 0.0 
  14 0.000000 # vm : 0.0 
  16 0.000000 # vt : 0.0 
  21 0.000000 # g : 0.0 
  22 0.000000 # a : 0.0 
  24 79.824360 # w+ : cmath.sqrt(MZ__exp__2/2. + cmath.sqrt(MZ__exp__4/4. - (aEW*cmath.pi*MZ__exp__2)/(Gf*sqrt__2))) 

###################################
## INFORMATION FOR SMINPUTS
###################################
Block sminputs 
    1 1.279000e+02 # aEWM1 
    2 1.166370e-05 # Gf 
    3 1.184000e-01 # aS 

###################################
## INFORMATION FOR YUKAWA
###################################
Block yukawa 
    1 5.040000e-03 # ymdo 
    2 2.550000e-03 # ymup 
    3 1.010000e-01 # yms 
    4 1.270000e+00 # ymc 
    5 4.700000e+00 # ymb 
    6 1.720000e+02 # ymt 
   11 5.110000e-04 # yme 
   13 1.056600e-01 # ymm 
   15 1.777000e+00 # ymtau 

###################################
## INFORMATION FOR DECAY
###################################
DECAY   6 1.508336e+00 # WT 
DECAY  23 2.495200e+00 # WZ 
DECAY  24 2.085000e+00 # WW 
DECAY  25 5.753088e-03 # WH 
## Dependent parameters, given by model restrictions.
## Those values should be edited following the 
## analytical expression. MG5 ignores those values 
## but they are important for interfacing the output of MG5
## to external program such as Pythia.
DECAY  1 0.000000 # d : 0.0 
DECAY  2 0.000000 # u : 0.0 
DECAY  3 0.000000 # s : 0.0 
DECAY  4 0.000000 # c : 0.0 
DECAY  5 0.000000 # b : 0.0 
DECAY  11 0.000000 # e- : 0.0 
DECAY  12 0.000000 # ve : 0.0 
DECAY  13 0.000000 # mu- : 0.0 
DECAY  14 0.000000 # vm : 0.0 
DECAY  15 0.000000 # ta- : 0.0 
DECAY  16 0.000000 # vt : 0.0 
DECAY  21 0.000000 # g : 0.0 
DECAY  22 0.000000 # a : 0.0 
DECAY  10030 0.308725 # zph : (gz__exp__2*MZph*(5 + cmath.sqrt(1 - (4*MT__exp__2)/MZph__exp__2)))/(144.*cmath.pi) 
DECAY  10031 0.132629 # zpl : (5*gz__exp__2*MZpl)/(144.*cmath.pi) 
#===========================================================
# QUANTUM NUMBERS OF NEW STATE(S) (NON SM PDG CODE)
#===========================================================

Block QNUMBERS 10030  # zph 
        1 0  # 3 times electric charge
        2 3  # number of spin states (2S+1)
        3 1  # colour rep (1: singlet, 3: triplet, 8: octet)
        4 0  # Particle/Antiparticle distinction (0=own anti)
Block QNUMBERS 10031  # zpl 
        1 0  # 3 times electric charge
        2 3  # number of spin states (2S+1)
        3 1  # colour rep (1: singlet, 3: triplet, 8: octet)
        4 0  # Particle/Antiparticle distinction (0=own anti)
</slha>
## END BANNER##
<MGGenerationInfo>
#  Number of Events        :         4047
#  Integrated weight (pb)  :  0.54980E+01
#  Max wgt                 :  0.18187E-02
#  Average wgt             :  0.13585E-02
</MGGenerationInfo>
</header>
<init>
     2212     2212  0.40000000000E+04  0.40000000000E+04 0 0  247000  247000 2   1
  0.54925487830E+01  0.12514579593E-01  0.18186650000E-02   0
</init>
<event>
 5   0  0.1747544E-02  0.7925686E+03  0.7818609E-02  0.9570836E-01
        2   -1    0    0  501    0  0.00000000000E+00  0.00000000000E+00  0.61779868772E+03  0.61779868772E+03  0.25500000920E-02 0.  1.
       -2   -1    0    0    0  501  0.00000000000E+00  0.00000000000E+00 -0.25419488362E+03  0.25419488363E+03  0.25500000920E-02 0. -1.
    10030    2    1    2    0    0  0.00000000000E+00  0.00000000000E+00  0.36360380410E+03  0.87199357135E+03  0.79256864821E+03 0.  0.
        1    1    3    3  502    0  0.56037869235E+02 -0.34994064874E+03  0.37689206816E+03  0.51734546630E+03  0.50400001928E-02 0.  1.
       -1    1    3    3    0  502 -0.56037869235E+02  0.34994064874E+03 -0.13288264058E+02  0.35464810505E+03  0.50400001928E-02 0. -1.
</event>
<event>
 5   0  0.1747544E-02  0.7980090E+03  0.7818609E-02  0.9562903E-01
       -2   -1    0    0    0  501  0.00000000000E+00  0.00000000000E+00  0.43947332978E+03  0.43947332978E+03  0.25500000920E-02 0. -1.
        2   -1    0    0  501    0  0.00000000000E+00  0.00000000000E+00 -0.36226224273E+03  0.36226224274E+03  0.25500000920E-02 0.  1.
    10030    2    1    2    0    0  0.00000000000E+00  0.00000000000E+00  0.77211087046E+02  0.80173557252E+03  0.79800900765E+03 0.  0.
        1    1    3    3  502    0 -0.10790619257E+03 -0.97732474322E+02 -0.33462518847E+03  0.36492382728E+03  0.50400001928E-02 0.  1.
       -1    1    3    3    0  502  0.10790619257E+03  0.97732474322E+02  0.41183627551E+03  0.43681174525E+03  0.50400001928E-02 0. -1.
</event>
<event>
 5   0  0.1818665E-02  0.7967596E+03  0.7818609E-02  0.9564719E-01
       -2   -1    0    0    0  501  0.00000000000E+00  0.00000000000E+00  0.17576460107E+03  0.17576460109E+03  0.25500000920E-02 0.  1.
        2   -1    0    0  501    0  0.00000000000E+00  0.00000000000E+00 -0.90294891993E+03  0.90294891993E+03  0.25500000920E-02 0. -1.
    10030    2    1    2    0    0  0.00000000000E+00  0.00000000000E+00 -0.72718431886E+03  0.10787135210E+04  0.79675957906E+03 0.  0.
        3    1    3    3  502    0  0.27029201692E+03 -0.28936080781E+03 -0.30428382184E+03  0.49937571621E+03  0.10100000352E+00 0. -1.
       -3    1    3    3    0  502 -0.27029201692E+03  0.28936080781E+03 -0.42290049702E+03  0.57933780481E+03  0.10100000352E+00 0.  1.
</event>
<event>
 5   0  0.1747544E-02  0.8024424E+03  0.7818609E-02  0.9556489E-01
       -2   -1    0    0    0  501  0.00000000000E+00  0.00000000000E+00  0.13514755751E+03  0.13514755753E+03  0.25500000920E-02 0. -1.
        2   -1    0    0  501    0  0.00000000000E+00  0.00000000000E+00 -0.11911310423E+04  0.11911310423E+04  0.25500000920E-02 0.  1.
    10030    2    1    2    0    0  0.00000000000E+00  0.00000000000E+00 -0.10559834848E+04  0.13262785998E+04  0.80244239932E+03 0.  0.
        1    1    3    3  502    0  0.10221034659E+03 -0.38391669830E+03 -0.62059978539E+03  0.73687385612E+03  0.50400001928E-02 0. -1.
       -1    1    3    3    0  502 -0.10221034659E+03  0.38391669830E+03 -0.43538369942E+03  0.58940474373E+03  0.50400001928E-02 0.  1.
</event>
<event>
 5   0  0.1818665E-02  0.7985226E+03  0.7818609E-02  0.9562158E-01
        2   -1    0    0  501    0  0.00000000000E+00  0.00000000000E+00  0.80610279680E+03  0.80610279681E+03  0.25500000920E-02 0.  1.
       -2   -1    0    0    0  501  0.00000000000E+00  0.00000000000E+00 -0.19775342573E+03  0.19775342575E+03  0.25500000920E-02 0. -1.
    10030    2    1    2    0    0  0.00000000000E+00  0.00000000000E+00  0.60834937107E+03  0.10038562226E+04  0.79852260975E+03 0.  0.
        3    1    3    3  502    0  0.30782279165E+03  0.25373395345E+03  0.32497607938E+03  0.51453401497E+03  0.10100000352E+00 0.  1.
       -3    1    3    3    0  502 -0.30782279165E+03 -0.25373395345E+03  0.28337329169E+03  0.48932220759E+03  0.10100000352E+00 0. -1.
</event>
<event>
 5   0  0.1025900E-02  0.8088981E+03  0.7818609E-02  0.9547226E-01
       -1   -1    0    0    0  501  0.00000000000E+00  0.00000000000E+00  0.30104185793E+03  0.30104185797E+03  0.50400001928E-02 0. -1.
        1   -1    0    0  501    0  0.00000000000E+00  0.00000000000E+00 -0.54337639120E+03  0.54337639122E+03  0.50400001928E-02 0.  1.
    10030    2    1    2    0    0  0.00000000000E+00  0.00000000000E+00 -0.24233453327E+03  0.84441824919E+03  0.80889811073E+03 0.  0.
        1    1    3    3  502    0  0.62623128483E+02  0.18165110311E+02  0.29551885788E+03  0.30262687065E+03  0.50400001928E-02 0. -1.
       -1    1    3    3    0  502 -0.62623128483E+02 -0.18165110311E+02 -0.53785339116E+03  0.54179137854E+03  0.50400001928E-02 0.  1.
</event>
<event>
 5   0  0.1030323E-02  0.7934335E+03  0.7818609E-02  0.9569571E-01
       -1   -1    0    0    0  501  0.00000000000E+00  0.00000000000E+00  0.18840080061E+03  0.18840080068E+03  0.50400001928E-02 0.  1.
        1   -1    0    0  501    0  0.00000000000E+00  0.00000000000E+00 -0.83536886872E+03  0.83536886873E+03  0.50400001928E-02 0. -1.
    10030    2    1    2    0    0  0.00000000000E+00  0.00000000000E+00 -0.64696806810E+03  0.10237696694E+04  0.79343345963E+03 0.  0.
        3    1    3    3  502    0 -0.32730037065E+03  0.13867526629E+03 -0.55076715243E+03  0.65551569661E+03  0.10100000352E+00 0. -1.
       -3    1    3    3    0  502  0.32730037065E+03 -0.13867526629E+03 -0.96200915670E+02  0.36825397280E+03  0.10100000352E+00 0.  1.
</event>
<event>
 5   0  0.1747544E-02  0.8197617E+03  0.7818609E-02  0.9531845E-01
        2   -1    0    0  501    0  0.00000000000E+00  0.00000000000E+00  0.91023701681E+03  0.91023701681E+03  0.25500000920E-02 0.  1.
       -2   -1    0    0    0  501  0.00000000000E+00  0.00000000000E+00 -0.18456986972E+03  0.18456986974E+03  0.25500000920E-02 0. -1.
    10030    2    1    2    0    0  0.00000000000E+00  0.00000000000E+00  0.72566714709E+03  0.10948068865E+04  0.81976174006E+03 0.  0.
        1    1    3    3  502    0 -0.15562045270E+03 -0.25734640425E+03 -0.90967446823E+01  0.30087812793E+03  0.50400001928E-02 0. -1.
       -1    1    3    3    0  502  0.15562045270E+03  0.25734640425E+03  0.73476389177E+03  0.79392875861E+03  0.50400001928E-02 0.  1.
</event>
<event>
 5   0  0.6872500E-03  0.7952948E+03  0.7818609E-02  0.9566853E-01
        4   -1    0    0  501    0  0.00000000000E+00  0.00000000000E+00  0.39672773707E+03  0.39672976981E+03  0.12699999809E+01 0. -1.
       -4   -1    0    0    0  501  0.00000000000E+00  0.00000000000E+00 -0.39856509760E+03  0.39856712098E+03  0.12699999809E+01 0.  1.
    10030    2    1    2    0    0  0.00000000000E+00  0.00000000000E+00 -0.18373605316E+01  0.79529689079E+03  0.79529476838E+03 0.  0.
        5    1    3    3  502    0 -0.33975857633E+03  0.11441355976E+03 -0.17289297242E+03  0.39804575460E+03  0.46999998093E+01 0.  1.
       -5    1    3    3    0  502  0.33975857633E+03 -0.11441355976E+03  0.17105561189E+03  0.39725113619E+03  0.46999998093E+01 0. -1.
</event>
<event>
 5   0  0.1747544E-02  0.7891243E+03  0.7818609E-02  0.9575894E-01
        2   -1    0    0  501    0  0.00000000000E+00  0.00000000000E+00  0.16902140003E+04  0.16902140003E+04  0.25500000920E-02 0. -1.
       -2   -1    0    0    0  501  0.00000000000E+00  0.00000000000E+00 -0.92106270888E+02  0.92106270924E+02  0.25500000920E-02 0.  1.
    10030    2    1    2    0    0  0.00000000000E+00  0.00000000000E+00  0.15981077294E+04  0.17823202712E+04  0.78912434661E+03 0.  0.
        1    1    3    3  502    0  0.12569959022E+03 -0.33936563972E+03  0.44401519416E+03  0.57281665223E+03  0.50400001928E-02 0.  1.
       -1    1    3    3    0  502 -0.12569959022E+03  0.33936563972E+03  0.11540925352E+04  0.12095036190E+04  0.50400001928E-02 0. -1.
</event>
<event>
 5   0  0.6872500E-03  0.8056785E+03  0.7818609E-02  0.9551834E-01
       -4   -1    0    0    0  501  0.00000000000E+00  0.00000000000E+00  0.19590566509E+03  0.19590978157E+03  0.12699999809E+01 0.  1.
        4   -1    0    0  501    0  0.00000000000E+00  0.00000000000E+00 -0.82834191269E+03  0.82834288626E+03  0.12699999809E+01 0. -1.
    10030    2    1    2    0    0  0.00000000000E+00  0.00000000000E+00 -0.63243624760E+03  0.10242526678E+04  0.80567854649E+03 0.  0.
        4    1    3    3  502    0  0.12433797773E+03 -0.37712168610E+03 -0.23002144992E+03  0.45890323507E+03  0.12699999809E+01 0.  1.
       -4    1    3    3    0  502 -0.12433797773E+03  0.37712168610E+03 -0.40241479768E+03  0.56534943276E+03  0.12699999809E+01 0. -1.
</event>
<event>
 5   0  0.1673727E-02  0.8214822E+03  0.7818609E-02  0.9529433E-01
        2   -1    0    0  501    0  0.00000000000E+00  0.00000000000E+00  0.63870161415E+03  0.63870161415E+03  0.25500000920E-02 0.  1.
       -2   -1    0    0    0  501  0.00000000000E+00  0.00000000000E+00 -0.26414253182E+03  0.26414253184E+03  0.25500000920E-02 0. -1.
    10030    2    1    2    0    0  0.00000000000E+00  0.00000000000E+00  0.37455908232E+03  0.90284414599E+03  0.82148222488E+03 0.  0.
        5    1    3    3  502    0 -0.30462727489E+03 -0.18569783635E+03  0.41091439042E+03  0.54420050467E+03  0.46999998093E+01 0.  1.
       -5    1    3    3    0  502  0.30462727489E+03  0.18569783635E+03 -0.36355308098E+02  0.35864364132E+03  0.46999998093E+01 0. -1.
</event>
<event>
 5   0  0.1049780E-02  0.8009506E+03  0.7818609E-02  0.9558642E-01
        1   -1    0    0  501    0  0.00000000000E+00  0.00000000000E+00  0.25864939667E+03  0.25864939672E+03  0.50400001928E-02 0. -1.
       -1   -1    0    0    0  501  0.00000000000E+00  0.00000000000E+00 -0.62006893896E+03  0.62006893898E+03  0.50400001928E-02 0.  1.
    10030    2    1    2    0    0  0.00000000000E+00  0.00000000000E+00 -0.36141954229E+03  0.87871833570E+03  0.80095057772E+03 0.  0.
        5    1    3    3  502    0  0.12141774923E+03 -0.37743804085E+03 -0.11907081258E+03  0.41400687544E+03  0.46999998093E+01 0.  1.
       -5    1    3    3    0  502 -0.12141774923E+03  0.37743804085E+03 -0.24234872971E+03  0.46471146026E+03  0.46999998093E+01 0. -1.
</event>
<event>
 5   0  0.6872500E-03  0.8035862E+03  0.7818609E-02  0.9554841E-01
        3   -1    0    0  501    0  0.00000000000E+00  0.00000000000E+00  0.24759786449E+03  0.24759788509E+03  0.10100000352E+00 0.  1.
       -3   -1    0    0    0  501  0.00000000000E+00  0.00000000000E+00 -0.65201561799E+03  0.65201562581E+03  0.10100000352E+00 0. -1.
    10030    2    1    2    0    0  0.00000000000E+00  0.00000000000E+00 -0.40441775350E+03  0.89961351090E+03  0.80358618060E+03 0.  0.
        1    1    3    3  502    0  0.53423896290E+02 -0.14650533614E+03  0.21233789156E+03  0.26344886872E+03  0.50400001928E-02 0.  1.
       -1    1    3    3    0  502 -0.53423896290E+02  0.14650533614E+03 -0.61675564506E+03  0.63616464218E+03  0.50400001928E-02 0. -1.
</event>
<event>
 5   0  0.1025900E-02  0.8050108E+03  0.7818609E-02  0.9552792E-01
       -1   -1    0    0    0  501  0.00000000000E+00  0.00000000000E+00  0.34200899387E+03  0.34200899391E+03  0.50400001928E-02 0.  1.
        1   -1    0    0  501    0  0.00000000000E+00  0.00000000000E+00 -0.47370268043E+03  0.47370268045E+03  0.50400001928E-02 0. -1.
    10030    2    1    2    0    0  0.00000000000E+00  0.00000000000E+00 -0.13169368655E+03  0.81571167436E+03  0.80501075062E+03 0.  0.
        1    1    3    3  502    0  0.25072406189E+02  0.34985397162E+03  0.13422180274E+03  0.37555548108E+03  0.50400001928E-02 0.  1.
       -1    1    3    3    0  502 -0.25072406189E+02 -0.34985397162E+03 -0.26591548929E+03  0.44015619328E+03  0.50400001928E-02 0. -1.
</event>
<event>
 5   0  0.1030323E-02  0.8004586E+03  0.7818609E-02  0.9559354E-01
        1   -1    0    0  501    0  0.00000000000E+00  0.00000000000E+00  0.99130542117E+03  0.99130542118E+03  0.50400001928E-02 0. -1.
       -1   -1    0    0    0  501  0.00000000000E+00  0.00000000000E+00 -0.16158844409E+03  0.16158844417E+03  0.50400001928E-02 0.  1.
    10030    2    1    2    0    0  0.00000000000E+00  0.00000000000E+00  0.82971697708E+03  0.11528938654E+04  0.80045862024E+03 0.  0.
        3    1    3    3  502    0 -0.25409212828E+03 -0.30588620820E+03  0.34957801901E+03  0.52946575300E+03  0.10100000352E+00 0. -1.
       -3    1    3    3    0  502  0.25409212828E+03  0.30588620820E+03  0.48013895807E+03  0.62342811236E+03  0.10100000352E+00 0.  1.
</event>
<event>
 5   0  0.1030323E-02  0.7641833E+03  0.7818609E-02  0.9613358E-01
       -1   -1    0    0    0  501  0.00000000000E+00  0.00000000000E+00  0.15814387233E+03  0.15814387241E+03  0.50400001928E-02 0. -1.
        1   -1    0    0  501    0  0.00000000000E+00  0.00000000000E+00 -0.92317228112E+03  0.92317228113E+03  0.50400001928E-02 0.  1.
    10030    2    1    2    0    0  0.00000000000E+00  0.00000000000E+00 -0.76502840879E+03  0.10813161535E+04  0.76418332725E+03 0.  0.
        3    1    3    3  502    0 -0.22174281646E+03  0.29530818734E+03 -0.24374916369E+03  0.44248216592E+03  0.10100000352E+00 0.  1.
       -3    1    3    3    0  502  0.22174281646E+03 -0.29530818734E+03 -0.52127924510E+03  0.63883398762E+03  0.10100000352E+00 0. -1.
</event>
<event>
 5   0  0.1747544E-02  0.8111658E+03  0.7818609E-02  0.9543994E-01
       -2   -1    0    0    0  501  0.00000000000E+00  0.00000000000E+00  0.79540350241E+03  0.79540350241E+03  0.25500000920E-02 0.  1.
        2   -1    0    0  501    0  0.00000000000E+00  0.00000000000E+00 -0.20681012432E+03  0.20681012433E+03  0.25500000920E-02 0. -1.
    10030    2    1    2    0    0  0.00000000000E+00  0.00000000000E+00  0.58859337809E+03  0.10022136267E+04  0.81116582084E+03 0.  0.
        1    1    3    3  502    0  0.17737802440E+03  0.11880833271E+03  0.72036230976E+03  0.75133231050E+03  0.50400001928E-02 0.  1.
       -1    1    3    3    0  502 -0.17737802440E+03 -0.11880833271E+03 -0.13176893167E+03  0.25088131624E+03  0.50400001928E-02 0. -1.
</event>
<event>
 5   0  0.1146083E-02  0.8235953E+03  0.7818609E-02  0.9526478E-01
        1   -1    0    0  501    0  0.00000000000E+00  0.00000000000E+00  0.16031173072E+04  0.16031173072E+04  0.50400001928E-02 0.  1.
       -1   -1    0    0    0  501  0.00000000000E+00  0.00000000000E+00 -0.10577971837E+03  0.10577971849E+03  0.50400001928E-02 0. -1.
    10030    2    1    2    0    0  0.00000000000E+00  0.00000000000E+00  0.14973375888E+04  0.17088970257E+04  0.82359528258E+03 0.  0.
        4    1    3    3  502    0  0.25555504023E+03 -0.23511341610E+03  0.28941656303E+03  0.45205116621E+03  0.12699999809E+01 0. -1.
       -4    1    3    3    0  502 -0.25555504023E+03  0.23511341610E+03  0.12079210258E+04  0.12568458594E+04  0.12699999809E+01 0.  1.
</event>
<event>
 5   0  0.1025900E-02  0.7907832E+03  0.7818609E-02  0.9573455E-01
       -1   -1    0    0    0  501  0.00000000000E+00  0.00000000000E+00  0.38489697840E+03  0.38489697844E+03  0.50400001928E-02 0.  1.
        1   -1    0    0  501    0  0.00000000000E+00  0.00000000000E+00 -0.40617238586E+03  0.40617238589E+03  0.50400001928E-02 0. -1.
    10030    2    1    2    0    0  0.00000000000E+00  0.00000000000E+00 -0.21275407458E+02  0.79106936433E+03  0.79078321695E+03 0.  0.
        1    1    3    3  502    0  0.26351331483E+03 -0.59071258490E+02 -0.29954290549E+03  0.40330464035E+03  0.50400001928E-02 0. -1.
       -1    1    3    3    0  502 -0.26351331483E+03  0.59071258490E+02  0.27826749804E+03  0.38776472398E+03  0.50400001928E-02 0.  1.
</event>
<event>
 5   0  0.1817089E-02  0.7993505E+03  0.7818609E-02  0.9560958E-01
        2   -1    0    0  501    0  0.00000000000E+00  0.00000000000E+00  0.85825815246E+03  0.85825815246E+03  0.25500000920E-02 0.  1.
       -2   -1    0    0    0  501  0.00000000000E+00  0.00000000000E+00 -0.18612149858E+03  0.18612149860E+03  0.25500000920E-02 0. -1.
    10030    2    1    2    0    0  0.00000000000E+00  0.00000000000E+00  0.67213665387E+03  0.10443796511E+04  0.79935047012E+03 0.  0.
        2    1    3    3  502    0  0.19269387361E+03 -0.22267419297E+03  0.68913655626E+03  0.74941571796E+03  0.25500000920E-02 0.  1.
       -2    1    3    3    0  502 -0.19269387361E+03  0.22267419297E+03 -0.16999902387E+02  0.29496393310E+03  0.25500000920E-02 0. -1.
</event>
<event>
 5   0  0.1030323E-02  0.8059007E+03  0.7818609E-02  0.9551515E-01
       -1   -1    0    0    0  501  0.00000000000E+00  0.00000000000E+00  0.27319860299E+03  0.27319860303E+03  0.50400001928E-02 0. -1.
        1   -1    0    0  501    0  0.00000000000E+00  0.00000000000E+00 -0.59432577511E+03  0.59432577513E+03  0.50400001928E-02 0.  1.
    10030    2    1    2    0    0  0.00000000000E+00  0.00000000000E+00 -0.32112717212E+03  0.86752437817E+03  0.80590066760E+03 0.  0.
        3    1    3    3  502    0 -0.38794284890E+03 -0.46050489299E+02 -0.54278426693E+02  0.39441914176E+03  0.10100000352E+00 0.  1.
       -3    1    3    3    0  502  0.38794284890E+03  0.46050489299E+02 -0.26684874543E+03  0.47310523641E+03  0.10100000352E+00 0. -1.
</event>
<event>
 5   0  0.6872500E-03  0.8021840E+03  0.7818609E-02  0.9556861E-01
        3   -1    0    0  501    0  0.00000000000E+00  0.00000000000E+00  0.13922301330E+03  0.13922304994E+03  0.10100000352E+00 0. -1.
       -3   -1    0    0    0  501  0.00000000000E+00  0.00000000000E+00 -0.11555185082E+04  0.11555185126E+04  0.10100000352E+00 0.  1.
    10030    2    1    2    0    0  0.00000000000E+00  0.00000000000E+00 -0.10162954948E+04  0.12947415625E+04  0.80218400684E+03 0.  0.
        3    1    3    3  502    0 -0.11049354896E+03 -0.38005465992E+03 -0.61305184110E+03  0.72971428584E+03  0.10100000352E+00 0.  1.
       -3    1    3    3    0  502  0.11049354896E+03  0.38005465992E+03 -0.40324365375E+03  0.56502727666E+03  0.10100000352E+00 0. -1.
</event>
<event>
 5   0  0.1818665E-02  0.8001664E+03  0.7818609E-02  0.9559776E-01
        2   -1    0    0  501    0  0.00000000000E+00  0.00000000000E+00  0.11864573157E+04  0.11864573157E+04  0.25500000920E-02 0.  1.
       -2   -1    0    0    0  501  0.00000000000E+00  0.00000000000E+00 -0.13491134092E+03  0.13491134095E+03  0.25500000920E-02 0. -1.
    10030    2    1    2    0    0  0.00000000000E+00  0.00000000000E+00  0.10515459747E+04  0.13213686566E+04  0.80016635126E+03 0.  0.
        3    1    3    3  502    0  0.15391229621E+03 -0.13538522624E+03 -0.41606639703E+02  0.20916327851E+03  0.10100000352E+00 0. -1.
       -3    1    3    3    0  502 -0.15391229621E+03  0.13538522624E+03  0.10931526144E+04  0.11122053781E+04  0.10100000352E+00 0.  1.
</event>
<event>
 5   0  0.1025900E-02  0.7953591E+03  0.7818609E-02  0.9566759E-01
        1   -1    0    0  501    0  0.00000000000E+00  0.00000000000E+00  0.41480390485E+03  0.41480390488E+03  0.50400001928E-02 0.  1.
       -1   -1    0    0    0  501  0.00000000000E+00  0.00000000000E+00 -0.38126218063E+03  0.38126218066E+03  0.50400001928E-02 0. -1.
    10030    2    1    2    0    0  0.00000000000E+00  0.00000000000E+00  0.33541724216E+02  0.79606608554E+03  0.79535914233E+03 0.  0.
        1    1    3    3  502    0  0.84413977420E+02  0.30587397683E+03 -0.22315960746E+03  0.38792372925E+03  0.50400001928E-02 0. -1.
       -1    1    3    3    0  502 -0.84413977420E+02 -0.30587397683E+03  0.25670133168E+03  0.40814235629E+03  0.50400001928E-02 0.  1.
</event>
<event>
 5   0  0.1817089E-02  0.8215864E+03  0.7818609E-02  0.9529287E-01
        2   -1    0    0  501    0  0.00000000000E+00  0.00000000000E+00  0.11235276265E+04  0.11235276265E+04  0.25500000920E-02 0. -1.
       -2   -1    0    0    0  501  0.00000000000E+00  0.00000000000E+00 -0.15019749738E+03  0.15019749740E+03  0.25500000920E-02 0.  1.
    10030    2    1    2    0    0  0.00000000000E+00  0.00000000000E+00  0.97333012913E+03  0.12737251239E+04  0.82158636247E+03 0.  0.
        2    1    3    3  502    0 -0.19962558437E+03 -0.10810352068E+03  0.10174428999E+04  0.10424618936E+04  0.25500000920E-02 0. -1.
       -2    1    3    3    0  502  0.19962558437E+03  0.10810352068E+03 -0.44112770778E+02  0.23126323026E+03  0.25500000920E-02 0.  1.
</event>
<event>
 5   0  0.1038912E-02  0.8008632E+03  0.7818609E-02  0.9558768E-01
       -1   -1    0    0    0  501  0.00000000000E+00  0.00000000000E+00  0.34984023330E+03  0.34984023333E+03  0.50400001928E-02 0. -1.
        1   -1    0    0  501    0  0.00000000000E+00  0.00000000000E+00 -0.45833917768E+03  0.45833917771E+03  0.50400001928E-02 0.  1.
    10030    2    1    2    0    0  0.00000000000E+00  0.00000000000E+00 -0.10849894438E+03  0.80817941104E+03  0.80086324644E+03 0.  0.
        2    1    3    3  502    0  0.33347602516E+03  0.83481554957E+02  0.15297999255E+03  0.37626892976E+03  0.25500000920E-02 0. -1.
       -2    1    3    3    0  502 -0.33347602516E+03 -0.83481554957E+02 -0.26147893693E+03  0.43191048128E+03  0.25500000920E-02 0.  1.
</event>
<event>
 5   0  0.1818665E-02  0.8023648E+03  0.7818609E-02  0.9556600E-01
       -2   -1    0    0    0  501  0.00000000000E+00  0.00000000000E+00  0.39530343646E+03  0.39530343647E+03  0.25500000920E-02 0.  1.
        2   -1    0    0  501    0  0.00000000000E+00  0.00000000000E+00 -0.40714877015E+03  0.40714877016E+03  0.25500000920E-02 0. -1.
    10030    2    1    2    0    0  0.00000000000E+00  0.00000000000E+00 -0.11845333689E+02  0.80245220662E+03  0.80236477489E+03 0.  0.
        3    1    3    3  502    0 -0.35173904613E+03 -0.10012096467E+03  0.15902781789E+03  0.39879120000E+03  0.10100000352E+00 0.  1.
       -3    1    3    3    0  502  0.35173904613E+03  0.10012096467E+03 -0.17087315158E+03  0.40366100662E+03  0.10100000352E+00 0. -1.
</event>
<event>
 5   0  0.1673727E-02  0.8067314E+03  0.7818609E-02  0.9550324E-01
       -2   -1    0    0    0  501  0.00000000000E+00  0.00000000000E+00  0.29813097630E+03  0.29813097631E+03  0.25500000920E-02 0.  1.
        2   -1    0    0  501    0  0.00000000000E+00  0.00000000000E+00 -0.54574638870E+03  0.54574638871E+03  0.25500000920E-02 0. -1.
    10030    2    1    2    0    0  0.00000000000E+00  0.00000000000E+00 -0.24761541240E+03  0.84387736502E+03  0.80673143904E+03 0.  0.
        5    1    3    3  502    0 -0.13338797868E+03  0.38060168759E+03 -0.11790739767E+03  0.42020737961E+03  0.46999998093E+01 0.  1.
       -5    1    3    3    0  502  0.13338797868E+03 -0.38060168759E+03 -0.12970801473E+03  0.42366998541E+03  0.46999998093E+01 0. -1.
</event>
<event>
 5   0  0.1038912E-02  0.8023573E+03  0.7818609E-02  0.9556611E-01
       -1   -1    0    0    0  501  0.00000000000E+00  0.00000000000E+00  0.99021378591E+03  0.99021378592E+03  0.50400001928E-02 0. -1.
        1   -1    0    0  501    0  0.00000000000E+00  0.00000000000E+00 -0.16253490430E+03  0.16253490437E+03  0.50400001928E-02 0.  1.
    10030    2    1    2    0    0  0.00000000000E+00  0.00000000000E+00  0.82767888161E+03  0.11527486903E+04  0.80235728445E+03 0.  0.
        2    1    3    3  502    0  0.22363963854E+03  0.62940217840E+02 -0.56048249466E+02  0.23899281417E+03  0.25500000920E-02 0.  1.
       -2    1    3    3    0  502 -0.22363963854E+03 -0.62940217840E+02  0.88372713108E+03  0.91375587613E+03  0.25500000920E-02 0. -1.
</event>
<event>
 5   0  0.1818665E-02  0.8031072E+03  0.7818609E-02  0.9555530E-01
       -2   -1    0    0    0  501  0.00000000000E+00  0.00000000000E+00  0.64562985835E+02  0.64562985885E+02  0.25500000920E-02 0.  1.
        2   -1    0    0  501    0  0.00000000000E+00  0.00000000000E+00 -0.24974879418E+04  0.24974879418E+04  0.25500000920E-02 0. -1.
    10030    2    1    2    0    0  0.00000000000E+00  0.00000000000E+00 -0.24329249560E+04  0.25620509277E+04  0.80310716265E+03 0.  0.
        3    1    3    3  502    0 -0.29006072264E+02  0.19600828252E+03 -0.23306720519E+04  0.23390794819E+04  0.10100000352E+00 0. -1.
       -3    1    3    3    0  502  0.29006072264E+02 -0.19600828252E+03 -0.10225290410E+03  0.22297144580E+03  0.10100000352E+00 0.  1.
</event>
<event>
 5   0  0.1747544E-02  0.8049837E+03  0.7818609E-02  0.9552831E-01
        2   -1    0    0  501    0  0.00000000000E+00  0.00000000000E+00  0.99032785731E+03  0.99032785732E+03  0.25500000920E-02 0. -1.
       -2   -1    0    0    0  501  0.00000000000E+00  0.00000000000E+00 -0.16358187474E+03  0.16358187476E+03  0.25500000920E-02 0.  1.
    10030    2    1    2    0    0  0.00000000000E+00  0.00000000000E+00  0.82674598257E+03  0.11539097321E+04  0.80498369553E+03 0.  0.
        1    1    3    3  502    0  0.97182470670E+02  0.63717872818E+02  0.96575698798E+03  0.97272347550E+03  0.50400001928E-02 0. -1.
       -1    1    3    3    0  502 -0.97182470670E+02 -0.63717872818E+02 -0.13901100541E+03  0.18118625658E+03  0.50400001928E-02 0.  1.
</event>
<event>
 5   0  0.1049780E-02  0.8089429E+03  0.7818609E-02  0.9547162E-01
        1   -1    0    0  501    0  0.00000000000E+00  0.00000000000E+00  0.83252610589E+03  0.83252610591E+03  0.50400001928E-02 0. -1.
       -1   -1    0    0    0  501  0.00000000000E+00  0.00000000000E+00 -0.19650692770E+03  0.19650692777E+03  0.50400001928E-02 0.  1.
    10030    2    1    2    0    0  0.00000000000E+00  0.00000000000E+00  0.63601917819E+03  0.10290330337E+04  0.80894288387E+03 0.  0.
        5    1    3    3  502    0 -0.15753672732E+03  0.22268010735E+03 -0.61849747431E+02  0.27973511027E+03  0.46999998093E+01 0.  1.
       -5    1    3    3    0  502  0.15753672732E+03 -0.22268010735E+03  0.69786892562E+03  0.74929792340E+03  0.46999998093E+01 0. -1.
</event>
<event>
 5   0  0.1818665E-02  0.8011639E+03  0.7818609E-02  0.9558334E-01
       -2   -1    0    0    0  501  0.00000000000E+00  0.00000000000E+00  0.39587258878E+03  0.39587258878E+03  0.25500000920E-02 0.  1.
        2   -1    0    0  501    0  0.00000000000E+00  0.00000000000E+00 -0.40534729597E+03  0.40534729598E+03  0.25500000920E-02 0. -1.
    10030    2    1    2    0    0  0.00000000000E+00  0.00000000000E+00 -0.94747071990E+01  0.80121988477E+03  0.80116386193E+03 0.  0.
        3    1    3    3  502    0 -0.39129089881E+01 -0.29264180727E+03  0.26879838081E+03  0.39737528603E+03  0.10100000352E+00 0.  1.
       -3    1    3    3    0  502  0.39129089881E+01  0.29264180727E+03 -0.27827308801E+03  0.40384459874E+03  0.10100000352E+00 0. -1.
</event>
<event>
 5   0  0.1146083E-02  0.8021660E+03  0.7818609E-02  0.9556887E-01
       -1   -1    0    0    0  501  0.00000000000E+00  0.00000000000E+00  0.60484271757E+03  0.60484271759E+03  0.50400001928E-02 0.  1.
        1   -1    0    0  501    0  0.00000000000E+00  0.00000000000E+00 -0.26596593972E+03  0.26596593977E+03  0.50400001928E-02 0. -1.
    10030    2    1    2    0    0  0.00000000000E+00  0.00000000000E+00  0.33887677785E+03  0.87080865736E+03  0.80216597233E+03 0.  0.
        4    1    3    3  502    0 -0.27181475535E+03 -0.21843862020E+03 -0.45678141379E+02  0.35169133842E+03  0.12699999809E+01 0. -1.
       -4    1    3    3    0  502  0.27181475535E+03  0.21843862020E+03  0.38455491923E+03  0.51911731894E+03  0.12699999809E+01 0.  1.
</event>
<event>
 5   0  0.1025900E-02  0.7981829E+03  0.7818609E-02  0.9562651E-01
       -1   -1    0    0    0  501  0.00000000000E+00  0.00000000000E+00  0.76084052898E+02  0.76084053065E+02  0.50400001928E-02 0.  1.
        1   -1    0    0  501    0  0.00000000000E+00  0.00000000000E+00 -0.20933950437E+04  0.20933950437E+04  0.50400001928E-02 0. -1.
    10030    2    1    2    0    0  0.00000000000E+00  0.00000000000E+00 -0.20173109908E+04  0.21694790967E+04  0.79818288487E+03 0.  0.
        1    1    3    3  502    0  0.33472669340E+03 -0.81080562761E+02 -0.46059832493E+03  0.57512332058E+03  0.50400001928E-02 0.  1.
       -1    1    3    3    0  502 -0.33472669340E+03  0.81080562761E+02 -0.15567126659E+04  0.15943557762E+04  0.50400001928E-02 0. -1.
</event>
<event>
 5   0  0.1030323E-02  0.8082543E+03  0.7818609E-02  0.9548146E-01
       -1   -1    0    0    0  501  0.00000000000E+00  0.00000000000E+00  0.17883950330E+03  0.17883950337E+03  0.50400001928E-02 0. -1.
        1   -1    0    0  501    0  0.00000000000E+00  0.00000000000E+00 -0.91321406000E+03  0.91321406001E+03  0.50400001928E-02 0.  1.
    10030    2    1    2    0    0  0.00000000000E+00  0.00000000000E+00 -0.73437455670E+03  0.10920535634E+04  0.80825428906E+03 0.  0.
        3    1    3    3  502    0 -0.30534186103E+03  0.21250573305E+02 -0.10649926818E+02  0.30626568549E+03  0.10100000352E+00 0. -1.
       -3    1    3    3    0  502  0.30534186103E+03 -0.21250573305E+02 -0.72372462988E+03  0.78578787790E+03  0.10100000352E+00 0.  1.
</event>
<event>
 5   0  0.1731337E-02  0.7885212E+03  0.7818609E-02  0.9576782E-01
       -2   -1    0    0    0  501  0.00000000000E+00  0.00000000000E+00  0.10206010672E+03  0.10206010675E+03  0.25500000920E-02 0.  1.
        2   -1    0    0  501    0  0.00000000000E+00  0.00000000000E+00 -0.15230378904E+04  0.15230378904E+04  0.25500000920E-02 0. -1.
    10030    2    1    2    0    0  0.00000000000E+00  0.00000000000E+00 -0.14209777837E+04  0.16250979971E+04  0.78852117195E+03 0.  0.
        4    1    3    3  502    0 -0.10182657646E+03 -0.29248712765E+03 -0.20767588279E+03  0.37289174932E+03  0.12699999809E+01 0.  1.
       -4    1    3    3    0  502  0.10182657646E+03  0.29248712765E+03 -0.12133019009E+04  0.12522062478E+04  0.12699999809E+01 0. -1.
</event>
<event>
 5   0  0.1731337E-02  0.7986697E+03  0.7818609E-02  0.9561945E-01
       -2   -1    0    0    0  501  0.00000000000E+00  0.00000000000E+00  0.78402695363E+02  0.78402695405E+02  0.25500000920E-02 0. -1.
        2   -1    0    0  501    0  0.00000000000E+00  0.00000000000E+00 -0.20339646044E+04  0.20339646044E+04  0.25500000920E-02 0.  1.
    10030    2    1    2    0    0  0.00000000000E+00  0.00000000000E+00 -0.19555619090E+04  0.21123672998E+04  0.79866966214E+03 0.  0.
        4    1    3    3  502    0 -0.53232166526E+02 -0.16757481513E+03 -0.19260709761E+04  0.19340801431E+04  0.12699999809E+01 0.  1.
       -4    1    3    3    0  502  0.53232166526E+02  0.16757481513E+03 -0.29490932973E+02  0.17828715670E+03  0.12699999809E+01 0. -1.
</event>
<event>
 5   0  0.6872500E-03  0.7990806E+03  0.7818609E-02  0.9561349E-01
       -4   -1    0    0    0  501  0.00000000000E+00  0.00000000000E+00  0.30789640476E+03  0.30789902398E+03  0.12699999809E+01 0. -1.
        4   -1    0    0  501    0  0.00000000000E+00  0.00000000000E+00 -0.51845590568E+03  0.51845746116E+03  0.12699999809E+01 0.  1.
    10030    2    1    2    0    0  0.00000000000E+00  0.00000000000E+00 -0.21055950091E+03  0.82635648514E+03  0.79908055733E+03 0.  0.
        1    1    3    3  502    0  0.94951334051E+02 -0.37418610986E+03 -0.21175757627E+03  0.44030929105E+03  0.50400001928E-02 0. -1.
       -1    1    3    3    0  502 -0.94951334051E+02  0.37418610986E+03  0.11980753594E+01  0.38604719409E+03  0.50400001928E-02 0.  1.
</event>
<event>
 5   0  0.1030323E-02  0.8040915E+03  0.7818609E-02  0.9554114E-01
       -1   -1    0    0    0  501  0.00000000000E+00  0.00000000000E+00  0.16106346057E+03  0.16106346065E+03  0.50400001928E-02 0. -1.
        1   -1    0    0  501    0  0.00000000000E+00  0.00000000000E+00 -0.10035845571E+04  0.10035845571E+04  0.50400001928E-02 0.  1.
    10030    2    1    2    0    0  0.00000000000E+00  0.00000000000E+00 -0.84252109653E+03  0.11646480178E+04  0.80409154155E+03 0.  0.
        3    1    3    3  502    0  0.33203419363E+03  0.16460427334E+03 -0.19547921298E+03  0.41899093719E+03  0.10100000352E+00 0. -1.
       -3    1    3    3    0  502 -0.33203419363E+03 -0.16460427334E+03 -0.64704188355E+03  0.74565708057E+03  0.10100000352E+00 0.  1.
</event>
<event>
 5   0  0.1049780E-02  0.8121822E+03  0.7818609E-02  0.9542549E-01
        1   -1    0    0  501    0  0.00000000000E+00  0.00000000000E+00  0.91951136364E+03  0.91951136365E+03  0.50400001928E-02 0.  1.
       -1   -1    0    0    0  501  0.00000000000E+00  0.00000000000E+00 -0.17934523418E+03  0.17934523425E+03  0.50400001928E-02 0. -1.
    10030    2    1    2    0    0  0.00000000000E+00  0.00000000000E+00  0.74016612946E+03  0.10988565979E+04  0.81218219850E+03 0.  0.
        5    1    3    3  502    0 -0.78420855757E+02 -0.75739900768E+02 -0.15913594700E+03  0.19295777468E+03  0.46999998093E+01 0. -1.
       -5    1    3    3    0  502  0.78420855757E+02  0.75739900768E+02  0.89930207646E+03  0.90589882322E+03  0.46999998093E+01 0.  1.
</event>
<event>
 5   0  0.1817089E-02  0.7978802E+03  0.7818609E-02  0.9563090E-01
       -2   -1    0    0    0  501  0.00000000000E+00  0.00000000000E+00  0.80099266795E+02  0.80099266836E+02  0.25500000920E-02 0. -1.
        2   -1    0    0  501    0  0.00000000000E+00  0.00000000000E+00 -0.19869497361E+04  0.19869497361E+04  0.25500000920E-02 0.  1.
    10030    2    1    2    0    0  0.00000000000E+00  0.00000000000E+00 -0.19068504693E+04  0.20670490029E+04  0.79788023428E+03 0.  0.
        2    1    3    3  502    0 -0.15789871592E+03 -0.31428362498E+02 -0.18990519571E+04  0.19058641300E+04  0.25500000920E-02 0.  1.
       -2    1    3    3    0  502  0.15789871592E+03  0.31428362498E+02 -0.77985122436E+01  0.16118487292E+03  0.25500000920E-02 0. -1.
</event>
<event>
 5   0  0.1818665E-02  0.7973642E+03  0.7818609E-02  0.9563840E-01
        2   -1    0    0  501    0  0.00000000000E+00  0.00000000000E+00  0.40663866498E+03  0.40663866498E+03  0.25500000920E-02 0.  1.
       -2   -1    0    0    0  501  0.00000000000E+00  0.00000000000E+00 -0.39088122931E+03  0.39088122932E+03  0.25500000920E-02 0. -1.
    10030    2    1    2    0    0  0.00000000000E+00  0.00000000000E+00  0.15757435661E+02  0.79751989431E+03  0.79736421103E+03 0.  0.
        3    1    3    3  502    0  0.34618708563E+03  0.16917021351E+03 -0.94529513052E+02  0.39673656050E+03  0.10100000352E+00 0. -1.
       -3    1    3    3    0  502 -0.34618708563E+03 -0.16917021351E+03  0.11028694871E+03  0.40078333381E+03  0.10100000352E+00 0.  1.
</event>
<event>
 5   0  0.1747544E-02  0.7985907E+03  0.7818609E-02  0.9562059E-01
        2   -1    0    0  501    0  0.00000000000E+00  0.00000000000E+00  0.19438428758E+04  0.19438428758E+04  0.25500000920E-02 0. -1.
       -2   -1    0    0    0  501  0.00000000000E+00  0.00000000000E+00 -0.82021441357E+02  0.82021441396E+02  0.25500000920E-02 0.  1.
    10030    2    1    2    0    0  0.00000000000E+00  0.00000000000E+00  0.18618214345E+04  0.20258643172E+04  0.79859074497E+03 0.  0.
        1    1    3    3  502    0 -0.13497248885E+03  0.22642032021E+03  0.17006946124E+03  0.31369946737E+03  0.50400001928E-02 0.  1.
       -1    1    3    3    0  502  0.13497248885E+03 -0.22642032021E+03  0.16917519732E+04  0.17121648499E+04  0.50400001928E-02 0. -1.
</event>
<event>
 5   0  0.1817089E-02  0.8315657E+03  0.7818609E-02  0.9515418E-01
       -2   -1    0    0    0  501  0.00000000000E+00  0.00000000000E+00  0.24807029633E+03  0.24807029634E+03  0.25500000920E-02 0. -1.
        2   -1    0    0  501    0  0.00000000000E+00  0.00000000000E+00 -0.69688056444E+03  0.69688056445E+03  0.25500000920E-02 0.  1.
    10030    2    1    2    0    0  0.00000000000E+00  0.00000000000E+00 -0.44881026811E+03  0.94495086079E+03  0.83156567542E+03 0.  0.
        2    1    3    3  502    0  0.26122713072E+03 -0.28622852895E+03 -0.53162650482E+02  0.39114275147E+03  0.25500000920E-02 0. -1.
       -2    1    3    3    0  502 -0.26122713072E+03  0.28622852895E+03 -0.39564761763E+03  0.55380810932E+03  0.25500000920E-02 0.  1.
</event>
<event>
 5   0  0.1818665E-02  0.8105390E+03  0.7818609E-02  0.9544886E-01
        2   -1    0    0  501    0  0.00000000000E+00  0.00000000000E+00  0.10674899890E+04  0.10674899890E+04  0.25500000920E-02 0. -1.
       -2   -1    0    0    0  501  0.00000000000E+00  0.00000000000E+00 -0.15385939770E+03  0.15385939772E+03  0.25500000920E-02 0.  1.
    10030    2    1    2    0    0  0.00000000000E+00  0.00000000000E+00  0.91363059132E+03  0.12213493867E+04  0.81053899788E+03 0.  0.
        3    1    3    3  502    0 -0.39768331796E+03 -0.18250696580E+02  0.57115871052E+03  0.69620930195E+03  0.10100000352E+00 0.  1.
       -3    1    3    3    0  502  0.39768331796E+03  0.18250696580E+02  0.34247188080E+03  0.52514008479E+03  0.10100000352E+00 0. -1.
</event>
<event>
 5   0  0.1030323E-02  0.8008959E+03  0.7818609E-02  0.9558721E-01
        1   -1    0    0  501    0  0.00000000000E+00  0.00000000000E+00  0.75000978547E+03  0.75000978549E+03  0.50400001928E-02 0.  1.
       -1   -1    0    0    0  501  0.00000000000E+00  0.00000000000E+00 -0.21380863014E+03  0.21380863020E+03  0.50400001928E-02 0. -1.
    10030    2    1    2    0    0  0.00000000000E+00  0.00000000000E+00  0.53620115533E+03  0.96381841569E+03  0.80089591049E+03 0.  0.
        3    1    3    3  502    0 -0.30092739374E+03  0.26371589810E+03  0.24887650520E+03  0.47121427849E+03  0.10100000352E+00 0.  1.
       -3    1    3    3    0  502  0.30092739374E+03 -0.26371589810E+03  0.28732465013E+03  0.49260413720E+03  0.10100000352E+00 0. -1.
</event>
<event>
 5   0  0.1673727E-02  0.8085386E+03  0.7818609E-02  0.9547739E-01
       -2   -1    0    0    0  501  0.00000000000E+00  0.00000000000E+00  0.20960632747E+03  0.20960632748E+03  0.25500000920E-02 0.  1.
        2   -1    0    0  501    0  0.00000000000E+00  0.00000000000E+00 -0.77971716507E+03  0.77971716508E+03  0.25500000920E-02 0. -1.
    10030    2    1    2    0    0  0.00000000000E+00  0.00000000000E+00 -0.57011083760E+03  0.98932349256E+03  0.80853856171E+03 0.  0.
        5    1    3    3  502    0 -0.38982128304E+03  0.17467722157E+02 -0.15587599238E+03  0.42022038149E+03  0.46999998093E+01 0. -1.
       -5    1    3    3    0  502  0.38982128304E+03 -0.17467722157E+02 -0.41423484523E+03  0.56910311107E+03  0.46999998093E+01 0.  1.
</event>
<event>
 5   0  0.1049780E-02  0.8048444E+03  0.7818609E-02  0.9553031E-01
        1   -1    0    0  501    0  0.00000000000E+00  0.00000000000E+00  0.78611832776E+03  0.78611832778E+03  0.50400001928E-02 0. -1.
       -1   -1    0    0    0  501  0.00000000000E+00  0.00000000000E+00 -0.20600414848E+03  0.20600414854E+03  0.50400001928E-02 0.  1.
    10030    2    1    2    0    0  0.00000000000E+00  0.00000000000E+00  0.58011417928E+03  0.99212247632E+03  0.80484442411E+03 0.  0.
        5    1    3    3  502    0 -0.19643846039E+03 -0.13722559092E+03  0.68854663187E+03  0.72906617380E+03  0.46999998093E+01 0. -1.
       -5    1    3    3    0  502  0.19643846039E+03  0.13722559092E+03 -0.10843245260E+03  0.26305630252E+03  0.46999998093E+01 0.  1.
</event>
<event>
 5   0  0.1030323E-02  0.8854975E+03  0.7818609E-02  0.9443894E-01
       -1   -1    0    0    0  501  0.00000000000E+00  0.00000000000E+00  0.90262933076E+02  0.90262933217E+02  0.50400001928E-02 0.  1.
        1   -1    0    0  501    0  0.00000000000E+00  0.00000000000E+00 -0.21717271310E+04  0.21717271310E+04  0.50400001928E-02 0. -1.
    10030    2    1    2    0    0  0.00000000000E+00  0.00000000000E+00 -0.20814641979E+04  0.22619900642E+04  0.88549751180E+03 0.  0.
        3    1    3    3  502    0  0.43554533216E+03 -0.79072196994E+02 -0.10187128028E+04  0.11107330613E+04  0.10100000352E+00 0.  1.
       -3    1    3    3    0  502 -0.43554533216E+03  0.79072196994E+02 -0.10627513951E+04  0.11512570029E+04  0.10100000352E+00 0. -1.
</event>
<event>
 5   0  0.1818665E-02  0.7936001E+03  0.7818609E-02  0.9569327E-01
        2   -1    0    0  501    0  0.00000000000E+00  0.00000000000E+00  0.51189174373E+03  0.51189174374E+03  0.25500000920E-02 0.  1.
       -2   -1    0    0    0  501  0.00000000000E+00  0.00000000000E+00 -0.30758513646E+03  0.30758513647E+03  0.25500000920E-02 0. -1.
    10030    2    1    2    0    0  0.00000000000E+00  0.00000000000E+00  0.20430660727E+03  0.81947688021E+03  0.79360013068E+03 0.  0.
        3    1    3    3  502    0 -0.95651381287E+02  0.31321122286E+03  0.33351213151E+03  0.46741930741E+03  0.10100000352E+00 0.  1.
       -3    1    3    3    0  502  0.95651381287E+02 -0.31321122286E+03 -0.12920552424E+03  0.35205757280E+03  0.10100000352E+00 0. -1.
</event>
<event>
 5   0  0.1025900E-02  0.8011060E+03  0.7818609E-02  0.9558418E-01
       -1   -1    0    0    0  501  0.00000000000E+00  0.00000000000E+00  0.50454942226E+03  0.50454942229E+03  0.50400001928E-02 0.  1.
        1   -1    0    0  501    0  0.00000000000E+00  0.00000000000E+00 -0.31799208908E+03  0.31799208912E+03  0.50400001928E-02 0. -1.
    10030    2    1    2    0    0  0.00000000000E+00  0.00000000000E+00  0.18655733319E+03  0.82254151140E+03  0.80110604754E+03 0.  0.
        1    1    3    3  502    0  0.23952474940E+03 -0.22351325532E+03  0.32990657093E+03  0.46493937933E+03  0.50400001928E-02 0.  1.
       -1    1    3    3    0  502 -0.23952474940E+03  0.22351325532E+03 -0.14334923775E+03  0.35760213208E+03  0.50400001928E-02 0. -1.
</event>
<event>
 5   0  0.1030323E-02  0.8078770E+03  0.7818609E-02  0.9548685E-01
        1   -1    0    0  501    0  0.00000000000E+00  0.00000000000E+00  0.81521335903E+03  0.81521335905E+03  0.50400001928E-02 0. -1.
       -1   -1    0    0    0  501  0.00000000000E+00  0.00000000000E+00 -0.20015166758E+03  0.20015166764E+03  0.50400001928E-02 0.  1.
    10030    2    1    2    0    0  0.00000000000E+00  0.00000000000E+00  0.61506169146E+03  0.10153650267E+04  0.80787700371E+03 0.  0.
        3    1    3    3  502    0 -0.35388729984E+03 -0.42251735673E+02  0.54647714325E+03  0.65242525123E+03  0.10100000352E+00 0. -1.
       -3    1    3    3    0  502  0.35388729984E+03  0.42251735673E+02  0.68584548209E+02  0.36293977546E+03  0.10100000352E+00 0.  1.
</event>
<event>
 5   0  0.1038912E-02  0.8087587E+03  0.7818609E-02  0.9547425E-01
        1   -1    0    0  501    0  0.00000000000E+00  0.00000000000E+00  0.77656146358E+03  0.77656146360E+03  0.50400001928E-02 0. -1.
       -1   -1    0    0    0  501  0.00000000000E+00  0.00000000000E+00 -0.21057272030E+03  0.21057272036E+03  0.50400001928E-02 0.  1.
    10030    2    1    2    0    0  0.00000000000E+00  0.00000000000E+00  0.56598874329E+03  0.98713418396E+03  0.80875870296E+03 0.  0.
        2    1    3    3  502    0  0.68360579037E+02 -0.21139809396E+03  0.69539075272E+03  0.73002097358E+03  0.25500000920E-02 0. -1.
       -2    1    3    3    0  502 -0.68360579037E+02  0.21139809396E+03 -0.12940200943E+03  0.25711321037E+03  0.25500000920E-02 0.  1.
</event>
<event>
 5   0  0.1049780E-02  0.7819906E+03  0.7818609E-02  0.9586457E-01
        1   -1    0    0  501    0  0.00000000000E+00  0.00000000000E+00  0.53559638701E+03  0.53559638704E+03  0.50400001928E-02 0. -1.
       -1   -1    0    0    0  501  0.00000000000E+00  0.00000000000E+00 -0.28543379528E+03  0.28543379532E+03  0.50400001928E-02 0.  1.
    10030    2    1    2    0    0  0.00000000000E+00  0.00000000000E+00  0.25016259173E+03  0.82103018236E+03  0.78199056135E+03 0.  0.
        5    1    3    3  502    0 -0.23078858827E+03 -0.30642195157E+03  0.45831657859E+02  0.38636823852E+03  0.46999998093E+01 0.  1.
       -5    1    3    3    0  502  0.23078858827E+03  0.30642195157E+03  0.20433093388E+03  0.43466194383E+03  0.46999998093E+01 0. -1.
</event>
<event>
 5   0  0.1731337E-02  0.7921644E+03  0.7818609E-02  0.9571429E-01
        2   -1    0    0  501    0  0.00000000000E+00  0.00000000000E+00  0.21387409487E+03  0.21387409489E+03  0.25500000920E-02 0. -1.
       -2   -1    0    0    0  501  0.00000000000E+00  0.00000000000E+00 -0.73352090601E+03  0.73352090601E+03  0.25500000920E-02 0.  1.
    10030    2    1    2    0    0  0.00000000000E+00  0.00000000000E+00 -0.51964681114E+03  0.94739500090E+03  0.79216442700E+03 0.  0.
        4    1    3    3  502    0 -0.29732150549E+03 -0.11271045254E+03 -0.54227146252E+03  0.62862045441E+03  0.12699999809E+01 0.  1.
       -4    1    3    3    0  502  0.29732150549E+03  0.11271045254E+03  0.22624651389E+02  0.31877454649E+03  0.12699999809E+01 0. -1.
</event>
<event>
 5   0  0.1747544E-02  0.7565131E+03  0.7818609E-02  0.9625187E-01
       -2   -1    0    0    0  501  0.00000000000E+00  0.00000000000E+00  0.88277772118E+03  0.88277772118E+03  0.25500000920E-02 0. -1.
        2   -1    0    0  501    0  0.00000000000E+00  0.00000000000E+00 -0.16207704564E+03  0.16207704566E+03  0.25500000920E-02 0.  1.
    10030    2    1    2    0    0  0.00000000000E+00  0.00000000000E+00  0.72070067554E+03  0.10448547668E+04  0.75651306668E+03 0.  0.
        1    1    3    3  502    0  0.16144507401E+03 -0.19410561466E+03 -0.28673328757E+02  0.25409380428E+03  0.50400001928E-02 0.  1.
       -1    1    3    3    0  502 -0.16144507401E+03  0.19410561466E+03  0.74937400430E+03  0.79076096256E+03  0.50400001928E-02 0. -1.
</event>
<event>
 5   0  0.1146083E-02  0.7991359E+03  0.7818609E-02  0.9561269E-01
       -1   -1    0    0    0  501  0.00000000000E+00  0.00000000000E+00  0.53594330283E+03  0.53594330285E+03  0.50400001928E-02 0. -1.
        1   -1    0    0  501    0  0.00000000000E+00  0.00000000000E+00 -0.29789448588E+03  0.29789448592E+03  0.50400001928E-02 0.  1.
    10030    2    1    2    0    0  0.00000000000E+00  0.00000000000E+00  0.23804881695E+03  0.83383778877E+03  0.79913592006E+03 0.  0.
        4    1    3    3  502    0  0.18030613949E+03  0.11827235974E+03  0.47001576910E+03  0.51712193062E+03  0.12699999809E+01 0. -1.
       -4    1    3    3    0  502 -0.18030613949E+03 -0.11827235974E+03 -0.23196695215E+03  0.31671585816E+03  0.12699999809E+01 0.  1.
</event>
<event>
 5   0  0.1817089E-02  0.7956764E+03  0.7818609E-02  0.9566297E-01
        2   -1    0    0  501    0  0.00000000000E+00  0.00000000000E+00  0.67548013536E+03  0.67548013536E+03  0.25500000920E-02 0.  1.
       -2   -1    0    0    0  501  0.00000000000E+00  0.00000000000E+00 -0.23431515597E+03  0.23431515599E+03  0.25500000920E-02 0. -1.
    10030    2    1    2    0    0  0.00000000000E+00  0.00000000000E+00  0.44116497939E+03  0.90979529135E+03  0.79567639976E+03 0.  0.
        2    1    3    3  502    0 -0.31929969071E+01 -0.28970607632E+03  0.53233153298E+03  0.60606655319E+03  0.25500000920E-02 0.  1.
       -2    1    3    3    0  502  0.31929969071E+01  0.28970607632E+03 -0.91166553590E+02  0.30372873816E+03  0.25500000920E-02 0. -1.
</event>
<event>
 5   0  0.1049780E-02  0.7992191E+03  0.7818609E-02  0.9561148E-01
        1   -1    0    0  501    0  0.00000000000E+00  0.00000000000E+00  0.51353546981E+03  0.51353546983E+03  0.50400001928E-02 0. -1.
       -1   -1    0    0    0  501  0.00000000000E+00  0.00000000000E+00 -0.31095767763E+03  0.31095767767E+03  0.50400001928E-02 0.  1.
    10030    2    1    2    0    0  0.00000000000E+00  0.00000000000E+00  0.20257779218E+03  0.82449314750E+03  0.79921911163E+03 0.  0.
        5    1    3    3  502    0 -0.64463021275E+02  0.20998882635E+03 -0.24305537660E+03  0.32764125869E+03  0.46999998093E+01 0.  1.
       -5    1    3    3    0  502  0.64463021275E+02 -0.20998882635E+03  0.44563316878E+03  0.49685188881E+03  0.46999998093E+01 0. -1.
</event>
<event>
 5   0  0.1817089E-02  0.7656833E+03  0.7818609E-02  0.9611062E-01
       -2   -1    0    0    0  501  0.00000000000E+00  0.00000000000E+00  0.21073090051E+03  0.21073090052E+03  0.25500000920E-02 0. -1.
        2   -1    0    0  501    0  0.00000000000E+00  0.00000000000E+00 -0.69552090961E+03  0.69552090962E+03  0.25500000920E-02 0.  1.
    10030    2    1    2    0    0  0.00000000000E+00  0.00000000000E+00 -0.48479000911E+03  0.90625181014E+03  0.76568334868E+03 0.  0.
        2    1    3    3  502    0  0.38401431057E+02 -0.16906465794E+03  0.16160530138E+03  0.23701013040E+03  0.25500000920E-02 0. -1.
       -2    1    3    3    0  502 -0.38401431057E+02  0.16906465794E+03 -0.64639531049E+03  0.66924167974E+03  0.25500000920E-02 0.  1.
</event>
<event>
 5   0  0.1038912E-02  0.8135941E+03  0.7818609E-02  0.9540546E-01
       -1   -1    0    0    0  501  0.00000000000E+00  0.00000000000E+00  0.73848560532E+02  0.73848560704E+02  0.50400001928E-02 0. -1.
        1   -1    0    0  501    0  0.00000000000E+00  0.00000000000E+00 -0.22408540630E+04  0.22408540630E+04  0.50400001928E-02 0.  1.
    10030    2    1    2    0    0  0.00000000000E+00  0.00000000000E+00 -0.21670055025E+04  0.23147026237E+04  0.81359411778E+03 0.  0.
        2    1    3    3  502    0 -0.73125694397E+02  0.67556095630E+02 -0.22056608135E+04  0.22079064332E+04  0.25500000920E-02 0.  1.
       -2    1    3    3    0  502  0.73125694397E+02 -0.67556095630E+02  0.38655311057E+02  0.10679619056E+03  0.25500000920E-02 0. -1.
</event>
<event>
 5   0  0.1038912E-02  0.7921095E+03  0.7818609E-02  0.9571509E-01
        1   -1    0    0  501    0  0.00000000000E+00  0.00000000000E+00  0.20087831202E+04  0.20087831202E+04  0.50400001928E-02 0.  1.
       -1   -1    0    0    0  501  0.00000000000E+00  0.00000000000E+00 -0.78086756355E+02  0.78086756518E+02  0.50400001928E-02 0. -1.
    10030    2    1    2    0    0  0.00000000000E+00  0.00000000000E+00  0.19306963639E+04  0.20868698767E+04  0.79210948298E+03 0.  0.
        2    1    3    3  502    0  0.26954591247E+03  0.38230873997E+01  0.17297817511E+04  0.17506611669E+04  0.25500000920E-02 0.  1.
       -2    1    3    3    0  502 -0.26954591247E+03 -0.38230873997E+01  0.20091461275E+03  0.33620870981E+03  0.25500000920E-02 0. -1.
</event>
<event>
 5   0  0.1038912E-02  0.8020924E+03  0.7818609E-02  0.9556993E-01
       -1   -1    0    0    0  501  0.00000000000E+00  0.00000000000E+00  0.91377570642E+02  0.91377570781E+02  0.50400001928E-02 0.  1.
        1   -1    0    0  501    0  0.00000000000E+00  0.00000000000E+00 -0.17601480192E+04  0.17601480192E+04  0.50400001928E-02 0. -1.
    10030    2    1    2    0    0  0.00000000000E+00  0.00000000000E+00 -0.16687704485E+04  0.18515255899E+04  0.80209238893E+03 0.  0.
        2    1    3    3  502    0 -0.22044676464E+02  0.38137246867E+03 -0.11162249667E+04  0.11797834987E+04  0.25500000920E-02 0. -1.
       -2    1    3    3    0  502  0.22044676464E+02 -0.38137246867E+03 -0.55254548185E+03  0.67174209123E+03  0.25500000920E-02 0.  1.
</event>
<event>
 5   0  0.1731337E-02  0.8180680E+03  0.7818609E-02  0.9534226E-01
        2   -1    0    0  501    0  0.00000000000E+00  0.00000000000E+00  0.83879714884E+03  0.83879714885E+03  0.25500000920E-02 0.  1.
       -2   -1    0    0    0  501  0.00000000000E+00  0.00000000000E+00 -0.19946280006E+03  0.19946280008E+03  0.25500000920E-02 0. -1.
    10030    2    1    2    0    0  0.00000000000E+00  0.00000000000E+00  0.63933434878E+03  0.10382599489E+04  0.81806803630E+03 0.  0.
        4    1    3    3  502    0 -0.21988853900E+03 -0.31254981503E+03  0.13457469646E+03  0.40515468440E+03  0.12699999809E+01 0. -1.
       -4    1    3    3    0  502  0.21988853900E+03  0.31254981503E+03  0.50475965232E+03  0.63310526453E+03  0.12699999809E+01 0.  1.
</event>
<event>
 5   0  0.1049780E-02  0.8063355E+03  0.7818609E-02  0.9550892E-01
        1   -1    0    0  501    0  0.00000000000E+00  0.00000000000E+00  0.32535091245E+03  0.32535091249E+03  0.50400001928E-02 0. -1.
       -1   -1    0    0    0  501  0.00000000000E+00  0.00000000000E+00 -0.49959662285E+03  0.49959662288E+03  0.50400001928E-02 0.  1.
    10030    2    1    2    0    0  0.00000000000E+00  0.00000000000E+00 -0.17424571040E+03  0.82494753537E+03  0.80633545657E+03 0.  0.
        5    1    3    3  502    0  0.15229104058E+03 -0.36931378332E+03 -0.31678821083E+02  0.40076285917E+03  0.46999998093E+01 0.  1.
       -5    1    3    3    0  502 -0.15229104058E+03  0.36931378332E+03 -0.14256688932E+03  0.42418467619E+03  0.46999998093E+01 0. -1.
</event>
<event>
 5   0  0.1673727E-02  0.7993008E+03  0.7818609E-02  0.9561030E-01
       -2   -1    0    0    0  501  0.00000000000E+00  0.00000000000E+00  0.17685624581E+03  0.17685624583E+03  0.25500000920E-02 0. -1.
        2   -1    0    0  501    0  0.00000000000E+00  0.00000000000E+00 -0.90310888445E+03  0.90310888445E+03  0.25500000920E-02 0.  1.
    10030    2    1    2    0    0  0.00000000000E+00  0.00000000000E+00 -0.72625263864E+03  0.10799651303E+04  0.79930081165E+03 0.  0.
        5    1    3    3  502    0 -0.34366838717E+03 -0.41080144038E+01 -0.87635023381E+02  0.35472076827E+03  0.46999998093E+01 0. -1.
       -5    1    3    3    0  502  0.34366838717E+03  0.41080144038E+01 -0.63861761526E+03  0.72524436202E+03  0.46999998093E+01 0.  1.
</event>
<event>
 5   0  0.1673727E-02  0.7991858E+03  0.7818609E-02  0.9561196E-01
        2   -1    0    0  501    0  0.00000000000E+00  0.00000000000E+00  0.13159003499E+04  0.13159003499E+04  0.25500000920E-02 0. -1.
       -2   -1    0    0    0  501  0.00000000000E+00  0.00000000000E+00 -0.12134239638E+03  0.12134239640E+03  0.25500000920E-02 0.  1.
    10030    2    1    2    0    0  0.00000000000E+00  0.00000000000E+00  0.11945579535E+04  0.14372427463E+04  0.79918584038E+03 0.  0.
        5    1    3    3  502    0 -0.39776832999E+03  0.36397852773E+02  0.57859275479E+03  0.70309040238E+03  0.46999998093E+01 0.  1.
       -5    1    3    3    0  502  0.39776832999E+03 -0.36397852773E+02  0.61596519869E+03  0.73415234388E+03  0.46999998093E+01 0. -1.
</event>
<event>
 5   0  0.1731337E-02  0.7996766E+03  0.7818609E-02  0.9560485E-01
       -2   -1    0    0    0  501  0.00000000000E+00  0.00000000000E+00  0.39355497943E+03  0.39355497944E+03  0.25500000920E-02 0.  1.
        2   -1    0    0  501    0  0.00000000000E+00  0.00000000000E+00 -0.40622197641E+03  0.40622197642E+03  0.25500000920E-02 0. -1.
    10030    2    1    2    0    0  0.00000000000E+00  0.00000000000E+00 -0.12666996979E+02  0.79977695585E+03  0.79967663859E+03 0.  0.
        4    1    3    3  502    0 -0.10115874767E+03  0.35196555370E+03 -0.16684109319E+03  0.40243062321E+03  0.12699999809E+01 0. -1.
       -4    1    3    3    0  502  0.10115874767E+03 -0.35196555370E+03  0.15417409621E+03  0.39734633264E+03  0.12699999809E+01 0.  1.
</event>
<event>
 5   0  0.1146083E-02  0.8024614E+03  0.7818609E-02  0.9556461E-01
        1   -1    0    0  501    0  0.00000000000E+00  0.00000000000E+00  0.61266248654E+03  0.61266248656E+03  0.50400001928E-02 0. -1.
       -1   -1    0    0    0  501  0.00000000000E+00  0.00000000000E+00 -0.26276468732E+03  0.26276468737E+03  0.50400001928E-02 0.  1.
    10030    2    1    2    0    0  0.00000000000E+00  0.00000000000E+00  0.34989779922E+03  0.87542717393E+03  0.80246138035E+03 0.  0.
        4    1    3    3  502    0  0.32835059421E+03  0.18829021780E+03  0.29740202052E+02  0.37967540262E+03  0.12699999809E+01 0.  1.
       -4    1    3    3    0  502 -0.32835059421E+03 -0.18829021780E+03  0.32015759717E+03  0.49575177131E+03  0.12699999809E+01 0. -1.
</event>
<event>
 5   0  0.1038912E-02  0.8020237E+03  0.7818609E-02  0.9557092E-01
       -1   -1    0    0    0  501  0.00000000000E+00  0.00000000000E+00  0.23092924261E+03  0.23092924267E+03  0.50400001928E-02 0. -1.
        1   -1    0    0  501    0  0.00000000000E+00  0.00000000000E+00 -0.69636268909E+03  0.69636268911E+03  0.50400001928E-02 0.  1.
    10030    2    1    2    0    0  0.00000000000E+00  0.00000000000E+00 -0.46543344647E+03  0.92729193178E+03  0.80202371140E+03 0.  0.
        2    1    3    3  502    0 -0.94985175484E+02 -0.33610294247E+02 -0.68148933229E+03  0.68889734030E+03  0.25500000920E-02 0.  1.
       -2    1    3    3    0  502  0.94985175484E+02  0.33610294247E+02  0.21605588582E+03  0.23839459147E+03  0.25500000920E-02 0. -1.
</event>
<event>
 5   0  0.6872500E-03  0.8160592E+03  0.7818609E-02  0.9537059E-01
       -3   -1    0    0    0  501  0.00000000000E+00  0.00000000000E+00  0.18647963904E+03  0.18647966639E+03  0.10100000352E+00 0. -1.
        3   -1    0    0  501    0  0.00000000000E+00  0.00000000000E+00 -0.89279521943E+03  0.89279522514E+03  0.10100000352E+00 0.  1.
    10030    2    1    2    0    0  0.00000000000E+00  0.00000000000E+00 -0.70631558039E+03  0.10792748915E+04  0.81605918436E+03 0.  0.
        5    1    3    3  502    0 -0.22788507955E+03 -0.27788820243E+03 -0.97688826000E+02  0.37244953920E+03  0.46999998093E+01 0. -1.
       -5    1    3    3    0  502  0.22788507955E+03  0.27788820243E+03 -0.60862675439E+03  0.70682535233E+03  0.46999998093E+01 0.  1.
</event>
<event>
 5   0  0.1817089E-02  0.8100764E+03  0.7818609E-02  0.9545545E-01
        2   -1    0    0  501    0  0.00000000000E+00  0.00000000000E+00  0.16387704884E+04  0.16387704884E+04  0.25500000920E-02 0.  1.
       -2   -1    0    0    0  501  0.00000000000E+00  0.00000000000E+00 -0.10010916229E+03  0.10010916232E+03  0.25500000920E-02 0. -1.
    10030    2    1    2    0    0  0.00000000000E+00  0.00000000000E+00  0.15386613261E+04  0.17388796507E+04  0.81007639346E+03 0.  0.
        2    1    3    3  502    0  0.21330395401E+03 -0.12651849100E+03  0.81926270425E+02  0.26118464571E+03  0.25500000920E-02 0. -1.
       -2    1    3    3    0  502 -0.21330395401E+03  0.12651849100E+03  0.14567350557E+04  0.14776950050E+04  0.25500000920E-02 0.  1.
</event>
<event>
 5   0  0.1038912E-02  0.7811394E+03  0.7818609E-02  0.9587726E-01
       -1   -1    0    0    0  501  0.00000000000E+00  0.00000000000E+00  0.31587467903E+03  0.31587467907E+03  0.50400001928E-02 0.  1.
        1   -1    0    0  501    0  0.00000000000E+00  0.00000000000E+00 -0.48292785374E+03  0.48292785376E+03  0.50400001928E-02 0. -1.
    10030    2    1    2    0    0  0.00000000000E+00  0.00000000000E+00 -0.16705317470E+03  0.79880253283E+03  0.78113937507E+03 0.  0.
        2    1    3    3  502    0  0.16520648468E+03  0.32062794242E+03  0.69692029947E+02  0.36735873351E+03  0.25500000920E-02 0. -1.
       -2    1    3    3    0  502 -0.16520648468E+03 -0.32062794242E+03 -0.23674520465E+03  0.43144379932E+03  0.25500000920E-02 0.  1.
</event>
<event>
 5   0  0.1818665E-02  0.8117910E+03  0.7818609E-02  0.9543105E-01
       -2   -1    0    0    0  501  0.00000000000E+00  0.00000000000E+00  0.27786429719E+03  0.27786429721E+03  0.25500000920E-02 0.  1.
        2   -1    0    0  501    0  0.00000000000E+00  0.00000000000E+00 -0.59291946730E+03  0.59291946730E+03  0.25500000920E-02 0. -1.
    10030    2    1    2    0    0  0.00000000000E+00  0.00000000000E+00 -0.31505517010E+03  0.87078376451E+03  0.81179098561E+03 0.  0.
        3    1    3    3  502    0 -0.38699321065E+03  0.10060032536E+03 -0.23236097997E+03  0.46246708614E+03  0.10100000352E+00 0. -1.
       -3    1    3    3    0  502  0.38699321065E+03 -0.10060032536E+03 -0.82694190134E+02  0.40831667837E+03  0.10100000352E+00 0.  1.
</event>
<event>
 5   0  0.1673727E-02  0.7996424E+03  0.7818609E-02  0.9560535E-01
        2   -1    0    0  501    0  0.00000000000E+00  0.00000000000E+00  0.11314250238E+04  0.11314250238E+04  0.25500000920E-02 0. -1.
       -2   -1    0    0    0  501  0.00000000000E+00  0.00000000000E+00 -0.14128817404E+03  0.14128817406E+03  0.25500000920E-02 0.  1.
    10030    2    1    2    0    0  0.00000000000E+00  0.00000000000E+00  0.99013684973E+03  0.12727131978E+04  0.79964235928E+03 0.  0.
        5    1    3    3  502    0  0.14425740523E+03  0.14291208804E+03 -0.53055305894E+02  0.20993098712E+03  0.46999998093E+01 0.  1.
       -5    1    3    3    0  502 -0.14425740523E+03 -0.14291208804E+03  0.10431921556E+04  0.10627822107E+04  0.46999998093E+01 0. -1.
</event>
<event>
 5   0  0.1049780E-02  0.8176258E+03  0.7818609E-02  0.9534849E-01
       -1   -1    0    0    0  501  0.00000000000E+00  0.00000000000E+00  0.64443230262E+03  0.64443230264E+03  0.50400001928E-02 0.  1.
        1   -1    0    0  501    0  0.00000000000E+00  0.00000000000E+00 -0.25934139515E+03  0.25934139520E+03  0.50400001928E-02 0. -1.
    10030    2    1    2    0    0  0.00000000000E+00  0.00000000000E+00  0.38509090747E+03  0.90377369784E+03  0.81762576396E+03 0.  0.
        5    1    3    3  502    0  0.32308773882E+03 -0.18524871461E+03  0.37883482294E+03  0.53126329283E+03  0.46999998093E+01 0. -1.
       -5    1    3    3    0  502 -0.32308773882E+03  0.18524871461E+03  0.62560845310E+01  0.37251040500E+03  0.46999998093E+01 0.  1.
</event>
<event>
 5   0  0.1030323E-02  0.8109638E+03  0.7818609E-02  0.9544282E-01
       -1   -1    0    0    0  501  0.00000000000E+00  0.00000000000E+00  0.33025656593E+03  0.33025656597E+03  0.50400001928E-02 0.  1.
        1   -1    0    0  501    0  0.00000000000E+00  0.00000000000E+00 -0.49784195040E+03  0.49784195042E+03  0.50400001928E-02 0. -1.
    10030    2    1    2    0    0  0.00000000000E+00  0.00000000000E+00 -0.16758538447E+03  0.82809851639E+03  0.81096380422E+03 0.  0.
        3    1    3    3  502    0  0.28588731216E+03 -0.27578467303E+03 -0.16691798263E+03  0.43087163316E+03  0.10100000352E+00 0.  1.
       -3    1    3    3    0  502 -0.28588731216E+03  0.27578467303E+03 -0.66740183303E+00  0.39722688323E+03  0.10100000352E+00 0. -1.
</event>
<event>
 5   0  0.1818665E-02  0.8431170E+03  0.7818609E-02  0.9499622E-01
       -2   -1    0    0    0  501  0.00000000000E+00  0.00000000000E+00  0.14053509102E+03  0.14053509104E+03  0.25500000920E-02 0.  1.
        2   -1    0    0  501    0  0.00000000000E+00  0.00000000000E+00 -0.12645350834E+04  0.12645350834E+04  0.25500000920E-02 0. -1.
    10030    2    1    2    0    0  0.00000000000E+00  0.00000000000E+00 -0.11239999924E+04  0.14050701744E+04  0.84311696237E+03 0.  0.
        3    1    3    3  502    0 -0.24961295535E+03  0.29040211935E+02 -0.11260656918E+04  0.11537651034E+04  0.10100000352E+00 0. -1.
       -3    1    3    3    0  502  0.24961295535E+03 -0.29040211935E+02  0.20656994794E+01  0.25130507098E+03  0.10100000352E+00 0.  1.
</event>
<event>
 5   0  0.1747544E-02  0.8020669E+03  0.7818609E-02  0.9557030E-01
       -2   -1    0    0    0  501  0.00000000000E+00  0.00000000000E+00  0.25345860620E+03  0.25345860621E+03  0.25500000920E-02 0.  1.
        2   -1    0    0  501    0  0.00000000000E+00  0.00000000000E+00 -0.63453292534E+03  0.63453292535E+03  0.25500000920E-02 0. -1.
    10030    2    1    2    0    0  0.00000000000E+00  0.00000000000E+00 -0.38107431915E+03  0.88799153156E+03  0.80206690706E+03 0.  0.
        1    1    3    3  502    0  0.32320554326E+03 -0.20818631288E+03 -0.64186299638E+02  0.38977332535E+03  0.50400001928E-02 0.  1.
       -1    1    3    3    0  502 -0.32320554326E+03  0.20818631288E+03 -0.31688801951E+03  0.49821820621E+03  0.50400001928E-02 0. -1.
</event>
<event>
 5   0  0.1747544E-02  0.7951783E+03  0.7818609E-02  0.9567023E-01
        2   -1    0    0  501    0  0.00000000000E+00  0.00000000000E+00  0.66220665224E+03  0.66220665224E+03  0.25500000920E-02 0.  1.
       -2   -1    0    0    0  501  0.00000000000E+00  0.00000000000E+00 -0.23871266894E+03  0.23871266896E+03  0.25500000920E-02 0. -1.
    10030    2    1    2    0    0  0.00000000000E+00  0.00000000000E+00  0.42349398330E+03  0.90091932120E+03  0.79517826267E+03 0.  0.
        1    1    3    3  502    0 -0.23657005281E+03  0.85302975305E+02  0.56065105158E+03  0.61446854203E+03  0.50400001928E-02 0.  1.
       -1    1    3    3    0  502  0.23657005281E+03 -0.85302975305E+02 -0.13715706828E+03  0.28645077917E+03  0.50400001928E-02 0. -1.
</event>
<event>
 5   0  0.1817089E-02  0.8716198E+03  0.7818609E-02  0.9461770E-01
        2   -1    0    0  501    0  0.00000000000E+00  0.00000000000E+00  0.55179371063E+03  0.55179371063E+03  0.25500000920E-02 0. -1.
       -2   -1    0    0    0  501  0.00000000000E+00  0.00000000000E+00 -0.34420519086E+03  0.34420519087E+03  0.25500000920E-02 0.  1.
    10030    2    1    2    0    0  0.00000000000E+00  0.00000000000E+00  0.20758851976E+03  0.89599890151E+03  0.87161977832E+03 0.  0.
        2    1    3    3  502    0 -0.40940366247E+03 -0.10309636608E+03 -0.73503480803E+01  0.42224903453E+03  0.25500000920E-02 0. -1.
       -2    1    3    3    0  502  0.40940366247E+03  0.10309636608E+03  0.21493886784E+03  0.47374986697E+03  0.25500000920E-02 0.  1.
</event>
<event>
 5   0  0.1025900E-02  0.7985770E+03  0.7818609E-02  0.9562079E-01
        1   -1    0    0  501    0  0.00000000000E+00  0.00000000000E+00  0.45084073571E+03  0.45084073574E+03  0.50400001928E-02 0. -1.
       -1   -1    0    0    0  501  0.00000000000E+00  0.00000000000E+00 -0.35363113828E+03  0.35363113831E+03  0.50400001928E-02 0.  1.
    10030    2    1    2    0    0  0.00000000000E+00  0.00000000000E+00  0.97209597433E+02  0.80447187405E+03  0.79857704093E+03 0.  0.
        1    1    3    3  502    0 -0.89428792730E+02  0.25499700911E+02  0.43977977809E+03  0.44950416789E+03  0.50400001928E-02 0. -1.
       -1    1    3    3    0  502  0.89428792730E+02 -0.25499700911E+02 -0.34257018065E+03  0.35496770616E+03  0.50400001928E-02 0.  1.
</event>
<event>
 5   0  0.1747544E-02  0.7994664E+03  0.7818609E-02  0.9560790E-01
        2   -1    0    0  501    0  0.00000000000E+00  0.00000000000E+00  0.15677562008E+04  0.15677562008E+04  0.25500000920E-02 0. -1.
       -2   -1    0    0    0  501  0.00000000000E+00  0.00000000000E+00 -0.10192059199E+03  0.10192059202E+03  0.25500000920E-02 0.  1.
    10030    2    1    2    0    0  0.00000000000E+00  0.00000000000E+00  0.14658356088E+04  0.16696767928E+04  0.79946642233E+03 0.  0.
        1    1    3    3  502    0 -0.25970898810E+03  0.17959798237E+03  0.12448423888E+04  0.12842650687E+04  0.50400001928E-02 0. -1.
       -1    1    3    3    0  502  0.25970898810E+03 -0.17959798237E+03  0.22099322007E+03  0.38541172415E+03  0.50400001928E-02 0.  1.
</event>
<event>
 5   0  0.1731337E-02  0.8041720E+03  0.7818609E-02  0.9553998E-01
        2   -1    0    0  501    0  0.00000000000E+00  0.00000000000E+00  0.14973712868E+04  0.14973712868E+04  0.25500000920E-02 0. -1.
       -2   -1    0    0    0  501  0.00000000000E+00  0.00000000000E+00 -0.10797132642E+03  0.10797132645E+03  0.25500000920E-02 0.  1.
    10030    2    1    2    0    0  0.00000000000E+00  0.00000000000E+00  0.13893999604E+04  0.16053426133E+04  0.80417203136E+03 0.  0.
        4    1    3    3  502    0 -0.18937877282E+03 -0.32446873722E+03  0.40868790588E+03  0.55513214494E+03  0.12699999809E+01 0.  1.
       -4    1    3    3    0  502  0.18937877282E+03  0.32446873722E+03  0.98071205451E+03  0.10502104683E+04  0.12699999809E+01 0. -1.
</event>
<event>
 5   0  0.1818665E-02  0.8047720E+03  0.7818609E-02  0.9553135E-01
       -2   -1    0    0    0  501  0.00000000000E+00  0.00000000000E+00  0.56351325159E+03  0.56351325160E+03  0.25500000920E-02 0. -1.
        2   -1    0    0  501    0  0.00000000000E+00  0.00000000000E+00 -0.28733037344E+03  0.28733037345E+03  0.25500000920E-02 0.  1.
    10030    2    1    2    0    0  0.00000000000E+00  0.00000000000E+00  0.27618287816E+03  0.85084362505E+03  0.80477195037E+03 0.  0.
        3    1    3    3  502    0  0.35676198236E+03 -0.12719598747E+03 -0.55408106052E+01  0.37879894676E+03  0.10100000352E+00 0.  1.
       -3    1    3    3    0  502 -0.35676198236E+03  0.12719598747E+03  0.28172368876E+03  0.47204467828E+03  0.10100000352E+00 0. -1.
</event>
<event>
 5   0  0.1049780E-02  0.8031136E+03  0.7818609E-02  0.9555521E-01
       -1   -1    0    0    0  501  0.00000000000E+00  0.00000000000E+00  0.20850010419E+03  0.20850010425E+03  0.50400001928E-02 0. -1.
        1   -1    0    0  501    0  0.00000000000E+00  0.00000000000E+00 -0.77337062969E+03  0.77337062971E+03  0.50400001928E-02 0.  1.
    10030    2    1    2    0    0  0.00000000000E+00  0.00000000000E+00 -0.56487052550E+03  0.98187073395E+03  0.80311358326E+03 0.  0.
        5    1    3    3  502    0  0.12351904844E+03  0.13425395515E+03  0.15487379468E+03  0.23935133607E+03  0.46999998093E+01 0. -1.
       -5    1    3    3    0  502 -0.12351904844E+03 -0.13425395515E+03 -0.71974432018E+03  0.74251939788E+03  0.46999998093E+01 0.  1.
</event>
<event>
 5   0  0.6872500E-03  0.8047814E+03  0.7818609E-02  0.9553122E-01
       -4   -1    0    0    0  501  0.00000000000E+00  0.00000000000E+00  0.62457713376E+03  0.62457842496E+03  0.12699999809E+01 0. -1.
        4   -1    0    0  501    0  0.00000000000E+00  0.00000000000E+00 -0.25924155652E+03  0.25924466731E+03  0.12699999809E+01 0.  1.
    10030    2    1    2    0    0  0.00000000000E+00  0.00000000000E+00  0.36533557724E+03  0.88382309227E+03  0.80478144513E+03 0.  0.
        3    1    3    3  502    0  0.11519389102E+03  0.22383899212E+03  0.52741768950E+03  0.58441676595E+03  0.10100000352E+00 0. -1.
       -3    1    3    3    0  502 -0.11519389102E+03 -0.22383899212E+03 -0.16208211226E+03  0.29940632632E+03  0.10100000352E+00 0.  1.
</event>
<event>
 5   0  0.1747544E-02  0.8057051E+03  0.7818609E-02  0.9551796E-01
       -2   -1    0    0    0  501  0.00000000000E+00  0.00000000000E+00  0.24434204938E+03  0.24434204939E+03  0.25500000920E-02 0. -1.
        2   -1    0    0  501    0  0.00000000000E+00  0.00000000000E+00 -0.66419259783E+03  0.66419259784E+03  0.25500000920E-02 0.  1.
    10030    2    1    2    0    0  0.00000000000E+00  0.00000000000E+00 -0.41985054845E+03  0.90853464723E+03  0.80570510870E+03 0.  0.
        1    1    3    3  502    0  0.22000102096E+03 -0.25248199684E+03 -0.46242951847E+03  0.57095417288E+03  0.50400001928E-02 0.  1.
       -1    1    3    3    0  502 -0.22000102096E+03  0.25248199684E+03  0.42578970020E+02  0.33758047435E+03  0.50400001928E-02 0. -1.
</event>
<event>
 5   0  0.1731337E-02  0.8042564E+03  0.7818609E-02  0.9553876E-01
        2   -1    0    0  501    0  0.00000000000E+00  0.00000000000E+00  0.10239162411E+04  0.10239162411E+04  0.25500000920E-02 0. -1.
       -2   -1    0    0    0  501  0.00000000000E+00  0.00000000000E+00 -0.15793000049E+03  0.15793000051E+03  0.25500000920E-02 0.  1.
    10030    2    1    2    0    0  0.00000000000E+00  0.00000000000E+00  0.86598624057E+03  0.11818462416E+04  0.80425640804E+03 0.  0.
        4    1    3    3  502    0 -0.11664030912E+03 -0.36894435707E+03  0.59383730235E+03  0.70878011745E+03  0.12699999809E+01 0.  1.
       -4    1    3    3    0  502  0.11664030912E+03  0.36894435707E+03  0.27214893822E+03  0.47306612413E+03  0.12699999809E+01 0. -1.
</event>
<event>
 5   0  0.1818665E-02  0.8465545E+03  0.7818609E-02  0.9494973E-01
        2   -1    0    0  501    0  0.00000000000E+00  0.00000000000E+00  0.57649418210E+03  0.57649418210E+03  0.25500000920E-02 0.  1.
       -2   -1    0    0    0  501  0.00000000000E+00  0.00000000000E+00 -0.31078133738E+03  0.31078133739E+03  0.25500000920E-02 0. -1.
    10030    2    1    2    0    0  0.00000000000E+00  0.00000000000E+00  0.26571284472E+03  0.88727551949E+03  0.84655450601E+03 0.  0.
        3    1    3    3  502    0  0.11215599358E+03  0.17810215460E+03 -0.25204723689E+03  0.32837046791E+03  0.10100000352E+00 0. -1.
       -3    1    3    3    0  502 -0.11215599358E+03 -0.17810215460E+03  0.51776008161E+03  0.55890505158E+03  0.10100000352E+00 0.  1.
</event>
<event>
 5   0  0.1025900E-02  0.8942546E+03  0.7818609E-02  0.9432792E-01
       -1   -1    0    0    0  501  0.00000000000E+00  0.00000000000E+00  0.34512094616E+03  0.34512094619E+03  0.50400001928E-02 0. -1.
        1   -1    0    0  501    0  0.00000000000E+00  0.00000000000E+00 -0.57928332894E+03  0.57928332896E+03  0.50400001928E-02 0.  1.
    10030    2    1    2    0    0  0.00000000000E+00  0.00000000000E+00 -0.23416238279E+03  0.92440427516E+03  0.89425457361E+03 0.  0.
        1    1    3    3  502    0 -0.30468475395E+03  0.32714095699E+03 -0.10850661815E+03  0.46003009819E+03  0.50400001928E-02 0. -1.
       -1    1    3    3    0  502  0.30468475395E+03 -0.32714095699E+03 -0.12565576463E+03  0.46437417697E+03  0.50400001928E-02 0.  1.
</event>
<event>
 5   0  0.1817089E-02  0.7999663E+03  0.7818609E-02  0.9560066E-01
       -2   -1    0    0    0  501  0.00000000000E+00  0.00000000000E+00  0.16113256861E+03  0.16113256863E+03  0.25500000920E-02 0. -1.
        2   -1    0    0  501    0  0.00000000000E+00  0.00000000000E+00 -0.99288747057E+03  0.99288747057E+03  0.25500000920E-02 0.  1.
    10030    2    1    2    0    0  0.00000000000E+00  0.00000000000E+00 -0.83175490195E+03  0.11540200392E+04  0.79996627051E+03 0.  0.
        2    1    3    3  502    0  0.22704731914E+03 -0.16900895545E+03 -0.81791101611E+01  0.28316322148E+03  0.25500000920E-02 0. -1.
       -2    1    3    3    0  502 -0.22704731914E+03  0.16900895545E+03 -0.82357579179E+03  0.87085681773E+03  0.25500000920E-02 0.  1.
</event>
<event>
 5   0  0.1025900E-02  0.7852840E+03  0.7818609E-02  0.9581566E-01
       -1   -1    0    0    0  501  0.00000000000E+00  0.00000000000E+00  0.45796306872E+03  0.45796306875E+03  0.50400001928E-02 0.  1.
        1   -1    0    0  501    0  0.00000000000E+00  0.00000000000E+00 -0.33663795148E+03  0.33663795152E+03  0.50400001928E-02 0. -1.
    10030    2    1    2    0    0  0.00000000000E+00  0.00000000000E+00  0.12132511724E+03  0.79460102027E+03  0.78528402335E+03 0.  0.
        1    1    3    3  502    0 -0.26704375908E+03 -0.24149694196E+03 -0.97831107084E+02  0.37310061348E+03  0.50400001928E-02 0.  1.
       -1    1    3    3    0  502  0.26704375908E+03  0.24149694196E+03  0.21915622433E+03  0.42150040679E+03  0.50400001928E-02 0. -1.
</event>
<event>
 5   0  0.1038912E-02  0.8010543E+03  0.7818609E-02  0.9558492E-01
       -1   -1    0    0    0  501  0.00000000000E+00  0.00000000000E+00  0.11420552493E+04  0.11420552493E+04  0.50400001928E-02 0.  1.
        1   -1    0    0  501    0  0.00000000000E+00  0.00000000000E+00 -0.14046779088E+03  0.14046779097E+03  0.50400001928E-02 0. -1.
    10030    2    1    2    0    0  0.00000000000E+00  0.00000000000E+00  0.10015874584E+04  0.12825230403E+04  0.80105425034E+03 0.  0.
        2    1    3    3  502    0  0.19285257318E+03 -0.26608173301E+03  0.13419181685E+03  0.35496344508E+03  0.25500000920E-02 0. -1.
       -2    1    3    3    0  502 -0.19285257318E+03  0.26608173301E+03  0.86739564158E+03  0.92755959521E+03  0.25500000920E-02 0.  1.
</event>
<event>
 5   0  0.1673727E-02  0.8030597E+03  0.7818609E-02  0.9555599E-01
       -2   -1    0    0    0  501  0.00000000000E+00  0.00000000000E+00  0.15301502890E+04  0.15301502890E+04  0.25500000920E-02 0.  1.
        2   -1    0    0  501    0  0.00000000000E+00  0.00000000000E+00 -0.10536625182E+03  0.10536625185E+03  0.25500000920E-02 0. -1.
    10030    2    1    2    0    0  0.00000000000E+00  0.00000000000E+00  0.14247840372E+04  0.16355165408E+04  0.80305965083E+03 0.  0.
        5    1    3    3  502    0  0.59692602245E+02  0.32278570895E+03  0.11832415778E+04  0.12279399586E+04  0.46999998093E+01 0.  1.
       -5    1    3    3    0  502 -0.59692602245E+02 -0.32278570895E+03  0.24154245939E+03  0.40757658220E+03  0.46999998093E+01 0. -1.
</event>
<event>
 5   0  0.1025900E-02  0.8077955E+03  0.7818609E-02  0.9548801E-01
        1   -1    0    0  501    0  0.00000000000E+00  0.00000000000E+00  0.12519911667E+04  0.12519911667E+04  0.50400001928E-02 0.  1.
       -1   -1    0    0    0  501  0.00000000000E+00  0.00000000000E+00 -0.13029916357E+03  0.13029916367E+03  0.50400001928E-02 0. -1.
    10030    2    1    2    0    0  0.00000000000E+00  0.00000000000E+00  0.11216920031E+04  0.13822903304E+04  0.80779552338E+03 0.  0.
        1    1    3    3  502    0  0.32348033416E+02 -0.13644397968E+03 -0.87308360575E+02  0.16518506200E+03  0.50400001928E-02 0. -1.
       -1    1    3    3    0  502 -0.32348033416E+02  0.13644397968E+03  0.12090003637E+04  0.12171052684E+04  0.50400001928E-02 0.  1.
</event>
<event>
 5   0  0.1731337E-02  0.8057258E+03  0.7818609E-02  0.9551766E-01
       -2   -1    0    0    0  501  0.00000000000E+00  0.00000000000E+00  0.66397679241E+02  0.66397679290E+02  0.25500000920E-02 0.  1.
        2   -1    0    0  501    0  0.00000000000E+00  0.00000000000E+00 -0.24443399679E+04  0.24443399679E+04  0.25500000920E-02 0. -1.
    10030    2    1    2    0    0  0.00000000000E+00  0.00000000000E+00 -0.23779422886E+04  0.25107376471E+04  0.80572576279E+03 0.  0.
        4    1    3    3  502    0 -0.14965801460E+03  0.28066491833E+03 -0.19593938964E+04  0.19850431663E+04  0.12699999809E+01 0. -1.
       -4    1    3    3    0  502  0.14965801460E+03 -0.28066491833E+03 -0.41854839217E+03  0.52569448085E+03  0.12699999809E+01 0.  1.
</event>
<event>
 5   0  0.6872500E-03  0.8009899E+03  0.7818609E-02  0.9558585E-01
        3   -1    0    0  501    0  0.00000000000E+00  0.00000000000E+00  0.63155459032E+03  0.63155459839E+03  0.10100000352E+00 0. -1.
       -3   -1    0    0    0  501  0.00000000000E+00  0.00000000000E+00 -0.25397040753E+03  0.25397042761E+03  0.10100000352E+00 0.  1.
    10030    2    1    2    0    0  0.00000000000E+00  0.00000000000E+00  0.37758418279E+03  0.88552502600E+03  0.80098986048E+03 0.  0.
        2    1    3    3  502    0  0.11999961048E+03 -0.50089630480E+00  0.61121196925E+03  0.62288058950E+03  0.25500000920E-02 0. -1.
       -2    1    3    3    0  502 -0.11999961048E+03  0.50089630480E+00 -0.23362778646E+03  0.26264443650E+03  0.25500000920E-02 0.  1.
</event>
<event>
 5   0  0.1818665E-02  0.7997932E+03  0.7818609E-02  0.9560316E-01
        2   -1    0    0  501    0  0.00000000000E+00  0.00000000000E+00  0.62840535683E+03  0.62840535684E+03  0.25500000920E-02 0.  1.
       -2   -1    0    0    0  501  0.00000000000E+00  0.00000000000E+00 -0.25448111355E+03  0.25448111357E+03  0.25500000920E-02 0. -1.
    10030    2    1    2    0    0  0.00000000000E+00  0.00000000000E+00  0.37392424328E+03  0.88288647040E+03  0.79979321072E+03 0.  0.
        3    1    3    3  502    0  0.13723600346E+03  0.62628954332E+02 -0.22186787373E+03  0.26829362676E+03  0.10100000352E+00 0. -1.
       -3    1    3    3    0  502 -0.13723600346E+03 -0.62628954332E+02  0.59579211701E+03  0.61459284364E+03  0.10100000352E+00 0.  1.
</event>
<event>
 5   0  0.1673727E-02  0.7974542E+03  0.7818609E-02  0.9563709E-01
       -2   -1    0    0    0  501  0.00000000000E+00  0.00000000000E+00  0.90144146745E+03  0.90144146745E+03  0.25500000920E-02 0. -1.
        2   -1    0    0  501    0  0.00000000000E+00  0.00000000000E+00 -0.17636561791E+03  0.17636561793E+03  0.25500000920E-02 0.  1.
    10030    2    1    2    0    0  0.00000000000E+00  0.00000000000E+00  0.72507584954E+03  0.10778070854E+04  0.79745415274E+03 0.  0.
        5    1    3    3  502    0  0.26074467390E+03 -0.25720377298E+03  0.57546599766E+03  0.68214717639E+03  0.46999998093E+01 0. -1.
       -5    1    3    3    0  502 -0.26074467390E+03  0.25720377298E+03  0.14960985188E+03  0.39565990899E+03  0.46999998093E+01 0.  1.
</event>
<event>
 5   0  0.1030323E-02  0.8063374E+03  0.7818609E-02  0.9550889E-01
       -1   -1    0    0    0  501  0.00000000000E+00  0.00000000000E+00  0.40395947129E+03  0.40395947132E+03  0.50400001928E-02 0. -1.
        1   -1    0    0  501    0  0.00000000000E+00  0.00000000000E+00 -0.40237943621E+03  0.40237943624E+03  0.50400001928E-02 0.  1.
    10030    2    1    2    0    0  0.00000000000E+00  0.00000000000E+00  0.15800350796E+01  0.80633890757E+03  0.80633735951E+03 0.  0.
        3    1    3    3  502    0  0.13272769134E+03  0.16747538187E+03  0.34266832826E+03  0.40383937027E+03  0.10100000352E+00 0. -1.
       -3    1    3    3    0  502 -0.13272769134E+03 -0.16747538187E+03 -0.34108829318E+03  0.40249953730E+03  0.10100000352E+00 0.  1.
</event>
<event>
 5   0  0.1817089E-02  0.8014496E+03  0.7818609E-02  0.9557921E-01
       -2   -1    0    0    0  501  0.00000000000E+00  0.00000000000E+00  0.38911828120E+03  0.38911828120E+03  0.25500000920E-02 0.  1.
        2   -1    0    0  501    0  0.00000000000E+00  0.00000000000E+00 -0.41267748892E+03  0.41267748893E+03  0.25500000920E-02 0. -1.
    10030    2    1    2    0    0  0.00000000000E+00  0.00000000000E+00 -0.23559207728E+02  0.80179577013E+03  0.80144957467E+03 0.  0.
        2    1    3    3  502    0 -0.96759866690E+02  0.38201242656E+03 -0.84504810112E+02  0.40303477367E+03  0.25500000920E-02 0. -1.
       -2    1    3    3    0  502  0.96759866690E+02 -0.38201242656E+03  0.60945602384E+02  0.39876099647E+03  0.25500000920E-02 0.  1.
</event>
<event>
 5   0  0.1731337E-02  0.7928486E+03  0.7818609E-02  0.9570427E-01
        2   -1    0    0  501    0  0.00000000000E+00  0.00000000000E+00  0.22693596053E+04  0.22693596053E+04  0.25500000920E-02 0.  1.
       -2   -1    0    0    0  501  0.00000000000E+00  0.00000000000E+00 -0.69249584726E+02  0.69249584773E+02  0.25500000920E-02 0. -1.
    10030    2    1    2    0    0  0.00000000000E+00  0.00000000000E+00  0.22001100205E+04  0.23386091900E+04  0.79284856136E+03 0.  0.
        4    1    3    3  502    0 -0.18283179899E+03  0.16158319410E+03  0.20216146979E+04  0.20362868646E+04  0.12699999809E+01 0.  1.
       -4    1    3    3    0  502  0.18283179899E+03 -0.16158319410E+03  0.17849532260E+03  0.30232232539E+03  0.12699999809E+01 0. -1.
</event>
<event>
 5   0  0.1731337E-02  0.7969253E+03  0.7818609E-02  0.9564478E-01
       -2   -1    0    0    0  501  0.00000000000E+00  0.00000000000E+00  0.41070502598E+03  0.41070502598E+03  0.25500000920E-02 0. -1.
        2   -1    0    0  501    0  0.00000000000E+00  0.00000000000E+00 -0.38658519450E+03  0.38658519451E+03  0.25500000920E-02 0.  1.
    10030    2    1    2    0    0  0.00000000000E+00  0.00000000000E+00  0.24119831475E+02  0.79729022049E+03  0.79692529727E+03 0.  0.
        4    1    3    3  502    0 -0.31515156334E+03 -0.16728263068E+03 -0.16541038573E+03  0.39327623245E+03  0.12699999809E+01 0.  1.
       -4    1    3    3    0  502  0.31515156334E+03  0.16728263068E+03  0.18953021721E+03  0.40401398805E+03  0.12699999809E+01 0. -1.
</event>
<event>
 5   0  0.1146083E-02  0.7972149E+03  0.7818609E-02  0.9564057E-01
        1   -1    0    0  501    0  0.00000000000E+00  0.00000000000E+00  0.36242205150E+03  0.36242205153E+03  0.50400001928E-02 0. -1.
       -1   -1    0    0    0  501  0.00000000000E+00  0.00000000000E+00 -0.43840575962E+03  0.43840575965E+03  0.50400001928E-02 0.  1.
    10030    2    1    2    0    0  0.00000000000E+00  0.00000000000E+00 -0.75983708128E+02  0.80082781119E+03  0.79721493919E+03 0.  0.
        4    1    3    3  502    0  0.12351954680E+03  0.37848474197E+03 -0.18448001307E+02  0.39855955640E+03  0.12699999809E+01 0. -1.
       -4    1    3    3    0  502 -0.12351954680E+03 -0.37848474197E+03 -0.57535706821E+02  0.40226825478E+03  0.12699999809E+01 0.  1.
</event>
<event>
 5   0  0.1030323E-02  0.8092008E+03  0.7818609E-02  0.9546794E-01
        1   -1    0    0  501    0  0.00000000000E+00  0.00000000000E+00  0.75893097720E+03  0.75893097722E+03  0.50400001928E-02 0. -1.
       -1   -1    0    0    0  501  0.00000000000E+00  0.00000000000E+00 -0.21570007974E+03  0.21570007980E+03  0.50400001928E-02 0.  1.
    10030    2    1    2    0    0  0.00000000000E+00  0.00000000000E+00  0.54323089746E+03  0.97463105702E+03  0.80920077197E+03 0.  0.
        3    1    3    3  502    0 -0.34552079157E+03  0.14209972793E+03  0.84541537273E+02  0.38304599177E+03  0.10100000352E+00 0.  1.
       -3    1    3    3    0  502  0.34552079157E+03 -0.14209972793E+03  0.45868936019E+03  0.59158506525E+03  0.10100000352E+00 0. -1.
</event>
<event>
 5   0  0.1025900E-02  0.8070253E+03  0.7818609E-02  0.9549904E-01
        1   -1    0    0  501    0  0.00000000000E+00  0.00000000000E+00  0.45044599829E+03  0.45044599832E+03  0.50400001928E-02 0.  1.
       -1   -1    0    0    0  501  0.00000000000E+00  0.00000000000E+00 -0.36146944869E+03  0.36146944873E+03  0.50400001928E-02 0. -1.
    10030    2    1    2    0    0  0.00000000000E+00  0.00000000000E+00  0.88976549597E+02  0.81191544705E+03  0.80702531979E+03 0.  0.
        1    1    3    3  502    0 -0.21651426539E+02  0.21151280435E+03 -0.30054173919E+03  0.36814642154E+03  0.50400001928E-02 0. -1.
       -1    1    3    3    0  502  0.21651426539E+02 -0.21151280435E+03  0.38951828878E+03  0.44376902550E+03  0.50400001928E-02 0.  1.
</event>
<event>
 5   0  0.1038912E-02  0.7941392E+03  0.7818609E-02  0.9568539E-01
        1   -1    0    0  501    0  0.00000000000E+00  0.00000000000E+00  0.63602002789E+03  0.63602002791E+03  0.50400001928E-02 0. -1.
       -1   -1    0    0    0  501  0.00000000000E+00  0.00000000000E+00 -0.24789200966E+03  0.24789200971E+03  0.50400001928E-02 0.  1.
    10030    2    1    2    0    0  0.00000000000E+00  0.00000000000E+00  0.38812801823E+03  0.88391203762E+03  0.79413923950E+03 0.  0.
        2    1    3    3  502    0 -0.13427126122E+03  0.34556413146E+03  0.35233928843E+03  0.51145509551E+03  0.25500000920E-02 0. -1.
       -2    1    3    3    0  502  0.13427126122E+03 -0.34556413146E+03  0.35788729798E+02  0.37245694211E+03  0.25500000920E-02 0.  1.
</event>
<event>
 5   0  0.1025900E-02  0.7938032E+03  0.7818609E-02  0.9569030E-01
       -1   -1    0    0    0  501  0.00000000000E+00  0.00000000000E+00  0.37620446409E+03  0.37620446413E+03  0.50400001928E-02 0.  1.
        1   -1    0    0  501    0  0.00000000000E+00  0.00000000000E+00 -0.41873740036E+03  0.41873740040E+03  0.50400001928E-02 0. -1.
    10030    2    1    2    0    0  0.00000000000E+00  0.00000000000E+00 -0.42532936270E+02  0.79494186452E+03  0.79380319809E+03 0.  0.
        1    1    3    3  502    0 -0.21549410403E+03  0.13476925912E+03  0.28401572172E+03  0.38113697313E+03  0.50400001928E-02 0.  1.
       -1    1    3    3    0  502  0.21549410403E+03 -0.13476925912E+03 -0.32654865799E+03  0.41380489139E+03  0.50400001928E-02 0. -1.
</event>
<event>
 5   0  0.1817089E-02  0.8134474E+03  0.7818609E-02  0.9540754E-01
        2   -1    0    0  501    0  0.00000000000E+00  0.00000000000E+00  0.10716746673E+04  0.10716746673E+04  0.25500000920E-02 0. -1.
       -2   -1    0    0    0  501  0.00000000000E+00  0.00000000000E+00 -0.15436042852E+03  0.15436042854E+03  0.25500000920E-02 0.  1.
    10030    2    1    2    0    0  0.00000000000E+00  0.00000000000E+00  0.91731423873E+03  0.12260350958E+04  0.81344738215E+03 0.  0.
        2    1    3    3  502    0  0.10456974296E+03  0.19466470978E+03  0.97330876222E+03  0.99807771591E+03  0.25500000920E-02 0. -1.
       -2    1    3    3    0  502 -0.10456974296E+03 -0.19466470978E+03 -0.55994523484E+02  0.22795737988E+03  0.25500000920E-02 0.  1.
</event>
<event>
 5   0  0.1146083E-02  0.8063331E+03  0.7818609E-02  0.9550895E-01
       -1   -1    0    0    0  501  0.00000000000E+00  0.00000000000E+00  0.28380393602E+03  0.28380393607E+03  0.50400001928E-02 0.  1.
        1   -1    0    0  501    0  0.00000000000E+00  0.00000000000E+00 -0.57273085523E+03  0.57273085525E+03  0.50400001928E-02 0. -1.
    10030    2    1    2    0    0  0.00000000000E+00  0.00000000000E+00 -0.28892691920E+03  0.85653479132E+03  0.80633310988E+03 0.  0.
        4    1    3    3  502    0  0.36461125222E+03  0.13566584900E+03 -0.32069252669E+02  0.39035450260E+03  0.12699999809E+01 0.  1.
       -4    1    3    3    0  502 -0.36461125222E+03 -0.13566584900E+03 -0.25685766653E+03  0.46618028872E+03  0.12699999809E+01 0. -1.
</event>
<event>
 5   0  0.1731337E-02  0.7882167E+03  0.7818609E-02  0.9577231E-01
       -2   -1    0    0    0  501  0.00000000000E+00  0.00000000000E+00  0.34283617631E+03  0.34283617632E+03  0.25500000920E-02 0. -1.
        2   -1    0    0  501    0  0.00000000000E+00  0.00000000000E+00 -0.45304841425E+03  0.45304841425E+03  0.25500000920E-02 0.  1.
    10030    2    1    2    0    0  0.00000000000E+00  0.00000000000E+00 -0.11021223794E+03  0.79588459057E+03  0.78821668602E+03 0.  0.
        4    1    3    3  502    0 -0.33442099505E+03  0.11976814937E+03 -0.22746515448E+03  0.42181017168E+03  0.12699999809E+01 0.  1.
       -4    1    3    3    0  502  0.33442099505E+03 -0.11976814937E+03  0.11725291654E+03  0.37407441889E+03  0.12699999809E+01 0. -1.
</event>
<event>
 5   0  0.1025900E-02  0.7987731E+03  0.7818609E-02  0.9561795E-01
        1   -1    0    0  501    0  0.00000000000E+00  0.00000000000E+00  0.85596722419E+03  0.85596722420E+03  0.50400001928E-02 0. -1.
       -1   -1    0    0    0  501  0.00000000000E+00  0.00000000000E+00 -0.18635012828E+03  0.18635012835E+03  0.50400001928E-02 0.  1.
    10030    2    1    2    0    0  0.00000000000E+00  0.00000000000E+00  0.66961709591E+03  0.10423173526E+04  0.79877306433E+03 0.  0.
        1    1    3    3  502    0  0.13482035582E+03  0.28059139597E+03  0.66129793812E+03  0.73090561827E+03  0.50400001928E-02 0. -1.
       -1    1    3    3    0  502 -0.13482035582E+03 -0.28059139597E+03  0.83191577933E+01  0.31141173428E+03  0.50400001928E-02 0.  1.
</event>
<event>
 5   0  0.1030323E-02  0.8528369E+03  0.7818609E-02  0.9486537E-01
        1   -1    0    0  501    0  0.00000000000E+00  0.00000000000E+00  0.89779819214E+03  0.89779819216E+03  0.50400001928E-02 0.  1.
       -1   -1    0    0    0  501  0.00000000000E+00  0.00000000000E+00 -0.20253179031E+03  0.20253179038E+03  0.50400001928E-02 0. -1.
    10030    2    1    2    0    0  0.00000000000E+00  0.00000000000E+00  0.69526640183E+03  0.11003299825E+04  0.85283685483E+03 0.  0.
        3    1    3    3  502    0  0.18679279922E+03  0.37450711470E+03  0.45312655749E+03  0.61682316436E+03  0.10100000352E+00 0. -1.
       -3    1    3    3    0  502 -0.18679279922E+03 -0.37450711470E+03  0.24213984434E+03  0.48350681817E+03  0.10100000352E+00 0.  1.
</event>
<event>
 5   0  0.1817089E-02  0.7739555E+03  0.7818609E-02  0.9598500E-01
       -2   -1    0    0    0  501  0.00000000000E+00  0.00000000000E+00  0.12577100634E+03  0.12577100637E+03  0.25500000920E-02 0. -1.
        2   -1    0    0  501    0  0.00000000000E+00  0.00000000000E+00 -0.11906700531E+04  0.11906700531E+04  0.25500000920E-02 0.  1.
    10030    2    1    2    0    0  0.00000000000E+00  0.00000000000E+00 -0.10648990467E+04  0.13164410594E+04  0.77395547886E+03 0.  0.
        2    1    3    3  502    0  0.10900510928E+03 -0.12784425059E+03 -0.11254010026E+04  0.11378724370E+04  0.25500000920E-02 0.  1.
       -2    1    3    3    0  502 -0.10900510928E+03  0.12784425059E+03  0.60501955842E+02  0.17856862245E+03  0.25500000920E-02 0. -1.
</event>
<event>
 5   0  0.1818665E-02  0.8226372E+03  0.7818609E-02  0.9527817E-01
       -2   -1    0    0    0  501  0.00000000000E+00  0.00000000000E+00  0.12628332436E+03  0.12628332439E+03  0.25500000920E-02 0. -1.
        2   -1    0    0  501    0  0.00000000000E+00  0.00000000000E+00 -0.13397096476E+04  0.13397096476E+04  0.25500000920E-02 0.  1.
    10030    2    1    2    0    0  0.00000000000E+00  0.00000000000E+00 -0.12134263232E+04  0.14659929720E+04  0.82263719343E+03 0.  0.
        3    1    3    3  502    0 -0.36334012103E+01  0.25668654709E+02 -0.13382522580E+04  0.13385033425E+04  0.10100000352E+00 0.  1.
       -3    1    3    3    0  502  0.36334012103E+01 -0.25668654709E+02  0.12482593480E+03  0.12748962953E+03  0.10100000352E+00 0. -1.
</event>
<event>
 5   0  0.1673727E-02  0.8002795E+03  0.7818609E-02  0.9559613E-01
        2   -1    0    0  501    0  0.00000000000E+00  0.00000000000E+00  0.11810827682E+04  0.11810827682E+04  0.25500000920E-02 0.  1.
       -2   -1    0    0    0  501  0.00000000000E+00  0.00000000000E+00 -0.13556359058E+03  0.13556359060E+03  0.25500000920E-02 0. -1.
    10030    2    1    2    0    0  0.00000000000E+00  0.00000000000E+00  0.10455191777E+04  0.13166463588E+04  0.80027950329E+03 0.  0.
        5    1    3    3  502    0  0.35361789211E+03 -0.16046929074E+03  0.36415259530E+03  0.53237694311E+03  0.46999998093E+01 0. -1.
       -5    1    3    3    0  502 -0.35361789211E+03  0.16046929074E+03  0.68136658236E+03  0.78426941573E+03  0.46999998093E+01 0.  1.
</event>
<event>
 5   0  0.1146083E-02  0.7987265E+03  0.7818609E-02  0.9561862E-01
        1   -1    0    0  501    0  0.00000000000E+00  0.00000000000E+00  0.85113171212E+03  0.85113171213E+03  0.50400001928E-02 0. -1.
       -1   -1    0    0    0  501  0.00000000000E+00  0.00000000000E+00 -0.18738698974E+03  0.18738698981E+03  0.50400001928E-02 0.  1.
    10030    2    1    2    0    0  0.00000000000E+00  0.00000000000E+00  0.66374472237E+03  0.10385187019E+04  0.79872651002E+03 0.  0.
        4    1    3    3  502    0  0.12002054288E+03  0.57117056867E+02 -0.15778038031E+03  0.20630935560E+03  0.12699999809E+01 0.  1.
       -4    1    3    3    0  502 -0.12002054288E+03 -0.57117056867E+02  0.82152510268E+03  0.83220934634E+03  0.12699999809E+01 0. -1.
</event>
<event>
 5   0  0.1025900E-02  0.7992989E+03  0.7818609E-02  0.9561032E-01
       -1   -1    0    0    0  501  0.00000000000E+00  0.00000000000E+00  0.41323117374E+03  0.41323117377E+03  0.50400001928E-02 0. -1.
        1   -1    0    0  501    0  0.00000000000E+00  0.00000000000E+00 -0.38651412179E+03  0.38651412182E+03  0.50400001928E-02 0.  1.
    10030    2    1    2    0    0  0.00000000000E+00  0.00000000000E+00  0.26717051948E+02  0.79974529559E+03  0.79929890339E+03 0.  0.
        1    1    3    3  502    0  0.27368295935E+03  0.27471246489E+03  0.11010991111E+03  0.40310481658E+03  0.50400001928E-02 0. -1.
       -1    1    3    3    0  502 -0.27368295935E+03 -0.27471246489E+03 -0.83392859160E+02  0.39664047901E+03  0.50400001928E-02 0.  1.
</event>
<event>
 5   0  0.1030323E-02  0.7425476E+03  0.7818609E-02  0.9647115E-01
       -1   -1    0    0    0  501  0.00000000000E+00  0.00000000000E+00  0.10029152380E+03  0.10029152393E+03  0.50400001928E-02 0.  1.
        1   -1    0    0  501    0  0.00000000000E+00  0.00000000000E+00 -0.13744355627E+04  0.13744355627E+04  0.50400001928E-02 0. -1.
    10030    2    1    2    0    0  0.00000000000E+00  0.00000000000E+00 -0.12741440389E+04  0.14747270867E+04  0.74254760670E+03 0.  0.
        3    1    3    3  502    0  0.69006043956E+02 -0.25765148094E+03 -0.11499854946E+04  0.11805137728E+04  0.10100000352E+00 0. -1.
       -3    1    3    3    0  502 -0.69006043956E+02  0.25765148094E+03 -0.12415854432E+03  0.29421331388E+03  0.10100000352E+00 0.  1.
</event>
<event>
 5   0  0.1818665E-02  0.7937178E+03  0.7818609E-02  0.9569155E-01
        2   -1    0    0  501    0  0.00000000000E+00  0.00000000000E+00  0.17908314393E+03  0.17908314395E+03  0.25500000920E-02 0.  1.
       -2   -1    0    0    0  501  0.00000000000E+00  0.00000000000E+00 -0.87946297906E+03  0.87946297906E+03  0.25500000920E-02 0. -1.
    10030    2    1    2    0    0  0.00000000000E+00  0.00000000000E+00 -0.70037983512E+03  0.10585461230E+04  0.79371782208E+03 0.  0.
        3    1    3    3  502    0  0.11801866576E+03  0.25429990996E+03 -0.72480264471E+03  0.77713302185E+03  0.10100000352E+00 0. -1.
       -3    1    3    3    0  502 -0.11801866576E+03 -0.25429990996E+03  0.24422809591E+02  0.28141310115E+03  0.10100000352E+00 0.  1.
</event>
<event>
 5   0  0.1817089E-02  0.8346380E+03  0.7818609E-02  0.9511190E-01
        2   -1    0    0  501    0  0.00000000000E+00  0.00000000000E+00  0.12426372416E+04  0.12426372416E+04  0.25500000920E-02 0.  1.
       -2   -1    0    0    0  501  0.00000000000E+00  0.00000000000E+00 -0.14014964035E+03  0.14014964037E+03  0.25500000920E-02 0. -1.
    10030    2    1    2    0    0  0.00000000000E+00  0.00000000000E+00  0.11024876012E+04  0.13827868820E+04  0.83463803534E+03 0.  0.
        2    1    3    3  502    0  0.60926627822E+02  0.13595399498E+03  0.11970782068E+04  0.12063132993E+04  0.25500000920E-02 0.  1.
       -2    1    3    3    0  502 -0.60926627822E+02 -0.13595399498E+03 -0.94590605564E+02  0.17647358271E+03  0.25500000920E-02 0. -1.
</event>
<event>
 5   0  0.6872500E-03  0.7967423E+03  0.7818609E-02  0.9564744E-01
       -4   -1    0    0    0  501  0.00000000000E+00  0.00000000000E+00  0.43641912807E+03  0.43642097595E+03  0.12699999809E+01 0. -1.
        4   -1    0    0  501    0  0.00000000000E+00  0.00000000000E+00 -0.36363658503E+03  0.36363880276E+03  0.12699999809E+01 0.  1.
    10030    2    1    2    0    0  0.00000000000E+00  0.00000000000E+00  0.72782543043E+02  0.80005977871E+03  0.79674233661E+03 0.  0.
        3    1    3    3  502    0 -0.59782890753E+02 -0.12452559815E+02 -0.35891079445E+03  0.36406871446E+03  0.10100000352E+00 0.  1.
       -3    1    3    3    0  502  0.59782890753E+02  0.12452559815E+02  0.43169333749E+03  0.43599106425E+03  0.10100000352E+00 0. -1.
</event>
<event>
 5   0  0.1038912E-02  0.7909100E+03  0.7818609E-02  0.9573269E-01
        1   -1    0    0  501    0  0.00000000000E+00  0.00000000000E+00  0.37628410304E+03  0.37628410307E+03  0.50400001928E-02 0. -1.
       -1   -1    0    0    0  501  0.00000000000E+00  0.00000000000E+00 -0.41560260635E+03  0.41560260638E+03  0.50400001928E-02 0.  1.
    10030    2    1    2    0    0  0.00000000000E+00  0.00000000000E+00 -0.39318503318E+02  0.79188670945E+03  0.79090999229E+03 0.  0.
        2    1    3    3  502    0  0.24269666135E+03 -0.31160028652E+03 -0.39387543089E+02  0.39692289749E+03  0.25500000920E-02 0.  1.
       -2    1    3    3    0  502 -0.24269666135E+03  0.31160028652E+03  0.69039770919E-01  0.39496381197E+03  0.25500000920E-02 0. -1.
</event>
<event>
 5   0  0.1747544E-02  0.8030270E+03  0.7818609E-02  0.9555646E-01
        2   -1    0    0  501    0  0.00000000000E+00  0.00000000000E+00  0.59506392441E+03  0.59506392441E+03  0.25500000920E-02 0. -1.
       -2   -1    0    0    0  501  0.00000000000E+00  0.00000000000E+00 -0.27091723561E+03  0.27091723562E+03  0.25500000920E-02 0.  1.
    10030    2    1    2    0    0  0.00000000000E+00  0.00000000000E+00  0.32414668880E+03  0.86598116003E+03  0.80302695700E+03 0.  0.
        1    1    3    3  502    0 -0.32270908219E+03  0.23755461662E+03  0.18934900319E+03  0.44320017220E+03  0.50400001928E-02 0. -1.
       -1    1    3    3    0  502  0.32270908219E+03 -0.23755461662E+03  0.13479768561E+03  0.42278098783E+03  0.50400001928E-02 0.  1.
</event>
<event>
 5   0  0.1030323E-02  0.8094186E+03  0.7818609E-02  0.9546483E-01
       -1   -1    0    0    0  501  0.00000000000E+00  0.00000000000E+00  0.17047295151E+03  0.17047295159E+03  0.50400001928E-02 0.  1.
        1   -1    0    0  501    0  0.00000000000E+00  0.00000000000E+00 -0.96079539187E+03  0.96079539188E+03  0.50400001928E-02 0. -1.
    10030    2    1    2    0    0  0.00000000000E+00  0.00000000000E+00 -0.79032244035E+03  0.11312683435E+04  0.80941862173E+03 0.  0.
        3    1    3    3  502    0  0.13823170642E+03  0.37956364848E+03 -0.36055614863E+03  0.54145850665E+03  0.10100000352E+00 0. -1.
       -3    1    3    3    0  502 -0.13823170642E+03 -0.37956364848E+03 -0.42976629172E+03  0.58980983682E+03  0.10100000352E+00 0.  1.
</event>
<event>
 5   0  0.1747544E-02  0.7646577E+03  0.7818609E-02  0.9612631E-01
       -2   -1    0    0    0  501  0.00000000000E+00  0.00000000000E+00  0.29665654739E+03  0.29665654740E+03  0.25500000920E-02 0.  1.
        2   -1    0    0  501    0  0.00000000000E+00  0.00000000000E+00 -0.49274267926E+03  0.49274267926E+03  0.25500000920E-02 0. -1.
    10030    2    1    2    0    0  0.00000000000E+00  0.00000000000E+00 -0.19608613187E+03  0.78939922667E+03  0.76465768024E+03 0.  0.
        1    1    3    3  502    0  0.69581808105E+01  0.23476051131E+03  0.21340437280E+03  0.31733632049E+03  0.50400001928E-02 0.  1.
       -1    1    3    3    0  502 -0.69581808105E+01 -0.23476051131E+03 -0.40949050466E+03  0.47206290617E+03  0.50400001928E-02 0. -1.
</event>
<event>
 5   0  0.6872500E-03  0.6868331E+03  0.7818609E-02  0.9740018E-01
       -4   -1    0    0    0  501  0.00000000000E+00  0.00000000000E+00  0.33248360801E+03  0.33248603354E+03  0.12699999809E+01 0.  1.
        4   -1    0    0  501    0  0.00000000000E+00  0.00000000000E+00 -0.35470413577E+03  0.35470640934E+03  0.12699999809E+01 0. -1.
    10030    2    1    2    0    0  0.00000000000E+00  0.00000000000E+00 -0.22220527753E+02  0.68719244288E+03  0.68683309596E+03 0.  0.
        5    1    3    3  502    0 -0.11718088793E+03  0.96835977049E+02  0.29695384710E+03  0.33363489664E+03  0.46999998093E+01 0.  1.
       -5    1    3    3    0  502  0.11718088793E+03 -0.96835977049E+02 -0.31917437485E+03  0.35355754625E+03  0.46999998093E+01 0. -1.
</event>
<event>
 5   0  0.1146083E-02  0.7992874E+03  0.7818609E-02  0.9561049E-01
        1   -1    0    0  501    0  0.00000000000E+00  0.00000000000E+00  0.14177988884E+03  0.14177988893E+03  0.50400001928E-02 0.  1.
       -1   -1    0    0    0  501  0.00000000000E+00  0.00000000000E+00 -0.11265002015E+04  0.11265002015E+04  0.50400001928E-02 0. -1.
    10030    2    1    2    0    0  0.00000000000E+00  0.00000000000E+00 -0.98472031262E+03  0.12682800904E+04  0.79928736610E+03 0.  0.
        4    1    3    3  502    0  0.22157708194E+02  0.96895479252E+02 -0.11065704198E+04  0.11110262845E+04  0.12699999809E+01 0. -1.
       -4    1    3    3    0  502 -0.22157708194E+02 -0.96895479252E+02  0.12185010722E+03  0.15725380587E+03  0.12699999809E+01 0.  1.
</event>
<event>
 5   0  0.1731337E-02  0.7977218E+03  0.7818609E-02  0.9563321E-01
        2   -1    0    0  501    0  0.00000000000E+00  0.00000000000E+00  0.26990814911E+03  0.26990814912E+03  0.25500000920E-02 0. -1.
       -2   -1    0    0    0  501  0.00000000000E+00  0.00000000000E+00 -0.58942280527E+03  0.58942280528E+03  0.25500000920E-02 0.  1.
    10030    2    1    2    0    0  0.00000000000E+00  0.00000000000E+00 -0.31951465617E+03  0.85933095440E+03  0.79772180218E+03 0.  0.
        4    1    3    3  502    0  0.14725733259E+03 -0.20900826919E+03 -0.48953659105E+03  0.55228331993E+03  0.12699999809E+01 0.  1.
       -4    1    3    3    0  502 -0.14725733259E+03  0.20900826919E+03  0.17002193489E+03  0.30704763447E+03  0.12699999809E+01 0. -1.
</event>
<event>
 5   0  0.1817089E-02  0.7958506E+03  0.7818609E-02  0.9566043E-01
        2   -1    0    0  501    0  0.00000000000E+00  0.00000000000E+00  0.16331708415E+03  0.16331708417E+03  0.25500000920E-02 0.  1.
       -2   -1    0    0    0  501  0.00000000000E+00  0.00000000000E+00 -0.96955275842E+03  0.96955275843E+03  0.25500000920E-02 0. -1.
    10030    2    1    2    0    0  0.00000000000E+00  0.00000000000E+00 -0.80623567427E+03  0.11328698426E+04  0.79585056248E+03 0.  0.
        2    1    3    3  502    0 -0.15728854448E+03 -0.54701317726E+02  0.11132963876E+03  0.20031527365E+03  0.25500000920E-02 0.  1.
       -2    1    3    3    0  502  0.15728854448E+03  0.54701317726E+02 -0.91756531303E+03  0.93255456895E+03  0.25500000920E-02 0. -1.
</event>
<event>
 5   0  0.1049780E-02  0.7779912E+03  0.7818609E-02  0.9592432E-01
       -1   -1    0    0    0  501  0.00000000000E+00  0.00000000000E+00  0.49827884397E+03  0.49827884399E+03  0.50400001928E-02 0.  1.
        1   -1    0    0  501    0  0.00000000000E+00  0.00000000000E+00 -0.30368052250E+03  0.30368052255E+03  0.50400001928E-02 0. -1.
    10030    2    1    2    0    0  0.00000000000E+00  0.00000000000E+00  0.19459832146E+03  0.80195936654E+03  0.77799120744E+03 0.  0.
        5    1    3    3  502    0 -0.16444786801E+03 -0.70803210313E+01  0.46057993969E+03  0.48913106943E+03  0.46999998093E+01 0.  1.
       -5    1    3    3    0  502  0.16444786801E+03  0.70803210313E+01 -0.26598161822E+03  0.31282829711E+03  0.46999998093E+01 0. -1.
</event>
<event>
 5   0  0.1673727E-02  0.7826918E+03  0.7818609E-02  0.9585414E-01
        2   -1    0    0  501    0  0.00000000000E+00  0.00000000000E+00  0.62791068552E+03  0.62791068552E+03  0.25500000920E-02 0. -1.
       -2   -1    0    0    0  501  0.00000000000E+00  0.00000000000E+00 -0.24390666431E+03  0.24390666432E+03  0.25500000920E-02 0.  1.
    10030    2    1    2    0    0  0.00000000000E+00  0.00000000000E+00  0.38400402121E+03  0.87181734984E+03  0.78269176767E+03 0.  0.
        5    1    3    3  502    0 -0.17910971818E+03 -0.34652227525E+03  0.22672070514E+03  0.45120100457E+03  0.46999998093E+01 0. -1.
       -5    1    3    3    0  502  0.17910971818E+03  0.34652227525E+03  0.15728331607E+03  0.42061634527E+03  0.46999998093E+01 0.  1.
</event>
<event>
 5   0  0.1817089E-02  0.8074103E+03  0.7818609E-02  0.9549353E-01
       -2   -1    0    0    0  501  0.00000000000E+00  0.00000000000E+00  0.21055055473E+03  0.21055055474E+03  0.25500000920E-02 0.  1.
        2   -1    0    0  501    0  0.00000000000E+00  0.00000000000E+00 -0.77405557927E+03  0.77405557927E+03  0.25500000920E-02 0. -1.
    10030    2    1    2    0    0  0.00000000000E+00  0.00000000000E+00 -0.56350502454E+03  0.98460613401E+03  0.80741025907E+03 0.  0.
        2    1    3    3  502    0  0.36672042449E+03  0.14092275824E+03 -0.16843608897E+03  0.42745035922E+03  0.25500000920E-02 0.  1.
       -2    1    3    3    0  502 -0.36672042449E+03 -0.14092275824E+03 -0.39506893557E+03  0.55715577479E+03  0.25500000920E-02 0. -1.
</event>
<event>
 5   0  0.6872500E-03  0.7997660E+03  0.7818609E-02  0.9560356E-01
       -4   -1    0    0    0  501  0.00000000000E+00  0.00000000000E+00  0.25595993611E+03  0.25596308678E+03  0.12699999809E+01 0.  1.
        4   -1    0    0  501    0  0.00000000000E+00  0.00000000000E+00 -0.62472452988E+03  0.62472582077E+03  0.12699999809E+01 0. -1.
    10030    2    1    2    0    0  0.00000000000E+00  0.00000000000E+00 -0.36876459378E+03  0.88068890755E+03  0.79976598218E+03 0.  0.
        4    1    3    3  502    0  0.11040429031E+03 -0.38317000934E+03 -0.15141237943E+03  0.42653919506E+03  0.12699999809E+01 0.  1.
       -4    1    3    3    0  502 -0.11040429031E+03  0.38317000934E+03 -0.21735221434E+03  0.45414971249E+03  0.12699999809E+01 0. -1.
</event>
<event>
 5   0  0.1030323E-02  0.7786545E+03  0.7818609E-02  0.9591438E-01
       -1   -1    0    0    0  501  0.00000000000E+00  0.00000000000E+00  0.21790846053E+03  0.21790846059E+03  0.50400001928E-02 0.  1.
        1   -1    0    0  501    0  0.00000000000E+00  0.00000000000E+00 -0.69559356495E+03  0.69559356497E+03  0.50400001928E-02 0. -1.
    10030    2    1    2    0    0  0.00000000000E+00  0.00000000000E+00 -0.47768510443E+03  0.91350202556E+03  0.77865453938E+03 0.  0.
        3    1    3    3  502    0 -0.37132970249E+03  0.17326996243E+02 -0.10308913628E+03  0.38576333803E+03  0.10100000352E+00 0.  1.
       -3    1    3    3    0  502  0.37132970249E+03 -0.17326996243E+02 -0.37459596815E+03  0.52773868752E+03  0.10100000352E+00 0. -1.
</event>
<event>
 5   0  0.1747544E-02  0.8045744E+03  0.7818609E-02  0.9553419E-01
        2   -1    0    0  501    0  0.00000000000E+00  0.00000000000E+00  0.49820329761E+03  0.49820329762E+03  0.25500000920E-02 0.  1.
       -2   -1    0    0    0  501  0.00000000000E+00  0.00000000000E+00 -0.32483725930E+03  0.32483725931E+03  0.25500000920E-02 0. -1.
    10030    2    1    2    0    0  0.00000000000E+00  0.00000000000E+00  0.17336603831E+03  0.82304055693E+03  0.80457440620E+03 0.  0.
        1    1    3    3  502    0 -0.25116660000E+03  0.30999799376E+03  0.13935833120E+03  0.42261585582E+03  0.50400001928E-02 0.  1.
       -1    1    3    3    0  502  0.25116660000E+03 -0.30999799376E+03  0.34007707107E+02  0.40042470111E+03  0.50400001928E-02 0. -1.
</event>
<event>
 5   0  0.1030323E-02  0.8188753E+03  0.7818609E-02  0.9533091E-01
        1   -1    0    0  501    0  0.00000000000E+00  0.00000000000E+00  0.19806483396E+04  0.19806483396E+04  0.50400001928E-02 0.  1.
       -1   -1    0    0    0  501  0.00000000000E+00  0.00000000000E+00 -0.84638539341E+02  0.84638539491E+02  0.50400001928E-02 0. -1.
    10030    2    1    2    0    0  0.00000000000E+00  0.00000000000E+00  0.18960098003E+04  0.20652868791E+04  0.81887528372E+03 0.  0.
        3    1    3    3  502    0  0.31133517881E+02 -0.12663868722E+03  0.19268680804E+04  0.19312760710E+04  0.10100000352E+00 0.  1.
       -3    1    3    3    0  502 -0.31133517881E+02  0.12663868722E+03 -0.30858280115E+02  0.13401080810E+03  0.10100000352E+00 0. -1.
</event>
<event>
 5   0  0.1817089E-02  0.7653984E+03  0.7818609E-02  0.9611498E-01
        2   -1    0    0  501    0  0.00000000000E+00  0.00000000000E+00  0.46619032267E+03  0.46619032268E+03  0.25500000920E-02 0.  1.
       -2   -1    0    0    0  501  0.00000000000E+00  0.00000000000E+00 -0.31416066033E+03  0.31416066034E+03  0.25500000920E-02 0. -1.
    10030    2    1    2    0    0  0.00000000000E+00  0.00000000000E+00  0.15202966234E+03  0.78035098301E+03  0.76539835279E+03 0.  0.
        2    1    3    3  502    0 -0.27593975920E+03  0.26164428037E+03  0.11996355666E+03  0.39873767704E+03  0.25500000920E-02 0.  1.
       -2    1    3    3    0  502  0.27593975920E+03 -0.26164428037E+03  0.32066105680E+02  0.38161330597E+03  0.25500000920E-02 0. -1.
</event>
<event>
 5   0  0.1818665E-02  0.8025487E+03  0.7818609E-02  0.9556335E-01
       -2   -1    0    0    0  501  0.00000000000E+00  0.00000000000E+00  0.10813059623E+03  0.10813059626E+03  0.25500000920E-02 0.  1.
        2   -1    0    0  501    0  0.00000000000E+00  0.00000000000E+00 -0.14891352918E+04  0.14891352918E+04  0.25500000920E-02 0. -1.
    10030    2    1    2    0    0  0.00000000000E+00  0.00000000000E+00 -0.13810046955E+04  0.15972658880E+04  0.80254865770E+03 0.  0.
        3    1    3    3  502    0 -0.19318985448E+03  0.34978649471E+03 -0.61742590908E+03  0.73545066127E+03  0.10100000352E+00 0. -1.
       -3    1    3    3    0  502  0.19318985448E+03 -0.34978649471E+03 -0.76357878644E+03  0.86181522675E+03  0.10100000352E+00 0.  1.
</event>
<event>
 5   0  0.1747544E-02  0.7880809E+03  0.7818609E-02  0.9577432E-01
        2   -1    0    0  501    0  0.00000000000E+00  0.00000000000E+00  0.12533044066E+04  0.12533044066E+04  0.25500000920E-02 0.  1.
       -2   -1    0    0    0  501  0.00000000000E+00  0.00000000000E+00 -0.12388680428E+03  0.12388680430E+03  0.25500000920E-02 0. -1.
    10030    2    1    2    0    0  0.00000000000E+00  0.00000000000E+00  0.11294176023E+04  0.13771912109E+04  0.78808090380E+03 0.  0.
        1    1    3    3  502    0 -0.12831795147E+02  0.49479308313E+02  0.12474859608E+04  0.12485327707E+04  0.50400001928E-02 0.  1.
       -1    1    3    3    0  502  0.12831795147E+02 -0.49479308313E+02 -0.11806835855E+03  0.12865844020E+03  0.50400001928E-02 0. -1.
</event>
<event>
 5   0  0.1673727E-02  0.7996140E+03  0.7818609E-02  0.9560576E-01
       -2   -1    0    0    0  501  0.00000000000E+00  0.00000000000E+00  0.24961049156E+03  0.24961049157E+03  0.25500000920E-02 0.  1.
        2   -1    0    0  501    0  0.00000000000E+00  0.00000000000E+00 -0.64038035516E+03  0.64038035516E+03  0.25500000920E-02 0. -1.
    10030    2    1    2    0    0  0.00000000000E+00  0.00000000000E+00 -0.39076986359E+03  0.88999084674E+03  0.79961404501E+03 0.  0.
        5    1    3    3  502    0  0.13088806325E+03 -0.30043166747E+02  0.22372392398E+03  0.26097655283E+03  0.46999998093E+01 0.  1.
       -5    1    3    3    0  502 -0.13088806325E+03  0.30043166747E+02 -0.61449378758E+03  0.62901429390E+03  0.46999998093E+01 0. -1.
</event>
<event>
 5   0  0.1146083E-02  0.7978760E+03  0.7818609E-02  0.9563097E-01
       -1   -1    0    0    0  501  0.00000000000E+00  0.00000000000E+00  0.17677686902E+03  0.17677686909E+03  0.50400001928E-02 0.  1.
        1   -1    0    0  501    0  0.00000000000E+00  0.00000000000E+00 -0.90029607656E+03  0.90029607658E+03  0.50400001928E-02 0. -1.
    10030    2    1    2    0    0  0.00000000000E+00  0.00000000000E+00 -0.72351920754E+03  0.10770729457E+04  0.79787598449E+03 0.  0.
        4    1    3    3  502    0 -0.27710896868E+03  0.22769485452E+03 -0.59757412703E+03  0.69694388404E+03  0.12699999809E+01 0. -1.
       -4    1    3    3    0  502  0.27710896868E+03 -0.22769485452E+03 -0.12594508051E+03  0.38012906164E+03  0.12699999809E+01 0.  1.
</event>
<event>
 5   0  0.1049780E-02  0.7925604E+03  0.7818609E-02  0.9570848E-01
        1   -1    0    0  501    0  0.00000000000E+00  0.00000000000E+00  0.37000644774E+03  0.37000644778E+03  0.50400001928E-02 0. -1.
       -1   -1    0    0    0  501  0.00000000000E+00  0.00000000000E+00 -0.42441965725E+03  0.42441965728E+03  0.50400001928E-02 0.  1.
    10030    2    1    2    0    0  0.00000000000E+00  0.00000000000E+00 -0.54413209507E+02  0.79442610506E+03  0.79256043241E+03 0.  0.
        5    1    3    3  502    0 -0.31224459149E+03 -0.19974073953E+03 -0.16761801565E+03  0.40683035421E+03  0.46999998093E+01 0.  1.
       -5    1    3    3    0  502  0.31224459149E+03  0.19974073953E+03  0.11320480614E+03  0.38759575084E+03  0.46999998093E+01 0. -1.
</event>
<event>
 5   0  0.6872500E-03  0.8082039E+03  0.7818609E-02  0.9548218E-01
        3   -1    0    0  501    0  0.00000000000E+00  0.00000000000E+00  0.45273220868E+03  0.45273221994E+03  0.10100000352E+00 0. -1.
       -3   -1    0    0    0  501  0.00000000000E+00  0.00000000000E+00 -0.36069529833E+03  0.36069531247E+03  0.10100000352E+00 0.  1.
    10030    2    1    2    0    0  0.00000000000E+00  0.00000000000E+00  0.92036910344E+02  0.81342753242E+03  0.80820390845E+03 0.  0.
        3    1    3    3  502    0 -0.43780159251E+01  0.38415991021E+03  0.17212944732E+03  0.42098285056E+03  0.10100000352E+00 0. -1.
       -3    1    3    3    0  502  0.43780159251E+01 -0.38415991021E+03 -0.80092536974E+02  0.39244468185E+03  0.10100000352E+00 0.  1.
</event>
<event>
 5   0  0.1731337E-02  0.7952835E+03  0.7818609E-02  0.9566869E-01
       -2   -1    0    0    0  501  0.00000000000E+00  0.00000000000E+00  0.17687363071E+03  0.17687363073E+03  0.25500000920E-02 0. -1.
        2   -1    0    0  501    0  0.00000000000E+00  0.00000000000E+00 -0.89396581498E+03  0.89396581499E+03  0.25500000920E-02 0.  1.
    10030    2    1    2    0    0  0.00000000000E+00  0.00000000000E+00 -0.71709218427E+03  0.10708394457E+04  0.79528354551E+03 0.  0.
        4    1    3    3  502    0 -0.35519158981E+03 -0.12559496384E+03 -0.52983183995E+03  0.65012195159E+03  0.12699999809E+01 0.  1.
       -4    1    3    3    0  502  0.35519158981E+03  0.12559496384E+03 -0.18726034432E+03  0.42071749413E+03  0.12699999809E+01 0. -1.
</event>
<event>
 5   0  0.1146083E-02  0.7881219E+03  0.7818609E-02  0.9577371E-01
       -1   -1    0    0    0  501  0.00000000000E+00  0.00000000000E+00  0.18523598257E+03  0.18523598264E+03  0.50400001928E-02 0.  1.
        1   -1    0    0  501    0  0.00000000000E+00  0.00000000000E+00 -0.83830385875E+03  0.83830385877E+03  0.50400001928E-02 0. -1.
    10030    2    1    2    0    0  0.00000000000E+00  0.00000000000E+00 -0.65306787618E+03  0.10235398414E+04  0.78812191699E+03 0.  0.
        4    1    3    3  502    0 -0.30979531385E+03  0.23936342434E+03 -0.38482320489E+03  0.54896128945E+03  0.12699999809E+01 0. -1.
       -4    1    3    3    0  502  0.30979531385E+03 -0.23936342434E+03 -0.26824467129E+03  0.47457855195E+03  0.12699999809E+01 0.  1.
</event>
<event>
 5   0  0.6872500E-03  0.7962533E+03  0.7818609E-02  0.9565456E-01
        3   -1    0    0  501    0  0.00000000000E+00  0.00000000000E+00  0.12557489768E+04  0.12557489809E+04  0.10100000352E+00 0.  1.
       -3   -1    0    0    0  501  0.00000000000E+00  0.00000000000E+00 -0.12622332106E+03  0.12622336146E+03  0.10100000352E+00 0. -1.
    10030    2    1    2    0    0  0.00000000000E+00  0.00000000000E+00  0.11295256557E+04  0.13819723423E+04  0.79625331897E+03 0.  0.
        3    1    3    3  502    0 -0.59377013594E+02  0.30079072909E+03  0.10055631179E+04  0.10512648984E+04  0.10100000352E+00 0. -1.
       -3    1    3    3    0  502  0.59377013594E+02 -0.30079072909E+03  0.12396253787E+03  0.33070744389E+03  0.10100000352E+00 0.  1.
</event>
<event>
 5   0  0.1025900E-02  0.7988685E+03  0.7818609E-02  0.9561656E-01
       -1   -1    0    0    0  501  0.00000000000E+00  0.00000000000E+00  0.18670107781E+03  0.18670107788E+03  0.50400001928E-02 0.  1.
        1   -1    0    0  501    0  0.00000000000E+00  0.00000000000E+00 -0.85456234445E+03  0.85456234447E+03  0.50400001928E-02 0. -1.
    10030    2    1    2    0    0  0.00000000000E+00  0.00000000000E+00 -0.66786126664E+03  0.10412634223E+04  0.79886847681E+03 0.  0.
        1    1    3    3  502    0 -0.90366803545E+02  0.12122593232E+03 -0.81581969393E+03  0.82971299790E+03  0.50400001928E-02 0. -1.
       -1    1    3    3    0  502  0.90366803545E+02 -0.12122593232E+03  0.14795842730E+03  0.21155042445E+03  0.50400001928E-02 0.  1.
</event>
<event>
 5   0  0.1747544E-02  0.7934445E+03  0.7818609E-02  0.9569555E-01
        2   -1    0    0  501    0  0.00000000000E+00  0.00000000000E+00  0.15516491112E+04  0.15516491112E+04  0.25500000920E-02 0.  1.
       -2   -1    0    0    0  501  0.00000000000E+00  0.00000000000E+00 -0.10143308055E+03  0.10143308058E+03  0.25500000920E-02 0. -1.
    10030    2    1    2    0    0  0.00000000000E+00  0.00000000000E+00  0.14502160307E+04  0.16530821918E+04  0.79344451427E+03 0.  0.
        1    1    3    3  502    0  0.20049246867E+03  0.25582105256E+03  0.25117158908E+03  0.41076612338E+03  0.50400001928E-02 0. -1.
       -1    1    3    3    0  502 -0.20049246867E+03 -0.25582105256E+03  0.11990444416E+04  0.12423160684E+04  0.50400001928E-02 0.  1.
</event>
<event>
 5   0  0.1049780E-02  0.8031902E+03  0.7818609E-02  0.9555411E-01
       -1   -1    0    0    0  501  0.00000000000E+00  0.00000000000E+00  0.29299162151E+03  0.29299162155E+03  0.50400001928E-02 0. -1.
        1   -1    0    0  501    0  0.00000000000E+00  0.00000000000E+00 -0.55045467863E+03  0.55045467865E+03  0.50400001928E-02 0.  1.
    10030    2    1    2    0    0  0.00000000000E+00  0.00000000000E+00 -0.25746305712E+03  0.84344630020E+03  0.80319016151E+03 0.  0.
        5    1    3    3  502    0  0.34538810828E+03  0.18241203853E+03 -0.22662066467E+03  0.45160393354E+03  0.46999998093E+01 0.  1.
       -5    1    3    3    0  502 -0.34538810828E+03 -0.18241203853E+03 -0.30842392454E+02  0.39184236666E+03  0.46999998093E+01 0. -1.
</event>
<event>
 5   0  0.1731337E-02  0.8069411E+03  0.7818609E-02  0.9550024E-01
       -2   -1    0    0    0  501  0.00000000000E+00  0.00000000000E+00  0.56684867901E+03  0.56684867902E+03  0.25500000920E-02 0.  1.
        2   -1    0    0  501    0  0.00000000000E+00  0.00000000000E+00 -0.28718153838E+03  0.28718153839E+03  0.25500000920E-02 0. -1.
    10030    2    1    2    0    0  0.00000000000E+00  0.00000000000E+00  0.27966714063E+03  0.85403021741E+03  0.80694107759E+03 0.  0.
        4    1    3    3  502    0 -0.62408808980E+02  0.38761358211E+03  0.41413860584E+02  0.39478585236E+03  0.12699999809E+01 0. -1.
       -4    1    3    3    0  502  0.62408808980E+02 -0.38761358211E+03  0.23825328005E+03  0.45924436505E+03  0.12699999809E+01 0.  1.
</event>
<event>
 5   0  0.1747544E-02  0.7868173E+03  0.7818609E-02  0.9579297E-01
       -2   -1    0    0    0  501  0.00000000000E+00  0.00000000000E+00  0.85741810891E+02  0.85741810929E+02  0.25500000920E-02 0.  1.
        2   -1    0    0  501    0  0.00000000000E+00  0.00000000000E+00 -0.18050743853E+04  0.18050743853E+04  0.25500000920E-02 0. -1.
    10030    2    1    2    0    0  0.00000000000E+00  0.00000000000E+00 -0.17193325744E+04  0.18908161962E+04  0.78681725102E+03 0.  0.
        1    1    3    3  502    0  0.14651643630E+03 -0.25871130571E+02  0.15524660379E+02  0.14959076378E+03  0.50400001928E-02 0.  1.
       -1    1    3    3    0  502 -0.14651643630E+03  0.25871130571E+02 -0.17348572348E+04  0.17412254324E+04  0.50400001928E-02 0. -1.
</event>
<event>
 5   0  0.1818665E-02  0.7617685E+03  0.7818609E-02  0.9617066E-01
       -2   -1    0    0    0  501  0.00000000000E+00  0.00000000000E+00  0.10629418896E+03  0.10629418899E+03  0.25500000920E-02 0. -1.
        2   -1    0    0  501    0  0.00000000000E+00  0.00000000000E+00 -0.13648236681E+04  0.13648236681E+04  0.25500000920E-02 0.  1.
    10030    2    1    2    0    0  0.00000000000E+00  0.00000000000E+00 -0.12585294791E+04  0.14711178571E+04  0.76176853412E+03 0.  0.
        3    1    3    3  502    0  0.38817533116E+02  0.43268815725E+02 -0.13562069667E+04  0.13574521495E+04  0.10100000352E+00 0.  1.
       -3    1    3    3    0  502 -0.38817533116E+02 -0.43268815725E+02  0.97677487623E+02  0.11366570758E+03  0.10100000352E+00 0. -1.
</event>
<event>
 5   0  0.1817089E-02  0.7922785E+03  0.7818609E-02  0.9571261E-01
       -2   -1    0    0    0  501  0.00000000000E+00  0.00000000000E+00  0.11693286586E+03  0.11693286588E+03  0.25500000920E-02 0.  1.
        2   -1    0    0  501    0  0.00000000000E+00  0.00000000000E+00 -0.13420204343E+04  0.13420204343E+04  0.25500000920E-02 0. -1.
    10030    2    1    2    0    0  0.00000000000E+00  0.00000000000E+00 -0.12250875684E+04  0.14589533002E+04  0.79227847488E+03 0.  0.
        2    1    3    3  502    0  0.23805546083E+03 -0.18463309309E+03 -0.10862211804E+04  0.11272250150E+04  0.25500000920E-02 0. -1.
       -2    1    3    3    0  502 -0.23805546083E+03  0.18463309309E+03 -0.13886638800E+03  0.33172828522E+03  0.25500000920E-02 0.  1.
</event>
<event>
 5   0  0.1747544E-02  0.7991078E+03  0.7818609E-02  0.9561309E-01
       -2   -1    0    0    0  501  0.00000000000E+00  0.00000000000E+00  0.76619266526E+02  0.76619266568E+02  0.25500000920E-02 0. -1.
        2   -1    0    0  501    0  0.00000000000E+00  0.00000000000E+00 -0.20835923862E+04  0.20835923862E+04  0.25500000920E-02 0.  1.
    10030    2    1    2    0    0  0.00000000000E+00  0.00000000000E+00 -0.20069731197E+04  0.21602116527E+04  0.79910780353E+03 0.  0.
        1    1    3    3  502    0 -0.29588938796E+03  0.52845635989E+02 -0.29185048592E+03  0.41895094857E+03  0.50400001928E-02 0. -1.
       -1    1    3    3    0  502  0.29588938796E+03 -0.52845635989E+02 -0.17151226337E+04  0.17412607042E+04  0.50400001928E-02 0.  1.
</event>
<event>
 5   0  0.1673727E-02  0.7944499E+03  0.7818609E-02  0.9568086E-01
       -2   -1    0    0    0  501  0.00000000000E+00  0.00000000000E+00  0.30679950013E+03  0.30679950014E+03  0.25500000920E-02 0.  1.
        2   -1    0    0  501    0  0.00000000000E+00  0.00000000000E+00 -0.51430222996E+03  0.51430222997E+03  0.25500000920E-02 0. -1.
    10030    2    1    2    0    0  0.00000000000E+00  0.00000000000E+00 -0.20750272984E+03  0.82110173011E+03  0.79444991554E+03 0.  0.
        5    1    3    3  502    0  0.15370258079E+03  0.17172592033E+03  0.23059973944E+03  0.32605613762E+03  0.46999998093E+01 0.  1.
       -5    1    3    3    0  502 -0.15370258079E+03 -0.17172592033E+03 -0.43810246927E+03  0.49504559248E+03  0.46999998093E+01 0. -1.
</event>
<event>
 5   0  0.1817089E-02  0.8028113E+03  0.7818609E-02  0.9555957E-01
       -2   -1    0    0    0  501  0.00000000000E+00  0.00000000000E+00  0.77901120790E+03  0.77901120790E+03  0.25500000920E-02 0.  1.
        2   -1    0    0  501    0  0.00000000000E+00  0.00000000000E+00 -0.20683461540E+03  0.20683461542E+03  0.25500000920E-02 0. -1.
    10030    2    1    2    0    0  0.00000000000E+00  0.00000000000E+00  0.57217659249E+03  0.98584582332E+03  0.80281126946E+03 0.  0.
        2    1    3    3  502    0  0.28626701689E+03 -0.28138355520E+03  0.28487668952E+03  0.49221970534E+03  0.25500000920E-02 0.  1.
       -2    1    3    3    0  502 -0.28626701689E+03  0.28138355520E+03  0.28729990298E+03  0.49362611798E+03  0.25500000920E-02 0. -1.
</event>
<event>
 5   0  0.1030323E-02  0.7884332E+03  0.7818609E-02  0.9576912E-01
        1   -1    0    0  501    0  0.00000000000E+00  0.00000000000E+00  0.50175973586E+03  0.50175973589E+03  0.50400001928E-02 0. -1.
       -1   -1    0    0    0  501  0.00000000000E+00  0.00000000000E+00 -0.30972338207E+03  0.30972338211E+03  0.50400001928E-02 0.  1.
    10030    2    1    2    0    0  0.00000000000E+00  0.00000000000E+00  0.19203635380E+03  0.81148311799E+03  0.78843318652E+03 0.  0.
        3    1    3    3  502    0 -0.11933606514E+03  0.28121840736E+03 -0.16042835141E+03  0.34505384394E+03  0.10100000352E+00 0.  1.
       -3    1    3    3    0  502  0.11933606514E+03 -0.28121840736E+03  0.35246470521E+03  0.46642927406E+03  0.10100000352E+00 0. -1.
</event>
<event>
 5   0  0.1025900E-02  0.8178724E+03  0.7818609E-02  0.9534502E-01
       -1   -1    0    0    0  501  0.00000000000E+00  0.00000000000E+00  0.19023700313E+03  0.19023700320E+03  0.50400001928E-02 0. -1.
        1   -1    0    0  501    0  0.00000000000E+00  0.00000000000E+00 -0.87905523209E+03  0.87905523210E+03  0.50400001928E-02 0.  1.
    10030    2    1    2    0    0  0.00000000000E+00  0.00000000000E+00 -0.68881822896E+03  0.10692922353E+04  0.81787244233E+03 0.  0.
        1    1    3    3  502    0  0.81764434152E+02 -0.17217953897E+03 -0.81742606892E+03  0.83935486805E+03  0.50400001928E-02 0.  1.
       -1    1    3    3    0  502 -0.81764434152E+02  0.17217953897E+03  0.12860783997E+03  0.22993736725E+03  0.50400001928E-02 0. -1.
</event>
<event>
 5   0  0.1731337E-02  0.7966109E+03  0.7818609E-02  0.9564936E-01
        2   -1    0    0  501    0  0.00000000000E+00  0.00000000000E+00  0.46320272240E+03  0.46320272240E+03  0.25500000920E-02 0.  1.
       -2   -1    0    0    0  501  0.00000000000E+00  0.00000000000E+00 -0.34250064082E+03  0.34250064083E+03  0.25500000920E-02 0. -1.
    10030    2    1    2    0    0  0.00000000000E+00  0.00000000000E+00  0.12070208158E+03  0.80570336323E+03  0.79661089436E+03 0.  0.
        4    1    3    3  502    0 -0.28534904876E+03 -0.80259962018E+02  0.32943253545E+03  0.44316266702E+03  0.12699999809E+01 0.  1.
       -4    1    3    3    0  502  0.28534904876E+03  0.80259962018E+02 -0.20873045387E+03  0.36254069620E+03  0.12699999809E+01 0. -1.
</event>
<event>
 5   0  0.1673727E-02  0.7982389E+03  0.7818609E-02  0.9562570E-01
        2   -1    0    0  501    0  0.00000000000E+00  0.00000000000E+00  0.87914037289E+03  0.87914037290E+03  0.25500000920E-02 0.  1.
       -2   -1    0    0    0  501  0.00000000000E+00  0.00000000000E+00 -0.18119554692E+03  0.18119554694E+03  0.25500000920E-02 0. -1.
    10030    2    1    2    0    0  0.00000000000E+00  0.00000000000E+00  0.69794482597E+03  0.10603359198E+04  0.79823886324E+03 0.  0.
        5    1    3    3  502    0  0.27424682907E+03 -0.16448498120E+03  0.31813457848E+02  0.32140444676E+03  0.46999998093E+01 0. -1.
       -5    1    3    3    0  502 -0.27424682907E+03  0.16448498120E+03  0.66613136813E+03  0.73893147307E+03  0.46999998093E+01 0.  1.
</event>
<event>
 5   0  0.1673727E-02  0.7965559E+03  0.7818609E-02  0.9565016E-01
       -2   -1    0    0    0  501  0.00000000000E+00  0.00000000000E+00  0.14486779917E+03  0.14486779919E+03  0.25500000920E-02 0. -1.
        2   -1    0    0  501    0  0.00000000000E+00  0.00000000000E+00 -0.10949659501E+04  0.10949659501E+04  0.25500000920E-02 0.  1.
    10030    2    1    2    0    0  0.00000000000E+00  0.00000000000E+00 -0.95009815089E+03  0.12398337493E+04  0.79655585458E+03 0.  0.
        5    1    3    3  502    0  0.26232353537E+02 -0.85433844220E+02  0.12901495441E+03  0.15701600737E+03  0.46999998093E+01 0. -1.
       -5    1    3    3    0  502 -0.26232353537E+02  0.85433844220E+02 -0.10791131053E+04  0.10828177419E+04  0.46999998093E+01 0.  1.
</event>
<event>
 5   0  0.1146083E-02  0.8018482E+03  0.7818609E-02  0.9557346E-01
       -1   -1    0    0    0  501  0.00000000000E+00  0.00000000000E+00  0.50120959373E+02  0.50120959626E+02  0.50400001928E-02 0.  1.
        1   -1    0    0  501    0  0.00000000000E+00  0.00000000000E+00 -0.32070440208E+04  0.32070440208E+04  0.50400001928E-02 0. -1.
    10030    2    1    2    0    0  0.00000000000E+00  0.00000000000E+00 -0.31569230614E+04  0.32571649804E+04  0.80184817389E+03 0.  0.
        4    1    3    3  502    0  0.97231237099E+02  0.21570944764E+03 -0.26374239256E+03  0.35432490994E+03  0.12699999809E+01 0.  1.
       -4    1    3    3    0  502 -0.97231237099E+02 -0.21570944764E+03 -0.28931806688E+04  0.29028400705E+04  0.12699999809E+01 0. -1.
</event>
<event>
 5   0  0.1049780E-02  0.8062818E+03  0.7818609E-02  0.9550969E-01
       -1   -1    0    0    0  501  0.00000000000E+00  0.00000000000E+00  0.44138607312E+03  0.44138607315E+03  0.50400001928E-02 0.  1.
        1   -1    0    0  501    0  0.00000000000E+00  0.00000000000E+00 -0.36820960230E+03  0.36820960233E+03  0.50400001928E-02 0. -1.
    10030    2    1    2    0    0  0.00000000000E+00  0.00000000000E+00  0.73176470821E+02  0.80959567548E+03  0.80628181294E+03 0.  0.
        5    1    3    3  502    0 -0.33474002661E+02 -0.36030901678E+03  0.21496239962E+03  0.42092044340E+03  0.46999998093E+01 0.  1.
       -5    1    3    3    0  502  0.33474002661E+02  0.36030901678E+03 -0.14178592880E+03  0.38867523208E+03  0.46999998093E+01 0. -1.
</event>
<event>
 5   0  0.1747544E-02  0.8053661E+03  0.7818609E-02  0.9552282E-01
        2   -1    0    0  501    0  0.00000000000E+00  0.00000000000E+00  0.25480648349E+03  0.25480648350E+03  0.25500000920E-02 0. -1.
       -2   -1    0    0    0  501  0.00000000000E+00  0.00000000000E+00 -0.63637955003E+03  0.63637955003E+03  0.25500000920E-02 0.  1.
    10030    2    1    2    0    0  0.00000000000E+00  0.00000000000E+00 -0.38157306654E+03  0.89118603353E+03  0.80536609145E+03 0.  0.
        1    1    3    3  502    0  0.34822046649E+03 -0.43940142692E+02 -0.40921771403E+03  0.53911721074E+03  0.50400001928E-02 0.  1.
       -1    1    3    3    0  502 -0.34822046649E+03  0.43940142692E+02  0.27644647492E+02  0.35206882279E+03  0.50400001928E-02 0. -1.
</event>
<event>
 5   0  0.1731337E-02  0.7962967E+03  0.7818609E-02  0.9565393E-01
       -2   -1    0    0    0  501  0.00000000000E+00  0.00000000000E+00  0.15188413193E+03  0.15188413195E+03  0.25500000920E-02 0. -1.
        2   -1    0    0  501    0  0.00000000000E+00  0.00000000000E+00 -0.10437043258E+04  0.10437043258E+04  0.25500000920E-02 0.  1.
    10030    2    1    2    0    0  0.00000000000E+00  0.00000000000E+00 -0.89182019384E+03  0.11955884577E+04  0.79629674248E+03 0.  0.
        4    1    3    3  502    0  0.22457143040E+03 -0.31833530151E+03 -0.32254705393E+03  0.50577456089E+03  0.12699999809E+01 0. -1.
       -4    1    3    3    0  502 -0.22457143040E+03  0.31833530151E+03 -0.56927313991E+03  0.68981389683E+03  0.12699999809E+01 0.  1.
</event>
<event>
 5   0  0.1731337E-02  0.7993117E+03  0.7818609E-02  0.9561014E-01
       -2   -1    0    0    0  501  0.00000000000E+00  0.00000000000E+00  0.59354879966E+03  0.59354879967E+03  0.25500000920E-02 0.  1.
        2   -1    0    0  501    0  0.00000000000E+00  0.00000000000E+00 -0.26910138695E+03  0.26910138696E+03  0.25500000920E-02 0. -1.
    10030    2    1    2    0    0  0.00000000000E+00  0.00000000000E+00  0.32444741271E+03  0.86265018663E+03  0.79931171697E+03 0.  0.
        4    1    3    3  502    0  0.69864105642E+02 -0.39172867276E+03  0.20247298154E+03  0.44646306395E+03  0.12699999809E+01 0.  1.
       -4    1    3    3    0  502 -0.69864105642E+02  0.39172867276E+03  0.12197443118E+03  0.41618712268E+03  0.12699999809E+01 0. -1.
</event>
<event>
 5   0  0.1817089E-02  0.7781602E+03  0.7818609E-02  0.9592179E-01
       -2   -1    0    0    0  501  0.00000000000E+00  0.00000000000E+00  0.20052200095E+03  0.20052200097E+03  0.25500000920E-02 0.  1.
        2   -1    0    0  501    0  0.00000000000E+00  0.00000000000E+00 -0.75494625132E+03  0.75494625133E+03  0.25500000920E-02 0. -1.
    10030    2    1    2    0    0  0.00000000000E+00  0.00000000000E+00 -0.55442425037E+03  0.95546825230E+03  0.77816022241E+03 0.  0.
        2    1    3    3  502    0  0.17659452322E+03 -0.34666863108E+03 -0.27192129051E+03  0.47466404293E+03  0.25500000920E-02 0. -1.
       -2    1    3    3    0  502 -0.17659452322E+03  0.34666863108E+03 -0.28250295986E+03  0.48080420937E+03  0.25500000920E-02 0.  1.
</event>
<event>
 5   0  0.6872500E-03  0.7885177E+03  0.7818609E-02  0.9576788E-01
       -4   -1    0    0    0  501  0.00000000000E+00  0.00000000000E+00  0.75373989169E+03  0.75374096162E+03  0.12699999809E+01 0. -1.
        4   -1    0    0  501    0  0.00000000000E+00  0.00000000000E+00 -0.20622185257E+03  0.20622576313E+03  0.12699999809E+01 0.  1.
    10030    2    1    2    0    0  0.00000000000E+00  0.00000000000E+00  0.54751803911E+03  0.95996672475E+03  0.78851766592E+03 0.  0.
        1    1    3    3  502    0 -0.20900881770E+03  0.74019433684E+02  0.67064275506E+03  0.70634642165E+03  0.50400001928E-02 0. -1.
       -1    1    3    3    0  502  0.20900881770E+03 -0.74019433684E+02 -0.12312471595E+03  0.25362030309E+03  0.50400001928E-02 0.  1.
</event>
<event>
 5   0  0.1030323E-02  0.8003890E+03  0.7818609E-02  0.9559454E-01
       -1   -1    0    0    0  501  0.00000000000E+00  0.00000000000E+00  0.23244201650E+03  0.23244201655E+03  0.50400001928E-02 0. -1.
        1   -1    0    0  501    0  0.00000000000E+00  0.00000000000E+00 -0.68901324713E+03  0.68901324715E+03  0.50400001928E-02 0.  1.
    10030    2    1    2    0    0  0.00000000000E+00  0.00000000000E+00 -0.45657123064E+03  0.92145526370E+03  0.80038897691E+03 0.  0.
        3    1    3    3  502    0  0.35637282950E+03  0.14212612730E+03 -0.97253344864E+02  0.39580254288E+03  0.10100000352E+00 0. -1.
       -3    1    3    3    0  502 -0.35637282950E+03 -0.14212612730E+03 -0.35931788577E+03  0.52565272082E+03  0.10100000352E+00 0.  1.
</event>
<event>
 5   0  0.1673727E-02  0.7877881E+03  0.7818609E-02  0.9577863E-01
       -2   -1    0    0    0  501  0.00000000000E+00  0.00000000000E+00  0.74702171592E+02  0.74702171636E+02  0.25500000920E-02 0.  1.
        2   -1    0    0  501    0  0.00000000000E+00  0.00000000000E+00 -0.20769479657E+04  0.20769479657E+04  0.25500000920E-02 0. -1.
    10030    2    1    2    0    0  0.00000000000E+00  0.00000000000E+00 -0.20022457941E+04  0.21516501373E+04  0.78778810189E+03 0.  0.
        5    1    3    3  502    0  0.21938826665E+03  0.28040361891E+03 -0.14611835746E+04  0.15039404675E+04  0.46999998093E+01 0. -1.
       -5    1    3    3    0  502 -0.21938826665E+03 -0.28040361891E+03 -0.54106221946E+03  0.64770966981E+03  0.46999998093E+01 0.  1.
</event>
<event>
 5   0  0.1747544E-02  0.8229042E+03  0.7818609E-02  0.9527443E-01
        2   -1    0    0  501    0  0.00000000000E+00  0.00000000000E+00  0.25556685591E+03  0.25556685592E+03  0.25500000920E-02 0. -1.
       -2   -1    0    0    0  501  0.00000000000E+00  0.00000000000E+00 -0.66242097447E+03  0.66242097447E+03  0.25500000920E-02 0.  1.
    10030    2    1    2    0    0  0.00000000000E+00  0.00000000000E+00 -0.40685411856E+03  0.91798783040E+03  0.82290423682E+03 0.  0.
        1    1    3    3  502    0 -0.30402128528E+03  0.27406807376E+03 -0.15675247727E+03  0.43830764323E+03  0.50400001928E-02 0. -1.
       -1    1    3    3    0  502  0.30402128528E+03 -0.27406807376E+03 -0.25010164129E+03  0.47968018717E+03  0.50400001928E-02 0.  1.
</event>
<event>
 5   0  0.1146083E-02  0.8048333E+03  0.7818609E-02  0.9553047E-01
        1   -1    0    0  501    0  0.00000000000E+00  0.00000000000E+00  0.46251529981E+03  0.46251529984E+03  0.50400001928E-02 0. -1.
       -1   -1    0    0    0  501  0.00000000000E+00  0.00000000000E+00 -0.35012713798E+03  0.35012713802E+03  0.50400001928E-02 0.  1.
    10030    2    1    2    0    0  0.00000000000E+00  0.00000000000E+00  0.11238816183E+03  0.81264243786E+03  0.80483329509E+03 0.  0.
        4    1    3    3  502    0 -0.15106175680E+03 -0.30947190087E+03  0.26640885509E+03  0.43539384787E+03  0.12699999809E+01 0. -1.
       -4    1    3    3    0  502  0.15106175680E+03  0.30947190087E+03 -0.15402069326E+03  0.37724858999E+03  0.12699999809E+01 0.  1.
</event>
<event>
 5   0  0.1030323E-02  0.8068722E+03  0.7818609E-02  0.9550123E-01
       -1   -1    0    0    0  501  0.00000000000E+00  0.00000000000E+00  0.39209203506E+03  0.39209203510E+03  0.50400001928E-02 0. -1.
        1   -1    0    0  501    0  0.00000000000E+00  0.00000000000E+00 -0.41510833497E+03  0.41510833500E+03  0.50400001928E-02 0.  1.
    10030    2    1    2    0    0  0.00000000000E+00  0.00000000000E+00 -0.23016299905E+02  0.80720037009E+03  0.80687216300E+03 0.  0.
        3    1    3    3  502    0 -0.18866291025E+03  0.24663489748E+03  0.24615863942E+03  0.39625314171E+03  0.10100000352E+00 0. -1.
       -3    1    3    3    0  502  0.18866291025E+03 -0.24663489748E+03 -0.26917493932E+03  0.41094722838E+03  0.10100000352E+00 0.  1.
</event>
<event>
 5   0  0.1673727E-02  0.7836302E+03  0.7818609E-02  0.9584019E-01
       -2   -1    0    0    0  501  0.00000000000E+00  0.00000000000E+00  0.22922018108E+03  0.22922018109E+03  0.25500000920E-02 0.  1.
        2   -1    0    0  501    0  0.00000000000E+00  0.00000000000E+00 -0.66974505628E+03  0.66974505628E+03  0.25500000920E-02 0. -1.
    10030    2    1    2    0    0  0.00000000000E+00  0.00000000000E+00 -0.44052487520E+03  0.89896523737E+03  0.78363022679E+03 0.  0.
        5    1    3    3  502    0 -0.90055371739E+02  0.27873837644E+03 -0.51873210446E+03  0.59574334967E+03  0.46999998093E+01 0. -1.
       -5    1    3    3    0  502  0.90055371739E+02 -0.27873837644E+03  0.78207229262E+02  0.30322188771E+03  0.46999998093E+01 0.  1.
</event>
<event>
 5   0  0.6872500E-03  0.8072051E+03  0.7818609E-02  0.9549646E-01
        4   -1    0    0  501    0  0.00000000000E+00  0.00000000000E+00  0.73536820055E+03  0.73536929721E+03  0.12699999809E+01 0. -1.
       -4   -1    0    0    0  501  0.00000000000E+00  0.00000000000E+00 -0.22151182131E+03  0.22151546195E+03  0.12699999809E+01 0.  1.
    10030    2    1    2    0    0  0.00000000000E+00  0.00000000000E+00  0.51385637924E+03  0.95688475916E+03  0.80720509403E+03 0.  0.
        2    1    3    3  502    0 -0.92148589406E+02 -0.14526782485E+01 -0.20887403860E+03  0.22830207361E+03  0.25500000920E-02 0.  1.
       -2    1    3    3    0  502  0.92148589406E+02  0.14526782485E+01  0.72273041785E+03  0.72858268555E+03  0.25500000920E-02 0. -1.
</event>
<event>
 5   0  0.1817089E-02  0.8021632E+03  0.7818609E-02  0.9556891E-01
        2   -1    0    0  501    0  0.00000000000E+00  0.00000000000E+00  0.66942099591E+03  0.66942099591E+03  0.25500000920E-02 0.  1.
       -2   -1    0    0    0  501  0.00000000000E+00  0.00000000000E+00 -0.24030682476E+03  0.24030682477E+03  0.25500000920E-02 0. -1.
    10030    2    1    2    0    0  0.00000000000E+00  0.00000000000E+00  0.42911417115E+03  0.90972782068E+03  0.80216316036E+03 0.  0.
        2    1    3    3  502    0  0.93490271609E+02  0.36092576414E+03  0.46885337013E+02  0.37577396522E+03  0.25500000920E-02 0. -1.
       -2    1    3    3    0  502 -0.93490271609E+02 -0.36092576414E+03  0.38222883414E+03  0.53395385546E+03  0.25500000920E-02 0.  1.
</event>
<event>
 5   0  0.1731337E-02  0.8009249E+03  0.7818609E-02  0.9558679E-01
        2   -1    0    0  501    0  0.00000000000E+00  0.00000000000E+00  0.86798170742E+03  0.86798170743E+03  0.25500000920E-02 0. -1.
       -2   -1    0    0    0  501  0.00000000000E+00  0.00000000000E+00 -0.18476215125E+03  0.18476215127E+03  0.25500000920E-02 0.  1.
    10030    2    1    2    0    0  0.00000000000E+00  0.00000000000E+00  0.68321955617E+03  0.10527438587E+04  0.80092488417E+03 0.  0.
        4    1    3    3  502    0  0.24926486528E+03  0.23153531828E+03  0.63939325203E+02  0.34616676167E+03  0.12699999809E+01 0.  1.
       -4    1    3    3    0  502 -0.24926486528E+03 -0.23153531828E+03  0.61928023097E+03  0.70657709703E+03  0.12699999809E+01 0. -1.
</event>
<event>
 5   0  0.1025900E-02  0.7969359E+03  0.7818609E-02  0.9564463E-01
       -1   -1    0    0    0  501  0.00000000000E+00  0.00000000000E+00  0.85362190945E+03  0.85362190947E+03  0.50400001928E-02 0. -1.
        1   -1    0    0  501    0  0.00000000000E+00  0.00000000000E+00 -0.18600355939E+03  0.18600355946E+03  0.50400001928E-02 0.  1.
    10030    2    1    2    0    0  0.00000000000E+00  0.00000000000E+00  0.66761835006E+03  0.10396254689E+04  0.79693591605E+03 0.  0.
        1    1    3    3  502    0  0.14182171330E+03  0.33242664413E+02  0.81764365698E+03  0.83051768369E+03  0.50400001928E-02 0. -1.
       -1    1    3    3    0  502 -0.14182171330E+03 -0.33242664413E+02 -0.15002530692E+03  0.20910778523E+03  0.50400001928E-02 0.  1.
</event>
<event>
 5   0  0.1025900E-02  0.8020280E+03  0.7818609E-02  0.9557086E-01
       -1   -1    0    0    0  501  0.00000000000E+00  0.00000000000E+00  0.13873961558E+03  0.13873961568E+03  0.50400001928E-02 0. -1.
        1   -1    0    0  501    0  0.00000000000E+00  0.00000000000E+00 -0.11590938234E+04  0.11590938234E+04  0.50400001928E-02 0.  1.
    10030    2    1    2    0    0  0.00000000000E+00  0.00000000000E+00 -0.10203542078E+04  0.12978334391E+04  0.80202800838E+03 0.  0.
        1    1    3    3  502    0 -0.18187583690E+03  0.21096651184E+03 -0.97700881678E+03  0.10159389338E+04  0.50400001928E-02 0.  1.
       -1    1    3    3    0  502  0.18187583690E+03 -0.21096651184E+03 -0.43345391066E+02  0.28189450530E+03  0.50400001928E-02 0. -1.
</event>
<event>
 5   0  0.1030323E-02  0.7891318E+03  0.7818609E-02  0.9575883E-01
       -1   -1    0    0    0  501  0.00000000000E+00  0.00000000000E+00  0.42054683192E+03  0.42054683195E+03  0.50400001928E-02 0.  1.
        1   -1    0    0  501    0  0.00000000000E+00  0.00000000000E+00 -0.37019000190E+03  0.37019000193E+03  0.50400001928E-02 0. -1.
    10030    2    1    2    0    0  0.00000000000E+00  0.00000000000E+00  0.50356830024E+02  0.79073683388E+03  0.78913175714E+03 0.  0.
        3    1    3    3  502    0  0.15507594668E+03 -0.34460306024E+03  0.13890995117E+03  0.40261123072E+03  0.10100000352E+00 0. -1.
       -3    1    3    3    0  502 -0.15507594668E+03  0.34460306024E+03 -0.88553121148E+02  0.38812560316E+03  0.10100000352E+00 0.  1.
</event>
<event>
 5   0  0.1747544E-02  0.7972944E+03  0.7818609E-02  0.9563942E-01
        2   -1    0    0  501    0  0.00000000000E+00  0.00000000000E+00  0.73579286432E+03  0.73579286432E+03  0.25500000920E-02 0. -1.
       -2   -1    0    0    0  501  0.00000000000E+00  0.00000000000E+00 -0.21598414749E+03  0.21598414750E+03  0.25500000920E-02 0.  1.
    10030    2    1    2    0    0  0.00000000000E+00  0.00000000000E+00  0.51980871683E+03  0.95177701183E+03  0.79729441121E+03 0.  0.
        1    1    3    3  502    0 -0.90425307501E+02  0.22071171829E+02  0.72263898660E+03  0.72860893341E+03  0.50400001928E-02 0. -1.
       -1    1    3    3    0  502  0.90425307501E+02 -0.22071171829E+02 -0.20283026977E+03  0.22316807842E+03  0.50400001928E-02 0.  1.
</event>
<event>
 5   0  0.6872500E-03  0.7996219E+03  0.7818609E-02  0.9560565E-01
        3   -1    0    0  501    0  0.00000000000E+00  0.00000000000E+00  0.46383534404E+03  0.46383535504E+03  0.10100000352E+00 0. -1.
       -3   -1    0    0    0  501  0.00000000000E+00  0.00000000000E+00 -0.34462395157E+03  0.34462396637E+03  0.10100000352E+00 0.  1.
    10030    2    1    2    0    0  0.00000000000E+00  0.00000000000E+00  0.11921139247E+03  0.80845932141E+03  0.79962185956E+03 0.  0.
        4    1    3    3  502    0 -0.12184375453E+03  0.32032914459E+03  0.26777074439E+03  0.43492464386E+03  0.12699999809E+01 0.  1.
       -4    1    3    3    0  502  0.12184375453E+03 -0.32032914459E+03 -0.14855935192E+03  0.37353467755E+03  0.12699999809E+01 0. -1.
</event>
<event>
 5   0  0.1731337E-02  0.7983557E+03  0.7818609E-02  0.9562400E-01
       -2   -1    0    0    0  501  0.00000000000E+00  0.00000000000E+00  0.19903053879E+03  0.19903053880E+03  0.25500000920E-02 0.  1.
        2   -1    0    0  501    0  0.00000000000E+00  0.00000000000E+00 -0.80059555841E+03  0.80059555841E+03  0.25500000920E-02 0. -1.
    10030    2    1    2    0    0  0.00000000000E+00  0.00000000000E+00 -0.60156501962E+03  0.99962609721E+03  0.79835572360E+03 0.  0.
        4    1    3    3  502    0 -0.15606936134E+03  0.36361119238E+03 -0.36668907207E+03  0.53947496072E+03  0.12699999809E+01 0. -1.
       -4    1    3    3    0  502  0.15606936134E+03 -0.36361119238E+03 -0.23487594755E+03  0.46015113649E+03  0.12699999809E+01 0.  1.
</event>
<event>
 5   0  0.1146083E-02  0.7982758E+03  0.7818609E-02  0.9562516E-01
        1   -1    0    0  501    0  0.00000000000E+00  0.00000000000E+00  0.13348449207E+04  0.13348449207E+04  0.50400001928E-02 0.  1.
       -1   -1    0    0    0  501  0.00000000000E+00  0.00000000000E+00 -0.11934800662E+03  0.11934800672E+03  0.50400001928E-02 0. -1.
    10030    2    1    2    0    0  0.00000000000E+00  0.00000000000E+00  0.12154969141E+04  0.14541929275E+04  0.79827584334E+03 0.  0.
        4    1    3    3  502    0 -0.25110995286E+03 -0.30263580040E+03  0.73216754742E+03  0.83109299510E+03  0.12699999809E+01 0. -1.
       -4    1    3    3    0  502  0.25110995286E+03  0.30263580040E+03  0.48332936669E+03  0.62309993236E+03  0.12699999809E+01 0.  1.
</event>
<event>
 5   0  0.1049780E-02  0.7795832E+03  0.7818609E-02  0.9590049E-01
        1   -1    0    0  501    0  0.00000000000E+00  0.00000000000E+00  0.56737731421E+03  0.56737731423E+03  0.50400001928E-02 0.  1.
       -1   -1    0    0    0  501  0.00000000000E+00  0.00000000000E+00 -0.26778912548E+03  0.26778912553E+03  0.50400001928E-02 0. -1.
    10030    2    1    2    0    0  0.00000000000E+00  0.00000000000E+00  0.29958818873E+03  0.83516643976E+03  0.77958315738E+03 0.  0.
        5    1    3    3  502    0  0.26653477512E+03 -0.22331158856E+03  0.33843557213E+03  0.48525207719E+03  0.46999998093E+01 0.  1.
       -5    1    3    3    0  502 -0.26653477512E+03  0.22331158856E+03 -0.38847383406E+02  0.34991436257E+03  0.46999998093E+01 0. -1.
</event>
<event>
 5   0  0.1747544E-02  0.8010463E+03  0.7818609E-02  0.9558504E-01
        2   -1    0    0  501    0  0.00000000000E+00  0.00000000000E+00  0.40641673257E+03  0.40641673258E+03  0.25500000920E-02 0. -1.
       -2   -1    0    0    0  501  0.00000000000E+00  0.00000000000E+00 -0.39471500070E+03  0.39471500070E+03  0.25500000920E-02 0.  1.
    10030    2    1    2    0    0  0.00000000000E+00  0.00000000000E+00  0.11701731873E+02  0.80113173328E+03  0.80104626804E+03 0.  0.
        1    1    3    3  502    0 -0.78703100879E+02 -0.75985194933E+02 -0.37948344561E+03  0.39493748044E+03  0.50400001928E-02 0.  1.
       -1    1    3    3    0  502  0.78703100879E+02  0.75985194933E+02  0.39118517748E+03  0.40619425284E+03  0.50400001928E-02 0. -1.
</event>
<event>
 5   0  0.1030323E-02  0.7973518E+03  0.7818609E-02  0.9563858E-01
        1   -1    0    0  501    0  0.00000000000E+00  0.00000000000E+00  0.82025051667E+03  0.82025051669E+03  0.50400001928E-02 0. -1.
       -1   -1    0    0    0  501  0.00000000000E+00  0.00000000000E+00 -0.19377308784E+03  0.19377308790E+03  0.50400001928E-02 0.  1.
    10030    2    1    2    0    0  0.00000000000E+00  0.00000000000E+00  0.62647742883E+03  0.10140236046E+04  0.79735180556E+03 0.  0.
        3    1    3    3  502    0 -0.21437357931E+03 -0.15089461786E+03  0.69522068988E+03  0.74300540715E+03  0.10100000352E+00 0. -1.
       -3    1    3    3    0  502  0.21437357931E+03  0.15089461786E+03 -0.68743261053E+02  0.27101819744E+03  0.10100000352E+00 0.  1.
</event>
<event>
 5   0  0.1817089E-02  0.8441888E+03  0.7818609E-02  0.9498170E-01
       -2   -1    0    0    0  501  0.00000000000E+00  0.00000000000E+00  0.76540919488E+03  0.76540919489E+03  0.25500000920E-02 0. -1.
        2   -1    0    0  501    0  0.00000000000E+00  0.00000000000E+00 -0.23276920479E+03  0.23276920480E+03  0.25500000920E-02 0.  1.
    10030    2    1    2    0    0  0.00000000000E+00  0.00000000000E+00  0.53263999009E+03  0.99817839969E+03  0.84418881689E+03 0.  0.
        2    1    3    3  502    0  0.21469770771E+03  0.14734574452E+03 -0.12647877617E+03  0.28948705490E+03  0.25500000920E-02 0.  1.
       -2    1    3    3    0  502 -0.21469770771E+03 -0.14734574452E+03  0.65911876627E+03  0.70869134479E+03  0.25500000920E-02 0. -1.
</event>
<event>
 5   0  0.1817089E-02  0.7911734E+03  0.7818609E-02  0.9572882E-01
        2   -1    0    0  501    0  0.00000000000E+00  0.00000000000E+00  0.14875197665E+04  0.14875197665E+04  0.25500000920E-02 0.  1.
       -2   -1    0    0    0  501  0.00000000000E+00  0.00000000000E+00 -0.10520118744E+03  0.10520118747E+03  0.25500000920E-02 0. -1.
    10030    2    1    2    0    0  0.00000000000E+00  0.00000000000E+00  0.13823185791E+04  0.15927209540E+04  0.79117342172E+03 0.  0.
        2    1    3    3  502    0  0.12267540805E+03 -0.31383661263E+03  0.11083457710E+04  0.11584355930E+04  0.25500000920E-02 0.  1.
       -2    1    3    3    0  502 -0.12267540805E+03  0.31383661263E+03  0.27397280815E+03  0.43428536100E+03  0.25500000920E-02 0. -1.
</event>
<event>
 5   0  0.1731337E-02  0.8007643E+03  0.7818609E-02  0.9558911E-01
        2   -1    0    0  501    0  0.00000000000E+00  0.00000000000E+00  0.71507724280E+03  0.71507724280E+03  0.25500000920E-02 0. -1.
       -2   -1    0    0    0  501  0.00000000000E+00  0.00000000000E+00 -0.22417981090E+03  0.22417981091E+03  0.25500000920E-02 0.  1.
    10030    2    1    2    0    0  0.00000000000E+00  0.00000000000E+00  0.49089743190E+03  0.93925705372E+03  0.80076433756E+03 0.  0.
        4    1    3    3  502    0  0.22091408983E+03 -0.33322454703E+03  0.22021979488E+03  0.45644277274E+03  0.12699999809E+01 0.  1.
       -4    1    3    3    0  502 -0.22091408983E+03  0.33322454703E+03  0.27067763702E+03  0.48281428097E+03  0.12699999809E+01 0. -1.
</event>
<event>
 5   0  0.1673727E-02  0.8014595E+03  0.7818609E-02  0.9557907E-01
        2   -1    0    0  501    0  0.00000000000E+00  0.00000000000E+00  0.12822478279E+04  0.12822478279E+04  0.25500000920E-02 0. -1.
       -2   -1    0    0    0  501  0.00000000000E+00  0.00000000000E+00 -0.12523657103E+03  0.12523657106E+03  0.25500000920E-02 0.  1.
    10030    2    1    2    0    0  0.00000000000E+00  0.00000000000E+00  0.11570112569E+04  0.14074843989E+04  0.80145947171E+03 0.  0.
        5    1    3    3  502    0 -0.11672554031E+03  0.62880444864E+02  0.12425618929E+04  0.12496243235E+04  0.46999998093E+01 0. -1.
       -5    1    3    3    0  502  0.11672554031E+03 -0.62880444864E+02 -0.85550636044E+02  0.15786007548E+03  0.46999998093E+01 0.  1.
</event>
<event>
 5   0  0.1747544E-02  0.8069639E+03  0.7818609E-02  0.9549992E-01
        2   -1    0    0  501    0  0.00000000000E+00  0.00000000000E+00  0.19504411539E+04  0.19504411539E+04  0.25500000920E-02 0. -1.
       -2   -1    0    0    0  501  0.00000000000E+00  0.00000000000E+00 -0.83467103976E+02  0.83467104015E+02  0.25500000920E-02 0.  1.
    10030    2    1    2    0    0  0.00000000000E+00  0.00000000000E+00  0.18669740499E+04  0.20339082579E+04  0.80696387684E+03 0.  0.
        1    1    3    3  502    0  0.30990759585E+03 -0.21158825037E+03  0.55976891452E+03  0.67390915066E+03  0.50400001928E-02 0.  1.
       -1    1    3    3    0  502 -0.30990759585E+03  0.21158825037E+03  0.13072051354E+04  0.13599991072E+04  0.50400001928E-02 0. -1.
</event>
<event>
 5   0  0.1673727E-02  0.8058220E+03  0.7818609E-02  0.9551628E-01
       -2   -1    0    0    0  501  0.00000000000E+00  0.00000000000E+00  0.14457870442E+03  0.14457870444E+03  0.25500000920E-02 0.  1.
        2   -1    0    0  501    0  0.00000000000E+00  0.00000000000E+00 -0.11228297505E+04  0.11228297505E+04  0.25500000920E-02 0. -1.
    10030    2    1    2    0    0  0.00000000000E+00  0.00000000000E+00 -0.97825104609E+03  0.12674084549E+04  0.80582199182E+03 0.  0.
        5    1    3    3  502    0 -0.17709255261E+02  0.91118295403E+02 -0.11057390281E+04  0.11096382517E+04  0.46999998093E+01 0. -1.
       -5    1    3    3    0  502  0.17709255261E+02 -0.91118295403E+02  0.12748798198E+03  0.15777020323E+03  0.46999998093E+01 0.  1.
</event>
<event>
 5   0  0.1146083E-02  0.8017429E+03  0.7818609E-02  0.9557498E-01
       -1   -1    0    0    0  501  0.00000000000E+00  0.00000000000E+00  0.34168986509E+03  0.34168986512E+03  0.50400001928E-02 0.  1.
        1   -1    0    0  501    0  0.00000000000E+00  0.00000000000E+00 -0.47030344661E+03  0.47030344664E+03  0.50400001928E-02 0. -1.
    10030    2    1    2    0    0  0.00000000000E+00  0.00000000000E+00 -0.12861358153E+03  0.81199331176E+03  0.80174290455E+03 0.  0.
        4    1    3    3  502    0 -0.18352924665E+03 -0.35559051661E+03 -0.88459295437E+02  0.40982222942E+03  0.12699999809E+01 0.  1.
       -4    1    3    3    0  502  0.18352924665E+03  0.35559051661E+03 -0.40154286088E+02  0.40217108234E+03  0.12699999809E+01 0. -1.
</event>
<event>
 5   0  0.1049780E-02  0.7948501E+03  0.7818609E-02  0.9567501E-01
       -1   -1    0    0    0  501  0.00000000000E+00  0.00000000000E+00  0.49868845726E+03  0.49868845729E+03  0.50400001928E-02 0.  1.
        1   -1    0    0  501    0  0.00000000000E+00  0.00000000000E+00 -0.31672413444E+03  0.31672413448E+03  0.50400001928E-02 0. -1.
    10030    2    1    2    0    0  0.00000000000E+00  0.00000000000E+00  0.18196432282E+03  0.81541259177E+03  0.79485009910E+03 0.  0.
        5    1    3    3  502    0  0.11620037963E+02 -0.36053482427E+03  0.26204171939E+03  0.44587928579E+03  0.46999998093E+01 0.  1.
       -5    1    3    3    0  502 -0.11620037963E+02  0.36053482427E+03 -0.80077396571E+02  0.36953330598E+03  0.46999998093E+01 0. -1.
</event>
<event>
 5   0  0.1731337E-02  0.7970626E+03  0.7818609E-02  0.9564279E-01
        2   -1    0    0  501    0  0.00000000000E+00  0.00000000000E+00  0.95567514481E+03  0.95567514481E+03  0.25500000920E-02 0.  1.
       -2   -1    0    0    0  501  0.00000000000E+00  0.00000000000E+00 -0.16619372352E+03  0.16619372354E+03  0.25500000920E-02 0. -1.
    10030    2    1    2    0    0  0.00000000000E+00  0.00000000000E+00  0.78948142128E+03  0.11218688684E+04  0.79706263445E+03 0.  0.
        4    1    3    3  502    0 -0.24833243984E+03 -0.23518990933E+03  0.10683025262E+03  0.35832612227E+03  0.12699999809E+01 0. -1.
       -4    1    3    3    0  502  0.24833243984E+03  0.23518990933E+03  0.68265116866E+03  0.76354274609E+03  0.12699999809E+01 0.  1.
</event>
<event>
 5   0  0.1817089E-02  0.7927160E+03  0.7818609E-02  0.9570621E-01
       -2   -1    0    0    0  501  0.00000000000E+00  0.00000000000E+00  0.15925958427E+03  0.15925958429E+03  0.25500000920E-02 0.  1.
        2   -1    0    0  501    0  0.00000000000E+00  0.00000000000E+00 -0.98643766131E+03  0.98643766131E+03  0.25500000920E-02 0. -1.
    10030    2    1    2    0    0  0.00000000000E+00  0.00000000000E+00 -0.82717807704E+03  0.11456972456E+04  0.79271596896E+03 0.  0.
        2    1    3    3  502    0  0.10192170248E+03 -0.34057101998E+03 -0.16026053146E+03  0.38994883131E+03  0.25500000920E-02 0.  1.
       -2    1    3    3    0  502 -0.10192170248E+03  0.34057101998E+03 -0.66691754559E+03  0.75574841429E+03  0.25500000920E-02 0. -1.
</event>
<event>
 5   0  0.1049780E-02  0.7934713E+03  0.7818609E-02  0.9569515E-01
        1   -1    0    0  501    0  0.00000000000E+00  0.00000000000E+00  0.52348282965E+03  0.52348282968E+03  0.50400001928E-02 0.  1.
       -1   -1    0    0    0  501  0.00000000000E+00  0.00000000000E+00 -0.30067689481E+03  0.30067689485E+03  0.50400001928E-02 0. -1.
    10030    2    1    2    0    0  0.00000000000E+00  0.00000000000E+00  0.22280593485E+03  0.82415972452E+03  0.79347133970E+03 0.  0.
        5    1    3    3  502    0 -0.13743392378E+03 -0.49329538517E+02  0.49452610227E+03  0.51565457682E+03  0.46999998093E+01 0.  1.
       -5    1    3    3    0  502  0.13743392378E+03  0.49329538517E+02 -0.27172016742E+03  0.30850514770E+03  0.46999998093E+01 0. -1.
</event>
<event>
 5   0  0.1038912E-02  0.7434533E+03  0.7818609E-02  0.9645677E-01
       -1   -1    0    0    0  501  0.00000000000E+00  0.00000000000E+00  0.11559434934E+03  0.11559434945E+03  0.50400001928E-02 0.  1.
        1   -1    0    0  501    0  0.00000000000E+00  0.00000000000E+00 -0.11953930812E+04  0.11953930812E+04  0.50400001928E-02 0. -1.
    10030    2    1    2    0    0  0.00000000000E+00  0.00000000000E+00 -0.10797987319E+04  0.13109874307E+04  0.74345325478E+03 0.  0.
        2    1    3    3  502    0  0.15327691550E+03 -0.24156421258E+03 -0.12136740470E+03  0.31076860935E+03  0.25500000920E-02 0.  1.
       -2    1    3    3    0  502 -0.15327691550E+03  0.24156421258E+03 -0.95843132718E+03  0.10002188213E+04  0.25500000920E-02 0. -1.
</event>
<event>
 5   0  0.1673727E-02  0.7927880E+03  0.7818609E-02  0.9570515E-01
        2   -1    0    0  501    0  0.00000000000E+00  0.00000000000E+00  0.67066106502E+03  0.67066106502E+03  0.25500000920E-02 0.  1.
       -2   -1    0    0    0  501  0.00000000000E+00  0.00000000000E+00 -0.23428853513E+03  0.23428853515E+03  0.25500000920E-02 0. -1.
    10030    2    1    2    0    0  0.00000000000E+00  0.00000000000E+00  0.43637252989E+03  0.90494960017E+03  0.79278798806E+03 0.  0.
        5    1    3    3  502    0 -0.34685930986E+03 -0.11637507103E+03  0.39224405988E+03  0.53640659066E+03  0.46999998093E+01 0.  1.
       -5    1    3    3    0  502  0.34685930986E+03  0.11637507103E+03  0.44128470010E+02  0.36854300951E+03  0.46999998093E+01 0. -1.
</event>
<event>
 5   0  0.1038912E-02  0.7709082E+03  0.7818609E-02  0.9603108E-01
        1   -1    0    0  501    0  0.00000000000E+00  0.00000000000E+00  0.68572322754E+03  0.68572322755E+03  0.50400001928E-02 0.  1.
       -1   -1    0    0    0  501  0.00000000000E+00  0.00000000000E+00 -0.21666883898E+03  0.21666883904E+03  0.50400001928E-02 0. -1.
    10030    2    1    2    0    0  0.00000000000E+00  0.00000000000E+00  0.46905438855E+03  0.90239206659E+03  0.77090818029E+03 0.  0.
        2    1    3    3  502    0 -0.95392459107E+02  0.12400986765E+03 -0.17782917609E+03  0.23685730811E+03  0.25500000920E-02 0. -1.
       -2    1    3    3    0  502  0.95392459107E+02 -0.12400986765E+03  0.64688356465E+03  0.66553475848E+03  0.25500000920E-02 0.  1.
</event>
<event>
 5   0  0.1030323E-02  0.8006756E+03  0.7818609E-02  0.9559040E-01
        1   -1    0    0  501    0  0.00000000000E+00  0.00000000000E+00  0.12053203386E+04  0.12053203386E+04  0.50400001928E-02 0. -1.
       -1   -1    0    0    0  501  0.00000000000E+00  0.00000000000E+00 -0.13296908532E+03  0.13296908541E+03  0.50400001928E-02 0.  1.
    10030    2    1    2    0    0  0.00000000000E+00  0.00000000000E+00  0.10723512532E+04  0.13382894240E+04  0.80067557226E+03 0.  0.
        3    1    3    3  502    0 -0.81599638968E+01 -0.77462920307E+02  0.11925327785E+04  0.11950738584E+04  0.10100000352E+00 0. -1.
       -3    1    3    3    0  502  0.81599638968E+01  0.77462920307E+02 -0.12018152521E+03  0.14321556562E+03  0.10100000352E+00 0.  1.
</event>
<event>
 5   0  0.1025900E-02  0.8138212E+03  0.7818609E-02  0.9540224E-01
        1   -1    0    0  501    0  0.00000000000E+00  0.00000000000E+00  0.85825345282E+03  0.85825345283E+03  0.50400001928E-02 0. -1.
       -1   -1    0    0    0  501  0.00000000000E+00  0.00000000000E+00 -0.19292230449E+03  0.19292230455E+03  0.50400001928E-02 0.  1.
    10030    2    1    2    0    0  0.00000000000E+00  0.00000000000E+00  0.66533114833E+03  0.10511757574E+04  0.81382119411E+03 0.  0.
        1    1    3    3  502    0  0.18537991477E+02 -0.40648809035E+03  0.33254139237E+03  0.52550927907E+03  0.50400001928E-02 0.  1.
       -1    1    3    3    0  502 -0.18537991477E+02  0.40648809035E+03  0.33278975596E+03  0.52566647831E+03  0.50400001928E-02 0. -1.
</event>
<event>
 5   0  0.1747544E-02  0.7996636E+03  0.7818609E-02  0.9560504E-01
       -2   -1    0    0    0  501  0.00000000000E+00  0.00000000000E+00  0.95617180682E+02  0.95617180716E+02  0.25500000920E-02 0. -1.
        2   -1    0    0  501    0  0.00000000000E+00  0.00000000000E+00 -0.16719326155E+04  0.16719326155E+04  0.25500000920E-02 0.  1.
    10030    2    1    2    0    0  0.00000000000E+00  0.00000000000E+00 -0.15763154348E+04  0.17675497962E+04  0.79966363682E+03 0.  0.
        1    1    3    3  502    0  0.50759727313E+02 -0.19936781757E+02 -0.16636734594E+04  0.16645670322E+04  0.50400001928E-02 0.  1.
       -1    1    3    3    0  502 -0.50759727313E+02  0.19936781757E+02  0.87358024620E+02  0.10298276397E+03  0.50400001928E-02 0. -1.
</event>
<event>
 5   0  0.6872500E-03  0.8046912E+03  0.7818609E-02  0.9553251E-01
        3   -1    0    0  501    0  0.00000000000E+00  0.00000000000E+00  0.16025501123E+03  0.16025504306E+03  0.10100000352E+00 0.  1.
       -3   -1    0    0    0  501  0.00000000000E+00  0.00000000000E+00 -0.10101523610E+04  0.10101523661E+04  0.10100000352E+00 0. -1.
    10030    2    1    2    0    0  0.00000000000E+00  0.00000000000E+00 -0.84989734982E+03  0.11704074091E+04  0.80469124400E+03 0.  0.
        1    1    3    3  502    0 -0.78803353999E+02  0.12781869769E+03 -0.96787010001E+03  0.97944888514E+03  0.50400001928E-02 0. -1.
       -1    1    3    3    0  502  0.78803353999E+02 -0.12781869769E+03  0.11797275019E+03  0.19095852401E+03  0.50400001928E-02 0.  1.
</event>
<event>
 5   0  0.1818665E-02  0.7950729E+03  0.7818609E-02  0.9567176E-01
       -2   -1    0    0    0  501  0.00000000000E+00  0.00000000000E+00  0.12528835720E+03  0.12528835723E+03  0.25500000920E-02 0. -1.
        2   -1    0    0  501    0  0.00000000000E+00  0.00000000000E+00 -0.12613719488E+04  0.12613719488E+04  0.25500000920E-02 0.  1.
    10030    2    1    2    0    0  0.00000000000E+00  0.00000000000E+00 -0.11360835916E+04  0.13866603061E+04  0.79507287543E+03 0.  0.
        3    1    3    3  502    0  0.27952050301E+03  0.20626586220E+03 -0.90513835934E+03  0.96951161791E+03  0.10100000352E+00 0.  1.
       -3    1    3    3    0  502 -0.27952050301E+03 -0.20626586220E+03 -0.23094523230E+03  0.41714868816E+03  0.10100000352E+00 0. -1.
</event>
<event>
 5   0  0.1673727E-02  0.7971401E+03  0.7818609E-02  0.9564166E-01
       -2   -1    0    0    0  501  0.00000000000E+00  0.00000000000E+00  0.21359830227E+03  0.21359830229E+03  0.25500000920E-02 0.  1.
        2   -1    0    0  501    0  0.00000000000E+00  0.00000000000E+00 -0.74372347382E+03  0.74372347382E+03  0.25500000920E-02 0. -1.
    10030    2    1    2    0    0  0.00000000000E+00  0.00000000000E+00 -0.53012517155E+03  0.95732177611E+03  0.79714006643E+03 0.  0.
        5    1    3    3  502    0 -0.34759236736E+03  0.86847831975E+02 -0.55419388659E+02  0.36256916361E+03  0.46999998093E+01 0.  1.
       -5    1    3    3    0  502  0.34759236736E+03 -0.86847831975E+02 -0.47470578289E+03  0.59475261250E+03  0.46999998093E+01 0. -1.
</event>
<event>
 5   0  0.1731337E-02  0.9317663E+03  0.7818609E-02  0.9386721E-01
        2   -1    0    0  501    0  0.00000000000E+00  0.00000000000E+00  0.74728326751E+03  0.74728326751E+03  0.25500000920E-02 0. -1.
       -2   -1    0    0    0  501  0.00000000000E+00  0.00000000000E+00 -0.29044821075E+03  0.29044821077E+03  0.25500000920E-02 0.  1.
    10030    2    1    2    0    0  0.00000000000E+00  0.00000000000E+00  0.45683505675E+03  0.10377314783E+04  0.93176625391E+03 0.  0.
        4    1    3    3  502    0 -0.15894688688E+03 -0.26103391269E+03  0.62003510968E+03  0.69126548197E+03  0.12699999809E+01 0. -1.
       -4    1    3    3    0  502  0.15894688688E+03  0.26103391269E+03 -0.16320005293E+03  0.34646599631E+03  0.12699999809E+01 0.  1.
</event>
<event>
 5   0  0.1747544E-02  0.7989227E+03  0.7818609E-02  0.9561578E-01
        2   -1    0    0  501    0  0.00000000000E+00  0.00000000000E+00  0.38796245462E+03  0.38796245463E+03  0.25500000920E-02 0.  1.
       -2   -1    0    0    0  501  0.00000000000E+00  0.00000000000E+00 -0.41130106197E+03  0.41130106198E+03  0.25500000920E-02 0. -1.
    10030    2    1    2    0    0  0.00000000000E+00  0.00000000000E+00 -0.23338607355E+02  0.79926351661E+03  0.79892269863E+03 0.  0.
        1    1    3    3  502    0  0.34665957167E+03 -0.97308897176E+02  0.16140012998E+03  0.39457810645E+03  0.50400001928E-02 0. -1.
       -1    1    3    3    0  502 -0.34665957167E+03  0.97308897176E+02 -0.18473873733E+03  0.40468541016E+03  0.50400001928E-02 0.  1.
</event>
<event>
 5   0  0.1038912E-02  0.7901991E+03  0.7818609E-02  0.9574313E-01
        1   -1    0    0  501    0  0.00000000000E+00  0.00000000000E+00  0.19248809922E+04  0.19248809922E+04  0.50400001928E-02 0. -1.
       -1   -1    0    0    0  501  0.00000000000E+00  0.00000000000E+00 -0.81097817066E+02  0.81097817222E+02  0.50400001928E-02 0.  1.
    10030    2    1    2    0    0  0.00000000000E+00  0.00000000000E+00  0.18437831751E+04  0.20059788094E+04  0.79019908059E+03 0.  0.
        2    1    3    3  502    0 -0.23751902553E+03 -0.15904225567E+02  0.12139337611E+03  0.26721636112E+03  0.25500000920E-02 0.  1.
       -2    1    3    3    0  502  0.23751902553E+03  0.15904225567E+02  0.17223897990E+04  0.17387624483E+04  0.25500000920E-02 0. -1.
</event>
<event>
 5   0  0.1030323E-02  0.7871038E+03  0.7818609E-02  0.9578874E-01
        1   -1    0    0  501    0  0.00000000000E+00  0.00000000000E+00  0.93516909110E+03  0.93516909111E+03  0.50400001928E-02 0.  1.
       -1   -1    0    0    0  501  0.00000000000E+00  0.00000000000E+00 -0.16562043899E+03  0.16562043907E+03  0.50400001928E-02 0. -1.
    10030    2    1    2    0    0  0.00000000000E+00  0.00000000000E+00  0.76954865210E+03  0.11007895302E+04  0.78710384436E+03 0.  0.
        3    1    3    3  502    0 -0.28861147778E+03 -0.26156857444E+03  0.30605301317E+03  0.49536164699E+03  0.10100000352E+00 0. -1.
       -3    1    3    3    0  502  0.28861147778E+03  0.26156857444E+03  0.46349563894E+03  0.60542788320E+03  0.10100000352E+00 0.  1.
</event>
<event>
 5   0  0.6872500E-03  0.8111527E+03  0.7818609E-02  0.9544013E-01
        3   -1    0    0  501    0  0.00000000000E+00  0.00000000000E+00  0.77334716493E+03  0.77334717152E+03  0.10100000352E+00 0. -1.
       -3   -1    0    0    0  501  0.00000000000E+00  0.00000000000E+00 -0.21270157991E+03  0.21270160389E+03  0.10100000352E+00 0.  1.
    10030    2    1    2    0    0  0.00000000000E+00  0.00000000000E+00  0.56064558501E+03  0.98604877542E+03  0.81115270788E+03 0.  0.
        5    1    3    3  502    0 -0.68781239331E+02  0.38008255132E+03  0.13007521341E+03  0.40759692815E+03  0.46999998093E+01 0. -1.
       -5    1    3    3    0  502  0.68781239331E+02 -0.38008255132E+03  0.43057037160E+03  0.57845184726E+03  0.46999998093E+01 0.  1.
</event>
<event>
 5   0  0.1673727E-02  0.8154662E+03  0.7818609E-02  0.9537896E-01
       -2   -1    0    0    0  501  0.00000000000E+00  0.00000000000E+00  0.22236808234E+03  0.22236808236E+03  0.25500000920E-02 0. -1.
        2   -1    0    0  501    0  0.00000000000E+00  0.00000000000E+00 -0.74761759334E+03  0.74761759334E+03  0.25500000920E-02 0.  1.
    10030    2    1    2    0    0  0.00000000000E+00  0.00000000000E+00 -0.52524951099E+03  0.96998567570E+03  0.81546622386E+03 0.  0.
        5    1    3    3  502    0  0.14454602715E+03  0.78713030284E+02 -0.70631245824E+03  0.72525076612E+03  0.46999998093E+01 0.  1.
       -5    1    3    3    0  502 -0.14454602715E+03 -0.78713030284E+02  0.18106294725E+03  0.24473490958E+03  0.46999998093E+01 0. -1.
</event>
<event>
 5   0  0.1818665E-02  0.8033979E+03  0.7818609E-02  0.9555112E-01
       -2   -1    0    0    0  501  0.00000000000E+00  0.00000000000E+00  0.26189190929E+03  0.26189190930E+03  0.25500000920E-02 0.  1.
        2   -1    0    0  501    0  0.00000000000E+00  0.00000000000E+00 -0.61613986123E+03  0.61613986124E+03  0.25500000920E-02 0. -1.
    10030    2    1    2    0    0  0.00000000000E+00  0.00000000000E+00 -0.35424795195E+03  0.87803177054E+03  0.80339789558E+03 0.  0.
        3    1    3    3  502    0 -0.36857858009E+03  0.10388196568E+01 -0.25652926943E+01  0.36858898488E+03  0.10100000352E+00 0.  1.
       -3    1    3    3    0  502  0.36857858009E+03 -0.10388196568E+01 -0.35168265925E+03  0.50944278566E+03  0.10100000352E+00 0. -1.
</event>
<event>
 5   0  0.1038912E-02  0.8004004E+03  0.7818609E-02  0.9559438E-01
       -1   -1    0    0    0  501  0.00000000000E+00  0.00000000000E+00  0.74424562159E+03  0.74424562161E+03  0.50400001928E-02 0. -1.
        1   -1    0    0  501    0  0.00000000000E+00  0.00000000000E+00 -0.21519805161E+03  0.21519805167E+03  0.50400001928E-02 0.  1.
    10030    2    1    2    0    0  0.00000000000E+00  0.00000000000E+00  0.52904756998E+03  0.95944367328E+03  0.80040041910E+03 0.  0.
        2    1    3    3  502    0 -0.12244358479E+02 -0.22647280474E+03 -0.13072232215E+03  0.26177887829E+03  0.25500000920E-02 0.  1.
       -2    1    3    3    0  502  0.12244358479E+02  0.22647280474E+03  0.65976989213E+03  0.69766479499E+03  0.25500000920E-02 0. -1.
</event>
<event>
 5   0  0.1025900E-02  0.6657017E+03  0.7818609E-02  0.9777754E-01
        1   -1    0    0  501    0  0.00000000000E+00  0.00000000000E+00  0.85164998820E+03  0.85164998822E+03  0.50400001928E-02 0.  1.
       -1   -1    0    0    0  501  0.00000000000E+00  0.00000000000E+00 -0.13008826869E+03  0.13008826879E+03  0.50400001928E-02 0. -1.
    10030    2    1    2    0    0  0.00000000000E+00  0.00000000000E+00  0.72156171951E+03  0.98173825701E+03  0.66570165255E+03 0.  0.
        1    1    3    3  502    0  0.83967830310E+01 -0.30365215341E+03  0.56144626191E+03  0.63835494928E+03  0.50400001928E-02 0.  1.
       -1    1    3    3    0  502 -0.83967830310E+01  0.30365215341E+03  0.16011545760E+03  0.34338330772E+03  0.50400001928E-02 0. -1.
</event>
<event>
 5   0  0.1673727E-02  0.7965277E+03  0.7818609E-02  0.9565057E-01
       -2   -1    0    0    0  501  0.00000000000E+00  0.00000000000E+00  0.11357587582E+04  0.11357587582E+04  0.25500000920E-02 0. -1.
        2   -1    0    0  501    0  0.00000000000E+00  0.00000000000E+00 -0.13965474441E+03  0.13965474443E+03  0.25500000920E-02 0.  1.
    10030    2    1    2    0    0  0.00000000000E+00  0.00000000000E+00  0.99610401375E+03  0.12754135026E+04  0.79652771225E+03 0.  0.
        5    1    3    3  502    0 -0.33039504231E+03 -0.21823670837E+03  0.43004525322E+03  0.58459315313E+03  0.46999998093E+01 0. -1.
       -5    1    3    3    0  502  0.33039504231E+03  0.21823670837E+03  0.56605876052E+03  0.69082034946E+03  0.46999998093E+01 0.  1.
</event>
<event>
 5   0  0.1146083E-02  0.7895586E+03  0.7818609E-02  0.9575255E-01
        1   -1    0    0  501    0  0.00000000000E+00  0.00000000000E+00  0.15514897635E+04  0.15514897635E+04  0.50400001928E-02 0. -1.
       -1   -1    0    0    0  501  0.00000000000E+00  0.00000000000E+00 -0.10045229235E+03  0.10045229247E+03  0.50400001928E-02 0.  1.
    10030    2    1    2    0    0  0.00000000000E+00  0.00000000000E+00  0.14510374711E+04  0.16519420559E+04  0.78955861949E+03 0.  0.
        4    1    3    3  502    0 -0.14425197617E+03 -0.21784161339E+03  0.10632506095E+03  0.28208196085E+03  0.12699999809E+01 0.  1.
       -4    1    3    3    0  502  0.14425197617E+03  0.21784161339E+03  0.13447124102E+04  0.13698600951E+04  0.12699999809E+01 0. -1.
</event>
<event>
 5   0  0.1025900E-02  0.7862710E+03  0.7818609E-02  0.9580105E-01
        1   -1    0    0  501    0  0.00000000000E+00  0.00000000000E+00  0.37311770531E+03  0.37311770535E+03  0.50400001928E-02 0.  1.
       -1   -1    0    0    0  501  0.00000000000E+00  0.00000000000E+00 -0.41422722760E+03  0.41422722763E+03  0.50400001928E-02 0. -1.
    10030    2    1    2    0    0  0.00000000000E+00  0.00000000000E+00 -0.41109522284E+02  0.78734493297E+03  0.78627097788E+03 0.  0.
        1    1    3    3  502    0 -0.35890919388E+02 -0.18772085140E+03 -0.36457639200E+03  0.41163481603E+03  0.50400001928E-02 0. -1.
       -1    1    3    3    0  502  0.35890919388E+02  0.18772085140E+03  0.32346686971E+03  0.37571011694E+03  0.50400001928E-02 0.  1.
</event>
<event>
 5   0  0.1731337E-02  0.7961313E+03  0.7818609E-02  0.9565634E-01
       -2   -1    0    0    0  501  0.00000000000E+00  0.00000000000E+00  0.10916017328E+04  0.10916017328E+04  0.25500000920E-02 0.  1.
        2   -1    0    0  501    0  0.00000000000E+00  0.00000000000E+00 -0.14515939301E+03  0.14515939303E+03  0.25500000920E-02 0. -1.
    10030    2    1    2    0    0  0.00000000000E+00  0.00000000000E+00  0.94644233977E+03  0.12367611258E+04  0.79613125790E+03 0.  0.
        4    1    3    3  502    0 -0.34669991129E+03 -0.19517538139E+03  0.49289406253E+03  0.63343541720E+03  0.12699999809E+01 0. -1.
       -4    1    3    3    0  502  0.34669991129E+03  0.19517538139E+03  0.45354827724E+03  0.60332570861E+03  0.12699999809E+01 0.  1.
</event>
<event>
 5   0  0.1025900E-02  0.7990442E+03  0.7818609E-02  0.9561402E-01
        1   -1    0    0  501    0  0.00000000000E+00  0.00000000000E+00  0.67202486645E+03  0.67202486647E+03  0.50400001928E-02 0. -1.
       -1   -1    0    0    0  501  0.00000000000E+00  0.00000000000E+00 -0.23751785028E+03  0.23751785033E+03  0.50400001928E-02 0.  1.
    10030    2    1    2    0    0  0.00000000000E+00  0.00000000000E+00  0.43450701617E+03  0.90954271680E+03  0.79904418312E+03 0.  0.
        1    1    3    3  502    0 -0.27714159876E+03 -0.11996763974E+03  0.51499415830E+03  0.59700811004E+03  0.50400001928E-02 0. -1.
       -1    1    3    3    0  502  0.27714159876E+03  0.11996763974E+03 -0.80487142127E+02  0.31253460676E+03  0.50400001928E-02 0.  1.
</event>
<event>
 5   0  0.1025900E-02  0.7954779E+03  0.7818609E-02  0.9566586E-01
        1   -1    0    0  501    0  0.00000000000E+00  0.00000000000E+00  0.16184432231E+03  0.16184432239E+03  0.50400001928E-02 0.  1.
       -1   -1    0    0    0  501  0.00000000000E+00  0.00000000000E+00 -0.97745945730E+03  0.97745945731E+03  0.50400001928E-02 0. -1.
    10030    2    1    2    0    0  0.00000000000E+00  0.00000000000E+00 -0.81561513498E+03  0.11393037797E+04  0.79547787777E+03 0.  0.
        1    1    3    3  502    0 -0.27752269765E+03  0.18440971643E+03 -0.71886926944E+03  0.79233756556E+03  0.50400001928E-02 0. -1.
       -1    1    3    3    0  502  0.27752269765E+03 -0.18440971643E+03 -0.96745865544E+02  0.34696621414E+03  0.50400001928E-02 0.  1.
</event>
<event>
 5   0  0.1025900E-02  0.7961550E+03  0.7818609E-02  0.9565599E-01
        1   -1    0    0  501    0  0.00000000000E+00  0.00000000000E+00  0.27689202660E+03  0.27689202665E+03  0.50400001928E-02 0. -1.
       -1   -1    0    0    0  501  0.00000000000E+00  0.00000000000E+00 -0.57230144432E+03  0.57230144434E+03  0.50400001928E-02 0.  1.
    10030    2    1    2    0    0  0.00000000000E+00  0.00000000000E+00 -0.29540941772E+03  0.84919347099E+03  0.79615502705E+03 0.  0.
        1    1    3    3  502    0 -0.27608082725E+03 -0.24390597839E+03  0.13191946793E+02  0.36862552401E+03  0.50400001928E-02 0. -1.
       -1    1    3    3    0  502  0.27608082725E+03  0.24390597839E+03 -0.30860136451E+03  0.48056794698E+03  0.50400001928E-02 0.  1.
</event>
<event>
 5   0  0.1049780E-02  0.8014462E+03  0.7818609E-02  0.9557926E-01
       -1   -1    0    0    0  501  0.00000000000E+00  0.00000000000E+00  0.84291768385E+02  0.84291768536E+02  0.50400001928E-02 0. -1.
        1   -1    0    0  501    0  0.00000000000E+00  0.00000000000E+00 -0.19050376639E+04  0.19050376639E+04  0.50400001928E-02 0.  1.
    10030    2    1    2    0    0  0.00000000000E+00  0.00000000000E+00 -0.18207458955E+04  0.19893294324E+04  0.80144617707E+03 0.  0.
        5    1    3    3  502    0 -0.27186578862E+03 -0.11566073548E+03 -0.23849409828E+03  0.37972350160E+03  0.46999998093E+01 0. -1.
       -5    1    3    3    0  502  0.27186578862E+03  0.11566073548E+03 -0.15822517972E+04  0.16096059308E+04  0.46999998093E+01 0.  1.
</event>
<event>
 5   0  0.1049780E-02  0.7992260E+03  0.7818609E-02  0.9561138E-01
       -1   -1    0    0    0  501  0.00000000000E+00  0.00000000000E+00  0.69574769137E+03  0.69574769139E+03  0.50400001928E-02 0.  1.
        1   -1    0    0  501    0  0.00000000000E+00  0.00000000000E+00 -0.22952367266E+03  0.22952367271E+03  0.50400001928E-02 0. -1.
    10030    2    1    2    0    0  0.00000000000E+00  0.00000000000E+00  0.46622401871E+03  0.92527136410E+03  0.79922603912E+03 0.  0.
        5    1    3    3  502    0  0.27881072414E+03 -0.20409943244E+03  0.77134041388E+00  0.34556429674E+03  0.46999998093E+01 0. -1.
       -5    1    3    3    0  502 -0.27881072414E+03  0.20409943244E+03  0.46545267829E+03  0.57970706736E+03  0.46999998093E+01 0.  1.
</event>
<event>
 5   0  0.1038912E-02  0.7993171E+03  0.7818609E-02  0.9561006E-01
        1   -1    0    0  501    0  0.00000000000E+00  0.00000000000E+00  0.13844039269E+03  0.13844039278E+03  0.50400001928E-02 0.  1.
       -1   -1    0    0    0  501  0.00000000000E+00  0.00000000000E+00 -0.11537597526E+04  0.11537597526E+04  0.50400001928E-02 0. -1.
    10030    2    1    2    0    0  0.00000000000E+00  0.00000000000E+00 -0.10153193599E+04  0.12922001454E+04  0.79931709174E+03 0.  0.
        2    1    3    3  502    0  0.49926606502E+02  0.29999058310E+03 -0.88456724461E+02  0.31672007845E+03  0.25500000920E-02 0.  1.
       -2    1    3    3    0  502 -0.49926606502E+02 -0.29999058310E+03 -0.92686263547E+03  0.97548006696E+03  0.25500000920E-02 0. -1.
</event>
<event>
 5   0  0.1038912E-02  0.8037191E+03  0.7818609E-02  0.9554649E-01
       -1   -1    0    0    0  501  0.00000000000E+00  0.00000000000E+00  0.19793902517E+03  0.19793902523E+03  0.50400001928E-02 0. -1.
        1   -1    0    0  501    0  0.00000000000E+00  0.00000000000E+00 -0.81586293543E+03  0.81586293544E+03  0.50400001928E-02 0.  1.
    10030    2    1    2    0    0  0.00000000000E+00  0.00000000000E+00 -0.61792391026E+03  0.10138019607E+04  0.80371914037E+03 0.  0.
        2    1    3    3  502    0 -0.28570035562E+03  0.35581327207E+02 -0.66260177971E+03  0.72244850511E+03  0.25500000920E-02 0.  1.
       -2    1    3    3    0  502  0.28570035562E+03 -0.35581327207E+02  0.44677869453E+02  0.29135345557E+03  0.25500000920E-02 0. -1.
</event>
<event>
 5   0  0.1038912E-02  0.8028994E+03  0.7818609E-02  0.9555830E-01
       -1   -1    0    0    0  501  0.00000000000E+00  0.00000000000E+00  0.42220790170E+03  0.42220790173E+03  0.50400001928E-02 0.  1.
        1   -1    0    0  501    0  0.00000000000E+00  0.00000000000E+00 -0.38171212137E+03  0.38171212141E+03  0.50400001928E-02 0. -1.
    10030    2    1    2    0    0  0.00000000000E+00  0.00000000000E+00  0.40495780330E+02  0.80392002314E+03  0.80289943043E+03 0.  0.
        2    1    3    3  502    0 -0.25171726289E+03 -0.29341070983E+03 -0.88104492292E+02  0.39650198820E+03  0.25500000920E-02 0. -1.
       -2    1    3    3    0  502  0.25171726289E+03  0.29341070983E+03  0.12860027262E+03  0.40741803495E+03  0.25500000920E-02 0.  1.
</event>
<event>
 5   0  0.1673727E-02  0.7994958E+03  0.7818609E-02  0.9560747E-01
        2   -1    0    0  501    0  0.00000000000E+00  0.00000000000E+00  0.80022718797E+03  0.80022718797E+03  0.25500000920E-02 0. -1.
       -2   -1    0    0    0  501  0.00000000000E+00  0.00000000000E+00 -0.19969126896E+03  0.19969126898E+03  0.25500000920E-02 0.  1.
    10030    2    1    2    0    0  0.00000000000E+00  0.00000000000E+00  0.60053591901E+03  0.99991845695E+03  0.79949579770E+03 0.  0.
        5    1    3    3  502    0 -0.17254038735E+03 -0.67378157189E+02 -0.14274040867E+03  0.23389509529E+03  0.46999998093E+01 0.  1.
       -5    1    3    3    0  502  0.17254038735E+03  0.67378157189E+02  0.74327632768E+03  0.76602336166E+03  0.46999998093E+01 0. -1.
</event>
<event>
 5   0  0.1025900E-02  0.7928956E+03  0.7818609E-02  0.9570358E-01
       -1   -1    0    0    0  501  0.00000000000E+00  0.00000000000E+00  0.15184328169E+03  0.15184328177E+03  0.50400001928E-02 0. -1.
        1   -1    0    0  501    0  0.00000000000E+00  0.00000000000E+00 -0.10350859711E+04  0.10350859711E+04  0.50400001928E-02 0.  1.
    10030    2    1    2    0    0  0.00000000000E+00  0.00000000000E+00 -0.88324268937E+03  0.11869292529E+04  0.79289558136E+03 0.  0.
        1    1    3    3  502    0 -0.18323991578E+03  0.28060423911E+03 -0.12458032779E+03  0.35754141556E+03  0.50400001928E-02 0.  1.
       -1    1    3    3    0  502  0.18323991578E+03 -0.28060423911E+03 -0.75866236158E+03  0.82938783729E+03  0.50400001928E-02 0. -1.
</event>
<event>
 5   0  0.6872500E-03  0.7977256E+03  0.7818609E-02  0.9563315E-01
        3   -1    0    0  501    0  0.00000000000E+00  0.00000000000E+00  0.44355283871E+03  0.44355285021E+03  0.10100000352E+00 0.  1.
       -3   -1    0    0    0  501  0.00000000000E+00  0.00000000000E+00 -0.35867550091E+03  0.35867551513E+03  0.10100000352E+00 0. -1.
    10030    2    1    2    0    0  0.00000000000E+00  0.00000000000E+00  0.84877337800E+02  0.80222836535E+03  0.79772563435E+03 0.  0.
        2    1    3    3  502    0 -0.14265707625E+03  0.22615169887E+03 -0.25519796999E+03  0.36962364129E+03  0.25500000920E-02 0. -1.
       -2    1    3    3    0  502  0.14265707625E+03 -0.22615169887E+03  0.34007530779E+03  0.43260472406E+03  0.25500000920E-02 0.  1.
</event>
<event>
 5   0  0.1673727E-02  0.7981914E+03  0.7818609E-02  0.9562639E-01
       -2   -1    0    0    0  501  0.00000000000E+00  0.00000000000E+00  0.11294044702E+03  0.11294044705E+03  0.25500000920E-02 0.  1.
        2   -1    0    0  501    0  0.00000000000E+00  0.00000000000E+00 -0.14102775827E+04  0.14102775827E+04  0.25500000920E-02 0. -1.
    10030    2    1    2    0    0  0.00000000000E+00  0.00000000000E+00 -0.12973371357E+04  0.15232180298E+04  0.79819140720E+03 0.  0.
        5    1    3    3  502    0  0.25835793218E+03  0.16735847053E+03 -0.11333170319E+04  0.11743880379E+04  0.46999998093E+01 0. -1.
       -5    1    3    3    0  502 -0.25835793218E+03 -0.16735847053E+03 -0.16402010380E+03  0.34882999186E+03  0.46999998093E+01 0.  1.
</event>
<event>
 5   0  0.1146083E-02  0.8333245E+03  0.7818609E-02  0.9512996E-01
       -1   -1    0    0    0  501  0.00000000000E+00  0.00000000000E+00  0.31253185974E+03  0.31253185979E+03  0.50400001928E-02 0. -1.
        1   -1    0    0  501    0  0.00000000000E+00  0.00000000000E+00 -0.55548712478E+03  0.55548712480E+03  0.50400001928E-02 0.  1.
    10030    2    1    2    0    0  0.00000000000E+00  0.00000000000E+00 -0.24295526504E+03  0.86801898459E+03  0.83332448470E+03 0.  0.
        4    1    3    3  502    0  0.18460367659E+03 -0.11835886045E+03 -0.49051377908E+03  0.53730132852E+03  0.12699999809E+01 0.  1.
       -4    1    3    3    0  502 -0.18460367659E+03  0.11835886045E+03  0.24755851405E+03  0.33071765607E+03  0.12699999809E+01 0. -1.
</event>
<event>
 5   0  0.1731337E-02  0.8015914E+03  0.7818609E-02  0.9557716E-01
        2   -1    0    0  501    0  0.00000000000E+00  0.00000000000E+00  0.17538188516E+04  0.17538188516E+04  0.25500000920E-02 0.  1.
       -2   -1    0    0    0  501  0.00000000000E+00  0.00000000000E+00 -0.91592812822E+02  0.91592812857E+02  0.25500000920E-02 0. -1.
    10030    2    1    2    0    0  0.00000000000E+00  0.00000000000E+00  0.16622260387E+04  0.18454116644E+04  0.80159142168E+03 0.  0.
        4    1    3    3  502    0 -0.23179308821E+03  0.14238010476E+03  0.15349017195E+03  0.31234752402E+03  0.12699999809E+01 0. -1.
       -4    1    3    3    0  502  0.23179308821E+03 -0.14238010476E+03  0.15087358668E+04  0.15330641404E+04  0.12699999809E+01 0.  1.
</event>
<event>
 5   0  0.1747544E-02  0.7694419E+03  0.7818609E-02  0.9605333E-01
        2   -1    0    0  501    0  0.00000000000E+00  0.00000000000E+00  0.71643381668E+03  0.71643381668E+03  0.25500000920E-02 0. -1.
       -2   -1    0    0    0  501  0.00000000000E+00  0.00000000000E+00 -0.20659300450E+03  0.20659300451E+03  0.25500000920E-02 0.  1.
    10030    2    1    2    0    0  0.00000000000E+00  0.00000000000E+00  0.50984081218E+03  0.92302682119E+03  0.76944191391E+03 0.  0.
        1    1    3    3  502    0 -0.85212443175E+02  0.37255610675E+03  0.20193365544E+03  0.43224578005E+03  0.50400001928E-02 0. -1.
       -1    1    3    3    0  502  0.85212443175E+02 -0.37255610675E+03  0.30790715674E+03  0.49078104114E+03  0.50400001928E-02 0.  1.
</event>
<event>
 5   0  0.1030323E-02  0.7291983E+03  0.7818609E-02  0.9668562E-01
       -1   -1    0    0    0  501  0.00000000000E+00  0.00000000000E+00  0.56277257693E+02  0.56277257918E+02  0.50400001928E-02 0. -1.
        1   -1    0    0  501    0  0.00000000000E+00  0.00000000000E+00 -0.23621003881E+04  0.23621003881E+04  0.50400001928E-02 0.  1.
    10030    2    1    2    0    0  0.00000000000E+00  0.00000000000E+00 -0.23058231304E+04  0.24183776460E+04  0.72919827898E+03 0.  0.
        3    1    3    3  502    0 -0.14019078309E+03 -0.16787315210E+03 -0.21203811557E+04  0.21316310906E+04  0.10100000352E+00 0.  1.
       -3    1    3    3    0  502  0.14019078309E+03  0.16787315210E+03 -0.18544197475E+03  0.28674655545E+03  0.10100000352E+00 0. -1.
</event>
<event>
 5   0  0.1818665E-02  0.7985682E+03  0.7818609E-02  0.9562092E-01
        2   -1    0    0  501    0  0.00000000000E+00  0.00000000000E+00  0.24142685673E+03  0.24142685674E+03  0.25500000920E-02 0.  1.
       -2   -1    0    0    0  501  0.00000000000E+00  0.00000000000E+00 -0.66035641159E+03  0.66035641160E+03  0.25500000920E-02 0. -1.
    10030    2    1    2    0    0  0.00000000000E+00  0.00000000000E+00 -0.41892955487E+03  0.90178326834E+03  0.79856815057E+03 0.  0.
        3    1    3    3  502    0  0.18703065616E+03  0.26747141561E+03 -0.46920788931E+03  0.57155706461E+03  0.10100000352E+00 0. -1.
       -3    1    3    3    0  502 -0.18703065616E+03 -0.26747141561E+03  0.50278334445E+02  0.33022620373E+03  0.10100000352E+00 0.  1.
</event>
<event>
 5   0  0.1146083E-02  0.8074132E+03  0.7818609E-02  0.9549348E-01
        1   -1    0    0  501    0  0.00000000000E+00  0.00000000000E+00  0.23649059567E+03  0.23649059572E+03  0.50400001928E-02 0. -1.
       -1   -1    0    0    0  501  0.00000000000E+00  0.00000000000E+00 -0.68915644924E+03  0.68915644926E+03  0.50400001928E-02 0.  1.
    10030    2    1    2    0    0  0.00000000000E+00  0.00000000000E+00 -0.45266585358E+03  0.92564704498E+03  0.80741320084E+03 0.  0.
        4    1    3    3  502    0  0.23060870447E+03 -0.17990078449E+03  0.92682647370E+02  0.30681648076E+03  0.12699999809E+01 0. -1.
       -4    1    3    3    0  502 -0.23060870447E+03  0.17990078449E+03 -0.54534850095E+03  0.61883056423E+03  0.12699999809E+01 0.  1.
</event>
<event>
 5   0  0.1817089E-02  0.7985015E+03  0.7818609E-02  0.9562189E-01
        2   -1    0    0  501    0  0.00000000000E+00  0.00000000000E+00  0.97669929078E+03  0.97669929079E+03  0.25500000920E-02 0. -1.
       -2   -1    0    0    0  501  0.00000000000E+00  0.00000000000E+00 -0.16320390877E+03  0.16320390879E+03  0.25500000920E-02 0.  1.
    10030    2    1    2    0    0  0.00000000000E+00  0.00000000000E+00  0.81349538202E+03  0.11399031996E+04  0.79850145137E+03 0.  0.
        2    1    3    3  502    0 -0.16033749567E+03  0.34381662550E+03  0.58438002741E+03  0.69671945640E+03  0.25500000920E-02 0. -1.
       -2    1    3    3    0  502  0.16033749567E+03 -0.34381662550E+03  0.22911535461E+03  0.44318374317E+03  0.25500000920E-02 0.  1.
</event>
<event>
 5   0  0.1146083E-02  0.8010223E+03  0.7818609E-02  0.9558539E-01
        1   -1    0    0  501    0  0.00000000000E+00  0.00000000000E+00  0.14200632875E+04  0.14200632875E+04  0.50400001928E-02 0.  1.
       -1   -1    0    0    0  501  0.00000000000E+00  0.00000000000E+00 -0.11295918689E+03  0.11295918700E+03  0.50400001928E-02 0. -1.
    10030    2    1    2    0    0  0.00000000000E+00  0.00000000000E+00  0.13071041006E+04  0.15330224745E+04  0.80102233271E+03 0.  0.
        4    1    3    3  502    0  0.27322337533E+03  0.95526459518E+02  0.11833458756E+04  0.12182304345E+04  0.12699999809E+01 0.  1.
       -4    1    3    3    0  502 -0.27322337533E+03 -0.95526459518E+02  0.12375822498E+03  0.31479203999E+03  0.12699999809E+01 0. -1.
</event>
<event>
 5   0  0.1146083E-02  0.7895100E+03  0.7818609E-02  0.9575326E-01
        1   -1    0    0  501    0  0.00000000000E+00  0.00000000000E+00  0.68157883558E+03  0.68157883560E+03  0.50400001928E-02 0.  1.
       -1   -1    0    0    0  501  0.00000000000E+00  0.00000000000E+00 -0.22863315717E+03  0.22863315722E+03  0.50400001928E-02 0. -1.
    10030    2    1    2    0    0  0.00000000000E+00  0.00000000000E+00  0.45294567841E+03  0.91021199283E+03  0.78951002799E+03 0.  0.
        4    1    3    3  502    0 -0.20288033372E+03  0.30350584869E+03  0.39961131597E+03  0.54126430397E+03  0.12699999809E+01 0. -1.
       -4    1    3    3    0  502  0.20288033372E+03 -0.30350584869E+03  0.53334362445E+02  0.36894768886E+03  0.12699999809E+01 0.  1.
</event>
<event>
 5   0  0.1038912E-02  0.7936285E+03  0.7818609E-02  0.9569286E-01
        1   -1    0    0  501    0  0.00000000000E+00  0.00000000000E+00  0.29961266189E+03  0.29961266193E+03  0.50400001928E-02 0. -1.
       -1   -1    0    0    0  501  0.00000000000E+00  0.00000000000E+00 -0.52555040509E+03  0.52555040511E+03  0.50400001928E-02 0.  1.
    10030    2    1    2    0    0  0.00000000000E+00  0.00000000000E+00 -0.22593774320E+03  0.82516306704E+03  0.79362851725E+03 0.  0.
        2    1    3    3  502    0 -0.16558142219E+03 -0.86698092766E+02 -0.47691727231E+03  0.51223417623E+03  0.25500000920E-02 0.  1.
       -2    1    3    3    0  502  0.16558142219E+03  0.86698092766E+02  0.25097952911E+03  0.31292889081E+03  0.25500000920E-02 0. -1.
</event>
<event>
 5   0  0.1817089E-02  0.7777806E+03  0.7818609E-02  0.9592747E-01
       -2   -1    0    0    0  501  0.00000000000E+00  0.00000000000E+00  0.18361724760E+03  0.18361724762E+03  0.25500000920E-02 0.  1.
        2   -1    0    0  501    0  0.00000000000E+00  0.00000000000E+00 -0.82364639770E+03  0.82364639770E+03  0.25500000920E-02 0. -1.
    10030    2    1    2    0    0  0.00000000000E+00  0.00000000000E+00 -0.64002915010E+03  0.10072636453E+04  0.77778064917E+03 0.  0.
        2    1    3    3  502    0 -0.25350293345E+03 -0.29421142385E+03 -0.34628795725E+03  0.52032629045E+03  0.25500000920E-02 0.  1.
       -2    1    3    3    0  502  0.25350293345E+03  0.29421142385E+03 -0.29374119284E+03  0.48693735487E+03  0.25500000920E-02 0. -1.
</event>
<event>
 5   0  0.1747544E-02  0.8094316E+03  0.7818609E-02  0.9546465E-01
       -2   -1    0    0    0  501  0.00000000000E+00  0.00000000000E+00  0.55035038040E+03  0.55035038040E+03  0.25500000920E-02 0.  1.
        2   -1    0    0  501    0  0.00000000000E+00  0.00000000000E+00 -0.29761924369E+03  0.29761924370E+03  0.25500000920E-02 0. -1.
    10030    2    1    2    0    0  0.00000000000E+00  0.00000000000E+00  0.25273113671E+03  0.84796962410E+03  0.80943156346E+03 0.  0.
        1    1    3    3  502    0 -0.72284078730E+02 -0.31353563640E+03 -0.13081239418E+03  0.34733480365E+03  0.50400001928E-02 0. -1.
       -1    1    3    3    0  502  0.72284078730E+02  0.31353563640E+03  0.38354353089E+03  0.50063482045E+03  0.50400001928E-02 0.  1.
</event>
<event>
 5   0  0.6872500E-03  0.8025254E+03  0.7818609E-02  0.9556369E-01
        4   -1    0    0  501    0  0.00000000000E+00  0.00000000000E+00  0.88517604007E+03  0.88517695113E+03  0.12699999809E+01 0. -1.
       -4   -1    0    0    0  501  0.00000000000E+00  0.00000000000E+00 -0.18189477539E+03  0.18189920894E+03  0.12699999809E+01 0.  1.
    10030    2    1    2    0    0  0.00000000000E+00  0.00000000000E+00  0.70328126468E+03  0.10670761601E+04  0.80252538536E+03 0.  0.
        2    1    3    3  502    0  0.20187146572E+03  0.29294522350E+03  0.10487448241E+03  0.37090113199E+03  0.25500000920E-02 0.  1.
       -2    1    3    3    0  502 -0.20187146572E+03 -0.29294522350E+03  0.59840678227E+03  0.69617502808E+03  0.25500000920E-02 0. -1.
</event>
<event>
 5   0  0.1747544E-02  0.7951698E+03  0.7818609E-02  0.9567035E-01
        2   -1    0    0  501    0  0.00000000000E+00  0.00000000000E+00  0.21249486123E+03  0.21249486125E+03  0.25500000920E-02 0.  1.
       -2   -1    0    0    0  501  0.00000000000E+00  0.00000000000E+00 -0.74389449836E+03  0.74389449836E+03  0.25500000920E-02 0. -1.
    10030    2    1    2    0    0  0.00000000000E+00  0.00000000000E+00 -0.53139963712E+03  0.95638935961E+03  0.79516981384E+03 0.  0.
        1    1    3    3  502    0  0.20656980700E+02  0.11493311484E+03  0.19140386543E+03  0.22421367368E+03  0.50400001928E-02 0.  1.
       -1    1    3    3    0  502 -0.20656980700E+02 -0.11493311484E+03 -0.72280350256E+03  0.73217568593E+03  0.50400001928E-02 0. -1.
</event>
<event>
 5   0  0.1025900E-02  0.8149304E+03  0.7818609E-02  0.9538654E-01
       -1   -1    0    0    0  501  0.00000000000E+00  0.00000000000E+00  0.23275115523E+03  0.23275115529E+03  0.50400001928E-02 0.  1.
        1   -1    0    0  501    0  0.00000000000E+00  0.00000000000E+00 -0.71332785299E+03  0.71332785301E+03  0.50400001928E-02 0. -1.
    10030    2    1    2    0    0  0.00000000000E+00  0.00000000000E+00 -0.48057669776E+03  0.94607900830E+03  0.81493038200E+03 0.  0.
        1    1    3    3  502    0 -0.89767265728E+02 -0.19676973159E+03  0.16061402395E+03  0.26939442084E+03  0.50400001928E-02 0.  1.
       -1    1    3    3    0  502  0.89767265728E+02  0.19676973159E+03 -0.64119072171E+03  0.67668458746E+03  0.50400001928E-02 0. -1.
</event>
<event>
 5   0  0.1673727E-02  0.7923670E+03  0.7818609E-02  0.9571132E-01
        2   -1    0    0  501    0  0.00000000000E+00  0.00000000000E+00  0.87671404092E+03  0.87671404092E+03  0.25500000920E-02 0.  1.
       -2   -1    0    0    0  501  0.00000000000E+00  0.00000000000E+00 -0.17903369938E+03  0.17903369940E+03  0.25500000920E-02 0. -1.
    10030    2    1    2    0    0  0.00000000000E+00  0.00000000000E+00  0.69768034154E+03  0.10557477403E+04  0.79236698078E+03 0.  0.
        5    1    3    3  502    0  0.29131520871E+03  0.26834373724E+03  0.33798657552E+03  0.52070138023E+03  0.46999998093E+01 0.  1.
       -5    1    3    3    0  502 -0.29131520871E+03 -0.26834373724E+03  0.35969376601E+03  0.53504636009E+03  0.46999998093E+01 0. -1.
</event>
<event>
 5   0  0.6872500E-03  0.7998721E+03  0.7818609E-02  0.9560202E-01
       -3   -1    0    0    0  501  0.00000000000E+00  0.00000000000E+00  0.42256157465E+03  0.42256158672E+03  0.10100000352E+00 0.  1.
        3   -1    0    0  501    0  0.00000000000E+00  0.00000000000E+00 -0.37852195448E+03  0.37852196795E+03  0.10100000352E+00 0. -1.
    10030    2    1    2    0    0  0.00000000000E+00  0.00000000000E+00  0.44039620170E+02  0.80108355467E+03  0.79987209816E+03 0.  0.
        4    1    3    3  502    0 -0.16703318569E+03  0.34535914584E+03  0.13521402236E+03  0.40676463647E+03  0.12699999809E+01 0. -1.
       -4    1    3    3    0  502  0.16703318569E+03 -0.34535914584E+03 -0.91174402186E+02  0.39431891820E+03  0.12699999809E+01 0.  1.
</event>
<event>
 5   0  0.1731337E-02  0.7915810E+03  0.7818609E-02  0.9572284E-01
       -2   -1    0    0    0  501  0.00000000000E+00  0.00000000000E+00  0.41922322346E+03  0.41922322346E+03  0.25500000920E-02 0.  1.
        2   -1    0    0  501    0  0.00000000000E+00  0.00000000000E+00 -0.37366760714E+03  0.37366760715E+03  0.25500000920E-02 0. -1.
    10030    2    1    2    0    0  0.00000000000E+00  0.00000000000E+00  0.45555616320E+02  0.79289083061E+03  0.79158104771E+03 0.  0.
        4    1    3    3  502    0  0.12726895365E+03 -0.11469540976E+03 -0.33459833772E+03  0.37591233565E+03  0.12699999809E+01 0. -1.
       -4    1    3    3    0  502 -0.12726895365E+03  0.11469540976E+03  0.38015395404E+03  0.41697849496E+03  0.12699999809E+01 0.  1.
</event>
<event>
 5   0  0.1731337E-02  0.8197883E+03  0.7818609E-02  0.9531808E-01
       -2   -1    0    0    0  501  0.00000000000E+00  0.00000000000E+00  0.27455970132E+03  0.27455970134E+03  0.25500000920E-02 0. -1.
        2   -1    0    0  501    0  0.00000000000E+00  0.00000000000E+00 -0.61193687289E+03  0.61193687289E+03  0.25500000920E-02 0.  1.
    10030    2    1    2    0    0  0.00000000000E+00  0.00000000000E+00 -0.33737717157E+03  0.88649657423E+03  0.81978827768E+03 0.  0.
        4    1    3    3  502    0 -0.33203136619E+03  0.23141284790E+03 -0.23889338855E+03  0.46996637997E+03  0.12699999809E+01 0.  1.
       -4    1    3    3    0  502  0.33203136619E+03 -0.23141284790E+03 -0.98483783014E+02  0.41653019426E+03  0.12699999809E+01 0. -1.
</event>
<event>
 5   0  0.1038912E-02  0.8005199E+03  0.7818609E-02  0.9559265E-01
       -1   -1    0    0    0  501  0.00000000000E+00  0.00000000000E+00  0.50891444060E+03  0.50891444062E+03  0.50400001928E-02 0.  1.
        1   -1    0    0  501    0  0.00000000000E+00  0.00000000000E+00 -0.31480347426E+03  0.31480347430E+03  0.50400001928E-02 0. -1.
    10030    2    1    2    0    0  0.00000000000E+00  0.00000000000E+00  0.19411096634E+03  0.82371791492E+03  0.80051991612E+03 0.  0.
        2    1    3    3  502    0 -0.16969131840E+03  0.76853266087E+02 -0.26747967485E+03  0.32595543332E+03  0.25500000920E-02 0. -1.
       -2    1    3    3    0  502  0.16969131840E+03 -0.76853266087E+02  0.46159064119E+03  0.49776248160E+03  0.25500000920E-02 0.  1.
</event>
<event>
 5   0  0.1025900E-02  0.8060229E+03  0.7818609E-02  0.9551340E-01
        1   -1    0    0  501    0  0.00000000000E+00  0.00000000000E+00  0.10789387028E+04  0.10789387028E+04  0.50400001928E-02 0. -1.
       -1   -1    0    0    0  501  0.00000000000E+00  0.00000000000E+00 -0.15053516675E+03  0.15053516683E+03  0.50400001928E-02 0.  1.
    10030    2    1    2    0    0  0.00000000000E+00  0.00000000000E+00  0.92840353606E+03  0.12294738696E+04  0.80602287212E+03 0.  0.
        1    1    3    3  502    0 -0.71725248199E+02 -0.16545848884E+03  0.10139601042E+04  0.10298718929E+04  0.50400001928E-02 0. -1.
       -1    1    3    3    0  502  0.71725248199E+02  0.16545848884E+03 -0.85556568150E+02  0.19960197678E+03  0.50400001928E-02 0.  1.
</event>
<event>
 5   0  0.1049780E-02  0.7981080E+03  0.7818609E-02  0.9562760E-01
       -1   -1    0    0    0  501  0.00000000000E+00  0.00000000000E+00  0.17839376409E+03  0.17839376416E+03  0.50400001928E-02 0. -1.
        1   -1    0    0  501    0  0.00000000000E+00  0.00000000000E+00 -0.89265505785E+03  0.89265505787E+03  0.50400001928E-02 0.  1.
    10030    2    1    2    0    0  0.00000000000E+00  0.00000000000E+00 -0.71426129376E+03  0.10710488220E+04  0.79810800235E+03 0.  0.
        5    1    3    3  502    0  0.15853801730E+03 -0.28049536996E+03 -0.41236284761E+02  0.32486070350E+03  0.46999998093E+01 0. -1.
       -5    1    3    3    0  502 -0.15853801730E+03  0.28049536996E+03 -0.67302500900E+03  0.74618811853E+03  0.46999998093E+01 0.  1.
</event>
<event>
 5   0  0.1731337E-02  0.7994080E+03  0.7818609E-02  0.9560874E-01
       -2   -1    0    0    0  501  0.00000000000E+00  0.00000000000E+00  0.89418397239E+02  0.89418397275E+02  0.25500000920E-02 0.  1.
        2   -1    0    0  501    0  0.00000000000E+00  0.00000000000E+00 -0.17866935840E+04  0.17866935840E+04  0.25500000920E-02 0. -1.
    10030    2    1    2    0    0  0.00000000000E+00  0.00000000000E+00 -0.16972751868E+04  0.18761119813E+04  0.79940797262E+03 0.  0.
        4    1    3    3  502    0 -0.42171063370E+01 -0.64607042865E+02  0.77025486253E+02  0.10062997767E+03  0.12699999809E+01 0.  1.
       -4    1    3    3    0  502  0.42171063370E+01  0.64607042865E+02 -0.17743006730E+04  0.17754820036E+04  0.12699999809E+01 0. -1.
</event>
<event>
 5   0  0.1673727E-02  0.7986313E+03  0.7818609E-02  0.9562000E-01
       -2   -1    0    0    0  501  0.00000000000E+00  0.00000000000E+00  0.31566467836E+03  0.31566467838E+03  0.25500000920E-02 0.  1.
        2   -1    0    0  501    0  0.00000000000E+00  0.00000000000E+00 -0.50513413375E+03  0.50513413376E+03  0.25500000920E-02 0. -1.
    10030    2    1    2    0    0  0.00000000000E+00  0.00000000000E+00 -0.18946945539E+03  0.82079881213E+03  0.79863133890E+03 0.  0.
        5    1    3    3  502    0  0.35080192644E+02  0.47392950254E+02  0.31113710424E+03  0.31670980294E+03  0.46999998093E+01 0.  1.
       -5    1    3    3    0  502 -0.35080192644E+02 -0.47392950254E+02 -0.50060655962E+03  0.50408900919E+03  0.46999998093E+01 0. -1.
</event>
<event>
 5   0  0.1747544E-02  0.8033206E+03  0.7818609E-02  0.9555223E-01
        2   -1    0    0  501    0  0.00000000000E+00  0.00000000000E+00  0.21873786611E+03  0.21873786613E+03  0.25500000920E-02 0.  1.
       -2   -1    0    0    0  501  0.00000000000E+00  0.00000000000E+00 -0.73755402908E+03  0.73755402908E+03  0.25500000920E-02 0. -1.
    10030    2    1    2    0    0  0.00000000000E+00  0.00000000000E+00 -0.51881616296E+03  0.95629189521E+03  0.80332059471E+03 0.  0.
        1    1    3    3  502    0  0.33202462220E+02  0.38871368557E+03 -0.37315592833E+03  0.53985746241E+03  0.50400001928E-02 0.  1.
       -1    1    3    3    0  502 -0.33202462220E+02 -0.38871368557E+03 -0.14566023463E+03  0.41643443280E+03  0.50400001928E-02 0. -1.
</event>
<event>
 5   0  0.1747544E-02  0.8010078E+03  0.7818609E-02  0.9558560E-01
       -2   -1    0    0    0  501  0.00000000000E+00  0.00000000000E+00  0.82031036382E+02  0.82031036421E+02  0.25500000920E-02 0. -1.
        2   -1    0    0  501    0  0.00000000000E+00  0.00000000000E+00 -0.19553983833E+04  0.19553983833E+04  0.25500000920E-02 0.  1.
    10030    2    1    2    0    0  0.00000000000E+00  0.00000000000E+00 -0.18733673470E+04  0.20374294198E+04  0.80100775518E+03 0.  0.
        1    1    3    3  502    0  0.32315057604E+03  0.21112782495E+03 -0.12082890269E+04  0.12684492997E+04  0.50400001928E-02 0.  1.
       -1    1    3    3    0  502 -0.32315057604E+03 -0.21112782495E+03 -0.66507832003E+03  0.76898012007E+03  0.50400001928E-02 0. -1.
</event>
<event>
 5   0  0.1049780E-02  0.7846125E+03  0.7818609E-02  0.9582561E-01
        1   -1    0    0  501    0  0.00000000000E+00  0.00000000000E+00  0.60047329003E+03  0.60047329006E+03  0.50400001928E-02 0. -1.
       -1   -1    0    0    0  501  0.00000000000E+00  0.00000000000E+00 -0.25630483200E+03  0.25630483205E+03  0.50400001928E-02 0.  1.
    10030    2    1    2    0    0  0.00000000000E+00  0.00000000000E+00  0.34416845804E+03  0.85677812210E+03  0.78461253049E+03 0.  0.
        5    1    3    3  502    0  0.14312966800E+02 -0.38934009207E+03  0.12214440720E+03  0.40832819462E+03  0.46999998093E+01 0.  1.
       -5    1    3    3    0  502 -0.14312966800E+02  0.38934009207E+03  0.22202405083E+03  0.44844992748E+03  0.46999998093E+01 0. -1.
</event>
<event>
 5   0  0.1049780E-02  0.7963650E+03  0.7818609E-02  0.9565294E-01
       -1   -1    0    0    0  501  0.00000000000E+00  0.00000000000E+00  0.89974772369E+03  0.89974772371E+03  0.50400001928E-02 0. -1.
        1   -1    0    0  501    0  0.00000000000E+00  0.00000000000E+00 -0.17621529241E+03  0.17621529249E+03  0.50400001928E-02 0.  1.
    10030    2    1    2    0    0  0.00000000000E+00  0.00000000000E+00  0.72353243128E+03  0.10759630162E+04  0.79636501248E+03 0.  0.
        5    1    3    3  502    0 -0.20663101583E+03 -0.23866828264E+03  0.68957900372E+03  0.75841955289E+03  0.46999998093E+01 0. -1.
       -5    1    3    3    0  502  0.20663101583E+03  0.23866828264E+03  0.33953427564E+02  0.31754346330E+03  0.46999998093E+01 0.  1.
</event>
<event>
 5   0  0.1731337E-02  0.7896730E+03  0.7818609E-02  0.9575086E-01
       -2   -1    0    0    0  501  0.00000000000E+00  0.00000000000E+00  0.33808742662E+03  0.33808742663E+03  0.25500000920E-02 0. -1.
        2   -1    0    0  501    0  0.00000000000E+00  0.00000000000E+00 -0.46111106886E+03  0.46111106887E+03  0.25500000920E-02 0.  1.
    10030    2    1    2    0    0  0.00000000000E+00  0.00000000000E+00 -0.12302364224E+03  0.79919849550E+03  0.78967298210E+03 0.  0.
        4    1    3    3  502    0 -0.34045577285E+03  0.14585494586E+03  0.76924298203E+02  0.37828925316E+03  0.12699999809E+01 0. -1.
       -4    1    3    3    0  502  0.34045577285E+03 -0.14585494586E+03 -0.19994794044E+03  0.42090924234E+03  0.12699999809E+01 0.  1.
</event>
<event>
 5   0  0.1146083E-02  0.7983441E+03  0.7818609E-02  0.9562417E-01
        1   -1    0    0  501    0  0.00000000000E+00  0.00000000000E+00  0.20469366159E+04  0.20469366159E+04  0.50400001928E-02 0. -1.
       -1   -1    0    0    0  501  0.00000000000E+00  0.00000000000E+00 -0.77842326689E+02  0.77842326852E+02  0.50400001928E-02 0.  1.
    10030    2    1    2    0    0  0.00000000000E+00  0.00000000000E+00  0.19690942892E+04  0.21247789427E+04  0.79834405852E+03 0.  0.
        4    1    3    3  502    0  0.29355159161E+03 -0.17252771493E+03  0.15389944136E+04  0.15762118409E+04  0.12699999809E+01 0. -1.
       -4    1    3    3    0  502 -0.29355159161E+03  0.17252771493E+03  0.43009987561E+03  0.54856710187E+03  0.12699999809E+01 0.  1.
</event>
<event>
 5   0  0.1731337E-02  0.8039900E+03  0.7818609E-02  0.9554260E-01
        2   -1    0    0  501    0  0.00000000000E+00  0.00000000000E+00  0.85458917960E+03  0.85458917961E+03  0.25500000920E-02 0.  1.
       -2   -1    0    0    0  501  0.00000000000E+00  0.00000000000E+00 -0.18909670635E+03  0.18909670637E+03  0.25500000920E-02 0. -1.
    10030    2    1    2    0    0  0.00000000000E+00  0.00000000000E+00  0.66549247325E+03  0.10436858860E+04  0.80399004759E+03 0.  0.
        4    1    3    3  502    0 -0.34346015605E+03 -0.62034455002E+02  0.73817593632E+02  0.35674052535E+03  0.12699999809E+01 0. -1.
       -4    1    3    3    0  502  0.34346015605E+03  0.62034455002E+02  0.59167487962E+03  0.68694536062E+03  0.12699999809E+01 0.  1.
</event>
<event>
 5   0  0.1030323E-02  0.7962147E+03  0.7818609E-02  0.9565512E-01
       -1   -1    0    0    0  501  0.00000000000E+00  0.00000000000E+00  0.20372811964E+03  0.20372811970E+03  0.50400001928E-02 0. -1.
        1   -1    0    0  501    0  0.00000000000E+00  0.00000000000E+00 -0.77794590332E+03  0.77794590334E+03  0.50400001928E-02 0.  1.
    10030    2    1    2    0    0  0.00000000000E+00  0.00000000000E+00 -0.57421778368E+03  0.98167402304E+03  0.79621468487E+03 0.  0.
        3    1    3    3  502    0  0.97611692085E+02 -0.24298631011E+03  0.82602631039E+02  0.27457893981E+03  0.10100000352E+00 0. -1.
       -3    1    3    3    0  502 -0.97611692085E+02  0.24298631011E+03 -0.65682041472E+03  0.70709508323E+03  0.10100000352E+00 0.  1.
</event>
<event>
 5   0  0.1146083E-02  0.7969519E+03  0.7818609E-02  0.9564440E-01
       -1   -1    0    0    0  501  0.00000000000E+00  0.00000000000E+00  0.86619367833E+02  0.86619367979E+02  0.50400001928E-02 0.  1.
        1   -1    0    0  501    0  0.00000000000E+00  0.00000000000E+00 -0.18331129528E+04  0.18331129528E+04  0.50400001928E-02 0. -1.
    10030    2    1    2    0    0  0.00000000000E+00  0.00000000000E+00 -0.17464935849E+04  0.19197323207E+04  0.79695190641E+03 0.  0.
        4    1    3    3  502    0  0.35139799850E+03 -0.18787150590E+03 -0.87874840338E+03  0.96487129993E+03  0.12699999809E+01 0. -1.
       -4    1    3    3    0  502 -0.35139799850E+03  0.18787150590E+03 -0.86774518153E+03  0.95486102081E+03  0.12699999809E+01 0.  1.
</event>
<event>
 5   0  0.1038912E-02  0.7835612E+03  0.7818609E-02  0.9584121E-01
        1   -1    0    0  501    0  0.00000000000E+00  0.00000000000E+00  0.11555568535E+04  0.11555568536E+04  0.50400001928E-02 0.  1.
       -1   -1    0    0    0  501  0.00000000000E+00  0.00000000000E+00 -0.13282948931E+03  0.13282948940E+03  0.50400001928E-02 0. -1.
    10030    2    1    2    0    0  0.00000000000E+00  0.00000000000E+00  0.10227273642E+04  0.12883863430E+04  0.78356117002E+03 0.  0.
        2    1    3    3  502    0  0.12240745579E+03  0.21947652289E+03  0.17155833773E+02  0.25188857054E+03  0.25500000920E-02 0. -1.
       -2    1    3    3    0  502 -0.12240745579E+03 -0.21947652289E+03  0.10055715305E+04  0.10364977724E+04  0.25500000920E-02 0.  1.
</event>
<event>
 5   0  0.1747544E-02  0.7999778E+03  0.7818609E-02  0.9560049E-01
       -2   -1    0    0    0  501  0.00000000000E+00  0.00000000000E+00  0.39938959706E+03  0.39938959707E+03  0.25500000920E-02 0. -1.
        2   -1    0    0  501    0  0.00000000000E+00  0.00000000000E+00 -0.40058912933E+03  0.40058912933E+03  0.25500000920E-02 0.  1.
    10030    2    1    2    0    0  0.00000000000E+00  0.00000000000E+00 -0.11995322688E+01  0.79997872640E+03  0.79997782708E+03 0.  0.
        1    1    3    3  502    0 -0.18317463082E+03 -0.93244861705E+02 -0.34373799783E+03  0.40050388361E+03  0.50400001928E-02 0.  1.
       -1    1    3    3    0  502  0.18317463082E+03  0.93244861705E+02  0.34253846556E+03  0.39947484279E+03  0.50400001928E-02 0. -1.
</event>
<event>
 5   0  0.1025900E-02  0.8248542E+03  0.7818609E-02  0.9524722E-01
       -1   -1    0    0    0  501  0.00000000000E+00  0.00000000000E+00  0.91131188273E+03  0.91131188275E+03  0.50400001928E-02 0. -1.
        1   -1    0    0  501    0  0.00000000000E+00  0.00000000000E+00 -0.18664973356E+03  0.18664973363E+03  0.50400001928E-02 0.  1.
    10030    2    1    2    0    0  0.00000000000E+00  0.00000000000E+00  0.72466214917E+03  0.10979616164E+04  0.82485421779E+03 0.  0.
        1    1    3    3  502    0  0.48561922976E+02  0.28107302208E+03 -0.34183752874E+02  0.28727831991E+03  0.50400001928E-02 0.  1.
       -1    1    3    3    0  502 -0.48561922976E+02 -0.28107302208E+03  0.75884590204E+03  0.81068329647E+03  0.50400001928E-02 0. -1.
</event>
<event>
 5   0  0.1747544E-02  0.7976614E+03  0.7818609E-02  0.9563408E-01
       -2   -1    0    0    0  501  0.00000000000E+00  0.00000000000E+00  0.15094103811E+03  0.15094103813E+03  0.25500000920E-02 0. -1.
        2   -1    0    0  501    0  0.00000000000E+00  0.00000000000E+00 -0.10538282577E+04  0.10538282577E+04  0.25500000920E-02 0.  1.
    10030    2    1    2    0    0  0.00000000000E+00  0.00000000000E+00 -0.90288721963E+03  0.12047692959E+04  0.79766140993E+03 0.  0.
        1    1    3    3  502    0  0.32821773089E+03  0.10508512435E+03 -0.14825199338E+03  0.37516451831E+03  0.50400001928E-02 0. -1.
       -1    1    3    3    0  502 -0.32821773089E+03 -0.10508512435E+03 -0.75463522625E+03  0.82960477756E+03  0.50400001928E-02 0.  1.
</event>
<event>
 5   0  0.1817089E-02  0.8007607E+03  0.7818609E-02  0.9558917E-01
       -2   -1    0    0    0  501  0.00000000000E+00  0.00000000000E+00  0.24764348714E+03  0.24764348715E+03  0.25500000920E-02 0. -1.
        2   -1    0    0  501    0  0.00000000000E+00  0.00000000000E+00 -0.64731929585E+03  0.64731929586E+03  0.25500000920E-02 0.  1.
    10030    2    1    2    0    0  0.00000000000E+00  0.00000000000E+00 -0.39967580871E+03  0.89496278301E+03  0.80076065769E+03 0.  0.
        2    1    3    3  502    0 -0.23500273409E+03  0.17758870058E+03  0.10324760379E+03  0.31212833786E+03  0.25500000920E-02 0. -1.
       -2    1    3    3    0  502  0.23500273409E+03 -0.17758870058E+03 -0.50292341250E+03  0.58283444515E+03  0.25500000920E-02 0.  1.
</event>
<event>
 5   0  0.1731337E-02  0.7821759E+03  0.7818609E-02  0.9586181E-01
       -2   -1    0    0    0  501  0.00000000000E+00  0.00000000000E+00  0.22201167275E+03  0.22201167277E+03  0.25500000920E-02 0.  1.
        2   -1    0    0  501    0  0.00000000000E+00  0.00000000000E+00 -0.68892678544E+03  0.68892678544E+03  0.25500000920E-02 0. -1.
    10030    2    1    2    0    0  0.00000000000E+00  0.00000000000E+00 -0.46691511269E+03  0.91093845821E+03  0.78217590873E+03 0.  0.
        4    1    3    3  502    0  0.16624258706E+03  0.22216038682E+03 -0.55442916355E+03  0.61998802047E+03  0.12699999809E+01 0. -1.
       -4    1    3    3    0  502 -0.16624258706E+03 -0.22216038682E+03  0.87514050865E+02  0.29095043775E+03  0.12699999809E+01 0.  1.
</event>
<event>
 5   0  0.1038912E-02  0.7918386E+03  0.7818609E-02  0.9571906E-01
       -1   -1    0    0    0  501  0.00000000000E+00  0.00000000000E+00  0.19697719508E+03  0.19697719515E+03  0.50400001928E-02 0. -1.
        1   -1    0    0  501    0  0.00000000000E+00  0.00000000000E+00 -0.79578798831E+03  0.79578798833E+03  0.50400001928E-02 0.  1.
    10030    2    1    2    0    0  0.00000000000E+00  0.00000000000E+00 -0.59881079323E+03  0.99276518348E+03  0.79183858421E+03 0.  0.
        2    1    3    3  502    0  0.31690516530E+03  0.94215766284E+02 -0.57249954031E+03  0.66110605660E+03  0.25500000920E-02 0.  1.
       -2    1    3    3    0  502 -0.31690516530E+03 -0.94215766284E+02 -0.26311252922E+02  0.33165912688E+03  0.25500000920E-02 0. -1.
</event>
<event>
 5   0  0.1025900E-02  0.8142931E+03  0.7818609E-02  0.9539556E-01
       -1   -1    0    0    0  501  0.00000000000E+00  0.00000000000E+00  0.99635950153E+02  0.99635950281E+02  0.50400001928E-02 0.  1.
        1   -1    0    0  501    0  0.00000000000E+00  0.00000000000E+00 -0.16637400923E+04  0.16637400923E+04  0.50400001928E-02 0. -1.
    10030    2    1    2    0    0  0.00000000000E+00  0.00000000000E+00 -0.15641041422E+04  0.17633760426E+04  0.81429312910E+03 0.  0.
        1    1    3    3  502    0  0.30455240469E+03 -0.50301686049E+02 -0.20712165528E+03  0.37172813578E+03  0.50400001928E-02 0.  1.
       -1    1    3    3    0  502 -0.30455240469E+03  0.50301686049E+02 -0.13569824869E+04  0.13916479068E+04  0.50400001928E-02 0. -1.
</event>
<event>
 5   0  0.1731337E-02  0.8027529E+03  0.7818609E-02  0.9556041E-01
       -2   -1    0    0    0  501  0.00000000000E+00  0.00000000000E+00  0.16382255460E+03  0.16382255462E+03  0.25500000920E-02 0. -1.
        2   -1    0    0  501    0  0.00000000000E+00  0.00000000000E+00 -0.98339974219E+03  0.98339974219E+03  0.25500000920E-02 0.  1.
    10030    2    1    2    0    0  0.00000000000E+00  0.00000000000E+00 -0.81957718759E+03  0.11472222968E+04  0.80275290835E+03 0.  0.
        4    1    3    3  502    0  0.47652274415E+02  0.23623277840E+03  0.48919644260E+02  0.24590935188E+03  0.12699999809E+01 0. -1.
       -4    1    3    3    0  502 -0.47652274415E+02 -0.23623277840E+03 -0.86849683185E+03  0.90131294493E+03  0.12699999809E+01 0.  1.
</event>
<event>
 5   0  0.1673727E-02  0.7992606E+03  0.7818609E-02  0.9561088E-01
        2   -1    0    0  501    0  0.00000000000E+00  0.00000000000E+00  0.19821201867E+03  0.19821201869E+03  0.25500000920E-02 0. -1.
       -2   -1    0    0    0  501  0.00000000000E+00  0.00000000000E+00 -0.80572499217E+03  0.80572499218E+03  0.25500000920E-02 0.  1.
    10030    2    1    2    0    0  0.00000000000E+00  0.00000000000E+00 -0.60751297350E+03  0.10039370109E+04  0.79926060131E+03 0.  0.
        5    1    3    3  502    0  0.29904854376E+03  0.57335716605E+02  0.21287082964E+02  0.30527470550E+03  0.46999998093E+01 0. -1.
       -5    1    3    3    0  502 -0.29904854376E+03 -0.57335716605E+02 -0.62880005647E+03  0.69866230536E+03  0.46999998093E+01 0.  1.
</event>
<event>
 5   0  0.1038912E-02  0.8465573E+03  0.7818609E-02  0.9494969E-01
       -1   -1    0    0    0  501  0.00000000000E+00  0.00000000000E+00  0.16414726076E+03  0.16414726084E+03  0.50400001928E-02 0.  1.
        1   -1    0    0  501    0  0.00000000000E+00  0.00000000000E+00 -0.10914883557E+04  0.10914883557E+04  0.50400001928E-02 0. -1.
    10030    2    1    2    0    0  0.00000000000E+00  0.00000000000E+00 -0.92734109490E+03  0.12556356165E+04  0.84655731948E+03 0.  0.
        2    1    3    3  502    0  0.12996639338E+03 -0.38936881300E+03 -0.61684897942E+03  0.74094669131E+03  0.25500000920E-02 0.  1.
       -2    1    3    3    0  502 -0.12996639338E+03  0.38936881300E+03 -0.31049211548E+03  0.51468892520E+03  0.25500000920E-02 0. -1.
</event>
<event>
 5   0  0.6872500E-03  0.7989929E+03  0.7818609E-02  0.9561476E-01
        3   -1    0    0  501    0  0.00000000000E+00  0.00000000000E+00  0.35466243740E+03  0.35466245179E+03  0.10100000352E+00 0.  1.
       -3   -1    0    0    0  501  0.00000000000E+00  0.00000000000E+00 -0.44999803583E+03  0.44999804716E+03  0.10100000352E+00 0. -1.
    10030    2    1    2    0    0  0.00000000000E+00  0.00000000000E+00 -0.95335598425E+02  0.80466049895E+03  0.79899289248E+03 0.  0.
        1    1    3    3  502    0 -0.20812849393E+03 -0.13157845390E+03 -0.36448961663E+03  0.43986707102E+03  0.50400001928E-02 0. -1.
       -1    1    3    3    0  502  0.20812849393E+03  0.13157845390E+03  0.26915401820E+03  0.36479342792E+03  0.50400001928E-02 0.  1.
</event>
<event>
 5   0  0.1030323E-02  0.7998521E+03  0.7818609E-02  0.9560231E-01
       -1   -1    0    0    0  501  0.00000000000E+00  0.00000000000E+00  0.12784557869E+04  0.12784557869E+04  0.50400001928E-02 0.  1.
        1   -1    0    0  501    0  0.00000000000E+00  0.00000000000E+00 -0.12510472843E+03  0.12510472853E+03  0.50400001928E-02 0. -1.
    10030    2    1    2    0    0  0.00000000000E+00  0.00000000000E+00  0.11533510585E+04  0.14035605155E+04  0.79985214661E+03 0.  0.
        3    1    3    3  502    0  0.25777036043E+02  0.35986256509E+03  0.27387980512E+03  0.45296322058E+03  0.10100000352E+00 0.  1.
       -3    1    3    3    0  502 -0.25777036043E+02 -0.35986256509E+03  0.87947125337E+03  0.95059729488E+03  0.10100000352E+00 0. -1.
</event>
<event>
 5   0  0.1817089E-02  0.8360619E+03  0.7818609E-02  0.9509238E-01
       -2   -1    0    0    0  501  0.00000000000E+00  0.00000000000E+00  0.25917212428E+03  0.25917212429E+03  0.25500000920E-02 0. -1.
        2   -1    0    0  501    0  0.00000000000E+00  0.00000000000E+00 -0.67426181006E+03  0.67426181006E+03  0.25500000920E-02 0.  1.
    10030    2    1    2    0    0  0.00000000000E+00  0.00000000000E+00 -0.41508968578E+03  0.93343393435E+03  0.83606187724E+03 0.  0.
        2    1    3    3  502    0 -0.12073885577E+03  0.20509589645E+03 -0.59123813873E+03  0.63734192920E+03  0.25500000920E-02 0.  1.
       -2    1    3    3    0  502  0.12073885577E+03 -0.20509589645E+03  0.17614845295E+03  0.29609200515E+03  0.25500000920E-02 0. -1.
</event>
<event>
 5   0  0.1731337E-02  0.7684393E+03  0.7818609E-02  0.9606858E-01
       -2   -1    0    0    0  501  0.00000000000E+00  0.00000000000E+00  0.74082475266E+03  0.74082475266E+03  0.25500000920E-02 0.  1.
        2   -1    0    0  501    0  0.00000000000E+00  0.00000000000E+00 -0.19927080251E+03  0.19927080252E+03  0.25500000920E-02 0. -1.
    10030    2    1    2    0    0  0.00000000000E+00  0.00000000000E+00  0.54155395015E+03  0.94009555519E+03  0.76843930922E+03 0.  0.
        4    1    3    3  502    0  0.25438308493E+03  0.22172281164E+03  0.49553134044E+03  0.59952037610E+03  0.12699999809E+01 0.  1.
       -4    1    3    3    0  502 -0.25438308493E+03 -0.22172281164E+03  0.46022609710E+02  0.34057517908E+03  0.12699999809E+01 0. -1.
</event>
<event>
 5   0  0.1025900E-02  0.7459497E+03  0.7818609E-02  0.9641726E-01
       -1   -1    0    0    0  501  0.00000000000E+00  0.00000000000E+00  0.18341508945E+03  0.18341508952E+03  0.50400001928E-02 0.  1.
        1   -1    0    0  501    0  0.00000000000E+00  0.00000000000E+00 -0.75844483748E+03  0.75844483750E+03  0.50400001928E-02 0. -1.
    10030    2    1    2    0    0  0.00000000000E+00  0.00000000000E+00 -0.57502974803E+03  0.94185992702E+03  0.74594967056E+03 0.  0.
        1    1    3    3  502    0 -0.15066415045E+03 -0.27111368629E+03 -0.54905930469E+03  0.63060957590E+03  0.50400001928E-02 0. -1.
       -1    1    3    3    0  502  0.15066415045E+03  0.27111368629E+03 -0.25970443344E+02  0.31125035112E+03  0.50400001928E-02 0.  1.
</event>
<event>
 5   0  0.1025900E-02  0.8026223E+03  0.7818609E-02  0.9556229E-01
        1   -1    0    0  501    0  0.00000000000E+00  0.00000000000E+00  0.83512442575E+03  0.83512442576E+03  0.50400001928E-02 0.  1.
       -1   -1    0    0    0  501  0.00000000000E+00  0.00000000000E+00 -0.19284629080E+03  0.19284629087E+03  0.50400001928E-02 0. -1.
    10030    2    1    2    0    0  0.00000000000E+00  0.00000000000E+00  0.64227813495E+03  0.10279707166E+04  0.80262232191E+03 0.  0.
        1    1    3    3  502    0 -0.20064677106E+03 -0.37553399281E+02  0.76366384731E+03  0.79047571516E+03  0.50400001928E-02 0.  1.
       -1    1    3    3    0  502  0.20064677106E+03  0.37553399281E+02 -0.12138571236E+03  0.23749500148E+03  0.50400001928E-02 0. -1.
</event>
<event>
 5   0  0.1818665E-02  0.7982768E+03  0.7818609E-02  0.9562515E-01
        2   -1    0    0  501    0  0.00000000000E+00  0.00000000000E+00  0.17460301732E+04  0.17460301732E+04  0.25500000920E-02 0.  1.
       -2   -1    0    0    0  501  0.00000000000E+00  0.00000000000E+00 -0.91242106509E+02  0.91242106545E+02  0.25500000920E-02 0. -1.
    10030    2    1    2    0    0  0.00000000000E+00  0.00000000000E+00  0.16547880667E+04  0.18372722798E+04  0.79827682183E+03 0.  0.
        3    1    3    3  502    0 -0.32511465077E+03 -0.22309527855E+03  0.68476450569E+03  0.79017306833E+03  0.10100000352E+00 0. -1.
       -3    1    3    3    0  502  0.32511465077E+03  0.22309527855E+03  0.97002356103E+03  0.10470992115E+04  0.10100000352E+00 0.  1.
</event>
<event>
 5   0  0.1146083E-02  0.8042485E+03  0.7818609E-02  0.9553888E-01
        1   -1    0    0  501    0  0.00000000000E+00  0.00000000000E+00  0.39788644858E+03  0.39788644861E+03  0.50400001928E-02 0. -1.
       -1   -1    0    0    0  501  0.00000000000E+00  0.00000000000E+00 -0.40640721434E+03  0.40640721437E+03  0.50400001928E-02 0.  1.
    10030    2    1    2    0    0  0.00000000000E+00  0.00000000000E+00 -0.85207657642E+01  0.80429366298E+03  0.80424852680E+03 0.  0.
        4    1    3    3  502    0 -0.35887294106E+03  0.39064393917E+02 -0.18143266818E+03  0.40402381202E+03  0.12699999809E+01 0.  1.
       -4    1    3    3    0  502  0.35887294106E+03 -0.39064393917E+02  0.17291190242E+03  0.40026985097E+03  0.12699999809E+01 0. -1.
</event>
<event>
 5   0  0.1025900E-02  0.8015202E+03  0.7818609E-02  0.9557819E-01
        1   -1    0    0  501    0  0.00000000000E+00  0.00000000000E+00  0.17929581144E+04  0.17929581144E+04  0.50400001928E-02 0.  1.
       -1   -1    0    0    0  501  0.00000000000E+00  0.00000000000E+00 -0.89577484334E+02  0.89577484476E+02  0.50400001928E-02 0. -1.
    10030    2    1    2    0    0  0.00000000000E+00  0.00000000000E+00  0.17033806301E+04  0.18825355989E+04  0.80152024939E+03 0.  0.
        1    1    3    3  502    0  0.19391640224E+03 -0.29641997224E+02  0.16724831948E+04  0.16839484125E+04  0.50400001928E-02 0.  1.
       -1    1    3    3    0  502 -0.19391640224E+03  0.29641997224E+02  0.30897435252E+02  0.19858718637E+03  0.50400001928E-02 0. -1.
</event>
<event>
 5   0  0.6872500E-03  0.7945723E+03  0.7818609E-02  0.9567907E-01
       -3   -1    0    0    0  501  0.00000000000E+00  0.00000000000E+00  0.14127441210E+04  0.14127441246E+04  0.10100000352E+00 0. -1.
        3   -1    0    0  501    0  0.00000000000E+00  0.00000000000E+00 -0.11172316824E+03  0.11172321389E+03  0.10100000352E+00 0.  1.
    10030    2    1    2    0    0  0.00000000000E+00  0.00000000000E+00  0.13010209527E+04  0.15244673385E+04  0.79457230421E+03 0.  0.
        3    1    3    3  502    0  0.31168191966E+03  0.59058573585E+01  0.11230311242E+04  0.11654953515E+04  0.10100000352E+00 0. -1.
       -3    1    3    3    0  502 -0.31168191966E+03 -0.59058573585E+01  0.17798982857E+03  0.35897198702E+03  0.10100000352E+00 0.  1.
</event>
<event>
 5   0  0.1025900E-02  0.8177823E+03  0.7818609E-02  0.9534629E-01
        1   -1    0    0  501    0  0.00000000000E+00  0.00000000000E+00  0.30440835591E+03  0.30440835595E+03  0.50400001928E-02 0.  1.
       -1   -1    0    0    0  501  0.00000000000E+00  0.00000000000E+00 -0.54923583258E+03  0.54923583260E+03  0.50400001928E-02 0. -1.
    10030    2    1    2    0    0  0.00000000000E+00  0.00000000000E+00 -0.24482747667E+03  0.85364418856E+03  0.81778231047E+03 0.  0.
        1    1    3    3  502    0 -0.14155986526E+02 -0.15373229222E+03  0.27281643521E+03  0.31346900480E+03  0.50400001928E-02 0.  1.
       -1    1    3    3    0  502  0.14155986526E+02  0.15373229222E+03 -0.51764391187E+03  0.54017518376E+03  0.50400001928E-02 0. -1.
</event>
<event>
 5   0  0.1030323E-02  0.7642573E+03  0.7818609E-02  0.9613245E-01
        1   -1    0    0  501    0  0.00000000000E+00  0.00000000000E+00  0.68221180283E+03  0.68221180284E+03  0.50400001928E-02 0.  1.
       -1   -1    0    0    0  501  0.00000000000E+00  0.00000000000E+00 -0.21404246916E+03  0.21404246921E+03  0.50400001928E-02 0. -1.
    10030    2    1    2    0    0  0.00000000000E+00  0.00000000000E+00  0.46816933367E+03  0.89625427206E+03  0.76425728338E+03 0.  0.
        3    1    3    3  502    0  0.28621882804E+03 -0.13856610245E+03  0.48257944772E+03  0.57793141101E+03  0.10100000352E+00 0.  1.
       -3    1    3    3    0  502 -0.28621882804E+03  0.13856610245E+03 -0.14410114046E+02  0.31832286105E+03  0.10100000352E+00 0. -1.
</event>
<event>
 5   0  0.1673727E-02  0.8154564E+03  0.7818609E-02  0.9537910E-01
       -2   -1    0    0    0  501  0.00000000000E+00  0.00000000000E+00  0.41120131807E+03  0.41120131807E+03  0.25500000920E-02 0. -1.
        2   -1    0    0  501    0  0.00000000000E+00  0.00000000000E+00 -0.40428441682E+03  0.40428441683E+03  0.25500000920E-02 0.  1.
    10030    2    1    2    0    0  0.00000000000E+00  0.00000000000E+00  0.69169012443E+01  0.81548573490E+03  0.81545640000E+03 0.  0.
        5    1    3    3  502    0 -0.33290982209E+03 -0.96012499338E+02  0.21834485659E+03  0.40956552110E+03  0.46999998093E+01 0.  1.
       -5    1    3    3    0  502  0.33290982209E+03  0.96012499338E+02 -0.21142795535E+03  0.40592021380E+03  0.46999998093E+01 0. -1.
</event>
<event>
 5   0  0.1146083E-02  0.7977477E+03  0.7818609E-02  0.9563283E-01
        1   -1    0    0  501    0  0.00000000000E+00  0.00000000000E+00  0.73131481846E+03  0.73131481848E+03  0.50400001928E-02 0. -1.
       -1   -1    0    0    0  501  0.00000000000E+00  0.00000000000E+00 -0.21755383630E+03  0.21755383635E+03  0.50400001928E-02 0.  1.
    10030    2    1    2    0    0  0.00000000000E+00  0.00000000000E+00  0.51376098217E+03  0.94886865483E+03  0.79774769027E+03 0.  0.
        4    1    3    3  502    0 -0.67579593161E+02 -0.18976451106E+03  0.66636595743E+03  0.69614852812E+03  0.12699999809E+01 0. -1.
       -4    1    3    3    0  502  0.67579593161E+02  0.18976451106E+03 -0.15260497527E+03  0.25272012672E+03  0.12699999809E+01 0.  1.
</event>
<event>
 5   0  0.1025900E-02  0.8022038E+03  0.7818609E-02  0.9556833E-01
        1   -1    0    0  501    0  0.00000000000E+00  0.00000000000E+00  0.49811935368E+03  0.49811935371E+03  0.50400001928E-02 0.  1.
       -1   -1    0    0    0  501  0.00000000000E+00  0.00000000000E+00 -0.32298027806E+03  0.32298027810E+03  0.50400001928E-02 0. -1.
    10030    2    1    2    0    0  0.00000000000E+00  0.00000000000E+00  0.17513907562E+03  0.82109963181E+03  0.80220378305E+03 0.  0.
        1    1    3    3  502    0 -0.78248791690E+02  0.24041203503E+02  0.48947861264E+03  0.49627629917E+03  0.50400001928E-02 0.  1.
       -1    1    3    3    0  502  0.78248791690E+02 -0.24041203503E+02 -0.31433953701E+03  0.32482333263E+03  0.50400001928E-02 0. -1.
</event>
<event>
 5   0  0.1025900E-02  0.8060043E+03  0.7818609E-02  0.9551367E-01
        1   -1    0    0  501    0  0.00000000000E+00  0.00000000000E+00  0.40747041365E+03  0.40747041368E+03  0.50400001928E-02 0.  1.
       -1   -1    0    0    0  501  0.00000000000E+00  0.00000000000E+00 -0.39858288584E+03  0.39858288588E+03  0.50400001928E-02 0. -1.
    10030    2    1    2    0    0  0.00000000000E+00  0.00000000000E+00  0.88875278033E+01  0.80605329955E+03  0.80600430121E+03 0.  0.
        1    1    3    3  502    0 -0.36982738920E+03 -0.40138437762E+02  0.15946073972E+03  0.40473586390E+03  0.50400001928E-02 0. -1.
       -1    1    3    3    0  502  0.36982738920E+03  0.40138437762E+02 -0.15057321192E+03  0.40131743566E+03  0.50400001928E-02 0.  1.
</event>
<event>
 5   0  0.1673727E-02  0.7706276E+03  0.7818609E-02  0.9603533E-01
       -2   -1    0    0    0  501  0.00000000000E+00  0.00000000000E+00  0.11608072949E+03  0.11608072952E+03  0.25500000920E-02 0. -1.
        2   -1    0    0  501    0  0.00000000000E+00  0.00000000000E+00 -0.12789953401E+04  0.12789953401E+04  0.25500000920E-02 0.  1.
    10030    2    1    2    0    0  0.00000000000E+00  0.00000000000E+00 -0.11629146106E+04  0.13950760696E+04  0.77062756793E+03 0.  0.
        5    1    3    3  502    0  0.48179290200E+02  0.32905197004E+03 -0.22926826007E+03  0.40395849795E+03  0.46999998093E+01 0.  1.
       -5    1    3    3    0  502 -0.48179290200E+02 -0.32905197004E+03 -0.93364635056E+03  0.99111757168E+03  0.46999998093E+01 0. -1.
</event>
<event>
 5   0  0.1731337E-02  0.7986931E+03  0.7818609E-02  0.9561911E-01
        2   -1    0    0  501    0  0.00000000000E+00  0.00000000000E+00  0.70502590147E+03  0.70502590147E+03  0.25500000920E-02 0.  1.
       -2   -1    0    0    0  501  0.00000000000E+00  0.00000000000E+00 -0.22620114796E+03  0.22620114797E+03  0.25500000920E-02 0. -1.
    10030    2    1    2    0    0  0.00000000000E+00  0.00000000000E+00  0.47882475351E+03  0.93122704944E+03  0.79869310316E+03 0.  0.
        4    1    3    3  502    0 -0.57487292053E+01  0.18592462277E+03 -0.17260304509E+03  0.25376059055E+03  0.12699999809E+01 0. -1.
       -4    1    3    3    0  502  0.57487292053E+01 -0.18592462277E+03  0.65142779860E+03  0.67746645889E+03  0.12699999809E+01 0.  1.
</event>
<event>
 5   0  0.1049780E-02  0.7987560E+03  0.7818609E-02  0.9561820E-01
        1   -1    0    0  501    0  0.00000000000E+00  0.00000000000E+00  0.66538458693E+03  0.66538458695E+03  0.50400001928E-02 0. -1.
       -1   -1    0    0    0  501  0.00000000000E+00  0.00000000000E+00 -0.23971516364E+03  0.23971516370E+03  0.50400001928E-02 0.  1.
    10030    2    1    2    0    0  0.00000000000E+00  0.00000000000E+00  0.42566942329E+03  0.90509975064E+03  0.79875597068E+03 0.  0.
        5    1    3    3  502    0 -0.22755255218E+03  0.32694873871E+03  0.24498552629E+03  0.46767043935E+03  0.46999998093E+01 0.  1.
       -5    1    3    3    0  502  0.22755255218E+03 -0.32694873871E+03  0.18068389700E+03  0.43742931130E+03  0.46999998093E+01 0. -1.
</event>
<event>
 5   0  0.1731337E-02  0.7992541E+03  0.7818609E-02  0.9561097E-01
        2   -1    0    0  501    0  0.00000000000E+00  0.00000000000E+00  0.10746210002E+04  0.10746210002E+04  0.25500000920E-02 0.  1.
       -2   -1    0    0    0  501  0.00000000000E+00  0.00000000000E+00 -0.14861217107E+03  0.14861217109E+03  0.25500000920E-02 0. -1.
    10030    2    1    2    0    0  0.00000000000E+00  0.00000000000E+00  0.92600882914E+03  0.12232331713E+04  0.79925405205E+03 0.  0.
        4    1    3    3  502    0 -0.28551038849E+03  0.15440310241E+03  0.81978301164E+03  0.88170420155E+03  0.12699999809E+01 0.  1.
       -4    1    3    3    0  502  0.28551038849E+03 -0.15440310241E+03  0.10622581750E+03  0.34152896975E+03  0.12699999809E+01 0. -1.
</event>
<event>
 5   0  0.1030323E-02  0.7981540E+03  0.7818609E-02  0.9562693E-01
        1   -1    0    0  501    0  0.00000000000E+00  0.00000000000E+00  0.31916378741E+03  0.31916378745E+03  0.50400001928E-02 0. -1.
       -1   -1    0    0    0  501  0.00000000000E+00  0.00000000000E+00 -0.49899908446E+03  0.49899908448E+03  0.50400001928E-02 0.  1.
    10030    2    1    2    0    0  0.00000000000E+00  0.00000000000E+00 -0.17983529705E+03  0.81816287193E+03  0.79815396444E+03 0.  0.
        3    1    3    3  502    0 -0.29865289811E+02 -0.18050420827E+03 -0.45347584978E+03  0.48899290514E+03  0.10100000352E+00 0.  1.
       -3    1    3    3    0  502  0.29865289811E+02  0.18050420827E+03  0.27364055273E+03  0.32916996680E+03  0.10100000352E+00 0. -1.
</event>
<event>
 5   0  0.1817089E-02  0.7932450E+03  0.7818609E-02  0.9569846E-01
       -2   -1    0    0    0  501  0.00000000000E+00  0.00000000000E+00  0.19902813205E+03  0.19902813206E+03  0.25500000920E-02 0.  1.
        2   -1    0    0  501    0  0.00000000000E+00  0.00000000000E+00 -0.79038786803E+03  0.79038786804E+03  0.25500000920E-02 0. -1.
    10030    2    1    2    0    0  0.00000000000E+00  0.00000000000E+00 -0.59135973599E+03  0.98941600010E+03  0.79324503396E+03 0.  0.
        2    1    3    3  502    0  0.12609394483E+03 -0.30536290957E+03 -0.56941426674E+03  0.65831511956E+03  0.25500000920E-02 0. -1.
       -2    1    3    3    0  502 -0.12609394483E+03  0.30536290957E+03 -0.21945469246E+02  0.33110088054E+03  0.25500000920E-02 0.  1.
</event>
<event>
 5   0  0.1747544E-02  0.8022440E+03  0.7818609E-02  0.9556775E-01
        2   -1    0    0  501    0  0.00000000000E+00  0.00000000000E+00  0.44201992090E+03  0.44201992091E+03  0.25500000920E-02 0.  1.
       -2   -1    0    0    0  501  0.00000000000E+00  0.00000000000E+00 -0.36400818910E+03  0.36400818910E+03  0.25500000920E-02 0. -1.
    10030    2    1    2    0    0  0.00000000000E+00  0.00000000000E+00  0.78011731803E+02  0.80602811001E+03  0.80224403010E+03 0.  0.
        1    1    3    3  502    0  0.10063763750E+03 -0.83087603537E+02 -0.34208178160E+03  0.36613034465E+03  0.50400001928E-02 0. -1.
       -1    1    3    3    0  502 -0.10063763750E+03  0.83087603537E+02  0.42009351340E+03  0.43989776536E+03  0.50400001928E-02 0.  1.
</event>
<event>
 5   0  0.1146083E-02  0.8450454E+03  0.7818609E-02  0.9497011E-01
        1   -1    0    0  501    0  0.00000000000E+00  0.00000000000E+00  0.65211263766E+03  0.65211263768E+03  0.50400001928E-02 0. -1.
       -1   -1    0    0    0  501  0.00000000000E+00  0.00000000000E+00 -0.27376470284E+03  0.27376470289E+03  0.50400001928E-02 0.  1.
    10030    2    1    2    0    0  0.00000000000E+00  0.00000000000E+00  0.37834793482E+03  0.92587734056E+03  0.84504537747E+03 0.  0.
        4    1    3    3  502    0 -0.27123692403E+03 -0.25108459720E+03  0.41347782405E+03  0.55459757283E+03  0.12699999809E+01 0. -1.
       -4    1    3    3    0  502  0.27123692403E+03  0.25108459720E+03 -0.35129889237E+02  0.37127976773E+03  0.12699999809E+01 0.  1.
</event>
<event>
 5   0  0.1747544E-02  0.7986187E+03  0.7818609E-02  0.9562019E-01
       -2   -1    0    0    0  501  0.00000000000E+00  0.00000000000E+00  0.50367921961E+03  0.50367921961E+03  0.25500000920E-02 0.  1.
        2   -1    0    0  501    0  0.00000000000E+00  0.00000000000E+00 -0.31656646120E+03  0.31656646121E+03  0.25500000920E-02 0. -1.
    10030    2    1    2    0    0  0.00000000000E+00  0.00000000000E+00  0.18711275841E+03  0.82024568082E+03  0.79861867781E+03 0.  0.
        1    1    3    3  502    0  0.10427131066E+03 -0.13800914430E+03 -0.27609119279E+03  0.32579959622E+03  0.50400001928E-02 0. -1.
       -1    1    3    3    0  502 -0.10427131066E+03  0.13800914430E+03  0.46320395120E+03  0.49444608460E+03  0.50400001928E-02 0.  1.
</event>
<event>
 5   0  0.6872500E-03  0.7948472E+03  0.7818609E-02  0.9567506E-01
        4   -1    0    0  501    0  0.00000000000E+00  0.00000000000E+00  0.31127402401E+03  0.31127661480E+03  0.12699999809E+01 0.  1.
       -4   -1    0    0    0  501  0.00000000000E+00  0.00000000000E+00 -0.50741080607E+03  0.50741239541E+03  0.12699999809E+01 0. -1.
    10030    2    1    2    0    0  0.00000000000E+00  0.00000000000E+00 -0.19613678206E+03  0.81868901021E+03  0.79484719171E+03 0.  0.
        3    1    3    3  502    0  0.13717563601E+03  0.36567512839E+03 -0.17382768943E+03  0.42749448002E+03  0.10100000352E+00 0. -1.
       -3    1    3    3    0  502 -0.13717563601E+03 -0.36567512839E+03 -0.22309092633E+02  0.39119453019E+03  0.10100000352E+00 0.  1.
</event>
<event>
 5   0  0.1731337E-02  0.7842470E+03  0.7818609E-02  0.9583103E-01
       -2   -1    0    0    0  501  0.00000000000E+00  0.00000000000E+00  0.19009887946E+03  0.19009887948E+03  0.25500000920E-02 0.  1.
        2   -1    0    0  501    0  0.00000000000E+00  0.00000000000E+00 -0.80884667732E+03  0.80884667732E+03  0.25500000920E-02 0. -1.
    10030    2    1    2    0    0  0.00000000000E+00  0.00000000000E+00 -0.61874779786E+03  0.99894555680E+03  0.78424701982E+03 0.  0.
        4    1    3    3  502    0  0.22127956376E+03 -0.31096996662E+03 -0.19478987002E+03  0.42849932537E+03  0.12699999809E+01 0.  1.
       -4    1    3    3    0  502 -0.22127956376E+03  0.31096996662E+03 -0.42395792784E+03  0.57044623143E+03  0.12699999809E+01 0. -1.
</event>
<event>
 5   0  0.1818665E-02  0.8030487E+03  0.7818609E-02  0.9555615E-01
        2   -1    0    0  501    0  0.00000000000E+00  0.00000000000E+00  0.55572926999E+03  0.55572926999E+03  0.25500000920E-02 0. -1.
       -2   -1    0    0    0  501  0.00000000000E+00  0.00000000000E+00 -0.29010853764E+03  0.29010853765E+03  0.25500000920E-02 0.  1.
    10030    2    1    2    0    0  0.00000000000E+00  0.00000000000E+00  0.26562073234E+03  0.84583780765E+03  0.80304870549E+03 0.  0.
        3    1    3    3  502    0  0.14704324937E+02 -0.27834033199E+03 -0.17160899198E+03  0.32732127018E+03  0.10100000352E+00 0.  1.
       -3    1    3    3    0  502 -0.14704324937E+02  0.27834033199E+03  0.43722972433E+03  0.51851653746E+03  0.10100000352E+00 0. -1.
</event>
<event>
 5   0  0.1038912E-02  0.7985196E+03  0.7818609E-02  0.9562162E-01
       -1   -1    0    0    0  501  0.00000000000E+00  0.00000000000E+00  0.14929039142E+03  0.14929039151E+03  0.50400001928E-02 0.  1.
        1   -1    0    0  501    0  0.00000000000E+00  0.00000000000E+00 -0.10677739317E+04  0.10677739317E+04  0.50400001928E-02 0. -1.
    10030    2    1    2    0    0  0.00000000000E+00  0.00000000000E+00 -0.91848354030E+03  0.12170643232E+04  0.79851960095E+03 0.  0.
        2    1    3    3  502    0  0.25640745674E+03 -0.25148558154E+03 -0.19341567646E+03  0.40792083240E+03  0.25500000920E-02 0. -1.
       -2    1    3    3    0  502 -0.25640745674E+03  0.25148558154E+03 -0.72506786383E+03  0.80914349084E+03  0.25500000920E-02 0.  1.
</event>
<event>
 5   0  0.1146083E-02  0.8010751E+03  0.7818609E-02  0.9558462E-01
        1   -1    0    0  501    0  0.00000000000E+00  0.00000000000E+00  0.45127650045E+03  0.45127650048E+03  0.50400001928E-02 0.  1.
       -1   -1    0    0    0  501  0.00000000000E+00  0.00000000000E+00 -0.35550337624E+03  0.35550337628E+03  0.50400001928E-02 0. -1.
    10030    2    1    2    0    0  0.00000000000E+00  0.00000000000E+00  0.95773124206E+02  0.80677987676E+03  0.80107507652E+03 0.  0.
        4    1    3    3  502    0  0.31996946840E+01  0.13329672323E+03  0.42826720980E+03  0.44854505946E+03  0.12699999809E+01 0.  1.
       -4    1    3    3    0  502 -0.31996946840E+01 -0.13329672323E+03 -0.33249408560E+03  0.35823481730E+03  0.12699999809E+01 0. -1.
</event>
<event>
 5   0  0.1030323E-02  0.7959171E+03  0.7818609E-02  0.9565946E-01
       -1   -1    0    0    0  501  0.00000000000E+00  0.00000000000E+00  0.36541806370E+03  0.36541806374E+03  0.50400001928E-02 0.  1.
        1   -1    0    0  501    0  0.00000000000E+00  0.00000000000E+00 -0.43339676058E+03  0.43339676061E+03  0.50400001928E-02 0. -1.
    10030    2    1    2    0    0  0.00000000000E+00  0.00000000000E+00 -0.67978696881E+02  0.79881482435E+03  0.79591709390E+03 0.  0.
        3    1    3    3  502    0  0.36872745124E+03 -0.14304185655E+03 -0.78309933568E+02  0.40317906930E+03  0.10100000352E+00 0.  1.
       -3    1    3    3    0  502 -0.36872745124E+03  0.14304185655E+03  0.10331236686E+02  0.39563575505E+03  0.10100000352E+00 0. -1.
</event>
<event>
 5   0  0.1030323E-02  0.8163267E+03  0.7818609E-02  0.9536681E-01
       -1   -1    0    0    0  501  0.00000000000E+00  0.00000000000E+00  0.81122061379E+03  0.81122061381E+03  0.50400001928E-02 0. -1.
        1   -1    0    0  501    0  0.00000000000E+00  0.00000000000E+00 -0.20536621680E+03  0.20536621686E+03  0.50400001928E-02 0.  1.
    10030    2    1    2    0    0  0.00000000000E+00  0.00000000000E+00  0.60585439700E+03  0.10165868307E+04  0.81632667109E+03 0.  0.
        3    1    3    3  502    0  0.63092292407E+02  0.25053241143E+02  0.80414126419E+03  0.80700153979E+03  0.10100000352E+00 0. -1.
       -3    1    3    3    0  502 -0.63092292407E+02 -0.25053241143E+02 -0.19828686719E+03  0.20958529088E+03  0.10100000352E+00 0.  1.
</event>
<event>
 5   0  0.1818665E-02  0.7860235E+03  0.7818609E-02  0.9580471E-01
       -2   -1    0    0    0  501  0.00000000000E+00  0.00000000000E+00  0.15728943564E+03  0.15728943566E+03  0.25500000920E-02 0.  1.
        2   -1    0    0  501    0  0.00000000000E+00  0.00000000000E+00 -0.98200012551E+03  0.98200012551E+03  0.25500000920E-02 0. -1.
    10030    2    1    2    0    0  0.00000000000E+00  0.00000000000E+00 -0.82471068986E+03  0.11392895612E+04  0.78602352524E+03 0.  0.
        3    1    3    3  502    0 -0.32465352684E+03 -0.16726082805E+03 -0.20190196627E+03  0.41730146330E+03  0.10100000352E+00 0.  1.
       -3    1    3    3    0  502  0.32465352684E+03  0.16726082805E+03 -0.62280872359E+03  0.72198809787E+03  0.10100000352E+00 0. -1.
</event>
<event>
 5   0  0.1673727E-02  0.7697676E+03  0.7818609E-02  0.9604838E-01
       -2   -1    0    0    0  501  0.00000000000E+00  0.00000000000E+00  0.11916337569E+03  0.11916337572E+03  0.25500000920E-02 0.  1.
        2   -1    0    0  501    0  0.00000000000E+00  0.00000000000E+00 -0.12431298809E+04  0.12431298809E+04  0.25500000920E-02 0. -1.
    10030    2    1    2    0    0  0.00000000000E+00  0.00000000000E+00 -0.11239665052E+04  0.13622932566E+04  0.76976763519E+03 0.  0.
        5    1    3    3  502    0 -0.13594271408E+02 -0.10962835511E+03 -0.12144180520E+04  0.12194410505E+04  0.46999998093E+01 0. -1.
       -5    1    3    3    0  502  0.13594271408E+02  0.10962835511E+03  0.90451546875E+02  0.14285220611E+03  0.46999998093E+01 0.  1.
</event>
<event>
 5   0  0.1817089E-02  0.7383014E+03  0.7818609E-02  0.9653884E-01
        2   -1    0    0  501    0  0.00000000000E+00  0.00000000000E+00  0.83286240262E+03  0.83286240262E+03  0.25500000920E-02 0.  1.
       -2   -1    0    0    0  501  0.00000000000E+00  0.00000000000E+00 -0.16361915864E+03  0.16361915866E+03  0.25500000920E-02 0. -1.
    10030    2    1    2    0    0  0.00000000000E+00  0.00000000000E+00  0.66924324398E+03  0.99648156129E+03  0.73830141702E+03 0.  0.
        2    1    3    3  502    0 -0.18715845704E+03 -0.74081148060E+02 -0.83034093902E+02  0.21774059175E+03  0.25500000920E-02 0. -1.
       -2    1    3    3    0  502  0.18715845704E+03  0.74081148060E+02  0.75227733788E+03  0.77874096954E+03  0.25500000920E-02 0.  1.
</event>
<event>
 5   0  0.1025900E-02  0.8047136E+03  0.7818609E-02  0.9553219E-01
       -1   -1    0    0    0  501  0.00000000000E+00  0.00000000000E+00  0.13163927019E+03  0.13163927028E+03  0.50400001928E-02 0. -1.
        1   -1    0    0  501    0  0.00000000000E+00  0.00000000000E+00 -0.12298077087E+04  0.12298077087E+04  0.50400001928E-02 0.  1.
    10030    2    1    2    0    0  0.00000000000E+00  0.00000000000E+00 -0.10981684385E+04  0.13614469790E+04  0.80471358709E+03 0.  0.
        1    1    3    3  502    0  0.10609911605E+03  0.70034538465E+02  0.96767150384E+02  0.15976777029E+03  0.50400001928E-02 0. -1.
       -1    1    3    3    0  502 -0.10609911605E+03 -0.70034538465E+02 -0.11949355889E+04  0.12016792087E+04  0.50400001928E-02 0.  1.
</event>
<event>
 5   0  0.1817089E-02  0.8018983E+03  0.7818609E-02  0.9557274E-01
       -2   -1    0    0    0  501  0.00000000000E+00  0.00000000000E+00  0.15230769117E+03  0.15230769119E+03  0.25500000920E-02 0. -1.
        2   -1    0    0  501    0  0.00000000000E+00  0.00000000000E+00 -0.10554963277E+04  0.10554963277E+04  0.25500000920E-02 0.  1.
    10030    2    1    2    0    0  0.00000000000E+00  0.00000000000E+00 -0.90318863650E+03  0.12078040189E+04  0.80189826965E+03 0.  0.
        2    1    3    3  502    0  0.61624197534E+02 -0.25431898584E+03  0.59589099945E+01  0.26174643626E+03  0.25500000920E-02 0. -1.
       -2    1    3    3    0  502 -0.61624197534E+02  0.25431898584E+03 -0.90914754649E+03  0.94605758259E+03  0.25500000920E-02 0.  1.
</event>
<event>
 5   0  0.1025900E-02  0.7942538E+03  0.7818609E-02  0.9568372E-01
        1   -1    0    0  501    0  0.00000000000E+00  0.00000000000E+00  0.17946916323E+03  0.17946916330E+03  0.50400001928E-02 0. -1.
       -1   -1    0    0    0  501  0.00000000000E+00  0.00000000000E+00 -0.87875705325E+03  0.87875705327E+03  0.50400001928E-02 0.  1.
    10030    2    1    2    0    0  0.00000000000E+00  0.00000000000E+00 -0.69928789002E+03  0.10582262166E+04  0.79425384627E+03 0.  0.
        1    1    3    3  502    0  0.33530000421E+03 -0.22652754791E+02 -0.67730740012E+02  0.34282166398E+03  0.50400001928E-02 0. -1.
       -1    1    3    3    0  502 -0.33530000421E+03  0.22652754791E+02 -0.63155715001E+03  0.71540455259E+03  0.50400001928E-02 0.  1.
</event>
<event>
 5   0  0.1049780E-02  0.8839037E+03  0.7818609E-02  0.9445929E-01
       -1   -1    0    0    0  501  0.00000000000E+00  0.00000000000E+00  0.23936637372E+03  0.23936637377E+03  0.50400001928E-02 0.  1.
        1   -1    0    0  501    0  0.00000000000E+00  0.00000000000E+00 -0.81599371705E+03  0.81599371707E+03  0.50400001928E-02 0. -1.
    10030    2    1    2    0    0  0.00000000000E+00  0.00000000000E+00 -0.57662734333E+03  0.10553600908E+04  0.88390374378E+03 0.  0.
        5    1    3    3  502    0  0.36683865194E+02  0.34787648632E+03 -0.61076599280E+03  0.70386145203E+03  0.46999998093E+01 0. -1.
       -5    1    3    3    0  502 -0.36683865194E+02 -0.34787648632E+03  0.34138649464E+02  0.35149863881E+03  0.46999998093E+01 0.  1.
</event>
<event>
 5   0  0.1731337E-02  0.7944430E+03  0.7818609E-02  0.9568096E-01
        2   -1    0    0  501    0  0.00000000000E+00  0.00000000000E+00  0.16779492365E+04  0.16779492365E+04  0.25500000920E-02 0.  1.
       -2   -1    0    0    0  501  0.00000000000E+00  0.00000000000E+00 -0.94034393014E+02  0.94034393048E+02  0.25500000920E-02 0. -1.
    10030    2    1    2    0    0  0.00000000000E+00  0.00000000000E+00  0.15839148435E+04  0.17719836295E+04  0.79444304514E+03 0.  0.
        4    1    3    3  502    0  0.11379978924E+03 -0.30302094295E+03  0.13055052824E+04  0.13450344751E+04  0.12699999809E+01 0.  1.
       -4    1    3    3    0  502 -0.11379978924E+03  0.30302094295E+03  0.27840956109E+03  0.42694915447E+03  0.12699999809E+01 0. -1.
</event>
<event>
 5   0  0.1030323E-02  0.7982840E+03  0.7818609E-02  0.9562504E-01
       -1   -1    0    0    0  501  0.00000000000E+00  0.00000000000E+00  0.18208396040E+03  0.18208396047E+03  0.50400001928E-02 0. -1.
        1   -1    0    0  501    0  0.00000000000E+00  0.00000000000E+00 -0.87494991545E+03  0.87494991547E+03  0.50400001928E-02 0.  1.
    10030    2    1    2    0    0  0.00000000000E+00  0.00000000000E+00 -0.69286595506E+03  0.10570338759E+04  0.79828402414E+03 0.  0.
        3    1    3    3  502    0 -0.14258853860E+03  0.31877278385E+03 -0.90471758950E+02  0.36073914181E+03  0.10100000352E+00 0. -1.
       -3    1    3    3    0  502  0.14258853860E+03 -0.31877278385E+03 -0.60239419611E+03  0.69629473413E+03  0.10100000352E+00 0.  1.
</event>
<event>
 5   0  0.6872500E-03  0.8022216E+03  0.7818609E-02  0.9556807E-01
        3   -1    0    0  501    0  0.00000000000E+00  0.00000000000E+00  0.69362916895E+03  0.69362917630E+03  0.10100000352E+00 0. -1.
       -3   -1    0    0    0  501  0.00000000000E+00  0.00000000000E+00 -0.23195372210E+03  0.23195374409E+03  0.10100000352E+00 0.  1.
    10030    2    1    2    0    0  0.00000000000E+00  0.00000000000E+00  0.46167544684E+03  0.92558292039E+03  0.80222161795E+03 0.  0.
        2    1    3    3  502    0 -0.52735942881E+02 -0.25378774931E+03 -0.12233902996E+03  0.28662892323E+03  0.25500000920E-02 0.  1.
       -2    1    3    3    0  502  0.52735942881E+02  0.25378774931E+03  0.58401447680E+03  0.63895399717E+03  0.25500000920E-02 0. -1.
</event>
<event>
 5   0  0.1025900E-02  0.7982349E+03  0.7818609E-02  0.9562576E-01
       -1   -1    0    0    0  501  0.00000000000E+00  0.00000000000E+00  0.29274533430E+03  0.29274533435E+03  0.50400001928E-02 0.  1.
        1   -1    0    0  501    0  0.00000000000E+00  0.00000000000E+00 -0.54414096754E+03  0.54414096756E+03  0.50400001928E-02 0. -1.
    10030    2    1    2    0    0  0.00000000000E+00  0.00000000000E+00 -0.25139563323E+03  0.83688630191E+03  0.79823487641E+03 0.  0.
        1    1    3    3  502    0 -0.11771896489E+03  0.36113498886E+03  0.27861575575E+01  0.37984733456E+03  0.50400001928E-02 0.  1.
       -1    1    3    3    0  502  0.11771896489E+03 -0.36113498886E+03 -0.25418179079E+03  0.45703896734E+03  0.50400001928E-02 0. -1.
</event>
<event>
 5   0  0.1038912E-02  0.8016025E+03  0.7818609E-02  0.9557700E-01
       -1   -1    0    0    0  501  0.00000000000E+00  0.00000000000E+00  0.91132931464E+03  0.91132931465E+03  0.50400001928E-02 0. -1.
        1   -1    0    0  501    0  0.00000000000E+00  0.00000000000E+00 -0.17627178714E+03  0.17627178721E+03  0.50400001928E-02 0.  1.
    10030    2    1    2    0    0  0.00000000000E+00  0.00000000000E+00  0.73505752750E+03  0.10876011019E+04  0.80160251249E+03 0.  0.
        2    1    3    3  502    0  0.20761532898E+03  0.29651570531E+03  0.60102154962E+03  0.70160714893E+03  0.25500000920E-02 0. -1.
       -2    1    3    3    0  502 -0.20761532898E+03 -0.29651570531E+03  0.13403597788E+03  0.38599395292E+03  0.25500000920E-02 0.  1.
</event>
<event>
 5   0  0.1038912E-02  0.7915216E+03  0.7818609E-02  0.9572371E-01
       -1   -1    0    0    0  501  0.00000000000E+00  0.00000000000E+00  0.18192275988E+03  0.18192275995E+03  0.50400001928E-02 0. -1.
        1   -1    0    0  501    0  0.00000000000E+00  0.00000000000E+00 -0.86095123348E+03  0.86095123349E+03  0.50400001928E-02 0.  1.
    10030    2    1    2    0    0  0.00000000000E+00  0.00000000000E+00 -0.67902847360E+03  0.10428739934E+04  0.79152163473E+03 0.  0.
        2    1    3    3  502    0 -0.21376932297E+03 -0.32386286828E+03 -0.23709900057E+03  0.45475313849E+03  0.25500000920E-02 0. -1.
       -2    1    3    3    0  502  0.21376932297E+03  0.32386286828E+03 -0.44192947303E+03  0.58812085495E+03  0.25500000920E-02 0.  1.
</event>
<event>
 5   0  0.1049780E-02  0.8049725E+03  0.7818609E-02  0.9552847E-01
        1   -1    0    0  501    0  0.00000000000E+00  0.00000000000E+00  0.49628885056E+03  0.49628885059E+03  0.50400001928E-02 0. -1.
       -1   -1    0    0    0  501  0.00000000000E+00  0.00000000000E+00 -0.32641307628E+03  0.32641307632E+03  0.50400001928E-02 0.  1.
    10030    2    1    2    0    0  0.00000000000E+00  0.00000000000E+00  0.16987577428E+03  0.82270192691E+03  0.80497247273E+03 0.  0.
        5    1    3    3  502    0  0.13139285103E+03  0.33337472692E+03  0.27219530724E+03  0.45001684983E+03  0.46999998093E+01 0.  1.
       -5    1    3    3    0  502 -0.13139285103E+03 -0.33337472692E+03 -0.10231953296E+03  0.37268507707E+03  0.46999998093E+01 0. -1.
</event>
<event>
 5   0  0.1747544E-02  0.7879510E+03  0.7818609E-02  0.9577623E-01
       -2   -1    0    0    0  501  0.00000000000E+00  0.00000000000E+00  0.97022981246E+02  0.97022981279E+02  0.25500000920E-02 0.  1.
        2   -1    0    0  501    0  0.00000000000E+00  0.00000000000E+00 -0.15997931608E+04  0.15997931608E+04  0.25500000920E-02 0. -1.
    10030    2    1    2    0    0  0.00000000000E+00  0.00000000000E+00 -0.15027701796E+04  0.16968161421E+04  0.78795101845E+03 0.  0.
        1    1    3    3  502    0 -0.24786931670E+03 -0.23557657695E+02 -0.14088855071E+04  0.14307174890E+04  0.50400001928E-02 0. -1.
       -1    1    3    3    0  502  0.24786931670E+03  0.23557657695E+02 -0.93884672494E+02  0.26609865305E+03  0.50400001928E-02 0.  1.
</event>
<event>
 5   0  0.1038912E-02  0.7997689E+03  0.7818609E-02  0.9560352E-01
        1   -1    0    0  501    0  0.00000000000E+00  0.00000000000E+00  0.19275581806E+04  0.19275581806E+04  0.50400001928E-02 0.  1.
       -1   -1    0    0    0  501  0.00000000000E+00  0.00000000000E+00 -0.82958621046E+02  0.82958621200E+02  0.50400001928E-02 0. -1.
    10030    2    1    2    0    0  0.00000000000E+00  0.00000000000E+00  0.18445995595E+04  0.20105168018E+04  0.79976888863E+03 0.  0.
        2    1    3    3  502    0  0.33373500407E+03 -0.20836449219E+03  0.11020505088E+04  0.11701752597E+04  0.25500000920E-02 0.  1.
       -2    1    3    3    0  502 -0.33373500407E+03  0.20836449219E+03  0.74254905076E+03  0.84034154207E+03  0.25500000920E-02 0. -1.
</event>
<event>
 5   0  0.1818665E-02  0.8011604E+03  0.7818609E-02  0.9558339E-01
        2   -1    0    0  501    0  0.00000000000E+00  0.00000000000E+00  0.43060928920E+03  0.43060928921E+03  0.25500000920E-02 0. -1.
       -2   -1    0    0    0  501  0.00000000000E+00  0.00000000000E+00 -0.37264523596E+03  0.37264523597E+03  0.25500000920E-02 0.  1.
    10030    2    1    2    0    0  0.00000000000E+00  0.00000000000E+00  0.57964053241E+02  0.80325452518E+03  0.80116040888E+03 0.  0.
        3    1    3    3  502    0 -0.14048530427E+03 -0.15752692035E+03  0.37033286261E+03  0.42625965172E+03  0.10100000352E+00 0. -1.
       -3    1    3    3    0  502  0.14048530427E+03  0.15752692035E+03 -0.31236880937E+03  0.37699487347E+03  0.10100000352E+00 0.  1.
</event>
<event>
 5   0  0.1146083E-02  0.8080236E+03  0.7818609E-02  0.9548475E-01
       -1   -1    0    0    0  501  0.00000000000E+00  0.00000000000E+00  0.73074374818E+02  0.73074374991E+02  0.50400001928E-02 0.  1.
        1   -1    0    0  501    0  0.00000000000E+00  0.00000000000E+00 -0.22336906262E+04  0.22336906263E+04  0.50400001928E-02 0. -1.
    10030    2    1    2    0    0  0.00000000000E+00  0.00000000000E+00 -0.21606162514E+04  0.23067650012E+04  0.80802362900E+03 0.  0.
        4    1    3    3  502    0 -0.27379100049E+03 -0.29681247548E+03 -0.11169540781E+04  0.11877066907E+04  0.12699999809E+01 0. -1.
       -4    1    3    3    0  502  0.27379100049E+03  0.29681247548E+03 -0.10436621733E+04  0.11190583106E+04  0.12699999809E+01 0.  1.
</event>
<event>
 5   0  0.1747544E-02  0.7838416E+03  0.7818609E-02  0.9583705E-01
        2   -1    0    0  501    0  0.00000000000E+00  0.00000000000E+00  0.95620769893E+03  0.95620769894E+03  0.25500000920E-02 0. -1.
       -2   -1    0    0    0  501  0.00000000000E+00  0.00000000000E+00 -0.16063657378E+03  0.16063657380E+03  0.25500000920E-02 0.  1.
    10030    2    1    2    0    0  0.00000000000E+00  0.00000000000E+00  0.79557112516E+03  0.11168442727E+04  0.78384163857E+03 0.  0.
        1    1    3    3  502    0 -0.10327702473E+03  0.35401437258E+03  0.58686275491E+03  0.69310909167E+03  0.50400001928E-02 0.  1.
       -1    1    3    3    0  502  0.10327702473E+03 -0.35401437258E+03  0.20870837025E+03  0.42373518106E+03  0.50400001928E-02 0. -1.
</event>
<event>
 5   0  0.1030323E-02  0.7985131E+03  0.7818609E-02  0.9562172E-01
       -1   -1    0    0    0  501  0.00000000000E+00  0.00000000000E+00  0.44937479591E+03  0.44937479594E+03  0.50400001928E-02 0.  1.
        1   -1    0    0  501    0  0.00000000000E+00  0.00000000000E+00 -0.35472794785E+03  0.35472794788E+03  0.50400001928E-02 0. -1.
    10030    2    1    2    0    0  0.00000000000E+00  0.00000000000E+00  0.94646848061E+02  0.80410274382E+03  0.79851311621E+03 0.  0.
        3    1    3    3  502    0 -0.31579362209E+02 -0.36394909367E+03  0.20953981723E+03  0.42114503928E+03  0.10100000352E+00 0.  1.
       -3    1    3    3    0  502  0.31579362209E+02  0.36394909367E+03 -0.11489296916E+03  0.38295770454E+03  0.10100000352E+00 0. -1.
</event>
<event>
 5   0  0.1731337E-02  0.7945345E+03  0.7818609E-02  0.9567962E-01
       -2   -1    0    0    0  501  0.00000000000E+00  0.00000000000E+00  0.13856304207E+04  0.13856304207E+04  0.25500000920E-02 0. -1.
        2   -1    0    0  501    0  0.00000000000E+00  0.00000000000E+00 -0.11389852939E+03  0.11389852942E+03  0.25500000920E-02 0.  1.
    10030    2    1    2    0    0  0.00000000000E+00  0.00000000000E+00  0.12717318913E+04  0.14995289501E+04  0.79453449824E+03 0.  0.
        4    1    3    3  502    0  0.17402534920E+03 -0.25327972612E+03  0.11110180373E+04  0.11527350667E+04  0.12699999809E+01 0. -1.
       -4    1    3    3    0  502 -0.17402534920E+03  0.25327972612E+03  0.16071385400E+03  0.34679388344E+03  0.12699999809E+01 0.  1.
</event>
<event>
 5   0  0.6872500E-03  0.8305879E+03  0.7818609E-02  0.9516768E-01
        3   -1    0    0  501    0  0.00000000000E+00  0.00000000000E+00  0.79577785836E+03  0.79577786477E+03  0.10100000352E+00 0. -1.
       -3   -1    0    0    0  501  0.00000000000E+00  0.00000000000E+00 -0.21673014184E+03  0.21673016537E+03  0.10100000352E+00 0.  1.
    10030    2    1    2    0    0  0.00000000000E+00  0.00000000000E+00  0.57904771653E+03  0.10125080301E+04  0.83058789607E+03 0.  0.
        1    1    3    3  502    0 -0.41385597143E+03 -0.33726688897E+02  0.28049906427E+03  0.50109278553E+03  0.50400001928E-02 0. -1.
       -1    1    3    3    0  502  0.41385597143E+03  0.33726688897E+02  0.29854865226E+03  0.51141524461E+03  0.50400001928E-02 0.  1.
</event>
<event>
 5   0  0.1731337E-02  0.8083316E+03  0.7818609E-02  0.9548035E-01
        2   -1    0    0  501    0  0.00000000000E+00  0.00000000000E+00  0.44357688038E+03  0.44357688038E+03  0.25500000920E-02 0. -1.
       -2   -1    0    0    0  501  0.00000000000E+00  0.00000000000E+00 -0.36825630894E+03  0.36825630895E+03  0.25500000920E-02 0.  1.
    10030    2    1    2    0    0  0.00000000000E+00  0.00000000000E+00  0.75320571438E+02  0.81183318933E+03  0.80833157727E+03 0.  0.
        4    1    3    3  502    0 -0.17301447458E+03  0.29664605728E+03  0.25169253334E+03  0.42577416074E+03  0.12699999809E+01 0. -1.
       -4    1    3    3    0  502  0.17301447458E+03 -0.29664605728E+03 -0.17637196190E+03  0.38605902859E+03  0.12699999809E+01 0.  1.
</event>
<event>
 5   0  0.1673727E-02  0.7954966E+03  0.7818609E-02  0.9566559E-01
        2   -1    0    0  501    0  0.00000000000E+00  0.00000000000E+00  0.14940877141E+03  0.14940877143E+03  0.25500000920E-02 0.  1.
       -2   -1    0    0    0  501  0.00000000000E+00  0.00000000000E+00 -0.10588649865E+04  0.10588649865E+04  0.25500000920E-02 0. -1.
    10030    2    1    2    0    0  0.00000000000E+00  0.00000000000E+00 -0.90945621506E+03  0.12082737579E+04  0.79549661654E+03 0.  0.
        5    1    3    3  502    0  0.31610457119E+03 -0.15675685816E+01 -0.88120625733E+02  0.32819489923E+03  0.46999998093E+01 0.  1.
       -5    1    3    3    0  502 -0.31610457119E+03  0.15675685816E+01 -0.82133558932E+03  0.88007885868E+03  0.46999998093E+01 0. -1.
</event>
<event>
 5   0  0.1817089E-02  0.8015835E+03  0.7818609E-02  0.9557728E-01
        2   -1    0    0  501    0  0.00000000000E+00  0.00000000000E+00  0.13786892065E+04  0.13786892065E+04  0.25500000920E-02 0. -1.
       -2   -1    0    0    0  501  0.00000000000E+00  0.00000000000E+00 -0.11651214039E+03  0.11651214042E+03  0.25500000920E-02 0.  1.
    10030    2    1    2    0    0  0.00000000000E+00  0.00000000000E+00  0.12621770661E+04  0.14952013469E+04  0.80158350883E+03 0.  0.
        2    1    3    3  502    0  0.38972368115E+03 -0.13752488833E+02  0.45850605035E+03  0.60191484183E+03  0.25500000920E-02 0.  1.
       -2    1    3    3    0  502 -0.38972368115E+03  0.13752488833E+02  0.80367101578E+03  0.89328650511E+03  0.25500000920E-02 0. -1.
</event>
<event>
 5   0  0.1818665E-02  0.8017792E+03  0.7818609E-02  0.9557445E-01
        2   -1    0    0  501    0  0.00000000000E+00  0.00000000000E+00  0.28959468058E+03  0.28959468059E+03  0.25500000920E-02 0.  1.
       -2   -1    0    0    0  501  0.00000000000E+00  0.00000000000E+00 -0.55495657544E+03  0.55495657544E+03  0.25500000920E-02 0. -1.
    10030    2    1    2    0    0  0.00000000000E+00  0.00000000000E+00 -0.26536189486E+03  0.84455125603E+03  0.80177920204E+03 0.  0.
        3    1    3    3  502    0  0.36006252327E+03 -0.59700294527E+02 -0.30736922243E+03  0.47716348868E+03  0.10100000352E+00 0. -1.
       -3    1    3    3    0  502 -0.36006252327E+03  0.59700294527E+02  0.42007327572E+02  0.36738776735E+03  0.10100000352E+00 0.  1.
</event>
<event>
 5   0  0.1818665E-02  0.7958943E+03  0.7818609E-02  0.9565979E-01
        2   -1    0    0  501    0  0.00000000000E+00  0.00000000000E+00  0.21748662163E+04  0.21748662163E+04  0.25500000920E-02 0.  1.
       -2   -1    0    0    0  501  0.00000000000E+00  0.00000000000E+00 -0.72814561339E+02  0.72814561384E+02  0.25500000920E-02 0. -1.
    10030    2    1    2    0    0  0.00000000000E+00  0.00000000000E+00  0.21020516550E+04  0.22476807777E+04  0.79589428837E+03 0.  0.
        3    1    3    3  502    0  0.35713708781E+03  0.70063217835E+02  0.15055749360E+04  0.15489388794E+04  0.10100000352E+00 0.  1.
       -3    1    3    3    0  502 -0.35713708781E+03 -0.70063217835E+02  0.59647671903E+03  0.69874189836E+03  0.10100000352E+00 0. -1.
</event>
<event>
 5   0  0.1817089E-02  0.8011214E+03  0.7818609E-02  0.9558395E-01
        2   -1    0    0  501    0  0.00000000000E+00  0.00000000000E+00  0.55127238412E+03  0.55127238413E+03  0.25500000920E-02 0. -1.
       -2   -1    0    0    0  501  0.00000000000E+00  0.00000000000E+00 -0.29105189516E+03  0.29105189517E+03  0.25500000920E-02 0.  1.
    10030    2    1    2    0    0  0.00000000000E+00  0.00000000000E+00  0.26022048896E+03  0.84232427930E+03  0.80112139443E+03 0.  0.
        2    1    3    3  502    0 -0.10438260639E+03 -0.16327221900E+03  0.49870459315E+03  0.53503253849E+03  0.25500000920E-02 0. -1.
       -2    1    3    3    0  502  0.10438260639E+03  0.16327221900E+03 -0.23848410418E+03  0.30729174081E+03  0.25500000920E-02 0.  1.
</event>
<event>
 5   0  0.6872500E-03  0.8110758E+03  0.7818609E-02  0.9544122E-01
       -3   -1    0    0    0  501  0.00000000000E+00  0.00000000000E+00  0.15155126614E+04  0.15155126647E+04  0.10100000352E+00 0.  1.
        3   -1    0    0  501    0  0.00000000000E+00  0.00000000000E+00 -0.10851837095E+03  0.10851841795E+03  0.10100000352E+00 0. -1.
    10030    2    1    2    0    0  0.00000000000E+00  0.00000000000E+00  0.14069942904E+04  0.16240310827E+04  0.81107584370E+03 0.  0.
        4    1    3    3  502    0 -0.32920110807E+03  0.21806559931E+03  0.51853009105E+03  0.65176762990E+03  0.12699999809E+01 0. -1.
       -4    1    3    3    0  502  0.32920110807E+03 -0.21806559931E+03  0.88846419937E+03  0.97226345279E+03  0.12699999809E+01 0.  1.
</event>
<event>
 5   0  0.6872500E-03  0.8026857E+03  0.7818609E-02  0.9556138E-01
       -4   -1    0    0    0  501  0.00000000000E+00  0.00000000000E+00  0.40002559821E+03  0.40002761420E+03  0.12699999809E+01 0.  1.
        4   -1    0    0  501    0  0.00000000000E+00  0.00000000000E+00 -0.40266038668E+03  0.40266238948E+03  0.12699999809E+01 0. -1.
    10030    2    1    2    0    0  0.00000000000E+00  0.00000000000E+00 -0.26347884713E+01  0.80269000369E+03  0.80268567940E+03 0.  0.
        2    1    3    3  502    0  0.36785766512E+03 -0.21654924584E+02  0.15770508811E+03  0.40082301876E+03  0.25500000920E-02 0.  1.
       -2    1    3    3    0  502 -0.36785766512E+03  0.21654924584E+02 -0.16033987658E+03  0.40186698493E+03  0.25500000920E-02 0. -1.
</event>
<event>
 5   0  0.1818665E-02  0.8078322E+03  0.7818609E-02  0.9548749E-01
        2   -1    0    0  501    0  0.00000000000E+00  0.00000000000E+00  0.84533522090E+03  0.84533522091E+03  0.25500000920E-02 0. -1.
       -2   -1    0    0    0  501  0.00000000000E+00  0.00000000000E+00 -0.19299826793E+03  0.19299826794E+03  0.25500000920E-02 0.  1.
    10030    2    1    2    0    0  0.00000000000E+00  0.00000000000E+00  0.65233695298E+03  0.10383334889E+04  0.80783224363E+03 0.  0.
        3    1    3    3  502    0 -0.24316353536E+03  0.22166091628E+03  0.25043286008E+02  0.32998370128E+03  0.10100000352E+00 0.  1.
       -3    1    3    3    0  502  0.24316353536E+03 -0.22166091628E+03  0.62729366697E+03  0.70834978757E+03  0.10100000352E+00 0. -1.
</event>
<event>
 5   0  0.1146083E-02  0.7986935E+03  0.7818609E-02  0.9561910E-01
        1   -1    0    0  501    0  0.00000000000E+00  0.00000000000E+00  0.14636194451E+03  0.14636194460E+03  0.50400001928E-02 0.  1.
       -1   -1    0    0    0  501  0.00000000000E+00  0.00000000000E+00 -0.10896126138E+04  0.10896126138E+04  0.50400001928E-02 0. -1.
    10030    2    1    2    0    0  0.00000000000E+00  0.00000000000E+00 -0.94325066926E+03  0.12359745584E+04  0.79869348559E+03 0.  0.
        4    1    3    3  502    0  0.26573975357E+03 -0.96078748637E+02 -0.34947814460E+02  0.28473093475E+03  0.12699999809E+01 0.  1.
       -4    1    3    3    0  502 -0.26573975357E+03  0.96078748637E+02 -0.90830285480E+03  0.95124362363E+03  0.12699999809E+01 0. -1.
</event>
<event>
 5   0  0.1747544E-02  0.7929394E+03  0.7818609E-02  0.9570294E-01
        2   -1    0    0  501    0  0.00000000000E+00  0.00000000000E+00  0.16255247571E+04  0.16255247571E+04  0.25500000920E-02 0. -1.
       -2   -1    0    0    0  501  0.00000000000E+00  0.00000000000E+00 -0.96699976117E+02  0.96699976151E+02  0.25500000920E-02 0.  1.
    10030    2    1    2    0    0  0.00000000000E+00  0.00000000000E+00  0.15288247810E+04  0.17222247333E+04  0.79293935511E+03 0.  0.
        1    1    3    3  502    0 -0.39072291609E+03  0.34413219028E+01  0.61851997120E+03  0.73160316747E+03  0.50400001928E-02 0.  1.
       -1    1    3    3    0  502  0.39072291609E+03 -0.34413219028E+01  0.91030480978E+03  0.99062156578E+03  0.50400001928E-02 0. -1.
</event>
<event>
 5   0  0.1817089E-02  0.7937085E+03  0.7818609E-02  0.9569169E-01
        2   -1    0    0  501    0  0.00000000000E+00  0.00000000000E+00  0.82164514066E+03  0.82164514066E+03  0.25500000920E-02 0. -1.
       -2   -1    0    0    0  501  0.00000000000E+00  0.00000000000E+00 -0.19168044785E+03  0.19168044787E+03  0.25500000920E-02 0.  1.
    10030    2    1    2    0    0  0.00000000000E+00  0.00000000000E+00  0.62996469280E+03  0.10133255885E+04  0.79370853227E+03 0.  0.
        2    1    3    3  502    0 -0.49459661378E+02  0.34803930486E+03  0.55010166073E+03  0.65283187190E+03  0.25500000920E-02 0. -1.
       -2    1    3    3    0  502  0.49459661378E+02 -0.34803930486E+03  0.79863032071E+02  0.36049371663E+03  0.25500000920E-02 0.  1.
</event>
<event>
 5   0  0.1038912E-02  0.8015419E+03  0.7818609E-02  0.9557788E-01
        1   -1    0    0  501    0  0.00000000000E+00  0.00000000000E+00  0.80548830709E+03  0.80548830710E+03  0.50400001928E-02 0. -1.
       -1   -1    0    0    0  501  0.00000000000E+00  0.00000000000E+00 -0.19940370528E+03  0.19940370534E+03  0.50400001928E-02 0.  1.
    10030    2    1    2    0    0  0.00000000000E+00  0.00000000000E+00  0.60608460181E+03  0.10048920124E+04  0.80154189668E+03 0.  0.
        2    1    3    3  502    0  0.31007328012E+02 -0.52500639365E+02 -0.19355466167E+03  0.20293146278E+03  0.25500000920E-02 0.  1.
       -2    1    3    3    0  502 -0.31007328012E+02  0.52500639365E+02  0.79963926348E+03  0.80196054967E+03  0.25500000920E-02 0. -1.
</event>
<event>
 5   0  0.1673727E-02  0.8109184E+03  0.7818609E-02  0.9544346E-01
        2   -1    0    0  501    0  0.00000000000E+00  0.00000000000E+00  0.47548797961E+03  0.47548797962E+03  0.25500000920E-02 0. -1.
       -2   -1    0    0    0  501  0.00000000000E+00  0.00000000000E+00 -0.34574412932E+03  0.34574412933E+03  0.25500000920E-02 0.  1.
    10030    2    1    2    0    0  0.00000000000E+00  0.00000000000E+00  0.12974385029E+03  0.82123210895E+03  0.81091843614E+03 0.  0.
        5    1    3    3  502    0 -0.62803593253E+02 -0.31914933904E+03 -0.18022791376E+03  0.37189351007E+03  0.46999998093E+01 0.  1.
       -5    1    3    3    0  502  0.62803593253E+02  0.31914933904E+03  0.30997176404E+03  0.44933859888E+03  0.46999998093E+01 0. -1.
</event>
<event>
 5   0  0.1030323E-02  0.8000900E+03  0.7818609E-02  0.9559887E-01
        1   -1    0    0  501    0  0.00000000000E+00  0.00000000000E+00  0.20919942887E+03  0.20919942893E+03  0.50400001928E-02 0.  1.
       -1   -1    0    0    0  501  0.00000000000E+00  0.00000000000E+00 -0.76499249346E+03  0.76499249348E+03  0.50400001928E-02 0. -1.
    10030    2    1    2    0    0  0.00000000000E+00  0.00000000000E+00 -0.55579306459E+03  0.97419192241E+03  0.80008997684E+03 0.  0.
        3    1    3    3  502    0 -0.19530575279E+03 -0.26176708556E+02  0.14600844524E+03  0.24525096009E+03  0.10100000352E+00 0.  1.
       -3    1    3    3    0  502  0.19530575279E+03  0.26176708556E+02 -0.70180150983E+03  0.72894096232E+03  0.10100000352E+00 0. -1.
</event>
<event>
 5   0  0.1030323E-02  0.7948326E+03  0.7818609E-02  0.9567527E-01
       -1   -1    0    0    0  501  0.00000000000E+00  0.00000000000E+00  0.50166569669E+03  0.50166569671E+03  0.50400001928E-02 0.  1.
        1   -1    0    0  501    0  0.00000000000E+00  0.00000000000E+00 -0.31483063848E+03  0.31483063852E+03  0.50400001928E-02 0. -1.
    10030    2    1    2    0    0  0.00000000000E+00  0.00000000000E+00  0.18683505821E+03  0.81649633523E+03  0.79483264054E+03 0.  0.
        3    1    3    3  502    0  0.45037958530E+02  0.28659693182E+03  0.37243329713E+03  0.47209404788E+03  0.10100000352E+00 0.  1.
       -3    1    3    3    0  502 -0.45037958530E+02 -0.28659693182E+03 -0.18559823892E+03  0.34440228734E+03  0.10100000352E+00 0. -1.
</event>
<event>
 5   0  0.1146083E-02  0.7860416E+03  0.7818609E-02  0.9580444E-01
        1   -1    0    0  501    0  0.00000000000E+00  0.00000000000E+00  0.70656957174E+03  0.70656957176E+03  0.50400001928E-02 0. -1.
       -1   -1    0    0    0  501  0.00000000000E+00  0.00000000000E+00 -0.21861310285E+03  0.21861310291E+03  0.50400001928E-02 0.  1.
    10030    2    1    2    0    0  0.00000000000E+00  0.00000000000E+00  0.48795646890E+03  0.92518267467E+03  0.78604164391E+03 0.  0.
        4    1    3    3  502    0 -0.29856194727E+03  0.22903287109E+03  0.11045856614E+03  0.39217088129E+03  0.12699999809E+01 0.  1.
       -4    1    3    3    0  502  0.29856194727E+03 -0.22903287109E+03  0.37749790276E+03  0.53301179338E+03  0.12699999809E+01 0. -1.
</event>
<event>
 5   0  0.1731337E-02  0.7831359E+03  0.7818609E-02  0.9584753E-01
        2   -1    0    0  501    0  0.00000000000E+00  0.00000000000E+00  0.89854265217E+03  0.89854265217E+03  0.25500000920E-02 0.  1.
       -2   -1    0    0    0  501  0.00000000000E+00  0.00000000000E+00 -0.17063794767E+03  0.17063794769E+03  0.25500000920E-02 0. -1.
    10030    2    1    2    0    0  0.00000000000E+00  0.00000000000E+00  0.72790470449E+03  0.10691805999E+04  0.78313593731E+03 0.  0.
        4    1    3    3  502    0  0.37621320417E+03  0.95371196871E+02  0.43478557541E+03  0.58281399234E+03  0.12699999809E+01 0.  1.
       -4    1    3    3    0  502 -0.37621320417E+03 -0.95371196871E+02  0.29311912908E+03  0.48636660752E+03  0.12699999809E+01 0. -1.
</event>
<event>
 5   0  0.1817089E-02  0.8015136E+03  0.7818609E-02  0.9557829E-01
       -2   -1    0    0    0  501  0.00000000000E+00  0.00000000000E+00  0.14591959710E+03  0.14591959712E+03  0.25500000920E-02 0.  1.
        2   -1    0    0  501    0  0.00000000000E+00  0.00000000000E+00 -0.11006474299E+04  0.11006474299E+04  0.25500000920E-02 0. -1.
    10030    2    1    2    0    0  0.00000000000E+00  0.00000000000E+00 -0.95472783278E+03  0.12465670270E+04  0.80151364190E+03 0.  0.
        2    1    3    3  502    0  0.25817182442E+03  0.28766063517E+03 -0.31273550542E+03  0.49719697133E+03  0.25500000920E-02 0. -1.
       -2    1    3    3    0  502 -0.25817182442E+03 -0.28766063517E+03 -0.64199232736E+03  0.74937005568E+03  0.25500000920E-02 0.  1.
</event>
<event>
 5   0  0.1731337E-02  0.8787301E+03  0.7818609E-02  0.9452567E-01
        2   -1    0    0  501    0  0.00000000000E+00  0.00000000000E+00  0.13300388685E+04  0.13300388685E+04  0.25500000920E-02 0. -1.
       -2   -1    0    0    0  501  0.00000000000E+00  0.00000000000E+00 -0.14513985529E+03  0.14513985531E+03  0.25500000920E-02 0.  1.
    10030    2    1    2    0    0  0.00000000000E+00  0.00000000000E+00  0.11848990132E+04  0.14751787238E+04  0.87873010400E+03 0.  0.
        4    1    3    3  502    0 -0.64807896657E+02  0.41976912726E+03  0.78114304723E+03  0.88915254979E+03  0.12699999809E+01 0. -1.
       -4    1    3    3    0  502  0.64807896657E+02 -0.41976912726E+03  0.40375596599E+03  0.58602617402E+03  0.12699999809E+01 0.  1.
</event>
<event>
 5   0  0.1747544E-02  0.7982103E+03  0.7818609E-02  0.9562611E-01
       -2   -1    0    0    0  501  0.00000000000E+00  0.00000000000E+00  0.47029622967E+03  0.47029622967E+03  0.25500000920E-02 0. -1.
        2   -1    0    0  501    0  0.00000000000E+00  0.00000000000E+00 -0.33869062806E+03  0.33869062807E+03  0.25500000920E-02 0.  1.
    10030    2    1    2    0    0  0.00000000000E+00  0.00000000000E+00  0.13160560161E+03  0.80898685774E+03  0.79821031165E+03 0.  0.
        1    1    3    3  502    0 -0.49387115933E+02 -0.31162209336E+03  0.31351516672E+03  0.44479116008E+03  0.50400001928E-02 0. -1.
       -1    1    3    3    0  502  0.49387115933E+02  0.31162209336E+03 -0.18190956511E+03  0.36419569766E+03  0.50400001928E-02 0.  1.
</event>
<event>
 5   0  0.1818665E-02  0.7990025E+03  0.7818609E-02  0.9561462E-01
        2   -1    0    0  501    0  0.00000000000E+00  0.00000000000E+00  0.61656494365E+03  0.61656494366E+03  0.25500000920E-02 0.  1.
       -2   -1    0    0    0  501  0.00000000000E+00  0.00000000000E+00 -0.25885555713E+03  0.25885555714E+03  0.25500000920E-02 0. -1.
    10030    2    1    2    0    0  0.00000000000E+00  0.00000000000E+00  0.35770938652E+03  0.87542050080E+03  0.79900253317E+03 0.  0.
        3    1    3    3  502    0  0.31934257758E+03  0.65377628390E+02  0.43191552067E+03  0.54111453810E+03  0.10100000352E+00 0.  1.
       -3    1    3    3    0  502 -0.31934257758E+03 -0.65377628390E+02 -0.74206134150E+02  0.33430596270E+03  0.10100000352E+00 0. -1.
</event>
<event>
 5   0  0.1025900E-02  0.7971354E+03  0.7818609E-02  0.9564173E-01
       -1   -1    0    0    0  501  0.00000000000E+00  0.00000000000E+00  0.26213199274E+03  0.26213199279E+03  0.50400001928E-02 0. -1.
        1   -1    0    0  501    0  0.00000000000E+00  0.00000000000E+00 -0.60601614971E+03  0.60601614973E+03  0.50400001928E-02 0.  1.
    10030    2    1    2    0    0  0.00000000000E+00  0.00000000000E+00 -0.34388415696E+03  0.86814814252E+03  0.79713542384E+03 0.  0.
        1    1    3    3  502    0  0.37399758641E+03 -0.13720573631E+03 -0.18557141115E+03  0.43947281756E+03  0.50400001928E-02 0.  1.
       -1    1    3    3    0  502 -0.37399758641E+03  0.13720573631E+03 -0.15831274581E+03  0.42867532496E+03  0.50400001928E-02 0. -1.
</event>
<event>
 5   0  0.1817089E-02  0.8260498E+03  0.7818609E-02  0.9523058E-01
        2   -1    0    0  501    0  0.00000000000E+00  0.00000000000E+00  0.70437982069E+03  0.70437982069E+03  0.25500000920E-02 0. -1.
       -2   -1    0    0    0  501  0.00000000000E+00  0.00000000000E+00 -0.24218407871E+03  0.24218407873E+03  0.25500000920E-02 0.  1.
    10030    2    1    2    0    0  0.00000000000E+00  0.00000000000E+00  0.46219574198E+03  0.94656389942E+03  0.82604982403E+03 0.  0.
        2    1    3    3  502    0 -0.49810600114E+02 -0.33234649111E+03  0.50624153436E+03  0.60763128389E+03  0.25500000920E-02 0. -1.
       -2    1    3    3    0  502  0.49810600114E+02  0.33234649111E+03 -0.44045792386E+02  0.33893261553E+03  0.25500000920E-02 0.  1.
</event>
<event>
 5   0  0.1038912E-02  0.7372794E+03  0.7818609E-02  0.9655521E-01
       -1   -1    0    0    0  501  0.00000000000E+00  0.00000000000E+00  0.34025417379E+03  0.34025417382E+03  0.50400001928E-02 0.  1.
        1   -1    0    0  501    0  0.00000000000E+00  0.00000000000E+00 -0.39939331090E+03  0.39939331093E+03  0.50400001928E-02 0. -1.
    10030    2    1    2    0    0  0.00000000000E+00  0.00000000000E+00 -0.59139137114E+02  0.73964748476E+03  0.73727943425E+03 0.  0.
        2    1    3    3  502    0 -0.72226514272E+02 -0.18738525169E+03 -0.33969891758E+03  0.39462039548E+03  0.25500000920E-02 0. -1.
       -2    1    3    3    0  502  0.72226514272E+02  0.18738525169E+03  0.28055978046E+03  0.34502708928E+03  0.25500000920E-02 0.  1.
</event>
<event>
 5   0  0.1731337E-02  0.8010916E+03  0.7818609E-02  0.9558438E-01
        2   -1    0    0  501    0  0.00000000000E+00  0.00000000000E+00  0.51454200912E+03  0.51454200913E+03  0.25500000920E-02 0. -1.
       -2   -1    0    0    0  501  0.00000000000E+00  0.00000000000E+00 -0.31180532694E+03  0.31180532695E+03  0.25500000920E-02 0.  1.
    10030    2    1    2    0    0  0.00000000000E+00  0.00000000000E+00  0.20273668218E+03  0.82634733608E+03  0.80109160371E+03 0.  0.
        4    1    3    3  502    0 -0.35284685066E+03  0.96078394259E+02 -0.67195134330E+02  0.37181817713E+03  0.12699999809E+01 0.  1.
       -4    1    3    3    0  502  0.35284685066E+03 -0.96078394259E+02  0.26993181651E+03  0.45452915895E+03  0.12699999809E+01 0. -1.
</event>
<event>
 5   0  0.1731337E-02  0.8007078E+03  0.7818609E-02  0.9558993E-01
        2   -1    0    0  501    0  0.00000000000E+00  0.00000000000E+00  0.91516722839E+03  0.91516722840E+03  0.25500000920E-02 0. -1.
       -2   -1    0    0    0  501  0.00000000000E+00  0.00000000000E+00 -0.17514092204E+03  0.17514092206E+03  0.25500000920E-02 0.  1.
    10030    2    1    2    0    0  0.00000000000E+00  0.00000000000E+00  0.74002630635E+03  0.10903081505E+04  0.80070776745E+03 0.  0.
        4    1    3    3  502    0  0.11605348540E+03 -0.35704620182E+03  0.55933678277E+03  0.67365395506E+03  0.12699999809E+01 0. -1.
       -4    1    3    3    0  502 -0.11605348540E+03  0.35704620182E+03  0.18068952358E+03  0.41665419539E+03  0.12699999809E+01 0.  1.
</event>
<event>
 5   0  0.1025900E-02  0.7994106E+03  0.7818609E-02  0.9560871E-01
        1   -1    0    0  501    0  0.00000000000E+00  0.00000000000E+00  0.90735207109E+03  0.90735207110E+03  0.50400001928E-02 0.  1.
       -1   -1    0    0    0  501  0.00000000000E+00  0.00000000000E+00 -0.17607756737E+03  0.17607756744E+03  0.50400001928E-02 0. -1.
    10030    2    1    2    0    0  0.00000000000E+00  0.00000000000E+00  0.73127450372E+03  0.10834296385E+04  0.79941064658E+03 0.  0.
        1    1    3    3  502    0  0.29264848095E+02 -0.85117166038E+02  0.89343870283E+03  0.89796106766E+03  0.50400001928E-02 0.  1.
       -1    1    3    3    0  502 -0.29264848095E+02  0.85117166038E+02 -0.16216419911E+03  0.18546857088E+03  0.50400001928E-02 0. -1.
</event>
<event>
 5   0  0.1030323E-02  0.8085277E+03  0.7818609E-02  0.9547755E-01
       -1   -1    0    0    0  501  0.00000000000E+00  0.00000000000E+00  0.31867234247E+03  0.31867234251E+03  0.50400001928E-02 0.  1.
        1   -1    0    0  501    0  0.00000000000E+00  0.00000000000E+00 -0.51284414327E+03  0.51284414330E+03  0.50400001928E-02 0. -1.
    10030    2    1    2    0    0  0.00000000000E+00  0.00000000000E+00 -0.19417180080E+03  0.83151648580E+03  0.80852766059E+03 0.  0.
        3    1    3    3  502    0  0.95337503457E+02 -0.51120035739E+02  0.30351049802E+03  0.32221286478E+03  0.10100000352E+00 0.  1.
       -3    1    3    3    0  502 -0.95337503457E+02  0.51120035739E+02 -0.49768229883E+03  0.50930362102E+03  0.10100000352E+00 0. -1.
</event>
<event>
 5   0  0.1818665E-02  0.8031533E+03  0.7818609E-02  0.9555464E-01
        2   -1    0    0  501    0  0.00000000000E+00  0.00000000000E+00  0.16056260423E+03  0.16056260425E+03  0.25500000920E-02 0.  1.
       -2   -1    0    0    0  501  0.00000000000E+00  0.00000000000E+00 -0.10043672271E+04  0.10043672271E+04  0.25500000920E-02 0. -1.
    10030    2    1    2    0    0  0.00000000000E+00  0.00000000000E+00 -0.84380462289E+03  0.11649298314E+04  0.80315332932E+03 0.  0.
        3    1    3    3  502    0  0.26607795733E+03 -0.28088035519E+03 -0.57793511519E+03  0.69548562953E+03  0.10100000352E+00 0. -1.
       -3    1    3    3    0  502 -0.26607795733E+03  0.28088035519E+03 -0.26586950770E+03  0.46944420184E+03  0.10100000352E+00 0.  1.
</event>
<event>
 5   0  0.1049780E-02  0.8293558E+03  0.7818609E-02  0.9518472E-01
       -1   -1    0    0    0  501  0.00000000000E+00  0.00000000000E+00  0.11337090269E+04  0.11337090269E+04  0.50400001928E-02 0. -1.
        1   -1    0    0  501    0  0.00000000000E+00  0.00000000000E+00 -0.15167714434E+03  0.15167714442E+03  0.50400001928E-02 0.  1.
    10030    2    1    2    0    0  0.00000000000E+00  0.00000000000E+00  0.98203188254E+03  0.12853861713E+04  0.82935576870E+03 0.  0.
        5    1    3    3  502    0 -0.49907201834E+02 -0.82447037092E+02 -0.13403632797E+03  0.16515468487E+03  0.46999998093E+01 0.  1.
       -5    1    3    3    0  502  0.49907201834E+02  0.82447037092E+02  0.11160682105E+04  0.11202314864E+04  0.46999998093E+01 0. -1.
</event>
<event>
 5   0  0.1146083E-02  0.7907044E+03  0.7818609E-02  0.9573570E-01
        1   -1    0    0  501    0  0.00000000000E+00  0.00000000000E+00  0.40516944198E+03  0.40516944201E+03  0.50400001928E-02 0. -1.
       -1   -1    0    0    0  501  0.00000000000E+00  0.00000000000E+00 -0.38577279872E+03  0.38577279875E+03  0.50400001928E-02 0.  1.
    10030    2    1    2    0    0  0.00000000000E+00  0.00000000000E+00  0.19396643266E+02  0.79094224076E+03  0.79070436855E+03 0.  0.
        4    1    3    3  502    0  0.21523935470E+02  0.36361190945E+03  0.16344828994E+03  0.39924160213E+03  0.12699999809E+01 0.  1.
       -4    1    3    3    0  502 -0.21523935470E+02 -0.36361190945E+03 -0.14405164667E+03  0.39170063863E+03  0.12699999809E+01 0. -1.
</event>
<event>
 5   0  0.1731337E-02  0.9225416E+03  0.7818609E-02  0.9397834E-01
        2   -1    0    0  501    0  0.00000000000E+00  0.00000000000E+00  0.52672185575E+03  0.52672185576E+03  0.25500000920E-02 0.  1.
       -2   -1    0    0    0  501  0.00000000000E+00  0.00000000000E+00 -0.40395277556E+03  0.40395277556E+03  0.25500000920E-02 0. -1.
    10030    2    1    2    0    0  0.00000000000E+00  0.00000000000E+00  0.12276908019E+03  0.93067463132E+03  0.92254161008E+03 0.  0.
        4    1    3    3  502    0 -0.36278740949E+03  0.21235170340E+03 -0.13018742449E+03  0.44006627776E+03  0.12699999809E+01 0. -1.
       -4    1    3    3    0  502  0.36278740949E+03 -0.21235170340E+03  0.25295650469E+03  0.49060835356E+03  0.12699999809E+01 0.  1.
</event>
<event>
 5   0  0.1747544E-02  0.7730946E+03  0.7818609E-02  0.9599799E-01
        2   -1    0    0  501    0  0.00000000000E+00  0.00000000000E+00  0.11869190893E+04  0.11869190893E+04  0.25500000920E-02 0.  1.
       -2   -1    0    0    0  501  0.00000000000E+00  0.00000000000E+00 -0.12588795687E+03  0.12588795690E+03  0.25500000920E-02 0. -1.
    10030    2    1    2    0    0  0.00000000000E+00  0.00000000000E+00  0.10610311324E+04  0.13128070462E+04  0.77309461035E+03 0.  0.
        1    1    3    3  502    0 -0.57704295696E+00 -0.15081717126E+03 -0.73863913717E+02  0.16793460007E+03  0.50400001928E-02 0. -1.
       -1    1    3    3    0  502  0.57704295696E+00  0.15081717126E+03  0.11348950461E+04  0.11448724461E+04  0.50400001928E-02 0.  1.
</event>
<event>
 5   0  0.1038912E-02  0.8007056E+03  0.7818609E-02  0.9558996E-01
        1   -1    0    0  501    0  0.00000000000E+00  0.00000000000E+00  0.58331969023E+03  0.58331969025E+03  0.50400001928E-02 0.  1.
       -1   -1    0    0    0  501  0.00000000000E+00  0.00000000000E+00 -0.27477620714E+03  0.27477620719E+03  0.50400001928E-02 0. -1.
    10030    2    1    2    0    0  0.00000000000E+00  0.00000000000E+00  0.30854348309E+03  0.85809589744E+03  0.80070561897E+03 0.  0.
        2    1    3    3  502    0  0.32199638995E+03  0.11122462134E+03  0.37965431923E+03  0.51008822144E+03  0.25500000920E-02 0.  1.
       -2    1    3    3    0  502 -0.32199638995E+03 -0.11122462134E+03 -0.71110836146E+02  0.34800767600E+03  0.25500000920E-02 0. -1.
</event>
<event>
 5   0  0.1817089E-02  0.8240176E+03  0.7818609E-02  0.9525889E-01
        2   -1    0    0  501    0  0.00000000000E+00  0.00000000000E+00  0.22735004148E+03  0.22735004149E+03  0.25500000920E-02 0. -1.
       -2   -1    0    0    0  501  0.00000000000E+00  0.00000000000E+00 -0.74665157116E+03  0.74665157116E+03  0.25500000920E-02 0.  1.
    10030    2    1    2    0    0  0.00000000000E+00  0.00000000000E+00 -0.51930152967E+03  0.97400161265E+03  0.82401763496E+03 0.  0.
        2    1    3    3  502    0  0.36280268874E+02 -0.35156116506E+03 -0.50994726970E+03  0.62044961808E+03  0.25500000920E-02 0.  1.
       -2    1    3    3    0  502 -0.36280268874E+02  0.35156116506E+03 -0.93542599711E+01  0.35355199458E+03  0.25500000920E-02 0. -1.
</event>
<event>
 5   0  0.6872500E-03  0.8215540E+03  0.7818609E-02  0.9529332E-01
       -3   -1    0    0    0  501  0.00000000000E+00  0.00000000000E+00  0.53786692873E+03  0.53786693821E+03  0.10100000352E+00 0. -1.
        3   -1    0    0  501    0  0.00000000000E+00  0.00000000000E+00 -0.31371648238E+03  0.31371649864E+03  0.10100000352E+00 0.  1.
    10030    2    1    2    0    0  0.00000000000E+00  0.00000000000E+00  0.22415044634E+03  0.85158343685E+03  0.82155397103E+03 0.  0.
        5    1    3    3  502    0 -0.96679400023E+02 -0.42696481662E+02 -0.29935334761E+03  0.31749710654E+03  0.46999998093E+01 0.  1.
       -5    1    3    3    0  502  0.96679400023E+02  0.42696481662E+02  0.52350379396E+03  0.53408633031E+03  0.46999998093E+01 0. -1.
</event>
<event>
 5   0  0.1747544E-02  0.7987017E+03  0.7818609E-02  0.9561898E-01
       -2   -1    0    0    0  501  0.00000000000E+00  0.00000000000E+00  0.16752700949E+03  0.16752700951E+03  0.25500000920E-02 0. -1.
        2   -1    0    0  501    0  0.00000000000E+00  0.00000000000E+00 -0.95197240720E+03  0.95197240720E+03  0.25500000920E-02 0.  1.
    10030    2    1    2    0    0  0.00000000000E+00  0.00000000000E+00 -0.78444539771E+03  0.11194994167E+04  0.79870167274E+03 0.  0.
        1    1    3    3  502    0  0.16664055784E+03 -0.10609867720E+03 -0.87868797753E+03  0.90062121155E+03  0.50400001928E-02 0.  1.
       -1    1    3    3    0  502 -0.16664055784E+03  0.10609867720E+03  0.94242579816E+02  0.21887820516E+03  0.50400001928E-02 0. -1.
</event>
<event>
 5   0  0.1818665E-02  0.7513171E+03  0.7818609E-02  0.9633286E-01
        2   -1    0    0  501    0  0.00000000000E+00  0.00000000000E+00  0.96985714399E+02  0.96985714432E+02  0.25500000920E-02 0. -1.
       -2   -1    0    0    0  501  0.00000000000E+00  0.00000000000E+00 -0.14550530887E+04  0.14550530887E+04  0.25500000920E-02 0.  1.
    10030    2    1    2    0    0  0.00000000000E+00  0.00000000000E+00 -0.13580673743E+04  0.15520388031E+04  0.75131714561E+03 0.  0.
        3    1    3    3  502    0 -0.83722591391E+01  0.41869164347E+02  0.91956692036E+02  0.10138621729E+03  0.10100000352E+00 0. -1.
       -3    1    3    3    0  502  0.83722591391E+01 -0.41869164347E+02 -0.14500240663E+04  0.14506525858E+04  0.10100000352E+00 0.  1.
</event>
<event>
 5   0  0.1817089E-02  0.7970723E+03  0.7818609E-02  0.9564265E-01
       -2   -1    0    0    0  501  0.00000000000E+00  0.00000000000E+00  0.15615654987E+03  0.15615654989E+03  0.25500000920E-02 0. -1.
        2   -1    0    0  501    0  0.00000000000E+00  0.00000000000E+00 -0.10171270263E+04  0.10171270263E+04  0.25500000920E-02 0.  1.
    10030    2    1    2    0    0  0.00000000000E+00  0.00000000000E+00 -0.86097047638E+03  0.11732835761E+04  0.79707226074E+03 0.  0.
        2    1    3    3  502    0 -0.33869590159E+03  0.15041494694E+03 -0.21469170308E+03  0.42828973533E+03  0.25500000920E-02 0.  1.
       -2    1    3    3    0  502  0.33869590159E+03 -0.15041494694E+03 -0.64627877330E+03  0.74499384081E+03  0.25500000920E-02 0. -1.
</event>
<event>
 5   0  0.1049780E-02  0.7868938E+03  0.7818609E-02  0.9579184E-01
        1   -1    0    0  501    0  0.00000000000E+00  0.00000000000E+00  0.10468260312E+04  0.10468260312E+04  0.50400001928E-02 0.  1.
       -1   -1    0    0    0  501  0.00000000000E+00  0.00000000000E+00 -0.14787602526E+03  0.14787602534E+03  0.50400001928E-02 0. -1.
    10030    2    1    2    0    0  0.00000000000E+00  0.00000000000E+00  0.89895000596E+03  0.11947020566E+04  0.78689382432E+03 0.  0.
        5    1    3    3  502    0  0.33805036486E+03 -0.63961407502E+02  0.73917565403E+03  0.81533542076E+03  0.46999998093E+01 0.  1.
       -5    1    3    3    0  502 -0.33805036486E+03  0.63961407502E+02  0.15977435193E+03  0.37936663581E+03  0.46999998093E+01 0. -1.
</event>
<event>
 5   0  0.1731337E-02  0.8001307E+03  0.7818609E-02  0.9559828E-01
        2   -1    0    0  501    0  0.00000000000E+00  0.00000000000E+00  0.14236571639E+04  0.14236571639E+04  0.25500000920E-02 0.  1.
       -2   -1    0    0    0  501  0.00000000000E+00  0.00000000000E+00 -0.11242332999E+03  0.11242333001E+03  0.25500000920E-02 0. -1.
    10030    2    1    2    0    0  0.00000000000E+00  0.00000000000E+00  0.13112338339E+04  0.15360804939E+04  0.80013068720E+03 0.  0.
        4    1    3    3  502    0  0.14837919058E+01  0.36225618135E+03  0.32971123994E+03  0.48983962397E+03  0.12699999809E+01 0. -1.
       -4    1    3    3    0  502 -0.14837919058E+01 -0.36225618135E+03  0.98152259399E+03  0.10462408700E+04  0.12699999809E+01 0.  1.
</event>
<event>
 5   0  0.1030323E-02  0.7796436E+03  0.7818609E-02  0.9589959E-01
        1   -1    0    0  501    0  0.00000000000E+00  0.00000000000E+00  0.89879764065E+03  0.89879764066E+03  0.50400001928E-02 0.  1.
       -1   -1    0    0    0  501  0.00000000000E+00  0.00000000000E+00 -0.16907145801E+03  0.16907145808E+03  0.50400001928E-02 0. -1.
    10030    2    1    2    0    0  0.00000000000E+00  0.00000000000E+00  0.72972618264E+03  0.10678690987E+04  0.77964357910E+03 0.  0.
        3    1    3    3  502    0 -0.15917254835E+03 -0.39858620799E+01  0.85222838274E+03  0.86697463273E+03  0.10100000352E+00 0.  1.
       -3    1    3    3    0  502  0.15917254835E+03  0.39858620799E+01 -0.12250220010E+03  0.20089446602E+03  0.10100000352E+00 0. -1.
</event>
<event>
 5   0  0.1025900E-02  0.7871380E+03  0.7818609E-02  0.9578823E-01
       -1   -1    0    0    0  501  0.00000000000E+00  0.00000000000E+00  0.54018396081E+03  0.54018396084E+03  0.50400001928E-02 0.  1.
        1   -1    0    0  501    0  0.00000000000E+00  0.00000000000E+00 -0.28674781892E+03  0.28674781897E+03  0.50400001928E-02 0. -1.
    10030    2    1    2    0    0  0.00000000000E+00  0.00000000000E+00  0.25343614189E+03  0.82693177980E+03  0.78713803773E+03 0.  0.
        1    1    3    3  502    0  0.31868580037E+03  0.14381583172E+03 -0.63118520086E+02  0.35528520995E+03  0.50400001928E-02 0. -1.
       -1    1    3    3    0  502 -0.31868580037E+03 -0.14381583172E+03  0.31655466198E+03  0.47164656985E+03  0.50400001928E-02 0.  1.
</event>
<event>
 5   0  0.1818665E-02  0.8006288E+03  0.7818609E-02  0.9559107E-01
        2   -1    0    0  501    0  0.00000000000E+00  0.00000000000E+00  0.16975959847E+04  0.16975959847E+04  0.25500000920E-02 0.  1.
       -2   -1    0    0    0  501  0.00000000000E+00  0.00000000000E+00 -0.94399149460E+02  0.94399149495E+02  0.25500000920E-02 0. -1.
    10030    2    1    2    0    0  0.00000000000E+00  0.00000000000E+00  0.16031968353E+04  0.17919951342E+04  0.80062879569E+03 0.  0.
        3    1    3    3  502    0  0.25278860799E+03  0.21024644528E+03  0.13127102661E+04  0.13532604705E+04  0.10100000352E+00 0.  1.
       -3    1    3    3    0  502 -0.25278860799E+03 -0.21024644528E+03  0.29048656916E+03  0.43873466372E+03  0.10100000352E+00 0. -1.
</event>
<event>
 5   0  0.6872500E-03  0.8009770E+03  0.7818609E-02  0.9558604E-01
        3   -1    0    0  501    0  0.00000000000E+00  0.00000000000E+00  0.31532500231E+03  0.31532501849E+03  0.10100000352E+00 0.  1.
       -3   -1    0    0    0  501  0.00000000000E+00  0.00000000000E+00 -0.50865307365E+03  0.50865308368E+03  0.10100000352E+00 0. -1.
    10030    2    1    2    0    0  0.00000000000E+00  0.00000000000E+00 -0.19332807134E+03  0.82397810216E+03  0.80097700946E+03 0.  0.
        2    1    3    3  502    0  0.13121407317E+03  0.20143357617E+03  0.23284396493E+03  0.33467735302E+03  0.25500000920E-02 0.  1.
       -2    1    3    3    0  502 -0.13121407317E+03 -0.20143357617E+03 -0.42617203627E+03  0.48930074915E+03  0.25500000920E-02 0. -1.
</event>
<event>
 5   0  0.1030323E-02  0.7787720E+03  0.7818609E-02  0.9591262E-01
        1   -1    0    0  501    0  0.00000000000E+00  0.00000000000E+00  0.23257068147E+03  0.23257068152E+03  0.50400001928E-02 0.  1.
       -1   -1    0    0    0  501  0.00000000000E+00  0.00000000000E+00 -0.65193704836E+03  0.65193704838E+03  0.50400001928E-02 0. -1.
    10030    2    1    2    0    0  0.00000000000E+00  0.00000000000E+00 -0.41936636689E+03  0.88450772991E+03  0.77877196571E+03 0.  0.
        3    1    3    3  502    0 -0.26483912813E+03  0.11031036592E+03  0.89336370186E+02  0.30048151001E+03  0.10100000352E+00 0.  1.
       -3    1    3    3    0  502  0.26483912813E+03 -0.11031036592E+03 -0.50870273708E+03  0.58402621990E+03  0.10100000352E+00 0. -1.
</event>
<event>
 5   0  0.1146083E-02  0.7979194E+03  0.7818609E-02  0.9563034E-01
        1   -1    0    0  501    0  0.00000000000E+00  0.00000000000E+00  0.37597848593E+03  0.37597848596E+03  0.50400001928E-02 0. -1.
       -1   -1    0    0    0  501  0.00000000000E+00  0.00000000000E+00 -0.42334562464E+03  0.42334562467E+03  0.50400001928E-02 0.  1.
    10030    2    1    2    0    0  0.00000000000E+00  0.00000000000E+00 -0.47367138713E+02  0.79932411063E+03  0.79791941198E+03 0.  0.
        4    1    3    3  502    0 -0.30137004304E+02 -0.80299282509E+02 -0.41399883009E+03  0.42279174308E+03  0.12699999809E+01 0.  1.
       -4    1    3    3    0  502  0.30137004304E+02  0.80299282509E+02  0.36663169137E+03  0.37653236756E+03  0.12699999809E+01 0. -1.
</event>
<event>
 5   0  0.1049780E-02  0.7983298E+03  0.7818609E-02  0.9562438E-01
       -1   -1    0    0    0  501  0.00000000000E+00  0.00000000000E+00  0.20799419557E+03  0.20799419563E+03  0.50400001928E-02 0.  1.
        1   -1    0    0  501    0  0.00000000000E+00  0.00000000000E+00 -0.76604366992E+03  0.76604366994E+03  0.50400001928E-02 0. -1.
    10030    2    1    2    0    0  0.00000000000E+00  0.00000000000E+00 -0.55804947435E+03  0.97403786557E+03  0.79832984896E+03 0.  0.
        5    1    3    3  502    0  0.56695327061E+02  0.70777568175E+02  0.19522448052E+03  0.21531026929E+03  0.46999998093E+01 0.  1.
       -5    1    3    3    0  502 -0.56695327061E+02 -0.70777568175E+02 -0.75327395488E+03  0.75872759628E+03  0.46999998093E+01 0. -1.
</event>
<event>
 5   0  0.1146083E-02  0.7989108E+03  0.7818609E-02  0.9561595E-01
       -1   -1    0    0    0  501  0.00000000000E+00  0.00000000000E+00  0.52677098278E+03  0.52677098281E+03  0.50400001928E-02 0. -1.
        1   -1    0    0  501    0  0.00000000000E+00  0.00000000000E+00 -0.30291082064E+03  0.30291082068E+03  0.50400001928E-02 0.  1.
    10030    2    1    2    0    0  0.00000000000E+00  0.00000000000E+00  0.22386016214E+03  0.82968180349E+03  0.79891083535E+03 0.  0.
        4    1    3    3  502    0  0.22807035838E+03  0.29932255078E+03  0.25107938688E+03  0.45238539896E+03  0.12699999809E+01 0. -1.
       -4    1    3    3    0  502 -0.22807035838E+03 -0.29932255078E+03 -0.27219224734E+02  0.37729640453E+03  0.12699999809E+01 0.  1.
</event>
<event>
 5   0  0.1818665E-02  0.8034764E+03  0.7818609E-02  0.9554999E-01
       -2   -1    0    0    0  501  0.00000000000E+00  0.00000000000E+00  0.46907682199E+03  0.46907682200E+03  0.25500000920E-02 0.  1.
        2   -1    0    0  501    0  0.00000000000E+00  0.00000000000E+00 -0.34406642531E+03  0.34406642532E+03  0.25500000920E-02 0. -1.
    10030    2    1    2    0    0  0.00000000000E+00  0.00000000000E+00  0.12501039668E+03  0.81314324732E+03  0.80347640997E+03 0.  0.
        3    1    3    3  502    0  0.24250614961E+03 -0.56616161290E+02 -0.25653186382E+03  0.35752374701E+03  0.10100000352E+00 0. -1.
       -3    1    3    3    0  502 -0.24250614961E+03  0.56616161290E+02  0.38154226050E+03  0.45561950031E+03  0.10100000352E+00 0.  1.
</event>
<event>
 5   0  0.1146083E-02  0.7981006E+03  0.7818609E-02  0.9562770E-01
       -1   -1    0    0    0  501  0.00000000000E+00  0.00000000000E+00  0.14845345057E+03  0.14845345065E+03  0.50400001928E-02 0. -1.
        1   -1    0    0  501    0  0.00000000000E+00  0.00000000000E+00 -0.10726671760E+04  0.10726671760E+04  0.50400001928E-02 0.  1.
    10030    2    1    2    0    0  0.00000000000E+00  0.00000000000E+00 -0.92421372541E+03  0.12211206266E+04  0.79810060430E+03 0.  0.
        4    1    3    3  502    0  0.77885498733E+02  0.22033748412E+03 -0.95700770366E+03  0.98512949179E+03  0.12699999809E+01 0.  1.
       -4    1    3    3    0  502 -0.77885498733E+02 -0.22033748412E+03  0.32793978252E+02  0.23599113486E+03  0.12699999809E+01 0. -1.
</event>
<event>
 5   0  0.1818665E-02  0.8065228E+03  0.7818609E-02  0.9550623E-01
        2   -1    0    0  501    0  0.00000000000E+00  0.00000000000E+00  0.16519483395E+04  0.16519483396E+04  0.25500000920E-02 0. -1.
       -2   -1    0    0    0  501  0.00000000000E+00  0.00000000000E+00 -0.98441183593E+02  0.98441183626E+02  0.25500000920E-02 0.  1.
    10030    2    1    2    0    0  0.00000000000E+00  0.00000000000E+00  0.15535071560E+04  0.17503895232E+04  0.80652278284E+03 0.  0.
        3    1    3    3  502    0 -0.20416667422E+03 -0.21553389162E+02  0.23468071284E+02  0.20663818625E+03  0.10100000352E+00 0.  1.
       -3    1    3    3    0  502  0.20416667422E+03  0.21553389162E+02  0.15300390847E+04  0.15437513369E+04  0.10100000352E+00 0. -1.
</event>
<event>
 5   0  0.1731337E-02  0.7944159E+03  0.7818609E-02  0.9568135E-01
        2   -1    0    0  501    0  0.00000000000E+00  0.00000000000E+00  0.34918558146E+03  0.34918558147E+03  0.25500000920E-02 0.  1.
       -2   -1    0    0    0  501  0.00000000000E+00  0.00000000000E+00 -0.45183469227E+03  0.45183469228E+03  0.25500000920E-02 0. -1.
    10030    2    1    2    0    0  0.00000000000E+00  0.00000000000E+00 -0.10264911081E+03  0.80102027375E+03  0.79441591060E+03 0.  0.
        4    1    3    3  502    0  0.19379614278E+03  0.34501481846E+03 -0.16682318037E+02  0.39607080496E+03  0.12699999809E+01 0.  1.
       -4    1    3    3    0  502 -0.19379614278E+03 -0.34501481846E+03 -0.85966792774E+02  0.40494946879E+03  0.12699999809E+01 0. -1.
</event>
<event>
 5   0  0.1146083E-02  0.8014208E+03  0.7818609E-02  0.9557963E-01
       -1   -1    0    0    0  501  0.00000000000E+00  0.00000000000E+00  0.18421462114E+03  0.18421462121E+03  0.50400001928E-02 0. -1.
        1   -1    0    0  501    0  0.00000000000E+00  0.00000000000E+00 -0.87163996725E+03  0.87163996727E+03  0.50400001928E-02 0.  1.
    10030    2    1    2    0    0  0.00000000000E+00  0.00000000000E+00 -0.68742534611E+03  0.10558545885E+04  0.80142080429E+03 0.  0.
        4    1    3    3  502    0  0.37587127231E+02 -0.20958118284E+03  0.10351283016E+03  0.23675637952E+03  0.12699999809E+01 0. -1.
       -4    1    3    3    0  502 -0.37587127231E+02  0.20958118284E+03 -0.79093817627E+03  0.81909820896E+03  0.12699999809E+01 0.  1.
</event>
<event>
 5   0  0.1025900E-02  0.7958307E+03  0.7818609E-02  0.9566072E-01
        1   -1    0    0  501    0  0.00000000000E+00  0.00000000000E+00  0.78342491343E+03  0.78342491344E+03  0.50400001928E-02 0.  1.
       -1   -1    0    0    0  501  0.00000000000E+00  0.00000000000E+00 -0.20210820879E+03  0.20210820885E+03  0.50400001928E-02 0. -1.
    10030    2    1    2    0    0  0.00000000000E+00  0.00000000000E+00  0.58131670464E+03  0.98553312230E+03  0.79583065036E+03 0.  0.
        1    1    3    3  502    0  0.12159027969E+03  0.14039790324E+03 -0.14513691105E+03  0.23571272839E+03  0.50400001928E-02 0. -1.
       -1    1    3    3    0  502 -0.12159027969E+03 -0.14039790324E+03  0.72645361569E+03  0.74982039391E+03  0.50400001928E-02 0.  1.
</event>
<event>
 5   0  0.1817089E-02  0.7904323E+03  0.7818609E-02  0.9573970E-01
       -2   -1    0    0    0  501  0.00000000000E+00  0.00000000000E+00  0.12390949001E+03  0.12390949004E+03  0.25500000920E-02 0.  1.
        2   -1    0    0  501    0  0.00000000000E+00  0.00000000000E+00 -0.12605636032E+04  0.12605636032E+04  0.25500000920E-02 0. -1.
    10030    2    1    2    0    0  0.00000000000E+00  0.00000000000E+00 -0.11366541132E+04  0.13844730933E+04  0.79043226964E+03 0.  0.
        2    1    3    3  502    0  0.31173864049E+03  0.22460042026E+02 -0.14464873608E+03  0.34439612413E+03  0.25500000920E-02 0.  1.
       -2    1    3    3    0  502 -0.31173864049E+03 -0.22460042026E+02 -0.99200537714E+03  0.10400769691E+04  0.25500000920E-02 0. -1.
</event>
<event>
 5   0  0.1818665E-02  0.7981362E+03  0.7818609E-02  0.9562719E-01
       -2   -1    0    0    0  501  0.00000000000E+00  0.00000000000E+00  0.47174492621E+03  0.47174492622E+03  0.25500000920E-02 0.  1.
        2   -1    0    0  501    0  0.00000000000E+00  0.00000000000E+00 -0.33758785908E+03  0.33758785909E+03  0.25500000920E-02 0. -1.
    10030    2    1    2    0    0  0.00000000000E+00  0.00000000000E+00  0.13415706714E+03  0.80933278531E+03  0.79813622817E+03 0.  0.
        3    1    3    3  502    0 -0.39510177356E+03 -0.56080009951E+02  0.64817797757E+02  0.40429164732E+03  0.10100000352E+00 0. -1.
       -3    1    3    3    0  502  0.39510177356E+03  0.56080009951E+02  0.69339269381E+02  0.40504113799E+03  0.10100000352E+00 0.  1.
</event>
<event>
 5   0  0.1146083E-02  0.7960917E+03  0.7818609E-02  0.9565692E-01
       -1   -1    0    0    0  501  0.00000000000E+00  0.00000000000E+00  0.15659582354E+03  0.15659582363E+03  0.50400001928E-02 0. -1.
        1   -1    0    0  501    0  0.00000000000E+00  0.00000000000E+00 -0.10117798131E+04  0.10117798131E+04  0.50400001928E-02 0.  1.
    10030    2    1    2    0    0  0.00000000000E+00  0.00000000000E+00 -0.85518398954E+03  0.11683756367E+04  0.79609168600E+03 0.  0.
        4    1    3    3  502    0  0.73849947651E+02 -0.35535957928E+03 -0.18775690386E+03  0.40864228024E+03  0.12699999809E+01 0. -1.
       -4    1    3    3    0  502 -0.73849947651E+02  0.35535957928E+03 -0.66742708568E+03  0.75973335649E+03  0.12699999809E+01 0.  1.
</event>
<event>
 5   0  0.1038912E-02  0.7965630E+03  0.7818609E-02  0.9565005E-01
       -1   -1    0    0    0  501  0.00000000000E+00  0.00000000000E+00  0.38032040174E+03  0.38032040177E+03  0.50400001928E-02 0.  1.
        1   -1    0    0  501    0  0.00000000000E+00  0.00000000000E+00 -0.41709085666E+03  0.41709085669E+03  0.50400001928E-02 0. -1.
    10030    2    1    2    0    0  0.00000000000E+00  0.00000000000E+00 -0.36770454916E+02  0.79741125846E+03  0.79656302247E+03 0.  0.
        2    1    3    3  502    0 -0.26878637766E+03  0.17602862229E+03  0.21722888782E+03  0.38784092408E+03  0.25500000920E-02 0.  1.
       -2    1    3    3    0  502  0.26878637766E+03 -0.17602862229E+03 -0.25399934274E+03  0.40957033438E+03  0.25500000920E-02 0. -1.
</event>
<event>
 5   0  0.1025900E-02  0.8252134E+03  0.7818609E-02  0.9524222E-01
       -1   -1    0    0    0  501  0.00000000000E+00  0.00000000000E+00  0.23064420880E+03  0.23064420885E+03  0.50400001928E-02 0. -1.
        1   -1    0    0  501    0  0.00000000000E+00  0.00000000000E+00 -0.73812516577E+03  0.73812516579E+03  0.50400001928E-02 0.  1.
    10030    2    1    2    0    0  0.00000000000E+00  0.00000000000E+00 -0.50748095697E+03  0.96876937464E+03  0.82521341455E+03 0.  0.
        1    1    3    3  502    0  0.39226904040E+01 -0.16349506549E+03 -0.69845105259E+03  0.71734224526E+03  0.50400001928E-02 0.  1.
       -1    1    3    3    0  502 -0.39226904040E+01  0.16349506549E+03  0.19097009562E+03  0.25142712938E+03  0.50400001928E-02 0. -1.
</event>
<event>
 5   0  0.1817089E-02  0.7962468E+03  0.7818609E-02  0.9565466E-01
        2   -1    0    0  501    0  0.00000000000E+00  0.00000000000E+00  0.26142441353E+03  0.26142441354E+03  0.25500000920E-02 0.  1.
       -2   -1    0    0    0  501  0.00000000000E+00  0.00000000000E+00 -0.60630238303E+03  0.60630238304E+03  0.25500000920E-02 0. -1.
    10030    2    1    2    0    0  0.00000000000E+00  0.00000000000E+00 -0.34487796950E+03  0.86772679658E+03  0.79624680826E+03 0.  0.
        2    1    3    3  502    0  0.22224461076E+03  0.32911443889E+03 -0.14174564261E+03  0.42166433108E+03  0.25500000920E-02 0. -1.
       -2    1    3    3    0  502 -0.22224461076E+03 -0.32911443889E+03 -0.20313232690E+03  0.44606246551E+03  0.25500000920E-02 0.  1.
</event>
<event>
 5   0  0.1049780E-02  0.8044190E+03  0.7818609E-02  0.9553643E-01
       -1   -1    0    0    0  501  0.00000000000E+00  0.00000000000E+00  0.21009881321E+03  0.21009881327E+03  0.50400001928E-02 0. -1.
        1   -1    0    0  501    0  0.00000000000E+00  0.00000000000E+00 -0.76998276331E+03  0.76998276333E+03  0.50400001928E-02 0.  1.
    10030    2    1    2    0    0  0.00000000000E+00  0.00000000000E+00 -0.55988395010E+03  0.98008157660E+03  0.80441895751E+03 0.  0.
        5    1    3    3  502    0  0.31890466197E+03 -0.10838782836E+03 -0.54771307298E+03  0.64300840203E+03  0.46999998093E+01 0.  1.
       -5    1    3    3    0  502 -0.31890466197E+03  0.10838782836E+03 -0.12170877125E+02  0.33707317457E+03  0.46999998093E+01 0. -1.
</event>
<event>
 5   0  0.1030323E-02  0.7777112E+03  0.7818609E-02  0.9592852E-01
        1   -1    0    0  501    0  0.00000000000E+00  0.00000000000E+00  0.77941764525E+03  0.77941764527E+03  0.50400001928E-02 0. -1.
       -1   -1    0    0    0  501  0.00000000000E+00  0.00000000000E+00 -0.19400209874E+03  0.19400209881E+03  0.50400001928E-02 0.  1.
    10030    2    1    2    0    0  0.00000000000E+00  0.00000000000E+00  0.58541554651E+03  0.97341974408E+03  0.77771115208E+03 0.  0.
        3    1    3    3  502    0 -0.37048928946E+03  0.17817241609E+02  0.43882853441E+03  0.57458703476E+03  0.10100000352E+00 0. -1.
       -3    1    3    3    0  502  0.37048928946E+03 -0.17817241609E+02  0.14658701210E+03  0.39883270932E+03  0.10100000352E+00 0.  1.
</event>
<event>
 5   0  0.1818665E-02  0.7924484E+03  0.7818609E-02  0.9571012E-01
       -2   -1    0    0    0  501  0.00000000000E+00  0.00000000000E+00  0.10437489469E+03  0.10437489472E+03  0.25500000920E-02 0. -1.
        2   -1    0    0  501    0  0.00000000000E+00  0.00000000000E+00 -0.15041321484E+04  0.15041321484E+04  0.25500000920E-02 0.  1.
    10030    2    1    2    0    0  0.00000000000E+00  0.00000000000E+00 -0.13997572537E+04  0.16085070431E+04  0.79244844532E+03 0.  0.
        3    1    3    3  502    0 -0.12794530480E+03  0.35117764809E+03 -0.96683999869E+03  0.10365690208E+04  0.10100000352E+00 0.  1.
       -3    1    3    3    0  502  0.12794530480E+03 -0.35117764809E+03 -0.43291725504E+03  0.57193802239E+03  0.10100000352E+00 0. -1.
</event>
<event>
 5   0  0.1818665E-02  0.7958586E+03  0.7818609E-02  0.9566031E-01
       -2   -1    0    0    0  501  0.00000000000E+00  0.00000000000E+00  0.29029052265E+03  0.29029052266E+03  0.25500000920E-02 0. -1.
        2   -1    0    0  501    0  0.00000000000E+00  0.00000000000E+00 -0.54548020144E+03  0.54548020144E+03  0.25500000920E-02 0.  1.
    10030    2    1    2    0    0  0.00000000000E+00  0.00000000000E+00 -0.25518967879E+03  0.83577072410E+03  0.79585861251E+03 0.  0.
        3    1    3    3  502    0  0.25318436670E+03 -0.10384898483E+03  0.17578902067E+03  0.32525178735E+03  0.10100000352E+00 0. -1.
       -3    1    3    3    0  502 -0.25318436670E+03  0.10384898483E+03 -0.43097869946E+03  0.51051893675E+03  0.10100000352E+00 0.  1.
</event>
<event>
 5   0  0.1025900E-02  0.8042373E+03  0.7818609E-02  0.9553904E-01
        1   -1    0    0  501    0  0.00000000000E+00  0.00000000000E+00  0.13670988892E+04  0.13670988892E+04  0.50400001928E-02 0. -1.
       -1   -1    0    0    0  501  0.00000000000E+00  0.00000000000E+00 -0.11827922454E+03  0.11827922464E+03  0.50400001928E-02 0.  1.
    10030    2    1    2    0    0  0.00000000000E+00  0.00000000000E+00  0.12488196647E+04  0.14853781139E+04  0.80423726989E+03 0.  0.
        1    1    3    3  502    0 -0.73064977326E+02  0.29679086047E+03  0.11070096449E+04  0.11484309555E+04  0.50400001928E-02 0. -1.
       -1    1    3    3    0  502  0.73064977326E+02 -0.29679086047E+03  0.14181001982E+03  0.33694715835E+03  0.50400001928E-02 0.  1.
</event>
<event>
 5   0  0.1747544E-02  0.8110091E+03  0.7818609E-02  0.9544217E-01
        2   -1    0    0  501    0  0.00000000000E+00  0.00000000000E+00  0.10008031271E+04  0.10008031271E+04  0.25500000920E-02 0.  1.
       -2   -1    0    0    0  501  0.00000000000E+00  0.00000000000E+00 -0.16430196916E+03  0.16430196918E+03  0.25500000920E-02 0. -1.
    10030    2    1    2    0    0  0.00000000000E+00  0.00000000000E+00  0.83650115791E+03  0.11651050962E+04  0.81100906167E+03 0.  0.
        1    1    3    3  502    0  0.45005251935E+02  0.16589810505E+03 -0.10937187403E+03  0.20373968885E+03  0.50400001928E-02 0. -1.
       -1    1    3    3    0  502 -0.45005251935E+02 -0.16589810505E+03  0.94587303194E+03  0.96136540739E+03  0.50400001928E-02 0.  1.
</event>
<event>
 5   0  0.1038912E-02  0.7959368E+03  0.7818609E-02  0.9565917E-01
        1   -1    0    0  501    0  0.00000000000E+00  0.00000000000E+00  0.80893005865E+03  0.80893005866E+03  0.50400001928E-02 0.  1.
       -1   -1    0    0    0  501  0.00000000000E+00  0.00000000000E+00 -0.19578807516E+03  0.19578807522E+03  0.50400001928E-02 0. -1.
    10030    2    1    2    0    0  0.00000000000E+00  0.00000000000E+00  0.61314198349E+03  0.10047181339E+04  0.79593682956E+03 0.  0.
        2    1    3    3  502    0 -0.33361145981E+03 -0.20282349140E+03  0.20924309329E+03  0.44296348256E+03  0.25500000920E-02 0. -1.
       -2    1    3    3    0  502  0.33361145981E+03  0.20282349140E+03  0.40389889020E+03  0.56175465133E+03  0.25500000920E-02 0.  1.
</event>
<event>
 5   0  0.1025900E-02  0.8051800E+03  0.7818609E-02  0.9552549E-01
        1   -1    0    0  501    0  0.00000000000E+00  0.00000000000E+00  0.81342261456E+03  0.81342261458E+03  0.50400001928E-02 0.  1.
       -1   -1    0    0    0  501  0.00000000000E+00  0.00000000000E+00 -0.19925520530E+03  0.19925520537E+03  0.50400001928E-02 0. -1.
    10030    2    1    2    0    0  0.00000000000E+00  0.00000000000E+00  0.61416740926E+03  0.10126778199E+04  0.80517995529E+03 0.  0.
        1    1    3    3  502    0  0.39410872674E+03  0.26577564794E+02  0.20925218318E+03  0.44700618747E+03  0.50400001928E-02 0.  1.
       -1    1    3    3    0  502 -0.39410872674E+03 -0.26577564794E+02  0.40491522608E+03  0.56567163247E+03  0.50400001928E-02 0. -1.
</event>
<event>
 5   0  0.6872500E-03  0.7973305E+03  0.7818609E-02  0.9563889E-01
        4   -1    0    0  501    0  0.00000000000E+00  0.00000000000E+00  0.33460386302E+03  0.33460627318E+03  0.12699999809E+01 0. -1.
       -4   -1    0    0    0  501  0.00000000000E+00  0.00000000000E+00 -0.47498649729E+03  0.47498819513E+03  0.12699999809E+01 0.  1.
    10030    2    1    2    0    0  0.00000000000E+00  0.00000000000E+00 -0.14038263427E+03  0.80959446831E+03  0.79733049553E+03 0.  0.
        4    1    3    3  502    0  0.37145953789E+03  0.86916144609E+02  0.47328978438E+02  0.38441936682E+03  0.12699999809E+01 0. -1.
       -4    1    3    3    0  502 -0.37145953789E+03 -0.86916144609E+02 -0.18771161271E+03  0.42517510149E+03  0.12699999809E+01 0.  1.
</event>
<event>
 5   0  0.1747544E-02  0.8051293E+03  0.7818609E-02  0.9552622E-01
       -2   -1    0    0    0  501  0.00000000000E+00  0.00000000000E+00  0.15108669033E+03  0.15108669036E+03  0.25500000920E-02 0. -1.
        2   -1    0    0  501    0  0.00000000000E+00  0.00000000000E+00 -0.10726180492E+04  0.10726180492E+04  0.25500000920E-02 0.  1.
    10030    2    1    2    0    0  0.00000000000E+00  0.00000000000E+00 -0.92153135890E+03  0.12237047396E+04  0.80512933388E+03 0.  0.
        1    1    3    3  502    0 -0.25385261296E+03 -0.17286747379E+03 -0.65203875383E+02  0.31396792510E+03  0.50400001928E-02 0. -1.
       -1    1    3    3    0  502  0.25385261296E+03  0.17286747379E+03 -0.85632748352E+03  0.90973681450E+03  0.50400001928E-02 0.  1.
</event>
<event>
 5   0  0.1038912E-02  0.7946794E+03  0.7818609E-02  0.9567751E-01
        1   -1    0    0  501    0  0.00000000000E+00  0.00000000000E+00  0.37194528116E+03  0.37194528120E+03  0.50400001928E-02 0. -1.
       -1   -1    0    0    0  501  0.00000000000E+00  0.00000000000E+00 -0.42446791715E+03  0.42446791718E+03  0.50400001928E-02 0.  1.
    10030    2    1    2    0    0  0.00000000000E+00  0.00000000000E+00 -0.52522635987E+02  0.79641319838E+03  0.79467940407E+03 0.  0.
        2    1    3    3  502    0  0.96368850348E+02  0.36790229548E+03 -0.14157662215E+03  0.40581152557E+03  0.25500000920E-02 0.  1.
       -2    1    3    3    0  502 -0.96368850348E+02 -0.36790229548E+03  0.89053986167E+02  0.39060167281E+03  0.25500000920E-02 0. -1.
</event>
<event>
 5   0  0.1038912E-02  0.7939196E+03  0.7818609E-02  0.9568860E-01
       -1   -1    0    0    0  501  0.00000000000E+00  0.00000000000E+00  0.16506994340E+03  0.16506994348E+03  0.50400001928E-02 0.  1.
        1   -1    0    0  501    0  0.00000000000E+00  0.00000000000E+00 -0.95460796107E+03  0.95460796108E+03  0.50400001928E-02 0. -1.
    10030    2    1    2    0    0  0.00000000000E+00  0.00000000000E+00 -0.78953801767E+03  0.11196779046E+04  0.79391959834E+03 0.  0.
        2    1    3    3  502    0  0.15124711362E+03 -0.33222967499E+03 -0.17481010633E+03  0.40473549338E+03  0.25500000920E-02 0.  1.
       -2    1    3    3    0  502 -0.15124711362E+03  0.33222967499E+03 -0.61472791134E+03  0.71494241118E+03  0.25500000920E-02 0. -1.
</event>
<event>
 5   0  0.1817089E-02  0.6504461E+03  0.7818609E-02  0.9805942E-01
       -2   -1    0    0    0  501  0.00000000000E+00  0.00000000000E+00  0.22327109621E+03  0.22327109622E+03  0.25500000920E-02 0.  1.
        2   -1    0    0  501    0  0.00000000000E+00  0.00000000000E+00 -0.47372921072E+03  0.47372921073E+03  0.25500000920E-02 0. -1.
    10030    2    1    2    0    0  0.00000000000E+00  0.00000000000E+00 -0.25045811452E+03  0.69700030695E+03  0.65044612441E+03 0.  0.
        2    1    3    3  502    0  0.83623450947E+02  0.26790836201E+03  0.50855699716E+02  0.28522635605E+03  0.25500000920E-02 0.  1.
       -2    1    3    3    0  502 -0.83623450947E+02 -0.26790836201E+03 -0.30131381423E+03  0.41177395090E+03  0.25500000920E-02 0. -1.
</event>
<event>
 5   0  0.6872500E-03  0.7948772E+03  0.7818609E-02  0.9567462E-01
        3   -1    0    0  501    0  0.00000000000E+00  0.00000000000E+00  0.44079673394E+03  0.44079674551E+03  0.10100000352E+00 0. -1.
       -3   -1    0    0    0  501  0.00000000000E+00  0.00000000000E+00 -0.35834524473E+03  0.35834525897E+03  0.10100000352E+00 0.  1.
    10030    2    1    2    0    0  0.00000000000E+00  0.00000000000E+00  0.82451489207E+02  0.79914200448E+03  0.79487715733E+03 0.  0.
        1    1    3    3  502    0  0.10607845688E+03 -0.22133518075E+03  0.35549776774E+03  0.43199602330E+03  0.50400001928E-02 0. -1.
       -1    1    3    3    0  502 -0.10607845688E+03  0.22133518075E+03 -0.27304627853E+03  0.36714598118E+03  0.50400001928E-02 0.  1.
</event>
<event>
 5   0  0.1030323E-02  0.8069601E+03  0.7818609E-02  0.9549997E-01
       -1   -1    0    0    0  501  0.00000000000E+00  0.00000000000E+00  0.29820888286E+03  0.29820888290E+03  0.50400001928E-02 0.  1.
        1   -1    0    0  501    0  0.00000000000E+00  0.00000000000E+00 -0.54591318501E+03  0.54591318503E+03  0.50400001928E-02 0. -1.
    10030    2    1    2    0    0  0.00000000000E+00  0.00000000000E+00 -0.24770430215E+03  0.84412206793E+03  0.80696012558E+03 0.  0.
        3    1    3    3  502    0 -0.13473633609E+03 -0.29625303662E+03  0.12561838639E+03  0.34885488555E+03  0.10100000352E+00 0.  1.
       -3    1    3    3    0  502  0.13473633609E+03  0.29625303662E+03 -0.37332268854E+03  0.49526718239E+03  0.10100000352E+00 0. -1.
</event>
<event>
 5   0  0.1673727E-02  0.8042640E+03  0.7818609E-02  0.9553866E-01
        2   -1    0    0  501    0  0.00000000000E+00  0.00000000000E+00  0.82655743150E+03  0.82655743151E+03  0.25500000920E-02 0. -1.
       -2   -1    0    0    0  501  0.00000000000E+00  0.00000000000E+00 -0.19564295875E+03  0.19564295877E+03  0.25500000920E-02 0.  1.
    10030    2    1    2    0    0  0.00000000000E+00  0.00000000000E+00  0.63091447275E+03  0.10222003903E+04  0.80426399021E+03 0.  0.
        5    1    3    3  502    0  0.15267663603E+03  0.42433386664E+02  0.78516386166E+03  0.80100881840E+03  0.46999998093E+01 0. -1.
       -5    1    3    3    0  502 -0.15267663603E+03 -0.42433386664E+02 -0.15424938891E+03  0.22119157188E+03  0.46999998093E+01 0.  1.
</event>
<event>
 5   0  0.1030323E-02  0.8007162E+03  0.7818609E-02  0.9558981E-01
        1   -1    0    0  501    0  0.00000000000E+00  0.00000000000E+00  0.80810444989E+03  0.80810444990E+03  0.50400001928E-02 0.  1.
       -1   -1    0    0    0  501  0.00000000000E+00  0.00000000000E+00 -0.19834885811E+03  0.19834885818E+03  0.50400001928E-02 0. -1.
    10030    2    1    2    0    0  0.00000000000E+00  0.00000000000E+00  0.60975559177E+03  0.10064533081E+04  0.80071616672E+03 0.  0.
        3    1    3    3  502    0 -0.55744173978E+01 -0.37031667307E+03  0.49600346537E+03  0.61901935378E+03  0.10100000352E+00 0.  1.
       -3    1    3    3    0  502  0.55744173978E+01  0.37031667307E+03  0.11375212640E+03  0.38743395430E+03  0.10100000352E+00 0. -1.
</event>
<event>
 5   0  0.1817089E-02  0.7954760E+03  0.7818609E-02  0.9566589E-01
       -2   -1    0    0    0  501  0.00000000000E+00  0.00000000000E+00  0.11610240795E+03  0.11610240798E+03  0.25500000920E-02 0. -1.
        2   -1    0    0  501    0  0.00000000000E+00  0.00000000000E+00 -0.13625515917E+04  0.13625515917E+04  0.25500000920E-02 0.  1.
    10030    2    1    2    0    0  0.00000000000E+00  0.00000000000E+00 -0.12464491837E+04  0.14786539997E+04  0.79547601038E+03 0.  0.
        2    1    3    3  502    0  0.77005902895E+02 -0.29122412939E+02 -0.13465396501E+04  0.13490541328E+04  0.25500000920E-02 0.  1.
       -2    1    3    3    0  502 -0.77005902895E+02  0.29122412939E+02  0.10009046637E+03  0.12959986682E+03  0.25500000920E-02 0. -1.
</event>
<event>
 5   0  0.1731337E-02  0.8008204E+03  0.7818609E-02  0.9558830E-01
        2   -1    0    0  501    0  0.00000000000E+00  0.00000000000E+00  0.11574867631E+04  0.11574867631E+04  0.25500000920E-02 0. -1.
       -2   -1    0    0    0  501  0.00000000000E+00  0.00000000000E+00 -0.13851418338E+03  0.13851418340E+03  0.25500000920E-02 0.  1.
    10030    2    1    2    0    0  0.00000000000E+00  0.00000000000E+00  0.10189725797E+04  0.12960009465E+04  0.80082041377E+03 0.  0.
        4    1    3    3  502    0  0.26559976562E+03 -0.27410452165E+03  0.31360547149E+03  0.49399041381E+03  0.12699999809E+01 0.  1.
       -4    1    3    3    0  502 -0.26559976562E+03  0.27410452165E+03  0.70536710820E+03  0.80201053267E+03  0.12699999809E+01 0. -1.
</event>
<event>
 5   0  0.1025900E-02  0.7957715E+03  0.7818609E-02  0.9566158E-01
       -1   -1    0    0    0  501  0.00000000000E+00  0.00000000000E+00  0.31391565154E+03  0.31391565158E+03  0.50400001928E-02 0.  1.
        1   -1    0    0  501    0  0.00000000000E+00  0.00000000000E+00 -0.50431718349E+03  0.50431718352E+03  0.50400001928E-02 0. -1.
    10030    2    1    2    0    0  0.00000000000E+00  0.00000000000E+00 -0.19040153195E+03  0.81823283510E+03  0.79577146786E+03 0.  0.
        1    1    3    3  502    0 -0.34037003061E+02 -0.42265821158E+02 -0.50049415817E+03  0.50342757136E+03  0.50400001928E-02 0. -1.
       -1    1    3    3    0  502  0.34037003061E+02  0.42265821158E+02  0.31009262622E+03  0.31480526374E+03  0.50400001928E-02 0.  1.
</event>
<event>
 5   0  0.1818665E-02  0.8048326E+03  0.7818609E-02  0.9553048E-01
       -2   -1    0    0    0  501  0.00000000000E+00  0.00000000000E+00  0.16571530963E+03  0.16571530965E+03  0.25500000920E-02 0. -1.
        2   -1    0    0  501    0  0.00000000000E+00  0.00000000000E+00 -0.97721141143E+03  0.97721141143E+03  0.25500000920E-02 0.  1.
    10030    2    1    2    0    0  0.00000000000E+00  0.00000000000E+00 -0.81149610180E+03  0.11429267211E+04  0.80483263263E+03 0.  0.
        3    1    3    3  502    0  0.37560401071E+02 -0.38894577191E+03 -0.26917441481E+03  0.47449391250E+03  0.10100000352E+00 0. -1.
       -3    1    3    3    0  502 -0.37560401071E+02  0.38894577191E+03 -0.54232168699E+03  0.66843280858E+03  0.10100000352E+00 0.  1.
</event>
<event>
 5   0  0.1817089E-02  0.8013770E+03  0.7818609E-02  0.9558026E-01
       -2   -1    0    0    0  501  0.00000000000E+00  0.00000000000E+00  0.48448563828E+03  0.48448563828E+03  0.25500000920E-02 0.  1.
        2   -1    0    0  501    0  0.00000000000E+00  0.00000000000E+00 -0.33138496319E+03  0.33138496320E+03  0.25500000920E-02 0. -1.
    10030    2    1    2    0    0  0.00000000000E+00  0.00000000000E+00  0.15310067508E+03  0.81587060148E+03  0.80137695353E+03 0.  0.
        2    1    3    3  502    0 -0.10877169443E+02 -0.12548440617E+03 -0.31070605989E+03  0.33526542421E+03  0.25500000920E-02 0. -1.
       -2    1    3    3    0  502  0.10877169443E+02  0.12548440617E+03  0.46380673498E+03  0.48060517728E+03  0.25500000920E-02 0.  1.
</event>
<event>
 5   0  0.1030323E-02  0.7833139E+03  0.7818609E-02  0.9584489E-01
        1   -1    0    0  501    0  0.00000000000E+00  0.00000000000E+00  0.10668168835E+04  0.10668168835E+04  0.50400001928E-02 0. -1.
       -1   -1    0    0    0  501  0.00000000000E+00  0.00000000000E+00 -0.14378772603E+03  0.14378772611E+03  0.50400001928E-02 0.  1.
    10030    2    1    2    0    0  0.00000000000E+00  0.00000000000E+00  0.92302915747E+03  0.12106046096E+04  0.78331391874E+03 0.  0.
        3    1    3    3  502    0  0.13806354724E+03 -0.18140882267E+03 -0.30681138970E+02  0.23002618657E+03  0.10100000352E+00 0.  1.
       -3    1    3    3    0  502 -0.13806354724E+03  0.18140882267E+03  0.95371029644E+03  0.98057842305E+03  0.10100000352E+00 0. -1.
</event>
<event>
 5   0  0.1030323E-02  0.7936872E+03  0.7818609E-02  0.9569200E-01
       -1   -1    0    0    0  501  0.00000000000E+00  0.00000000000E+00  0.34403067508E+03  0.34403067512E+03  0.50400001928E-02 0. -1.
        1   -1    0    0  501    0  0.00000000000E+00  0.00000000000E+00 -0.45776393949E+03  0.45776393952E+03  0.50400001928E-02 0.  1.
    10030    2    1    2    0    0  0.00000000000E+00  0.00000000000E+00 -0.11373326441E+03  0.80179461464E+03  0.79368718563E+03 0.  0.
        3    1    3    3  502    0 -0.57705345833E+02  0.18975774054E+03  0.29036954671E+03  0.35164241907E+03  0.10100000352E+00 0. -1.
       -3    1    3    3    0  502  0.57705345833E+02 -0.18975774054E+03 -0.40410281112E+03  0.45015219558E+03  0.10100000352E+00 0.  1.
</event>
<event>
 5   0  0.1146083E-02  0.8024433E+03  0.7818609E-02  0.9556487E-01
        1   -1    0    0  501    0  0.00000000000E+00  0.00000000000E+00  0.11281942133E+04  0.11281942133E+04  0.50400001928E-02 0. -1.
       -1   -1    0    0    0  501  0.00000000000E+00  0.00000000000E+00 -0.14268714056E+03  0.14268714065E+03  0.50400001928E-02 0.  1.
    10030    2    1    2    0    0  0.00000000000E+00  0.00000000000E+00  0.98550707276E+03  0.12708813540E+04  0.80244328487E+03 0.  0.
        4    1    3    3  502    0  0.36593285759E+03  0.13477737048E+03  0.64221090029E+03  0.75133763995E+03  0.12699999809E+01 0. -1.
       -4    1    3    3    0  502 -0.36593285759E+03 -0.13477737048E+03  0.34329617247E+03  0.51954371403E+03  0.12699999809E+01 0.  1.
</event>
<event>
 5   0  0.1818665E-02  0.7943557E+03  0.7818609E-02  0.9568223E-01
        2   -1    0    0  501    0  0.00000000000E+00  0.00000000000E+00  0.75045594656E+03  0.75045594656E+03  0.25500000920E-02 0. -1.
       -2   -1    0    0    0  501  0.00000000000E+00  0.00000000000E+00 -0.21020587372E+03  0.21020587374E+03  0.25500000920E-02 0.  1.
    10030    2    1    2    0    0  0.00000000000E+00  0.00000000000E+00  0.54025007283E+03  0.96066182030E+03  0.79435570860E+03 0.  0.
        3    1    3    3  502    0 -0.16739862377E+03 -0.16382707668E+02 -0.16500849237E+03  0.23562365141E+03  0.10100000352E+00 0.  1.
       -3    1    3    3    0  502  0.16739862377E+03  0.16382707668E+02  0.70525856520E+03  0.72503816889E+03  0.10100000352E+00 0. -1.
</event>
<event>
 5   0  0.1817089E-02  0.7830155E+03  0.7818609E-02  0.9584932E-01
        2   -1    0    0  501    0  0.00000000000E+00  0.00000000000E+00  0.23522676137E+03  0.23522676139E+03  0.25500000920E-02 0.  1.
       -2   -1    0    0    0  501  0.00000000000E+00  0.00000000000E+00 -0.65161935143E+03  0.65161935144E+03  0.25500000920E-02 0. -1.
    10030    2    1    2    0    0  0.00000000000E+00  0.00000000000E+00 -0.41639259006E+03  0.88684611282E+03  0.78301547799E+03 0.  0.
        2    1    3    3  502    0 -0.20755126034E+03  0.31620861327E+03 -0.32265593988E+03  0.49716422671E+03  0.25500000920E-02 0. -1.
       -2    1    3    3    0  502  0.20755126034E+03 -0.31620861327E+03 -0.93736650185E+02  0.38968188612E+03  0.25500000920E-02 0.  1.
</event>
<event>
 5   0  0.1731337E-02  0.8022672E+03  0.7818609E-02  0.9556741E-01
       -2   -1    0    0    0  501  0.00000000000E+00  0.00000000000E+00  0.10290213429E+03  0.10290213432E+03  0.25500000920E-02 0. -1.
        2   -1    0    0  501    0  0.00000000000E+00  0.00000000000E+00 -0.15637011015E+04  0.15637011015E+04  0.25500000920E-02 0.  1.
    10030    2    1    2    0    0  0.00000000000E+00  0.00000000000E+00 -0.14607989672E+04  0.16666032359E+04  0.80226723920E+03 0.  0.
        4    1    3    3  502    0 -0.29852749349E+03 -0.24733621310E+03 -0.94440557296E+03  0.10208806815E+04  0.12699999809E+01 0. -1.
       -4    1    3    3    0  502  0.29852749349E+03  0.24733621310E+03 -0.51639339429E+03  0.64572255439E+03  0.12699999809E+01 0.  1.
</event>
<event>
 5   0  0.1038912E-02  0.7881410E+03  0.7818609E-02  0.9577343E-01
        1   -1    0    0  501    0  0.00000000000E+00  0.00000000000E+00  0.10492783372E+03  0.10492783384E+03  0.50400001928E-02 0. -1.
       -1   -1    0    0    0  501  0.00000000000E+00  0.00000000000E+00 -0.14799843824E+04  0.14799843824E+04  0.50400001928E-02 0.  1.
    10030    2    1    2    0    0  0.00000000000E+00  0.00000000000E+00 -0.13750565487E+04  0.15849122162E+04  0.78814099066E+03 0.  0.
        2    1    3    3  502    0  0.19249737262E+03 -0.46534096485E+02 -0.24140830872E+01  0.19805678076E+03  0.25500000920E-02 0. -1.
       -2    1    3    3    0  502 -0.19249737262E+03  0.46534096485E+02 -0.13726424656E+04  0.13868554355E+04  0.25500000920E-02 0.  1.
</event>
<event>
 5   0  0.6872500E-03  0.7981064E+03  0.7818609E-02  0.9562762E-01
        3   -1    0    0  501    0  0.00000000000E+00  0.00000000000E+00  0.17596986124E+03  0.17596989023E+03  0.10100000352E+00 0. -1.
       -3   -1    0    0    0  501  0.00000000000E+00  0.00000000000E+00 -0.90494712000E+03  0.90494712564E+03  0.10100000352E+00 0.  1.
    10030    2    1    2    0    0  0.00000000000E+00  0.00000000000E+00 -0.72897725876E+03  0.10809170159E+04  0.79810635344E+03 0.  0.
        4    1    3    3  502    0 -0.23196347508E+03 -0.29938383191E+03 -0.19422716468E+03  0.42563310137E+03  0.12699999809E+01 0.  1.
       -4    1    3    3    0  502  0.23196347508E+03  0.29938383191E+03 -0.53475009408E+03  0.65528391449E+03  0.12699999809E+01 0. -1.
</event>
<event>
 5   0  0.1818665E-02  0.7999547E+03  0.7818609E-02  0.9560083E-01
       -2   -1    0    0    0  501  0.00000000000E+00  0.00000000000E+00  0.36488712981E+03  0.36488712982E+03  0.25500000920E-02 0. -1.
        2   -1    0    0  501    0  0.00000000000E+00  0.00000000000E+00 -0.43844212817E+03  0.43844212818E+03  0.25500000920E-02 0.  1.
    10030    2    1    2    0    0  0.00000000000E+00  0.00000000000E+00 -0.73554998359E+02  0.80332925800E+03  0.79995472308E+03 0.  0.
        3    1    3    3  502    0 -0.31449682598E+03  0.36484907859E+02 -0.28223131729E+03  0.42413904408E+03  0.10100000352E+00 0.  1.
       -3    1    3    3    0  502  0.31449682598E+03 -0.36484907859E+02  0.20867631893E+03  0.37919021392E+03  0.10100000352E+00 0. -1.
</event>
<event>
 5   0  0.1817089E-02  0.8216993E+03  0.7818609E-02  0.9529129E-01
        2   -1    0    0  501    0  0.00000000000E+00  0.00000000000E+00  0.20135987412E+03  0.20135987414E+03  0.25500000920E-02 0. -1.
       -2   -1    0    0    0  501  0.00000000000E+00  0.00000000000E+00 -0.83828743544E+03  0.83828743545E+03  0.25500000920E-02 0.  1.
    10030    2    1    2    0    0  0.00000000000E+00  0.00000000000E+00 -0.63692756132E+03  0.10396473096E+04  0.82169934280E+03 0.  0.
        2    1    3    3  502    0  0.42357784739E+02 -0.10252170762E+03  0.18205451360E+03  0.21318707369E+03  0.25500000920E-02 0. -1.
       -2    1    3    3    0  502 -0.42357784739E+02  0.10252170762E+03 -0.81898207492E+03  0.82646023589E+03  0.25500000920E-02 0.  1.
</event>
<event>
 5   0  0.1025900E-02  0.7895997E+03  0.7818609E-02  0.9575194E-01
       -1   -1    0    0    0  501  0.00000000000E+00  0.00000000000E+00  0.16406797504E+03  0.16406797511E+03  0.50400001928E-02 0. -1.
        1   -1    0    0  501    0  0.00000000000E+00  0.00000000000E+00 -0.95001431803E+03  0.95001431804E+03  0.50400001928E-02 0.  1.
    10030    2    1    2    0    0  0.00000000000E+00  0.00000000000E+00 -0.78594634300E+03  0.11140822932E+04  0.78959970989E+03 0.  0.
        1    1    3    3  502    0 -0.50563986812E+02  0.33823720536E+03 -0.67127590723E+03  0.75337405550E+03  0.50400001928E-02 0.  1.
       -1    1    3    3    0  502  0.50563986812E+02 -0.33823720536E+03 -0.11467043576E+03  0.36070823765E+03  0.50400001928E-02 0. -1.
</event>
<event>
 5   0  0.1030323E-02  0.7759572E+03  0.7818609E-02  0.9595485E-01
       -1   -1    0    0    0  501  0.00000000000E+00  0.00000000000E+00  0.30808548141E+03  0.30808548145E+03  0.50400001928E-02 0. -1.
        1   -1    0    0  501    0  0.00000000000E+00  0.00000000000E+00 -0.48858964142E+03  0.48858964145E+03  0.50400001928E-02 0.  1.
    10030    2    1    2    0    0  0.00000000000E+00  0.00000000000E+00 -0.18050416002E+03  0.79667512290E+03  0.77595715066E+03 0.  0.
        3    1    3    3  502    0 -0.98518492567E+02 -0.11049614196E+03 -0.45845259125E+03  0.48176143410E+03  0.10100000352E+00 0.  1.
       -3    1    3    3    0  502  0.98518492567E+02  0.11049614196E+03  0.27794843123E+03  0.31491368880E+03  0.10100000352E+00 0. -1.
</event>
<event>
 5   0  0.1146083E-02  0.7796928E+03  0.7818609E-02  0.9589885E-01
       -1   -1    0    0    0  501  0.00000000000E+00  0.00000000000E+00  0.11467326083E+03  0.11467326094E+03  0.50400001928E-02 0. -1.
        1   -1    0    0  501    0  0.00000000000E+00  0.00000000000E+00 -0.13253327146E+04  0.13253327146E+04  0.50400001928E-02 0.  1.
    10030    2    1    2    0    0  0.00000000000E+00  0.00000000000E+00 -0.12106594538E+04  0.14400059756E+04  0.77969282196E+03 0.  0.
        4    1    3    3  502    0  0.44492448238E+02 -0.65003066145E+01 -0.13205236414E+04  0.13212895717E+04  0.12699999809E+01 0.  1.
       -4    1    3    3    0  502 -0.44492448238E+02  0.65003066145E+01  0.10986418758E+03  0.11871640387E+03  0.12699999809E+01 0. -1.
</event>
<event>
 5   0  0.6872500E-03  0.8044849E+03  0.7818609E-02  0.9553548E-01
       -3   -1    0    0    0  501  0.00000000000E+00  0.00000000000E+00  0.68263069557E+03  0.68263070304E+03  0.10100000352E+00 0. -1.
        3   -1    0    0  501    0  0.00000000000E+00  0.00000000000E+00 -0.23702268655E+03  0.23702270807E+03  0.10100000352E+00 0.  1.
    10030    2    1    2    0    0  0.00000000000E+00  0.00000000000E+00  0.44560800901E+03  0.91965341111E+03  0.80448486554E+03 0.  0.
        1    1    3    3  502    0 -0.18879161184E+03 -0.19919080216E+03  0.55897749313E+03  0.62271589526E+03  0.50400001928E-02 0. -1.
       -1    1    3    3    0  502  0.18879161184E+03  0.19919080216E+03 -0.11336948411E+03  0.29693751585E+03  0.50400001928E-02 0.  1.
</event>
<event>
 5   0  0.1025900E-02  0.8001488E+03  0.7818609E-02  0.9559802E-01
        1   -1    0    0  501    0  0.00000000000E+00  0.00000000000E+00  0.96549763384E+03  0.96549763385E+03  0.50400001928E-02 0. -1.
       -1   -1    0    0    0  501  0.00000000000E+00  0.00000000000E+00 -0.16577929487E+03  0.16577929495E+03  0.50400001928E-02 0.  1.
    10030    2    1    2    0    0  0.00000000000E+00  0.00000000000E+00  0.79971833897E+03  0.11312769288E+04  0.80014877864E+03 0.  0.
        1    1    3    3  502    0  0.32866146815E+03 -0.77241200570E+01  0.72220537588E+03  0.79351031982E+03  0.50400001928E-02 0. -1.
       -1    1    3    3    0  502 -0.32866146815E+03  0.77241200570E+01  0.77512963083E+02  0.33776660899E+03  0.50400001928E-02 0.  1.
</event>
<event>
 5   0  0.1818665E-02  0.7959165E+03  0.7818609E-02  0.9565947E-01
       -2   -1    0    0    0  501  0.00000000000E+00  0.00000000000E+00  0.19044279969E+03  0.19044279971E+03  0.25500000920E-02 0. -1.
        2   -1    0    0  501    0  0.00000000000E+00  0.00000000000E+00 -0.83159221414E+03  0.83159221415E+03  0.25500000920E-02 0.  1.
    10030    2    1    2    0    0  0.00000000000E+00  0.00000000000E+00 -0.64114941445E+03  0.10220350139E+04  0.79591645157E+03 0.  0.
        3    1    3    3  502    0  0.25900964048E+03  0.18155501942E+03 -0.63068518098E+03  0.70555795414E+03  0.10100000352E+00 0.  1.
       -3    1    3    3    0  502 -0.25900964048E+03 -0.18155501942E+03 -0.10464233470E+02  0.31647705971E+03  0.10100000352E+00 0. -1.
</event>
<event>
 5   0  0.1038912E-02  0.7414380E+03  0.7818609E-02  0.9648879E-01
       -1   -1    0    0    0  501  0.00000000000E+00  0.00000000000E+00  0.29329796726E+03  0.29329796731E+03  0.50400001928E-02 0.  1.
        1   -1    0    0  501    0  0.00000000000E+00  0.00000000000E+00 -0.46857661732E+03  0.46857661735E+03  0.50400001928E-02 0. -1.
    10030    2    1    2    0    0  0.00000000000E+00  0.00000000000E+00 -0.17527865006E+03  0.76187458465E+03  0.74143797959E+03 0.  0.
        2    1    3    3  502    0 -0.37016181539E+03 -0.17572506284E+02 -0.98118801737E+02  0.38334822526E+03  0.25500000920E-02 0.  1.
       -2    1    3    3    0  502  0.37016181539E+03  0.17572506284E+02 -0.77159848319E+02  0.37852635939E+03  0.25500000920E-02 0. -1.
</event>
<event>
 5   0  0.1747544E-02  0.7499384E+03  0.7818609E-02  0.9635447E-01
       -2   -1    0    0    0  501  0.00000000000E+00  0.00000000000E+00  0.19109368201E+03  0.19109368203E+03  0.25500000920E-02 0.  1.
        2   -1    0    0  501    0  0.00000000000E+00  0.00000000000E+00 -0.73577467083E+03  0.73577467084E+03  0.25500000920E-02 0. -1.
    10030    2    1    2    0    0  0.00000000000E+00  0.00000000000E+00 -0.54468098882E+03  0.92686835286E+03  0.74993837344E+03 0.  0.
        1    1    3    3  502    0  0.32245191515E+03 -0.12098767739E+03 -0.89070395008E+02  0.35573415770E+03  0.50400001928E-02 0.  1.
       -1    1    3    3    0  502 -0.32245191515E+03  0.12098767739E+03 -0.45561059381E+03  0.57113419516E+03  0.50400001928E-02 0. -1.
</event>
<event>
 5   0  0.1038912E-02  0.7731851E+03  0.7818609E-02  0.9599663E-01
        1   -1    0    0  501    0  0.00000000000E+00  0.00000000000E+00  0.63168696295E+03  0.63168696297E+03  0.50400001928E-02 0.  1.
       -1   -1    0    0    0  501  0.00000000000E+00  0.00000000000E+00 -0.23659471772E+03  0.23659471778E+03  0.50400001928E-02 0. -1.
    10030    2    1    2    0    0  0.00000000000E+00  0.00000000000E+00  0.39509224522E+03  0.86828168074E+03  0.77318509742E+03 0.  0.
        2    1    3    3  502    0  0.24592335558E+03  0.26483573912E+03  0.35167683249E+03  0.50427458795E+03  0.25500000920E-02 0.  1.
       -2    1    3    3    0  502 -0.24592335558E+03 -0.26483573912E+03  0.43415412729E+02  0.36400709279E+03  0.25500000920E-02 0. -1.
</event>
<event>
 5   0  0.1030323E-02  0.8010746E+03  0.7818609E-02  0.9558463E-01
       -1   -1    0    0    0  501  0.00000000000E+00  0.00000000000E+00  0.65270777381E+03  0.65270777383E+03  0.50400001928E-02 0.  1.
        1   -1    0    0  501    0  0.00000000000E+00  0.00000000000E+00 -0.24579164460E+03  0.24579164465E+03  0.50400001928E-02 0. -1.
    10030    2    1    2    0    0  0.00000000000E+00  0.00000000000E+00  0.40691612920E+03  0.89849941848E+03  0.80107457131E+03 0.  0.
        3    1    3    3  502    0  0.36265642814E+02 -0.39883878555E+03  0.19614314815E+03  0.44593689965E+03  0.10100000352E+00 0.  1.
       -3    1    3    3    0  502 -0.36265642814E+02  0.39883878555E+03  0.21077298105E+03  0.45256251883E+03  0.10100000352E+00 0. -1.
</event>
<event>
 5   0  0.1747544E-02  0.7998209E+03  0.7818609E-02  0.9560276E-01
       -2   -1    0    0    0  501  0.00000000000E+00  0.00000000000E+00  0.13235773092E+03  0.13235773094E+03  0.25500000920E-02 0. -1.
        2   -1    0    0  501    0  0.00000000000E+00  0.00000000000E+00 -0.12083038931E+04  0.12083038931E+04  0.25500000920E-02 0.  1.
    10030    2    1    2    0    0  0.00000000000E+00  0.00000000000E+00 -0.10759461622E+04  0.13406616241E+04  0.79982088387E+03 0.  0.
        1    1    3    3  502    0  0.34491754611E+03  0.14381128951E+03 -0.77666900594E+03  0.86189590172E+03  0.50400001928E-02 0. -1.
       -1    1    3    3    0  502 -0.34491754611E+03 -0.14381128951E+03 -0.29927715628E+03  0.47876572235E+03  0.50400001928E-02 0.  1.
</event>
<event>
 5   0  0.1146083E-02  0.7891458E+03  0.7818609E-02  0.9575862E-01
       -1   -1    0    0    0  501  0.00000000000E+00  0.00000000000E+00  0.43481864740E+03  0.43481864743E+03  0.50400001928E-02 0.  1.
        1   -1    0    0  501    0  0.00000000000E+00  0.00000000000E+00 -0.35805220589E+03  0.35805220593E+03  0.50400001928E-02 0. -1.
    10030    2    1    2    0    0  0.00000000000E+00  0.00000000000E+00  0.76766441509E+02  0.79287085336E+03  0.78914580628E+03 0.  0.
        4    1    3    3  502    0 -0.17591402448E+03  0.13376327095E+03 -0.29003557574E+03  0.36463763486E+03  0.12699999809E+01 0. -1.
       -4    1    3    3    0  502  0.17591402448E+03 -0.13376327095E+03  0.36680201725E+03  0.42823321849E+03  0.12699999809E+01 0.  1.
</event>
<event>
 5   0  0.1817089E-02  0.7934330E+03  0.7818609E-02  0.9569571E-01
        2   -1    0    0  501    0  0.00000000000E+00  0.00000000000E+00  0.96928589609E+03  0.96928589610E+03  0.25500000920E-02 0. -1.
       -2   -1    0    0    0  501  0.00000000000E+00  0.00000000000E+00 -0.16237107989E+03  0.16237107991E+03  0.25500000920E-02 0.  1.
    10030    2    1    2    0    0  0.00000000000E+00  0.00000000000E+00  0.80691481620E+03  0.11316569760E+04  0.79343304111E+03 0.  0.
        2    1    3    3  502    0 -0.16489488717E+03 -0.26875673193E+03  0.60072030869E+02  0.32098154725E+03  0.25500000920E-02 0.  1.
       -2    1    3    3    0  502  0.16489488717E+03  0.26875673193E+03  0.74684278533E+03  0.81067542876E+03  0.25500000920E-02 0. -1.
</event>
<event>
 5   0  0.1049780E-02  0.7959840E+03  0.7818609E-02  0.9565848E-01
        1   -1    0    0  501    0  0.00000000000E+00  0.00000000000E+00  0.12788598841E+04  0.12788598841E+04  0.50400001928E-02 0.  1.
       -1   -1    0    0    0  501  0.00000000000E+00  0.00000000000E+00 -0.12385848664E+03  0.12385848674E+03  0.50400001928E-02 0. -1.
    10030    2    1    2    0    0  0.00000000000E+00  0.00000000000E+00  0.11550013975E+04  0.14027183709E+04  0.79598404494E+03 0.  0.
        5    1    3    3  502    0 -0.30106100021E+03 -0.56302591014E+02  0.12971079976E+03  0.33264799590E+03  0.46999998093E+01 0. -1.
       -5    1    3    3    0  502  0.30106100021E+03  0.56302591014E+02  0.10252905977E+04  0.10700703750E+04  0.46999998093E+01 0.  1.
</event>
<event>
 5   0  0.1818665E-02  0.7995529E+03  0.7818609E-02  0.9560664E-01
        2   -1    0    0  501    0  0.00000000000E+00  0.00000000000E+00  0.89408762481E+03  0.89408762481E+03  0.25500000920E-02 0. -1.
       -2   -1    0    0    0  501  0.00000000000E+00  0.00000000000E+00 -0.17875343030E+03  0.17875343032E+03  0.25500000920E-02 0.  1.
    10030    2    1    2    0    0  0.00000000000E+00  0.00000000000E+00  0.71533419450E+03  0.10728410551E+04  0.79955294994E+03 0.  0.
        3    1    3    3  502    0 -0.10983160914E+03  0.27042549709E+03  0.72422272682E+03  0.78082744578E+03  0.10100000352E+00 0. -1.
       -3    1    3    3    0  502  0.10983160914E+03 -0.27042549709E+03 -0.88885323169E+01  0.29201360935E+03  0.10100000352E+00 0.  1.
</event>
<event>
 5   0  0.1038912E-02  0.7935079E+03  0.7818609E-02  0.9569462E-01
        1   -1    0    0  501    0  0.00000000000E+00  0.00000000000E+00  0.40723609485E+03  0.40723609488E+03  0.50400001928E-02 0. -1.
       -1   -1    0    0    0  501  0.00000000000E+00  0.00000000000E+00 -0.38654158775E+03  0.38654158778E+03  0.50400001928E-02 0.  1.
    10030    2    1    2    0    0  0.00000000000E+00  0.00000000000E+00  0.20694507107E+02  0.79377768266E+03  0.79350787448E+03 0.  0.
        2    1    3    3  502    0  0.15020767902E+03 -0.39270568049E+02  0.37558667258E+03  0.40641096562E+03  0.25500000920E-02 0. -1.
       -2    1    3    3    0  502 -0.15020767902E+03  0.39270568049E+02 -0.35489216547E+03  0.38736671704E+03  0.25500000920E-02 0.  1.
</event>
<event>
 5   0  0.1817089E-02  0.8071449E+03  0.7818609E-02  0.9549732E-01
       -2   -1    0    0    0  501  0.00000000000E+00  0.00000000000E+00  0.12462672720E+03  0.12462672723E+03  0.25500000920E-02 0. -1.
        2   -1    0    0  501    0  0.00000000000E+00  0.00000000000E+00 -0.13068683154E+04  0.13068683154E+04  0.25500000920E-02 0.  1.
    10030    2    1    2    0    0  0.00000000000E+00  0.00000000000E+00 -0.11822415882E+04  0.14314950426E+04  0.80714489665E+03 0.  0.
        2    1    3    3  502    0 -0.35451642348E+03 -0.19124380960E+03 -0.54715186773E+03  0.67943451163E+03  0.25500000920E-02 0. -1.
       -2    1    3    3    0  502  0.35451642348E+03  0.19124380960E+03 -0.63508972043E+03  0.75206053096E+03  0.25500000920E-02 0.  1.
</event>
<event>
 5   0  0.1747544E-02  0.8047464E+03  0.7818609E-02  0.9553172E-01
       -2   -1    0    0    0  501  0.00000000000E+00  0.00000000000E+00  0.69283038282E+03  0.69283038283E+03  0.25500000920E-02 0.  1.
        2   -1    0    0  501    0  0.00000000000E+00  0.00000000000E+00 -0.23368518783E+03  0.23368518784E+03  0.25500000920E-02 0. -1.
    10030    2    1    2    0    0  0.00000000000E+00  0.00000000000E+00  0.45914519499E+03  0.92651557067E+03  0.80474641510E+03 0.  0.
        1    1    3    3  502    0 -0.35900028316E+03 -0.46889223747E+02  0.27437859499E+02  0.36308764613E+03  0.50400001928E-02 0. -1.
       -1    1    3    3    0  502  0.35900028316E+03  0.46889223747E+02  0.43170733550E+03  0.56342792454E+03  0.50400001928E-02 0.  1.
</event>
<event>
 5   0  0.1030323E-02  0.8251080E+03  0.7818609E-02  0.9524369E-01
        1   -1    0    0  501    0  0.00000000000E+00  0.00000000000E+00  0.38525693789E+03  0.38525693792E+03  0.50400001928E-02 0. -1.
       -1   -1    0    0    0  501  0.00000000000E+00  0.00000000000E+00 -0.44178512212E+03  0.44178512215E+03  0.50400001928E-02 0.  1.
    10030    2    1    2    0    0  0.00000000000E+00  0.00000000000E+00 -0.56528184229E+02  0.82704206007E+03  0.82510795264E+03 0.  0.
        3    1    3    3  502    0 -0.15082055589E+02 -0.39762883229E+02  0.38305401843E+03  0.38540750709E+03  0.10100000352E+00 0. -1.
       -3    1    3    3    0  502  0.15082055589E+02  0.39762883229E+02 -0.43958220266E+03  0.44163455297E+03  0.10100000352E+00 0.  1.
</event>
<event>
 5   0  0.1038912E-02  0.7987770E+03  0.7818609E-02  0.9561789E-01
       -1   -1    0    0    0  501  0.00000000000E+00  0.00000000000E+00  0.12300689370E+03  0.12300689380E+03  0.50400001928E-02 0.  1.
        1   -1    0    0  501    0  0.00000000000E+00  0.00000000000E+00 -0.12967661661E+04  0.12967661661E+04  0.50400001928E-02 0. -1.
    10030    2    1    2    0    0  0.00000000000E+00  0.00000000000E+00 -0.11737592724E+04  0.14197730599E+04  0.79877701024E+03 0.  0.
        2    1    3    3  502    0  0.41864411705E+02 -0.39452708338E+03 -0.66846615063E+03  0.77733599108E+03  0.25500000920E-02 0. -1.
       -2    1    3    3    0  502 -0.41864411705E+02  0.39452708338E+03 -0.50529312176E+03  0.64243706881E+03  0.25500000920E-02 0.  1.
</event>
<event>
 5   0  0.1817089E-02  0.7981719E+03  0.7818609E-02  0.9562667E-01
        2   -1    0    0  501    0  0.00000000000E+00  0.00000000000E+00  0.83089296014E+03  0.83089296014E+03  0.25500000920E-02 0.  1.
       -2   -1    0    0    0  501  0.00000000000E+00  0.00000000000E+00 -0.19168485799E+03  0.19168485801E+03  0.25500000920E-02 0. -1.
    10030    2    1    2    0    0  0.00000000000E+00  0.00000000000E+00  0.63920810214E+03  0.10225778182E+04  0.79817190901E+03 0.  0.
        2    1    3    3  502    0  0.23791632264E+03  0.11523098650E+03 -0.63430277205E+02  0.27185613273E+03  0.25500000920E-02 0. -1.
       -2    1    3    3    0  502 -0.23791632264E+03 -0.11523098650E+03  0.70263837935E+03  0.75072168542E+03  0.25500000920E-02 0.  1.
</event>
<event>
 5   0  0.1731337E-02  0.7967623E+03  0.7818609E-02  0.9564715E-01
       -2   -1    0    0    0  501  0.00000000000E+00  0.00000000000E+00  0.70160096341E+03  0.70160096342E+03  0.25500000920E-02 0. -1.
        2   -1    0    0  501    0  0.00000000000E+00  0.00000000000E+00 -0.22620769346E+03  0.22620769348E+03  0.25500000920E-02 0.  1.
    10030    2    1    2    0    0  0.00000000000E+00  0.00000000000E+00  0.47539326995E+03  0.92780865689E+03  0.79676228745E+03 0.  0.
        4    1    3    3  502    0 -0.14771371087E+03 -0.36111889752E+02  0.66647364502E+03  0.68360232692E+03  0.12699999809E+01 0. -1.
       -4    1    3    3    0  502  0.14771371087E+03  0.36111889752E+02 -0.19108037507E+03  0.24420632997E+03  0.12699999809E+01 0.  1.
</event>
<event>
 5   0  0.1818665E-02  0.8018702E+03  0.7818609E-02  0.9557314E-01
        2   -1    0    0  501    0  0.00000000000E+00  0.00000000000E+00  0.12970259892E+04  0.12970259892E+04  0.25500000920E-02 0. -1.
       -2   -1    0    0    0  501  0.00000000000E+00  0.00000000000E+00 -0.12393657470E+03  0.12393657473E+03  0.25500000920E-02 0.  1.
    10030    2    1    2    0    0  0.00000000000E+00  0.00000000000E+00  0.11730894145E+04  0.14209625639E+04  0.80187020998E+03 0.  0.
        3    1    3    3  502    0 -0.88984086381E+02 -0.19695950353E+03 -0.11870811335E+02  0.21645355165E+03  0.10100000352E+00 0.  1.
       -3    1    3    3    0  502  0.88984086381E+02  0.19695950353E+03  0.11849602258E+04  0.12045090122E+04  0.10100000352E+00 0. -1.
</event>
<event>
 5   0  0.1673727E-02  0.7818091E+03  0.7818609E-02  0.9586727E-01
       -2   -1    0    0    0  501  0.00000000000E+00  0.00000000000E+00  0.35163881994E+03  0.35163881995E+03  0.25500000920E-02 0.  1.
        2   -1    0    0  501    0  0.00000000000E+00  0.00000000000E+00 -0.43455486510E+03  0.43455486511E+03  0.25500000920E-02 0. -1.
    10030    2    1    2    0    0  0.00000000000E+00  0.00000000000E+00 -0.82916045161E+02  0.78619368506E+03  0.78180908148E+03 0.  0.
        5    1    3    3  502    0 -0.21188081773E+02  0.22017441620E+02 -0.43332354071E+03  0.43442500328E+03  0.46999998093E+01 0. -1.
       -5    1    3    3    0  502  0.21188081773E+02 -0.22017441620E+02  0.35040749555E+03  0.35176868178E+03  0.46999998093E+01 0.  1.
</event>
<event>
 5   0  0.1146083E-02  0.8090364E+03  0.7818609E-02  0.9547029E-01
       -1   -1    0    0    0  501  0.00000000000E+00  0.00000000000E+00  0.67924549580E+03  0.67924549582E+03  0.50400001928E-02 0.  1.
        1   -1    0    0  501    0  0.00000000000E+00  0.00000000000E+00 -0.24090699011E+03  0.24090699016E+03  0.50400001928E-02 0. -1.
    10030    2    1    2    0    0  0.00000000000E+00  0.00000000000E+00  0.43833850569E+03  0.92015248598E+03  0.80903643421E+03 0.  0.
        4    1    3    3  502    0 -0.19230973545E+03 -0.22042619552E+03  0.53693956578E+03  0.61145437460E+03  0.12699999809E+01 0.  1.
       -4    1    3    3    0  502  0.19230973545E+03  0.22042619552E+03 -0.98601060091E+02  0.30869811138E+03  0.12699999809E+01 0. -1.
</event>
<event>
 5   0  0.1049780E-02  0.7929272E+03  0.7818609E-02  0.9570311E-01
        1   -1    0    0  501    0  0.00000000000E+00  0.00000000000E+00  0.28618989184E+03  0.28618989188E+03  0.50400001928E-02 0.  1.
       -1   -1    0    0    0  501  0.00000000000E+00  0.00000000000E+00 -0.54922764808E+03  0.54922764810E+03  0.50400001928E-02 0. -1.
    10030    2    1    2    0    0  0.00000000000E+00  0.00000000000E+00 -0.26303775624E+03  0.83541753998E+03  0.79292723809E+03 0.  0.
        5    1    3    3  502    0 -0.12725769287E+03 -0.34999733204E+03 -0.27470071406E+03  0.46279069257E+03  0.46999998093E+01 0. -1.
       -5    1    3    3    0  502  0.12725769287E+03  0.34999733204E+03  0.11662957820E+02  0.37262684741E+03  0.46999998093E+01 0.  1.
</event>
<event>
 5   0  0.1025900E-02  0.8096006E+03  0.7818609E-02  0.9546224E-01
       -1   -1    0    0    0  501  0.00000000000E+00  0.00000000000E+00  0.11430031852E+04  0.11430031852E+04  0.50400001928E-02 0. -1.
        1   -1    0    0  501    0  0.00000000000E+00  0.00000000000E+00 -0.14336205303E+03  0.14336205312E+03  0.50400001928E-02 0.  1.
    10030    2    1    2    0    0  0.00000000000E+00  0.00000000000E+00  0.99964113220E+03  0.12863652384E+04  0.80960060109E+03 0.  0.
        1    1    3    3  502    0 -0.19337892494E+02  0.74035841337E+01 -0.14252002117E+03  0.14401640047E+03  0.50400001928E-02 0.  1.
       -1    1    3    3    0  502  0.19337892494E+02 -0.74035841337E+01  0.11421611534E+04  0.11423488379E+04  0.50400001928E-02 0. -1.
</event>
<event>
 5   0  0.1731337E-02  0.6987098E+03  0.7818609E-02  0.9719441E-01
       -2   -1    0    0    0  501  0.00000000000E+00  0.00000000000E+00  0.63743237749E+02  0.63743237800E+02  0.25500000920E-02 0. -1.
        2   -1    0    0  501    0  0.00000000000E+00  0.00000000000E+00 -0.19146948537E+04  0.19146948537E+04  0.25500000920E-02 0.  1.
    10030    2    1    2    0    0  0.00000000000E+00  0.00000000000E+00 -0.18509516159E+04  0.19784380915E+04  0.69870980908E+03 0.  0.
        4    1    3    3  502    0 -0.25206637683E+03 -0.13164082946E+03 -0.35086832834E+03  0.45163808856E+03  0.12699999809E+01 0. -1.
       -4    1    3    3    0  502  0.25206637683E+03  0.13164082946E+03 -0.15000832876E+04  0.15268000029E+04  0.12699999809E+01 0.  1.
</event>
<event>
 5   0  0.1731337E-02  0.7740860E+03  0.7818609E-02  0.9598303E-01
        2   -1    0    0  501    0  0.00000000000E+00  0.00000000000E+00  0.56464970868E+03  0.56464970869E+03  0.25500000920E-02 0.  1.
       -2   -1    0    0    0  501  0.00000000000E+00  0.00000000000E+00 -0.26530128565E+03  0.26530128566E+03  0.25500000920E-02 0. -1.
    10030    2    1    2    0    0  0.00000000000E+00  0.00000000000E+00  0.29934842303E+03  0.82995099435E+03  0.77408602536E+03 0.  0.
        4    1    3    3  502    0 -0.25422224815E+03 -0.15527012682E+03 -0.11526851172E+03  0.31941541358E+03  0.12699999809E+01 0. -1.
       -4    1    3    3    0  502  0.25422224815E+03  0.15527012682E+03  0.41461693476E+03  0.51053558077E+03  0.12699999809E+01 0.  1.
</event>
<event>
 5   0  0.1049780E-02  0.7990960E+03  0.7818609E-02  0.9561327E-01
       -1   -1    0    0    0  501  0.00000000000E+00  0.00000000000E+00  0.58117607466E+03  0.58117607468E+03  0.50400001928E-02 0.  1.
        1   -1    0    0  501    0  0.00000000000E+00  0.00000000000E+00 -0.27468197957E+03  0.27468197962E+03  0.50400001928E-02 0. -1.
    10030    2    1    2    0    0  0.00000000000E+00  0.00000000000E+00  0.30649409509E+03  0.85585805430E+03  0.79909597596E+03 0.  0.
        5    1    3    3  502    0 -0.28769691956E+03 -0.13346057506E+03  0.41347775728E+03  0.52112108802E+03  0.46999998093E+01 0.  1.
       -5    1    3    3    0  502  0.28769691956E+03  0.13346057506E+03 -0.10698366220E+03  0.33473696628E+03  0.46999998093E+01 0. -1.
</event>
<event>
 5   0  0.1817089E-02  0.7968186E+03  0.7818609E-02  0.9564633E-01
       -2   -1    0    0    0  501  0.00000000000E+00  0.00000000000E+00  0.11227327947E+04  0.11227327947E+04  0.25500000920E-02 0. -1.
        2   -1    0    0  501    0  0.00000000000E+00  0.00000000000E+00 -0.14137823618E+03  0.14137823620E+03  0.25500000920E-02 0.  1.
    10030    2    1    2    0    0  0.00000000000E+00  0.00000000000E+00  0.98135455856E+03  0.12641110309E+04  0.79681862990E+03 0.  0.
        2    1    3    3  502    0 -0.17852410187E+02 -0.39512569797E+03  0.56654459049E+03  0.69095281949E+03  0.25500000920E-02 0. -1.
       -2    1    3    3    0  502  0.17852410187E+02  0.39512569797E+03  0.41480996807E+03  0.57315821146E+03  0.25500000920E-02 0.  1.
</event>
<event>
 5   0  0.1038912E-02  0.7965771E+03  0.7818609E-02  0.9564985E-01
       -1   -1    0    0    0  501  0.00000000000E+00  0.00000000000E+00  0.37387654289E+03  0.37387654292E+03  0.50400001928E-02 0. -1.
        1   -1    0    0  501    0  0.00000000000E+00  0.00000000000E+00 -0.42429449660E+03  0.42429449663E+03  0.50400001928E-02 0.  1.
    10030    2    1    2    0    0  0.00000000000E+00  0.00000000000E+00 -0.50417953711E+02  0.79817103955E+03  0.79657707619E+03 0.  0.
        2    1    3    3  502    0 -0.21415170123E+03 -0.24877967057E+03  0.20081163501E+03  0.38480850873E+03  0.25500000920E-02 0. -1.
       -2    1    3    3    0  502  0.21415170123E+03  0.24877967057E+03 -0.25122958872E+03  0.41336253082E+03  0.25500000920E-02 0.  1.
</event>
<event>
 5   0  0.1030323E-02  0.7324025E+03  0.7818609E-02  0.9663370E-01
       -1   -1    0    0    0  501  0.00000000000E+00  0.00000000000E+00  0.18464595235E+03  0.18464595242E+03  0.50400001928E-02 0. -1.
        1   -1    0    0  501    0  0.00000000000E+00  0.00000000000E+00 -0.72627294959E+03  0.72627294960E+03  0.50400001928E-02 0.  1.
    10030    2    1    2    0    0  0.00000000000E+00  0.00000000000E+00 -0.54162699724E+03  0.91091890202E+03  0.73240251359E+03 0.  0.
        3    1    3    3  502    0 -0.29999441975E+03  0.16211187816E+02 -0.53123956807E+03  0.61030725325E+03  0.10100000352E+00 0.  1.
       -3    1    3    3    0  502  0.29999441975E+03 -0.16211187816E+02 -0.10387429173E+02  0.30061164877E+03  0.10100000352E+00 0. -1.
</event>
<event>
 5   0  0.1673727E-02  0.8006757E+03  0.7818609E-02  0.9559040E-01
        2   -1    0    0  501    0  0.00000000000E+00  0.00000000000E+00  0.51603278143E+03  0.51603278143E+03  0.25500000920E-02 0.  1.
       -2   -1    0    0    0  501  0.00000000000E+00  0.00000000000E+00 -0.31058180938E+03  0.31058180939E+03  0.25500000920E-02 0. -1.
    10030    2    1    2    0    0  0.00000000000E+00  0.00000000000E+00  0.20545097205E+03  0.82661459082E+03  0.80067570204E+03 0.  0.
        5    1    3    3  502    0 -0.14802196197E+03 -0.36162089008E+03  0.12912141374E+02  0.39098463239E+03  0.46999998093E+01 0.  1.
       -5    1    3    3    0  502  0.14802196197E+03  0.36162089008E+03  0.19253883067E+03  0.43562995843E+03  0.46999998093E+01 0. -1.
</event>
<event>
 5   0  0.1747544E-02  0.7877894E+03  0.7818609E-02  0.9577862E-01
        2   -1    0    0  501    0  0.00000000000E+00  0.00000000000E+00  0.38279835932E+03  0.38279835932E+03  0.25500000920E-02 0. -1.
       -2   -1    0    0    0  501  0.00000000000E+00  0.00000000000E+00 -0.40531264784E+03  0.40531264785E+03  0.25500000920E-02 0.  1.
    10030    2    1    2    0    0  0.00000000000E+00  0.00000000000E+00 -0.22514288528E+02  0.78811100718E+03  0.78778935411E+03 0.  0.
        1    1    3    3  502    0  0.29920015093E+03 -0.18596237597E+03  0.16502570154E+03  0.38901955965E+03  0.50400001928E-02 0. -1.
       -1    1    3    3    0  502 -0.29920015093E+03  0.18596237597E+03 -0.18753999007E+03  0.39909144753E+03  0.50400001928E-02 0.  1.
</event>
<event>
 5   0  0.1146083E-02  0.8020603E+03  0.7818609E-02  0.9557040E-01
        1   -1    0    0  501    0  0.00000000000E+00  0.00000000000E+00  0.49943371997E+03  0.49943372000E+03  0.50400001928E-02 0. -1.
       -1   -1    0    0    0  501  0.00000000000E+00  0.00000000000E+00 -0.32201507261E+03  0.32201507265E+03  0.50400001928E-02 0.  1.
    10030    2    1    2    0    0  0.00000000000E+00  0.00000000000E+00  0.17741864736E+03  0.82144879265E+03  0.80206031102E+03 0.  0.
        4    1    3    3  502    0  0.72424293827E+02  0.16044099259E+03  0.45774867291E+03  0.49043047508E+03  0.12699999809E+01 0. -1.
       -4    1    3    3    0  502 -0.72424293827E+02 -0.16044099259E+03 -0.28033002555E+03  0.33101831757E+03  0.12699999809E+01 0.  1.
</event>
<event>
 5   0  0.1146083E-02  0.7833292E+03  0.7818609E-02  0.9584466E-01
        1   -1    0    0  501    0  0.00000000000E+00  0.00000000000E+00  0.48239934088E+03  0.48239934091E+03  0.50400001928E-02 0.  1.
       -1   -1    0    0    0  501  0.00000000000E+00  0.00000000000E+00 -0.31799617084E+03  0.31799617088E+03  0.50400001928E-02 0. -1.
    10030    2    1    2    0    0  0.00000000000E+00  0.00000000000E+00  0.16440317004E+03  0.80039551179E+03  0.78332916004E+03 0.  0.
        4    1    3    3  502    0  0.26005254778E+03 -0.24823841293E+02  0.38037431774E+03  0.46144315489E+03  0.12699999809E+01 0.  1.
       -4    1    3    3    0  502 -0.26005254778E+03  0.24823841293E+02 -0.21597114770E+03  0.33895235689E+03  0.12699999809E+01 0. -1.
</event>
<event>
 5   0  0.1049780E-02  0.7909414E+03  0.7818609E-02  0.9573222E-01
       -1   -1    0    0    0  501  0.00000000000E+00  0.00000000000E+00  0.27251431346E+03  0.27251431351E+03  0.50400001928E-02 0. -1.
        1   -1    0    0  501    0  0.00000000000E+00  0.00000000000E+00 -0.57390401146E+03  0.57390401148E+03  0.50400001928E-02 0.  1.
    10030    2    1    2    0    0  0.00000000000E+00  0.00000000000E+00 -0.30138969800E+03  0.84641832499E+03  0.79094135738E+03 0.  0.
        5    1    3    3  502    0  0.24843562083E+02  0.75078031365E+02  0.26393596602E+03  0.27556886168E+03  0.46999998093E+01 0. -1.
       -5    1    3    3    0  502 -0.24843562083E+02 -0.75078031365E+02 -0.56532566401E+03  0.57084946331E+03  0.46999998093E+01 0.  1.
</event>
<event>
 5   0  0.1731337E-02  0.7971761E+03  0.7818609E-02  0.9564114E-01
       -2   -1    0    0    0  501  0.00000000000E+00  0.00000000000E+00  0.39893443375E+03  0.39893443375E+03  0.25500000920E-02 0. -1.
        2   -1    0    0  501    0  0.00000000000E+00  0.00000000000E+00 -0.39824199472E+03  0.39824199473E+03  0.25500000920E-02 0.  1.
    10030    2    1    2    0    0  0.00000000000E+00  0.00000000000E+00  0.69243902788E+00  0.79717642848E+03  0.79717612775E+03 0.  0.
        4    1    3    3  502    0  0.26772751203E+03 -0.24192558548E+03  0.16965317089E+03  0.39873527672E+03  0.12699999809E+01 0. -1.
       -4    1    3    3    0  502 -0.26772751203E+03  0.24192558548E+03 -0.16896073186E+03  0.39844115176E+03  0.12699999809E+01 0.  1.
</event>
<event>
 5   0  0.1049780E-02  0.7984536E+03  0.7818609E-02  0.9562258E-01
        1   -1    0    0  501    0  0.00000000000E+00  0.00000000000E+00  0.31334115578E+03  0.31334115582E+03  0.50400001928E-02 0. -1.
       -1   -1    0    0    0  501  0.00000000000E+00  0.00000000000E+00 -0.50865344219E+03  0.50865344221E+03  0.50400001928E-02 0.  1.
    10030    2    1    2    0    0  0.00000000000E+00  0.00000000000E+00 -0.19531228641E+03  0.82199459803E+03  0.79845364923E+03 0.  0.
        5    1    3    3  502    0 -0.35670066405E+03 -0.11350603943E+02 -0.28180351286E+03  0.45475214107E+03  0.46999998093E+01 0.  1.
       -5    1    3    3    0  502  0.35670066405E+03  0.11350603943E+02  0.86491226451E+02  0.36724245697E+03  0.46999998093E+01 0. -1.
</event>
<event>
 5   0  0.1818665E-02  0.9397126E+03  0.7818609E-02  0.9377256E-01
       -2   -1    0    0    0  501  0.00000000000E+00  0.00000000000E+00  0.33613974989E+03  0.33613974990E+03  0.25500000920E-02 0. -1.
        2   -1    0    0  501    0  0.00000000000E+00  0.00000000000E+00 -0.65676537768E+03  0.65676537769E+03  0.25500000920E-02 0.  1.
    10030    2    1    2    0    0  0.00000000000E+00  0.00000000000E+00 -0.32062562780E+03  0.99290512758E+03  0.93971261521E+03 0.  0.
        3    1    3    3  502    0  0.33299648343E+03 -0.23405776824E+03  0.87697502739E+02  0.41636589563E+03  0.10100000352E+00 0. -1.
       -3    1    3    3    0  502 -0.33299648343E+03  0.23405776824E+03 -0.40832313053E+03  0.57653923195E+03  0.10100000352E+00 0.  1.
</event>
<event>
 5   0  0.1818665E-02  0.7992769E+03  0.7818609E-02  0.9561064E-01
        2   -1    0    0  501    0  0.00000000000E+00  0.00000000000E+00  0.61970836353E+03  0.61970836354E+03  0.25500000920E-02 0. -1.
       -2   -1    0    0    0  501  0.00000000000E+00  0.00000000000E+00 -0.25771943840E+03  0.25771943841E+03  0.25500000920E-02 0.  1.
    10030    2    1    2    0    0  0.00000000000E+00  0.00000000000E+00  0.36198892513E+03  0.87742780195E+03  0.79927690178E+03 0.  0.
        3    1    3    3  502    0 -0.16017333437E+03  0.15520584373E+03 -0.18304158440E+03  0.28852830501E+03  0.10100000352E+00 0.  1.
       -3    1    3    3    0  502  0.16017333437E+03 -0.15520584373E+03  0.54503050953E+03  0.58889949694E+03  0.10100000352E+00 0. -1.
</event>
<event>
 5   0  0.6872500E-03  0.8042231E+03  0.7818609E-02  0.9553924E-01
       -3   -1    0    0    0  501  0.00000000000E+00  0.00000000000E+00  0.12195064894E+04  0.12195064936E+04  0.10100000352E+00 0. -1.
        3   -1    0    0  501    0  0.00000000000E+00  0.00000000000E+00 -0.13258942877E+03  0.13258946723E+03  0.10100000352E+00 0.  1.
    10030    2    1    2    0    0  0.00000000000E+00  0.00000000000E+00  0.10869170606E+04  0.13520959608E+04  0.80422309750E+03 0.  0.
        2    1    3    3  502    0  0.34440837470E+02  0.12003888746E+03 -0.99160220993E+02  0.15946239438E+03  0.25500000920E-02 0.  1.
       -2    1    3    3    0  502 -0.34440837470E+02 -0.12003888746E+03  0.11860772816E+04  0.11926335664E+04  0.25500000920E-02 0. -1.
</event>
<event>
 5   0  0.1049780E-02  0.7940542E+03  0.7818609E-02  0.9568664E-01
        1   -1    0    0  501    0  0.00000000000E+00  0.00000000000E+00  0.87238874839E+03  0.87238874840E+03  0.50400001928E-02 0. -1.
       -1   -1    0    0    0  501  0.00000000000E+00  0.00000000000E+00 -0.18068838728E+03  0.18068838735E+03  0.50400001928E-02 0.  1.
    10030    2    1    2    0    0  0.00000000000E+00  0.00000000000E+00  0.69170036111E+03  0.10530771358E+04  0.79405419480E+03 0.  0.
        5    1    3    3  502    0 -0.30931847385E+03  0.12470151937E+03  0.60238744202E+02  0.33893831814E+03  0.46999998093E+01 0.  1.
       -5    1    3    3    0  502  0.30931847385E+03 -0.12470151937E+03  0.63146161691E+03  0.71413881762E+03  0.46999998093E+01 0. -1.
</event>
<event>
 5   0  0.1818665E-02  0.7300483E+03  0.7818609E-02  0.9667182E-01
        2   -1    0    0  501    0  0.00000000000E+00  0.00000000000E+00  0.44458881340E+03  0.44458881341E+03  0.25500000920E-02 0. -1.
       -2   -1    0    0    0  501  0.00000000000E+00  0.00000000000E+00 -0.29969855864E+03  0.29969855865E+03  0.25500000920E-02 0.  1.
    10030    2    1    2    0    0  0.00000000000E+00  0.00000000000E+00  0.14489025476E+03  0.74428737206E+03  0.73004829037E+03 0.  0.
        3    1    3    3  502    0  0.10545901573E+03 -0.19661270523E+03 -0.22209186462E+03  0.31480623626E+03  0.10100000352E+00 0.  1.
       -3    1    3    3    0  502 -0.10545901573E+03  0.19661270523E+03  0.36698211938E+03  0.42948113579E+03  0.10100000352E+00 0. -1.
</event>
<event>
 5   0  0.6872500E-03  0.7923724E+03  0.7818609E-02  0.9571124E-01
        3   -1    0    0  501    0  0.00000000000E+00  0.00000000000E+00  0.48180090080E+03  0.48180091139E+03  0.10100000352E+00 0. -1.
       -3   -1    0    0    0  501  0.00000000000E+00  0.00000000000E+00 -0.32578501432E+03  0.32578502998E+03  0.10100000352E+00 0.  1.
    10030    2    1    2    0    0  0.00000000000E+00  0.00000000000E+00  0.15601588648E+03  0.80758594137E+03  0.79237244769E+03 0.  0.
        4    1    3    3  502    0 -0.29783994709E+03  0.24816153618E+03 -0.52247487887E+01  0.38771341609E+03  0.12699999809E+01 0.  1.
       -4    1    3    3    0  502  0.29783994709E+03 -0.24816153618E+03  0.16124063527E+03  0.41987252527E+03  0.12699999809E+01 0. -1.
</event>
<event>
 5   0  0.1817089E-02  0.7999771E+03  0.7818609E-02  0.9560050E-01
       -2   -1    0    0    0  501  0.00000000000E+00  0.00000000000E+00  0.10449387285E+03  0.10449387289E+03  0.25500000920E-02 0. -1.
        2   -1    0    0  501    0  0.00000000000E+00  0.00000000000E+00 -0.15311025420E+04  0.15311025420E+04  0.25500000920E-02 0.  1.
    10030    2    1    2    0    0  0.00000000000E+00  0.00000000000E+00 -0.14266086692E+04  0.16355964149E+04  0.79997708562E+03 0.  0.
        2    1    3    3  502    0 -0.29608771684E+03  0.24611843205E+03 -0.93491566039E+03  0.10110932255E+04  0.25500000920E-02 0.  1.
       -2    1    3    3    0  502  0.29608771684E+03 -0.24611843205E+03 -0.49169300877E+03  0.62450318937E+03  0.25500000920E-02 0. -1.
</event>
<event>
 5   0  0.1747544E-02  0.8390101E+03  0.7818609E-02  0.9505207E-01
        2   -1    0    0  501    0  0.00000000000E+00  0.00000000000E+00  0.60284856594E+03  0.60284856595E+03  0.25500000920E-02 0. -1.
       -2   -1    0    0    0  501  0.00000000000E+00  0.00000000000E+00 -0.29192153895E+03  0.29192153896E+03  0.25500000920E-02 0.  1.
    10030    2    1    2    0    0  0.00000000000E+00  0.00000000000E+00  0.31092702699E+03  0.89477010491E+03  0.83901008607E+03 0.  0.
        1    1    3    3  502    0  0.44727035565E+01  0.11032924386E+03  0.58707256035E+03  0.59736650247E+03  0.50400001928E-02 0. -1.
       -1    1    3    3    0  502 -0.44727035565E+01 -0.11032924386E+03 -0.27614553336E+03  0.29740360244E+03  0.50400001928E-02 0.  1.
</event>
<event>
 5   0  0.1025900E-02  0.7242739E+03  0.7818609E-02  0.9676598E-01
        1   -1    0    0  501    0  0.00000000000E+00  0.00000000000E+00  0.37900191704E+03  0.37900191707E+03  0.50400001928E-02 0. -1.
       -1   -1    0    0    0  501  0.00000000000E+00  0.00000000000E+00 -0.34602247366E+03  0.34602247369E+03  0.50400001928E-02 0.  1.
    10030    2    1    2    0    0  0.00000000000E+00  0.00000000000E+00  0.32979443384E+02  0.72502439077E+03  0.72427392851E+03 0.  0.
        1    1    3    3  502    0  0.11921848216E+03  0.27870131597E+03  0.21482555615E+03  0.37153396831E+03  0.50400001928E-02 0. -1.
       -1    1    3    3    0  502 -0.11921848216E+03 -0.27870131597E+03 -0.18184611277E+03  0.35349042245E+03  0.50400001928E-02 0.  1.
</event>
<event>
 5   0  0.1731337E-02  0.8128983E+03  0.7818609E-02  0.9541533E-01
       -2   -1    0    0    0  501  0.00000000000E+00  0.00000000000E+00  0.15218954104E+03  0.15218954106E+03  0.25500000920E-02 0.  1.
        2   -1    0    0  501    0  0.00000000000E+00  0.00000000000E+00 -0.10854944190E+04  0.10854944190E+04  0.25500000920E-02 0. -1.
    10030    2    1    2    0    0  0.00000000000E+00  0.00000000000E+00 -0.93330487799E+03  0.12376839601E+04  0.81289826535E+03 0.  0.
        4    1    3    3  502    0 -0.25139482755E+03 -0.12190913381E+03 -0.91609850133E+03  0.95775741880E+03  0.12699999809E+01 0. -1.
       -4    1    3    3    0  502  0.25139482755E+03  0.12190913381E+03 -0.17206376658E+02  0.27992654130E+03  0.12699999809E+01 0.  1.
</event>
<event>
 5   0  0.1731337E-02  0.7973902E+03  0.7818609E-02  0.9563802E-01
        2   -1    0    0  501    0  0.00000000000E+00  0.00000000000E+00  0.17074715777E+04  0.17074715777E+04  0.25500000920E-02 0. -1.
       -2   -1    0    0    0  501  0.00000000000E+00  0.00000000000E+00 -0.93095413026E+02  0.93095413061E+02  0.25500000920E-02 0.  1.
    10030    2    1    2    0    0  0.00000000000E+00  0.00000000000E+00  0.16143761647E+04  0.18005669908E+04  0.79739017248E+03 0.  0.
        4    1    3    3  502    0 -0.35147312647E+03 -0.15899165080E+03  0.10346207107E+04  0.11041980491E+04  0.12699999809E+01 0. -1.
       -4    1    3    3    0  502  0.35147312647E+03  0.15899165080E+03  0.57975545400E+03  0.69636894172E+03  0.12699999809E+01 0.  1.
</event>
<event>
 5   0  0.1673727E-02  0.7991133E+03  0.7818609E-02  0.9561302E-01
       -2   -1    0    0    0  501  0.00000000000E+00  0.00000000000E+00  0.13499395150E+03  0.13499395152E+03  0.25500000920E-02 0. -1.
        2   -1    0    0  501    0  0.00000000000E+00  0.00000000000E+00 -0.11826122481E+04  0.11826122481E+04  0.25500000920E-02 0.  1.
    10030    2    1    2    0    0  0.00000000000E+00  0.00000000000E+00 -0.10476182966E+04  0.13176061996E+04  0.79911325974E+03 0.  0.
        5    1    3    3  502    0  0.12255297389E+03  0.77356098654E+02 -0.11376991690E+04  0.11469022132E+04  0.46999998093E+01 0.  1.
       -5    1    3    3    0  502 -0.12255297389E+03 -0.77356098654E+02  0.90080872426E+02  0.17070398643E+03  0.46999998093E+01 0. -1.
</event>
<event>
 5   0  0.1146083E-02  0.8019693E+03  0.7818609E-02  0.9557171E-01
        1   -1    0    0  501    0  0.00000000000E+00  0.00000000000E+00  0.10077529850E+04  0.10077529850E+04  0.50400001928E-02 0. -1.
       -1   -1    0    0    0  501  0.00000000000E+00  0.00000000000E+00 -0.15955167036E+03  0.15955167044E+03  0.50400001928E-02 0.  1.
    10030    2    1    2    0    0  0.00000000000E+00  0.00000000000E+00  0.84820131465E+03  0.11673046555E+04  0.80196925657E+03 0.  0.
        4    1    3    3  502    0 -0.14049866796E+03  0.24248440830E+03  0.66641017437E+01  0.28032942606E+03  0.12699999809E+01 0.  1.
       -4    1    3    3    0  502  0.14049866796E+03 -0.24248440830E+03  0.84153721290E+03  0.88697522940E+03  0.12699999809E+01 0. -1.
</event>
<event>
 5   0  0.1038912E-02  0.8166398E+03  0.7818609E-02  0.9536239E-01
        1   -1    0    0  501    0  0.00000000000E+00  0.00000000000E+00  0.11315401122E+04  0.11315401122E+04  0.50400001928E-02 0.  1.
       -1   -1    0    0    0  501  0.00000000000E+00  0.00000000000E+00 -0.14734355091E+03  0.14734355100E+03  0.50400001928E-02 0. -1.
    10030    2    1    2    0    0  0.00000000000E+00  0.00000000000E+00  0.98419656128E+03  0.12788836632E+04  0.81663979376E+03 0.  0.
        2    1    3    3  502    0 -0.36221140759E+03 -0.14741477172E+03  0.67604479627E+03  0.78100242335E+03  0.25500000920E-02 0.  1.
       -2    1    3    3    0  502  0.36221140759E+03  0.14741477172E+03  0.30815176501E+03  0.49788123985E+03  0.25500000920E-02 0. -1.
</event>
<event>
 5   0  0.1818665E-02  0.7860537E+03  0.7818609E-02  0.9580426E-01
        2   -1    0    0  501    0  0.00000000000E+00  0.00000000000E+00  0.13322833711E+03  0.13322833714E+03  0.25500000920E-02 0.  1.
       -2   -1    0    0    0  501  0.00000000000E+00  0.00000000000E+00 -0.11594388734E+04  0.11594388734E+04  0.25500000920E-02 0. -1.
    10030    2    1    2    0    0  0.00000000000E+00  0.00000000000E+00 -0.10262105363E+04  0.12926672105E+04  0.78605372108E+03 0.  0.
        3    1    3    3  502    0 -0.22619812333E+03  0.49561889395E+02 -0.10353432228E+04  0.10609229807E+04  0.10100000352E+00 0. -1.
       -3    1    3    3    0  502  0.22619812333E+03 -0.49561889395E+02  0.91326865179E+01  0.23174422979E+03  0.10100000352E+00 0.  1.
</event>
<event>
 5   0  0.1747544E-02  0.7849135E+03  0.7818609E-02  0.9582115E-01
       -2   -1    0    0    0  501  0.00000000000E+00  0.00000000000E+00  0.21130734739E+03  0.21130734741E+03  0.25500000920E-02 0. -1.
        2   -1    0    0  501    0  0.00000000000E+00  0.00000000000E+00 -0.72890185949E+03  0.72890185950E+03  0.25500000920E-02 0.  1.
    10030    2    1    2    0    0  0.00000000000E+00  0.00000000000E+00 -0.51759451210E+03  0.94020920690E+03  0.78491354542E+03 0.  0.
        1    1    3    3  502    0 -0.47895107744E+02  0.38653490737E+03 -0.20111179214E+03  0.43834818229E+03  0.50400001928E-02 0. -1.
       -1    1    3    3    0  502  0.47895107744E+02 -0.38653490737E+03 -0.31648271996E+03  0.50186102461E+03  0.50400001928E-02 0.  1.
</event>
<event>
 5   0  0.1731337E-02  0.7931730E+03  0.7818609E-02  0.9569952E-01
        2   -1    0    0  501    0  0.00000000000E+00  0.00000000000E+00  0.18723270987E+03  0.18723270989E+03  0.25500000920E-02 0.  1.
       -2   -1    0    0    0  501  0.00000000000E+00  0.00000000000E+00 -0.84002868489E+03  0.84002868489E+03  0.25500000920E-02 0. -1.
    10030    2    1    2    0    0  0.00000000000E+00  0.00000000000E+00 -0.65279597502E+03  0.10272613948E+04  0.79317298757E+03 0.  0.
        4    1    3    3  502    0  0.12499565595E+03 -0.36813639320E+03 -0.22498916497E+03  0.44918821807E+03  0.12699999809E+01 0.  1.
       -4    1    3    3    0  502 -0.12499565595E+03  0.36813639320E+03 -0.42780681005E+03  0.57807317671E+03  0.12699999809E+01 0. -1.
</event>
<event>
 5   0  0.1030323E-02  0.7960060E+03  0.7818609E-02  0.9565816E-01
       -1   -1    0    0    0  501  0.00000000000E+00  0.00000000000E+00  0.43645531298E+03  0.43645531301E+03  0.50400001928E-02 0. -1.
        1   -1    0    0  501    0  0.00000000000E+00  0.00000000000E+00 -0.36293834942E+03  0.36293834945E+03  0.50400001928E-02 0.  1.
    10030    2    1    2    0    0  0.00000000000E+00  0.00000000000E+00  0.73516963568E+02  0.79939366246E+03  0.79600595705E+03 0.  0.
        3    1    3    3  502    0 -0.53345805452E+02 -0.22999019329E+03  0.35853607085E+03  0.42928939920E+03  0.10100000352E+00 0. -1.
       -3    1    3    3    0  502  0.53345805452E+02  0.22999019329E+03 -0.28501910728E+03  0.37010426326E+03  0.10100000352E+00 0.  1.
</event>
<event>
 5   0  0.1025900E-02  0.7960359E+03  0.7818609E-02  0.9565773E-01
       -1   -1    0    0    0  501  0.00000000000E+00  0.00000000000E+00  0.32128000520E+03  0.32128000524E+03  0.50400001928E-02 0. -1.
        1   -1    0    0  501    0  0.00000000000E+00  0.00000000000E+00 -0.49308476379E+03  0.49308476382E+03  0.50400001928E-02 0.  1.
    10030    2    1    2    0    0  0.00000000000E+00  0.00000000000E+00 -0.17180475859E+03  0.81436476905E+03  0.79603586728E+03 0.  0.
        1    1    3    3  502    0 -0.25923089333E+03  0.11103408201E+03  0.20143670897E+03  0.34656308397E+03  0.50400001928E-02 0. -1.
       -1    1    3    3    0  502  0.25923089333E+03 -0.11103408201E+03 -0.37324146757E+03  0.46780168508E+03  0.50400001928E-02 0.  1.
</event>
<event>
 5   0  0.1038912E-02  0.9202211E+03  0.7818609E-02  0.9400651E-01
       -1   -1    0    0    0  501  0.00000000000E+00  0.00000000000E+00  0.15282032481E+03  0.15282032489E+03  0.50400001928E-02 0.  1.
        1   -1    0    0  501    0  0.00000000000E+00  0.00000000000E+00 -0.13852980966E+04  0.13852980966E+04  0.50400001928E-02 0. -1.
    10030    2    1    2    0    0  0.00000000000E+00  0.00000000000E+00 -0.12324777718E+04  0.15381184215E+04  0.92022107160E+03 0.  0.
        2    1    3    3  502    0  0.11311075828E+03 -0.13067605426E+03  0.96502664503E+02  0.19794706125E+03  0.25500000920E-02 0.  1.
       -2    1    3    3    0  502 -0.11311075828E+03  0.13067605426E+03 -0.13289804363E+04  0.13401713602E+04  0.25500000920E-02 0. -1.
</event>
<event>
 5   0  0.1747544E-02  0.8006164E+03  0.7818609E-02  0.9559125E-01
       -2   -1    0    0    0  501  0.00000000000E+00  0.00000000000E+00  0.53764639192E+03  0.53764639193E+03  0.25500000920E-02 0.  1.
        2   -1    0    0  501    0  0.00000000000E+00  0.00000000000E+00 -0.29805213319E+03  0.29805213320E+03  0.25500000920E-02 0. -1.
    10030    2    1    2    0    0  0.00000000000E+00  0.00000000000E+00  0.23959425874E+03  0.83569852513E+03  0.80061639759E+03 0.  0.
        1    1    3    3  502    0 -0.68808780151E+02 -0.33000824893E+03 -0.10554826487E+03  0.35324287513E+03  0.50400001928E-02 0. -1.
       -1    1    3    3    0  502  0.68808780151E+02  0.33000824893E+03  0.34514252360E+03  0.48245565000E+03  0.50400001928E-02 0.  1.
</event>
<event>
 5   0  0.1731337E-02  0.7946161E+03  0.7818609E-02  0.9567843E-01
       -2   -1    0    0    0  501  0.00000000000E+00  0.00000000000E+00  0.41733143251E+03  0.41733143252E+03  0.25500000920E-02 0.  1.
        2   -1    0    0  501    0  0.00000000000E+00  0.00000000000E+00 -0.37824539057E+03  0.37824539058E+03  0.25500000920E-02 0. -1.
    10030    2    1    2    0    0  0.00000000000E+00  0.00000000000E+00  0.39086041941E+02  0.79557682309E+03  0.79461611031E+03 0.  0.
        4    1    3    3  502    0 -0.33984372342E+01 -0.21703990493E+03 -0.31362680264E+03  0.38142004922E+03  0.12699999809E+01 0. -1.
       -4    1    3    3    0  502  0.33984372342E+01  0.21703990493E+03  0.35271284459E+03  0.41415677387E+03  0.12699999809E+01 0.  1.
</event>
<event>
 5   0  0.1049780E-02  0.8018737E+03  0.7818609E-02  0.9557309E-01
       -1   -1    0    0    0  501  0.00000000000E+00  0.00000000000E+00  0.21503053236E+03  0.21503053242E+03  0.50400001928E-02 0. -1.
        1   -1    0    0  501    0  0.00000000000E+00  0.00000000000E+00 -0.74756994490E+03  0.74756994491E+03  0.50400001928E-02 0.  1.
    10030    2    1    2    0    0  0.00000000000E+00  0.00000000000E+00 -0.53253941254E+03  0.96260047734E+03  0.80187371391E+03 0.  0.
        5    1    3    3  502    0 -0.26608766576E+03  0.10801843354E+03 -0.60208732982E+03  0.66708460526E+03  0.46999998093E+01 0.  1.
       -5    1    3    3    0  502  0.26608766576E+03 -0.10801843354E+03  0.69547917279E+02  0.29551587208E+03  0.46999998093E+01 0. -1.
</event>
<event>
 5   0  0.1747544E-02  0.8005527E+03  0.7818609E-02  0.9559217E-01
       -2   -1    0    0    0  501  0.00000000000E+00  0.00000000000E+00  0.58121594469E+03  0.58121594469E+03  0.25500000920E-02 0. -1.
        2   -1    0    0  501    0  0.00000000000E+00  0.00000000000E+00 -0.27566546085E+03  0.27566546087E+03  0.25500000920E-02 0.  1.
    10030    2    1    2    0    0  0.00000000000E+00  0.00000000000E+00  0.30555048384E+03  0.85688140556E+03  0.80055271221E+03 0.  0.
        1    1    3    3  502    0  0.25616448408E+03 -0.22816078345E+03 -0.67998682371E+02  0.34971618041E+03  0.50400001928E-02 0.  1.
       -1    1    3    3    0  502 -0.25616448408E+03  0.22816078345E+03  0.37354916621E+03  0.50716522515E+03  0.50400001928E-02 0. -1.
</event>
<event>
 5   0  0.1030323E-02  0.8101332E+03  0.7818609E-02  0.9545464E-01
        1   -1    0    0  501    0  0.00000000000E+00  0.00000000000E+00  0.83579097723E+03  0.83579097725E+03  0.50400001928E-02 0.  1.
       -1   -1    0    0    0  501  0.00000000000E+00  0.00000000000E+00 -0.19631576640E+03  0.19631576646E+03  0.50400001928E-02 0. -1.
    10030    2    1    2    0    0  0.00000000000E+00  0.00000000000E+00  0.63947521084E+03  0.10321067437E+04  0.81013318975E+03 0.  0.
        3    1    3    3  502    0  0.58919620758E+01  0.38179342629E+03  0.14749819375E+03  0.40933685754E+03  0.10100000352E+00 0. -1.
       -3    1    3    3    0  502 -0.58919620758E+01 -0.38179342629E+03  0.49197701709E+03  0.62276988618E+03  0.10100000352E+00 0.  1.
</event>
<event>
 5   0  0.1049780E-02  0.7766716E+03  0.7818609E-02  0.9594412E-01
        1   -1    0    0  501    0  0.00000000000E+00  0.00000000000E+00  0.18995553041E+04  0.18995553042E+04  0.50400001928E-02 0.  1.
       -1   -1    0    0    0  501  0.00000000000E+00  0.00000000000E+00 -0.79389479189E+02  0.79389479349E+02  0.50400001928E-02 0. -1.
    10030    2    1    2    0    0  0.00000000000E+00  0.00000000000E+00  0.18201658250E+04  0.19789447835E+04  0.77667163319E+03 0.  0.
        5    1    3    3  502    0 -0.76241531565E+02  0.19259937024E+03  0.73214265155E+02  0.21974919152E+03  0.46999998093E+01 0. -1.
       -5    1    3    3    0  502  0.76241531565E+02 -0.19259937024E+03  0.17469515598E+04  0.17591955920E+04  0.46999998093E+01 0.  1.
</event>
<event>
 5   0  0.1049780E-02  0.7993068E+03  0.7818609E-02  0.9561021E-01
       -1   -1    0    0    0  501  0.00000000000E+00  0.00000000000E+00  0.71398179550E+03  0.71398179552E+03  0.50400001928E-02 0. -1.
        1   -1    0    0  501    0  0.00000000000E+00  0.00000000000E+00 -0.22370718389E+03  0.22370718395E+03  0.50400001928E-02 0.  1.
    10030    2    1    2    0    0  0.00000000000E+00  0.00000000000E+00  0.49027461161E+03  0.93768897946E+03  0.79930684184E+03 0.  0.
        5    1    3    3  502    0 -0.24678236369E+03 -0.25867687069E+03  0.45461701118E+03  0.57837183136E+03  0.46999998093E+01 0.  1.
       -5    1    3    3    0  502  0.24678236369E+03  0.25867687069E+03  0.35657600432E+02  0.35931714811E+03  0.46999998093E+01 0. -1.
</event>
<event>
 5   0  0.6872500E-03  0.8057507E+03  0.7818609E-02  0.9551730E-01
       -4   -1    0    0    0  501  0.00000000000E+00  0.00000000000E+00  0.61977503220E+03  0.61977633339E+03  0.12699999809E+01 0.  1.
        4   -1    0    0  501    0  0.00000000000E+00  0.00000000000E+00 -0.26187989794E+03  0.26188297739E+03  0.12699999809E+01 0. -1.
    10030    2    1    2    0    0  0.00000000000E+00  0.00000000000E+00  0.35789513426E+03  0.88165931078E+03  0.80575071403E+03 0.  0.
        2    1    3    3  502    0 -0.63800909985E+01  0.40896844088E+02  0.61744444865E+03  0.61883027123E+03  0.25500000920E-02 0.  1.
       -2    1    3    3    0  502  0.63800909985E+01 -0.40896844088E+02 -0.25954931440E+03  0.26282903954E+03  0.25500000920E-02 0. -1.
</event>
<event>
 5   0  0.1673727E-02  0.8118541E+03  0.7818609E-02  0.9543016E-01
        2   -1    0    0  501    0  0.00000000000E+00  0.00000000000E+00  0.12205191494E+04  0.12205191494E+04  0.25500000920E-02 0.  1.
       -2   -1    0    0    0  501  0.00000000000E+00  0.00000000000E+00 -0.13500546994E+03  0.13500546997E+03  0.25500000920E-02 0. -1.
    10030    2    1    2    0    0  0.00000000000E+00  0.00000000000E+00  0.10855136795E+04  0.13555246194E+04  0.81185407890E+03 0.  0.
        5    1    3    3  502    0  0.21174641643E+03  0.27666721019E+03  0.89048596881E+03  0.95622624975E+03  0.46999998093E+01 0.  1.
       -5    1    3    3    0  502 -0.21174641643E+03 -0.27666721019E+03  0.19502771064E+03  0.39929836962E+03  0.46999998093E+01 0. -1.
</event>
<event>
 5   0  0.1731337E-02  0.8422009E+03  0.7818609E-02  0.9500865E-01
        2   -1    0    0  501    0  0.00000000000E+00  0.00000000000E+00  0.20789312554E+04  0.20789312554E+04  0.25500000920E-02 0. -1.
       -2   -1    0    0    0  501  0.00000000000E+00  0.00000000000E+00 -0.85296519063E+02  0.85296519102E+02  0.25500000920E-02 0.  1.
    10030    2    1    2    0    0  0.00000000000E+00  0.00000000000E+00  0.19936347363E+04  0.21642277745E+04  0.84220092496E+03 0.  0.
        4    1    3    3  502    0 -0.40673104546E+03 -0.89406744827E+02  0.83633216685E+03  0.93427876759E+03  0.12699999809E+01 0. -1.
       -4    1    3    3    0  502  0.40673104546E+03  0.89406744827E+02  0.11573025695E+04  0.12299490069E+04  0.12699999809E+01 0.  1.
</event>
<event>
 5   0  0.1025900E-02  0.8063887E+03  0.7818609E-02  0.9550815E-01
        1   -1    0    0  501    0  0.00000000000E+00  0.00000000000E+00  0.17819854791E+03  0.17819854798E+03  0.50400001928E-02 0.  1.
       -1   -1    0    0    0  501  0.00000000000E+00  0.00000000000E+00 -0.91227282891E+03  0.91227282893E+03  0.50400001928E-02 0. -1.
    10030    2    1    2    0    0  0.00000000000E+00  0.00000000000E+00 -0.73407428100E+03  0.10904713769E+04  0.80638872378E+03 0.  0.
        1    1    3    3  502    0  0.44008702214E+02 -0.29347389857E+03 -0.73614541877E+03  0.79370887145E+03  0.50400001928E-02 0. -1.
       -1    1    3    3    0  502 -0.44008702214E+02  0.29347389857E+03  0.20711377697E+01  0.29676250547E+03  0.50400001928E-02 0.  1.
</event>
<event>
 5   0  0.1673727E-02  0.8099329E+03  0.7818609E-02  0.9545750E-01
       -2   -1    0    0    0  501  0.00000000000E+00  0.00000000000E+00  0.22799109630E+03  0.22799109631E+03  0.25500000920E-02 0.  1.
        2   -1    0    0  501    0  0.00000000000E+00  0.00000000000E+00 -0.71931676498E+03  0.71931676499E+03  0.25500000920E-02 0. -1.
    10030    2    1    2    0    0  0.00000000000E+00  0.00000000000E+00 -0.49132566869E+03  0.94730786130E+03  0.80993288078E+03 0.  0.
        5    1    3    3  502    0 -0.21205419764E+03  0.15369400807E+03 -0.60689504720E+03  0.66100871338E+03  0.46999998093E+01 0. -1.
       -5    1    3    3    0  502  0.21205419764E+03 -0.15369400807E+03  0.11556937851E+03  0.28629914792E+03  0.46999998093E+01 0.  1.
</event>
<event>
 5   0  0.1049780E-02  0.8010427E+03  0.7818609E-02  0.9558509E-01
        1   -1    0    0  501    0  0.00000000000E+00  0.00000000000E+00  0.14780154998E+03  0.14780155007E+03  0.50400001928E-02 0. -1.
       -1   -1    0    0    0  501  0.00000000000E+00  0.00000000000E+00 -0.10853562619E+04  0.10853562619E+04  0.50400001928E-02 0.  1.
    10030    2    1    2    0    0  0.00000000000E+00  0.00000000000E+00 -0.93755471193E+03  0.12331578120E+04  0.80104266516E+03 0.  0.
        5    1    3    3  502    0 -0.22568816844E+03  0.15010029065E+03 -0.92266447008E+03  0.96166369432E+03  0.46999998093E+01 0.  1.
       -5    1    3    3    0  502  0.22568816844E+03 -0.15010029065E+03 -0.14890241845E+02  0.27149411766E+03  0.46999998093E+01 0. -1.
</event>
<event>
 5   0  0.1818665E-02  0.7929994E+03  0.7818609E-02  0.9570206E-01
       -2   -1    0    0    0  501  0.00000000000E+00  0.00000000000E+00  0.10055226522E+03  0.10055226526E+03  0.25500000920E-02 0. -1.
        2   -1    0    0  501    0  0.00000000000E+00  0.00000000000E+00 -0.15634854439E+04  0.15634854439E+04  0.25500000920E-02 0.  1.
    10030    2    1    2    0    0  0.00000000000E+00  0.00000000000E+00 -0.14629331787E+04  0.16640377092E+04  0.79299937720E+03 0.  0.
        3    1    3    3  502    0 -0.60929245038E+02 -0.38647108183E+03 -0.59645347615E+03  0.71332252832E+03  0.10100000352E+00 0. -1.
       -3    1    3    3    0  502  0.60929245038E+02  0.38647108183E+03 -0.86647970256E+03  0.95071518087E+03  0.10100000352E+00 0.  1.
</event>
<event>
 5   0  0.1673727E-02  0.8035291E+03  0.7818609E-02  0.9554923E-01
       -2   -1    0    0    0  501  0.00000000000E+00  0.00000000000E+00  0.17112015438E+03  0.17112015440E+03  0.25500000920E-02 0.  1.
        2   -1    0    0  501    0  0.00000000000E+00  0.00000000000E+00 -0.94328301132E+03  0.94328301132E+03  0.25500000920E-02 0. -1.
    10030    2    1    2    0    0  0.00000000000E+00  0.00000000000E+00 -0.77216285694E+03  0.11144031657E+04  0.80352905245E+03 0.  0.
        5    1    3    3  502    0 -0.30654703857E+03  0.59099167157E+02 -0.35419040297E+02  0.31422984713E+03  0.46999998093E+01 0.  1.
       -5    1    3    3    0  502  0.30654703857E+03 -0.59099167157E+02 -0.73674381665E+03  0.80017331859E+03  0.46999998093E+01 0. -1.
</event>
<event>
 5   0  0.1146083E-02  0.8036522E+03  0.7818609E-02  0.9554746E-01
       -1   -1    0    0    0  501  0.00000000000E+00  0.00000000000E+00  0.33132301862E+03  0.33132301866E+03  0.50400001928E-02 0. -1.
        1   -1    0    0  501    0  0.00000000000E+00  0.00000000000E+00 -0.48733167127E+03  0.48733167130E+03  0.50400001928E-02 0.  1.
    10030    2    1    2    0    0  0.00000000000E+00  0.00000000000E+00 -0.15600865265E+03  0.81865468996E+03  0.80365216461E+03 0.  0.
        4    1    3    3  502    0  0.11344194288E+03 -0.19671077221E+03  0.25969352004E+03  0.34497324470E+03  0.12699999809E+01 0. -1.
       -4    1    3    3    0  502 -0.11344194288E+03  0.19671077221E+03 -0.41570217269E+03  0.47368144526E+03  0.12699999809E+01 0.  1.
</event>
<event>
 5   0  0.1818665E-02  0.7901377E+03  0.7818609E-02  0.9574403E-01
       -2   -1    0    0    0  501  0.00000000000E+00  0.00000000000E+00  0.53271433616E+02  0.53271433677E+02  0.25500000920E-02 0.  1.
        2   -1    0    0  501    0  0.00000000000E+00  0.00000000000E+00 -0.29298888370E+04  0.29298888370E+04  0.25500000920E-02 0. -1.
    10030    2    1    2    0    0  0.00000000000E+00  0.00000000000E+00 -0.28766174034E+04  0.29831602707E+04  0.79013765579E+03 0.  0.
        3    1    3    3  502    0 -0.24352179237E+03  0.11947956151E+03 -0.25227443878E+04  0.25372854561E+04  0.10100000352E+00 0. -1.
       -3    1    3    3    0  502  0.24352179237E+03 -0.11947956151E+03 -0.35387301555E+03  0.44587481462E+03  0.10100000352E+00 0.  1.
</event>
<event>
 5   0  0.1817089E-02  0.8096785E+03  0.7818609E-02  0.9546113E-01
        2   -1    0    0  501    0  0.00000000000E+00  0.00000000000E+00  0.40282239708E+03  0.40282239709E+03  0.25500000920E-02 0. -1.
       -2   -1    0    0    0  501  0.00000000000E+00  0.00000000000E+00 -0.40686621258E+03  0.40686621259E+03  0.25500000920E-02 0.  1.
    10030    2    1    2    0    0  0.00000000000E+00  0.00000000000E+00 -0.40438155002E+01  0.80968860967E+03  0.80967851163E+03 0.  0.
        2    1    3    3  502    0 -0.24955817005E+03  0.28763048784E+03 -0.13944358110E+03  0.40553062781E+03  0.25500000920E-02 0. -1.
       -2    1    3    3    0  502  0.24955817005E+03 -0.28763048784E+03  0.13539976560E+03  0.40415798187E+03  0.25500000920E-02 0.  1.
</event>
<event>
 5   0  0.1731337E-02  0.7532346E+03  0.7818609E-02  0.9630289E-01
       -2   -1    0    0    0  501  0.00000000000E+00  0.00000000000E+00  0.22172422631E+03  0.22172422632E+03  0.25500000920E-02 0.  1.
        2   -1    0    0  501    0  0.00000000000E+00  0.00000000000E+00 -0.63971633097E+03  0.63971633097E+03  0.25500000920E-02 0. -1.
    10030    2    1    2    0    0  0.00000000000E+00  0.00000000000E+00 -0.41799210466E+03  0.86144055729E+03  0.75323464750E+03 0.  0.
        4    1    3    3  502    0 -0.28260477900E+03 -0.11666916390E+03  0.42508839991E+02  0.30868393106E+03  0.12699999809E+01 0.  1.
       -4    1    3    3    0  502  0.28260477900E+03  0.11666916390E+03 -0.46050094465E+03  0.55275662623E+03  0.12699999809E+01 0. -1.
</event>
<event>
 5   0  0.1673727E-02  0.8013088E+03  0.7818609E-02  0.9558125E-01
       -2   -1    0    0    0  501  0.00000000000E+00  0.00000000000E+00  0.25051017173E+03  0.25051017174E+03  0.25500000920E-02 0. -1.
        2   -1    0    0  501    0  0.00000000000E+00  0.00000000000E+00 -0.64078817517E+03  0.64078817518E+03  0.25500000920E-02 0.  1.
    10030    2    1    2    0    0  0.00000000000E+00  0.00000000000E+00 -0.39027800344E+03  0.89129834692E+03  0.80130881891E+03 0.  0.
        5    1    3    3  502    0  0.12936275890E+03  0.24322656845E+03  0.12840163722E+03  0.30397854764E+03  0.46999998093E+01 0. -1.
       -5    1    3    3    0  502 -0.12936275890E+03 -0.24322656845E+03 -0.51867964066E+03  0.58731979928E+03  0.46999998093E+01 0.  1.
</event>
<event>
 5   0  0.1747544E-02  0.8222492E+03  0.7818609E-02  0.9528359E-01
        2   -1    0    0  501    0  0.00000000000E+00  0.00000000000E+00  0.14248395437E+04  0.14248395438E+04  0.25500000920E-02 0.  1.
       -2   -1    0    0    0  501  0.00000000000E+00  0.00000000000E+00 -0.11862629843E+03  0.11862629846E+03  0.25500000920E-02 0. -1.
    10030    2    1    2    0    0  0.00000000000E+00  0.00000000000E+00  0.13062132453E+04  0.15434658422E+04  0.82224921029E+03 0.  0.
        1    1    3    3  502    0 -0.12074791317E+02 -0.22968570252E+03  0.12927693312E+04  0.13130703965E+04  0.50400001928E-02 0.  1.
       -1    1    3    3    0  502  0.12074791317E+02  0.22968570252E+03  0.13443914103E+02  0.23039544566E+03  0.50400001928E-02 0. -1.
</event>
<event>
 5   0  0.1747544E-02  0.7930309E+03  0.7818609E-02  0.9570160E-01
        2   -1    0    0  501    0  0.00000000000E+00  0.00000000000E+00  0.17477188954E+04  0.17477188954E+04  0.25500000920E-02 0.  1.
       -2   -1    0    0    0  501  0.00000000000E+00  0.00000000000E+00 -0.89959832589E+02  0.89959832625E+02  0.25500000920E-02 0. -1.
    10030    2    1    2    0    0  0.00000000000E+00  0.00000000000E+00  0.16577590628E+04  0.18376787281E+04  0.79303089292E+03 0.  0.
        1    1    3    3  502    0 -0.39004515967E+03  0.71322181899E+02  0.83248366569E+03  0.92209063214E+03  0.50400001928E-02 0. -1.
       -1    1    3    3    0  502  0.39004515967E+03 -0.71322181899E+02  0.82527539715E+03  0.91558809591E+03  0.50400001928E-02 0.  1.
</event>
<event>
 5   0  0.1025900E-02  0.8055842E+03  0.7818609E-02  0.9551969E-01
        1   -1    0    0  501    0  0.00000000000E+00  0.00000000000E+00  0.85721639895E+03  0.85721639897E+03  0.50400001928E-02 0. -1.
       -1   -1    0    0    0  501  0.00000000000E+00  0.00000000000E+00 -0.18926548930E+03  0.18926548937E+03  0.50400001928E-02 0.  1.
    10030    2    1    2    0    0  0.00000000000E+00  0.00000000000E+00  0.66795090965E+03  0.10464818883E+04  0.80558421343E+03 0.  0.
        1    1    3    3  502    0  0.23206959136E+03 -0.22266343256E+03  0.64899119927E+03  0.72430993103E+03  0.50400001928E-02 0. -1.
       -1    1    3    3    0  502 -0.23206959136E+03  0.22266343256E+03  0.18959710373E+02  0.32217195731E+03  0.50400001928E-02 0.  1.
</event>
<event>
 5   0  0.1038912E-02  0.8081337E+03  0.7818609E-02  0.9548318E-01
       -1   -1    0    0    0  501  0.00000000000E+00  0.00000000000E+00  0.18071502920E+03  0.18071502927E+03  0.50400001928E-02 0. -1.
        1   -1    0    0  501    0  0.00000000000E+00  0.00000000000E+00 -0.90346668601E+03  0.90346668602E+03  0.50400001928E-02 0.  1.
    10030    2    1    2    0    0  0.00000000000E+00  0.00000000000E+00 -0.72275165681E+03  0.10841817153E+04  0.80813367358E+03 0.  0.
        2    1    3    3  502    0  0.71122909419E+02  0.17447183771E+03  0.11817563755E+03  0.22240587159E+03  0.25500000920E-02 0. -1.
       -2    1    3    3    0  502 -0.71122909419E+02 -0.17447183771E+03 -0.84092729436E+03  0.86177584371E+03  0.25500000920E-02 0.  1.
</event>
<event>
 5   0  0.1747544E-02  0.7877271E+03  0.7818609E-02  0.9577953E-01
        2   -1    0    0  501    0  0.00000000000E+00  0.00000000000E+00  0.18249191117E+04  0.18249191117E+04  0.25500000920E-02 0.  1.
       -2   -1    0    0    0  501  0.00000000000E+00  0.00000000000E+00 -0.85005693068E+02  0.85005693106E+02  0.25500000920E-02 0. -1.
    10030    2    1    2    0    0  0.00000000000E+00  0.00000000000E+00  0.17399134186E+04  0.19099248048E+04  0.78772714545E+03 0.  0.
        1    1    3    3  502    0  0.24623808683E+03 -0.20914511330E+03  0.32372858794E+03  0.45735661414E+03  0.50400001928E-02 0. -1.
       -1    1    3    3    0  502 -0.24623808683E+03  0.20914511330E+03  0.14161848307E+04  0.14525681907E+04  0.50400001928E-02 0.  1.
</event>
<event>
 5   0  0.1030323E-02  0.8035200E+03  0.7818609E-02  0.9554936E-01
        1   -1    0    0  501    0  0.00000000000E+00  0.00000000000E+00  0.32499533225E+03  0.32499533229E+03  0.50400001928E-02 0. -1.
       -1   -1    0    0    0  501  0.00000000000E+00  0.00000000000E+00 -0.49665670016E+03  0.49665670019E+03  0.50400001928E-02 0.  1.
    10030    2    1    2    0    0  0.00000000000E+00  0.00000000000E+00 -0.17166136792E+03  0.82165203247E+03  0.80352002914E+03 0.  0.
        3    1    3    3  502    0  0.10914958265E+03 -0.33989583321E+03 -0.27429453934E+03  0.45020030357E+03  0.10100000352E+00 0. -1.
       -3    1    3    3    0  502 -0.10914958265E+03  0.33989583321E+03  0.10263317142E+03  0.37145172890E+03  0.10100000352E+00 0.  1.
</event>
<event>
 5   0  0.1673727E-02  0.7098876E+03  0.7818609E-02  0.9700471E-01
       -2   -1    0    0    0  501  0.00000000000E+00  0.00000000000E+00  0.27009531845E+03  0.27009531846E+03  0.25500000920E-02 0.  1.
        2   -1    0    0  501    0  0.00000000000E+00  0.00000000000E+00 -0.46644683257E+03  0.46644683258E+03  0.25500000920E-02 0. -1.
    10030    2    1    2    0    0  0.00000000000E+00  0.00000000000E+00 -0.19635151412E+03  0.73654215104E+03  0.70988761305E+03 0.  0.
        5    1    3    3  502    0  0.19211445460E+03 -0.16670586184E+03  0.15863394000E+03  0.29980931432E+03  0.46999998093E+01 0. -1.
       -5    1    3    3    0  502 -0.19211445460E+03  0.16670586184E+03 -0.35498545411E+03  0.43673283672E+03  0.46999998093E+01 0.  1.
</event>
<event>
 5   0  0.1030323E-02  0.8048669E+03  0.7818609E-02  0.9552999E-01
       -1   -1    0    0    0  501  0.00000000000E+00  0.00000000000E+00  0.22388552847E+03  0.22388552852E+03  0.50400001928E-02 0. -1.
        1   -1    0    0  501    0  0.00000000000E+00  0.00000000000E+00 -0.72337276570E+03  0.72337276572E+03  0.50400001928E-02 0.  1.
    10030    2    1    2    0    0  0.00000000000E+00  0.00000000000E+00 -0.49948723723E+03  0.94725829424E+03  0.80486693052E+03 0.  0.
        3    1    3    3  502    0  0.10326207621E+03  0.27284386597E+03  0.76509407232E+02  0.30159663655E+03  0.10100000352E+00 0. -1.
       -3    1    3    3    0  502 -0.10326207621E+03 -0.27284386597E+03 -0.57599664447E+03  0.64566165769E+03  0.10100000352E+00 0.  1.
</event>
<event>
 5   0  0.1817089E-02  0.7892151E+03  0.7818609E-02  0.9575760E-01
       -2   -1    0    0    0  501  0.00000000000E+00  0.00000000000E+00  0.23782866434E+03  0.23782866435E+03  0.25500000920E-02 0. -1.
        2   -1    0    0  501    0  0.00000000000E+00  0.00000000000E+00 -0.65473653029E+03  0.65473653029E+03  0.25500000920E-02 0.  1.
    10030    2    1    2    0    0  0.00000000000E+00  0.00000000000E+00 -0.41690786595E+03  0.89256519465E+03  0.78921508983E+03 0.  0.
        2    1    3    3  502    0 -0.32114861477E+03  0.13694479178E+03 -0.41645340028E+03  0.54343697277E+03  0.25500000920E-02 0.  1.
       -2    1    3    3    0  502  0.32114861477E+03 -0.13694479178E+03 -0.45446567002E+00  0.34912822188E+03  0.25500000920E-02 0. -1.
</event>
<event>
 5   0  0.1146083E-02  0.7937697E+03  0.7818609E-02  0.9569079E-01
        1   -1    0    0  501    0  0.00000000000E+00  0.00000000000E+00  0.12636879869E+04  0.12636879869E+04  0.50400001928E-02 0.  1.
       -1   -1    0    0    0  501  0.00000000000E+00  0.00000000000E+00 -0.12464909943E+03  0.12464909953E+03  0.50400001928E-02 0. -1.
    10030    2    1    2    0    0  0.00000000000E+00  0.00000000000E+00  0.11390388874E+04  0.13883370864E+04  0.79376966333E+03 0.  0.
        4    1    3    3  502    0  0.16144293384E+03  0.35487318989E+03  0.43960482667E+03  0.58758218006E+03  0.12699999809E+01 0. -1.
       -4    1    3    3    0  502 -0.16144293384E+03 -0.35487318989E+03  0.69943406077E+03  0.80075490635E+03  0.12699999809E+01 0.  1.
</event>
<event>
 5   0  0.1049780E-02  0.8008970E+03  0.7818609E-02  0.9558720E-01
        1   -1    0    0  501    0  0.00000000000E+00  0.00000000000E+00  0.22036049944E+04  0.22036049944E+04  0.50400001928E-02 0.  1.
       -1   -1    0    0    0  501  0.00000000000E+00  0.00000000000E+00 -0.72771210480E+02  0.72771210655E+02  0.50400001928E-02 0. -1.
    10030    2    1    2    0    0  0.00000000000E+00  0.00000000000E+00  0.21308337839E+04  0.22763762051E+04  0.80089700479E+03 0.  0.
        5    1    3    3  502    0  0.58473112036E+01  0.67617364646E+02 -0.56225373156E+02  0.88259173091E+02  0.46999998093E+01 0. -1.
       -5    1    3    3    0  502 -0.58473112036E+01 -0.67617364646E+02  0.21870591571E+04  0.21881170320E+04  0.46999998093E+01 0.  1.
</event>
<event>
 5   0  0.1025900E-02  0.8081600E+03  0.7818609E-02  0.9548280E-01
        1   -1    0    0  501    0  0.00000000000E+00  0.00000000000E+00  0.11136482264E+04  0.11136482264E+04  0.50400001928E-02 0.  1.
       -1   -1    0    0    0  501  0.00000000000E+00  0.00000000000E+00 -0.14661778137E+03  0.14661778146E+03  0.50400001928E-02 0. -1.
    10030    2    1    2    0    0  0.00000000000E+00  0.00000000000E+00  0.96703044504E+03  0.12602660079E+04  0.80815996498E+03 0.  0.
        1    1    3    3  502    0 -0.25844591222E+03  0.24344770831E+03  0.78436554698E+03  0.86098222254E+03  0.50400001928E-02 0.  1.
       -1    1    3    3    0  502  0.25844591222E+03 -0.24344770831E+03  0.18266489807E+03  0.39928378534E+03  0.50400001928E-02 0. -1.
</event>
<event>
 5   0  0.1038912E-02  0.7949615E+03  0.7818609E-02  0.9567339E-01
        1   -1    0    0  501    0  0.00000000000E+00  0.00000000000E+00  0.76288070235E+03  0.76288070236E+03  0.50400001928E-02 0. -1.
       -1   -1    0    0    0  501  0.00000000000E+00  0.00000000000E+00 -0.20709782498E+03  0.20709782504E+03  0.50400001928E-02 0.  1.
    10030    2    1    2    0    0  0.00000000000E+00  0.00000000000E+00  0.55578287737E+03  0.96997852741E+03  0.79496146879E+03 0.  0.
        2    1    3    3  502    0  0.99045476292E+02 -0.69079681732E+02  0.73995756495E+03  0.74974609484E+03  0.25500000920E-02 0. -1.
       -2    1    3    3    0  502 -0.99045476292E+02  0.69079681732E+02 -0.18417468758E+03  0.22023243257E+03  0.25500000920E-02 0.  1.
</event>
<event>
 5   0  0.1818665E-02  0.7950266E+03  0.7818609E-02  0.9567244E-01
        2   -1    0    0  501    0  0.00000000000E+00  0.00000000000E+00  0.19917085223E+04  0.19917085223E+04  0.25500000920E-02 0.  1.
       -2   -1    0    0    0  501  0.00000000000E+00  0.00000000000E+00 -0.79337325158E+02  0.79337325199E+02  0.25500000920E-02 0. -1.
    10030    2    1    2    0    0  0.00000000000E+00  0.00000000000E+00  0.19123711972E+04  0.20710458475E+04  0.79502660760E+03 0.  0.
        3    1    3    3  502    0 -0.87235113415E+01 -0.25266778113E+03  0.15708364908E+03  0.29764473837E+03  0.10100000352E+00 0. -1.
       -3    1    3    3    0  502  0.87235113415E+01  0.25266778113E+03  0.17552875481E+04  0.17734011092E+04  0.10100000352E+00 0.  1.
</event>
<event>
 5   0  0.1747544E-02  0.8059515E+03  0.7818609E-02  0.9551442E-01
       -2   -1    0    0    0  501  0.00000000000E+00  0.00000000000E+00  0.10054779542E+03  0.10054779546E+03  0.25500000920E-02 0.  1.
        2   -1    0    0  501    0  0.00000000000E+00  0.00000000000E+00 -0.16150475018E+04  0.16150475018E+04  0.25500000920E-02 0. -1.
    10030    2    1    2    0    0  0.00000000000E+00  0.00000000000E+00 -0.15144997064E+04  0.17155952973E+04  0.80595152669E+03 0.  0.
        1    1    3    3  502    0  0.26874577729E+03  0.16925089379E+03 -0.12852227703E+04  0.13238835776E+04  0.50400001928E-02 0. -1.
       -1    1    3    3    0  502 -0.26874577729E+03 -0.16925089379E+03 -0.22927693616E+03  0.39171171969E+03  0.50400001928E-02 0.  1.
</event>
<event>
 5   0  0.1038912E-02  0.8021218E+03  0.7818609E-02  0.9556951E-01
       -1   -1    0    0    0  501  0.00000000000E+00  0.00000000000E+00  0.16704521955E+03  0.16704521963E+03  0.50400001928E-02 0. -1.
        1   -1    0    0  501    0  0.00000000000E+00  0.00000000000E+00 -0.96291209750E+03  0.96291209751E+03  0.50400001928E-02 0.  1.
    10030    2    1    2    0    0  0.00000000000E+00  0.00000000000E+00 -0.79586687794E+03  0.11299573171E+04  0.80212184308E+03 0.  0.
        2    1    3    3  502    0  0.31718905083E+03 -0.22975974492E+03 -0.27633123034E+03  0.47933014011E+03  0.25500000920E-02 0. -1.
       -2    1    3    3    0  502 -0.31718905083E+03  0.22975974492E+03 -0.51953564760E+03  0.65062717703E+03  0.25500000920E-02 0.  1.
</event>
<event>
 5   0  0.1146083E-02  0.8951515E+03  0.7818609E-02  0.9431663E-01
        1   -1    0    0  501    0  0.00000000000E+00  0.00000000000E+00  0.10381100747E+04  0.10381100748E+04  0.50400001928E-02 0. -1.
       -1   -1    0    0    0  501  0.00000000000E+00  0.00000000000E+00 -0.19296996729E+03  0.19296996735E+03  0.50400001928E-02 0.  1.
    10030    2    1    2    0    0  0.00000000000E+00  0.00000000000E+00  0.84514010746E+03  0.12310800421E+04  0.89515153402E+03 0.  0.
        4    1    3    3  502    0  0.27790824045E+03 -0.20401580162E+03  0.81510708843E+03  0.88501786193E+03  0.12699999809E+01 0. -1.
       -4    1    3    3    0  502 -0.27790824045E+03  0.20401580162E+03  0.30033019027E+02  0.34606218018E+03  0.12699999809E+01 0.  1.
</event>
<event>
 5   0  0.1030323E-02  0.8048862E+03  0.7818609E-02  0.9552971E-01
       -1   -1    0    0    0  501  0.00000000000E+00  0.00000000000E+00  0.40838894002E+03  0.40838894005E+03  0.50400001928E-02 0.  1.
        1   -1    0    0  501    0  0.00000000000E+00  0.00000000000E+00 -0.39658381122E+03  0.39658381126E+03  0.50400001928E-02 0. -1.
    10030    2    1    2    0    0  0.00000000000E+00  0.00000000000E+00  0.11805128793E+02  0.80497275130E+03  0.80488618405E+03 0.  0.
        3    1    3    3  502    0  0.11258210167E+03 -0.33333108100E+03 -0.18950548361E+03  0.39962066725E+03  0.10100000352E+00 0.  1.
       -3    1    3    3    0  502 -0.11258210167E+03  0.33333108100E+03  0.20131061241E+03  0.40535208405E+03  0.10100000352E+00 0. -1.
</event>
<event>
 5   0  0.1146083E-02  0.8139438E+03  0.7818609E-02  0.9540051E-01
        1   -1    0    0  501    0  0.00000000000E+00  0.00000000000E+00  0.19065417416E+04  0.19065417416E+04  0.50400001928E-02 0.  1.
       -1   -1    0    0    0  501  0.00000000000E+00  0.00000000000E+00 -0.86872537406E+02  0.86872537552E+02  0.50400001928E-02 0. -1.
    10030    2    1    2    0    0  0.00000000000E+00  0.00000000000E+00  0.18196692042E+04  0.19934142791E+04  0.81394377917E+03 0.  0.
        4    1    3    3  502    0 -0.80438599358E+02 -0.39049380798E+02  0.18821823384E+04  0.18843054928E+04  0.12699999809E+01 0.  1.
       -4    1    3    3    0  502  0.80438599358E+02  0.39049380798E+02 -0.62513134204E+02  0.10910878633E+03  0.12699999809E+01 0. -1.
</event>
<event>
 5   0  0.1817089E-02  0.8226658E+03  0.7818609E-02  0.9527777E-01
       -2   -1    0    0    0  501  0.00000000000E+00  0.00000000000E+00  0.15245967521E+03  0.15245967523E+03  0.25500000920E-02 0. -1.
        2   -1    0    0  501    0  0.00000000000E+00  0.00000000000E+00 -0.11097671657E+04  0.11097671657E+04  0.25500000920E-02 0.  1.
    10030    2    1    2    0    0  0.00000000000E+00  0.00000000000E+00 -0.95730749048E+03  0.12622268409E+04  0.82266576847E+03 0.  0.
        2    1    3    3  502    0 -0.65952997137E+01 -0.18637684211E+03 -0.10411734210E+04  0.10577437865E+04  0.25500000920E-02 0.  1.
       -2    1    3    3    0  502  0.65952997137E+01  0.18637684211E+03  0.83865930502E+02  0.20448305445E+03  0.25500000920E-02 0. -1.
</event>
<event>
 5   0  0.1747544E-02  0.7807591E+03  0.7818609E-02  0.9588293E-01
        2   -1    0    0  501    0  0.00000000000E+00  0.00000000000E+00  0.95852406267E+03  0.95852406267E+03  0.25500000920E-02 0.  1.
       -2   -1    0    0    0  501  0.00000000000E+00  0.00000000000E+00 -0.15899047772E+03  0.15899047774E+03  0.25500000920E-02 0. -1.
    10030    2    1    2    0    0  0.00000000000E+00  0.00000000000E+00  0.79953358495E+03  0.11175145404E+04  0.78075911432E+03 0.  0.
        1    1    3    3  502    0  0.37150385378E+03 -0.11909585341E+03  0.37966388469E+03  0.54437450440E+03  0.50400001928E-02 0.  1.
       -1    1    3    3    0  502 -0.37150385378E+03  0.11909585341E+03  0.41986970025E+03  0.57314003602E+03  0.50400001928E-02 0. -1.
</event>
<event>
 5   0  0.6872500E-03  0.7909293E+03  0.7818609E-02  0.9573240E-01
       -3   -1    0    0    0  501  0.00000000000E+00  0.00000000000E+00  0.12569993227E+03  0.12569997284E+03  0.10100000352E+00 0. -1.
        3   -1    0    0  501    0  0.00000000000E+00  0.00000000000E+00 -0.12441713530E+04  0.12441713571E+04  0.10100000352E+00 0.  1.
    10030    2    1    2    0    0  0.00000000000E+00  0.00000000000E+00 -0.11184714208E+04  0.13698713300E+04  0.79092928990E+03 0.  0.
        3    1    3    3  502    0  0.25807373173E+03  0.73575696906E+02 -0.10623350515E+04  0.10957058027E+04  0.10100000352E+00 0.  1.
       -3    1    3    3    0  502 -0.25807373173E+03 -0.73575696906E+02 -0.56136369220E+02  0.27416552725E+03  0.10100000352E+00 0. -1.
</event>
<event>
 5   0  0.1025900E-02  0.7972021E+03  0.7818609E-02  0.9564076E-01
       -1   -1    0    0    0  501  0.00000000000E+00  0.00000000000E+00  0.34256858744E+03  0.34256858748E+03  0.50400001928E-02 0. -1.
        1   -1    0    0  501    0  0.00000000000E+00  0.00000000000E+00 -0.46379849013E+03  0.46379849015E+03  0.50400001928E-02 0.  1.
    10030    2    1    2    0    0  0.00000000000E+00  0.00000000000E+00 -0.12122990268E+03  0.80636707763E+03  0.79720209143E+03 0.  0.
        1    1    3    3  502    0 -0.39784244542E+03  0.14200813271E+02 -0.40321419802E+02  0.40013259227E+03  0.50400001928E-02 0. -1.
       -1    1    3    3    0  502  0.39784244542E+03 -0.14200813271E+02 -0.80908482881E+02  0.40623448537E+03  0.50400001928E-02 0.  1.
</event>
<event>
 5   0  0.1817089E-02  0.9044249E+03  0.7818609E-02  0.9420067E-01
        2   -1    0    0  501    0  0.00000000000E+00  0.00000000000E+00  0.24192266676E+04  0.24192266676E+04  0.25500000920E-02 0. -1.
       -2   -1    0    0    0  501  0.00000000000E+00  0.00000000000E+00 -0.84529527822E+02  0.84529527860E+02  0.25500000920E-02 0.  1.
    10030    2    1    2    0    0  0.00000000000E+00  0.00000000000E+00  0.23346971398E+04  0.25037561954E+04  0.90442487351E+03 0.  0.
        2    1    3    3  502    0  0.17155840190E+03 -0.31475106736E+01  0.23256068923E+04  0.23319283028E+04  0.25500000920E-02 0. -1.
       -2    1    3    3    0  502 -0.17155840190E+03  0.31475106736E+01  0.90902475117E+01  0.17182789265E+03  0.25500000920E-02 0.  1.
</event>
<event>
 5   0  0.1030323E-02  0.7981387E+03  0.7818609E-02  0.9562715E-01
       -1   -1    0    0    0  501  0.00000000000E+00  0.00000000000E+00  0.29296017650E+03  0.29296017654E+03  0.50400001928E-02 0.  1.
        1   -1    0    0  501    0  0.00000000000E+00  0.00000000000E+00 -0.54361087516E+03  0.54361087518E+03  0.50400001928E-02 0. -1.
    10030    2    1    2    0    0  0.00000000000E+00  0.00000000000E+00 -0.25065069866E+03  0.83657105173E+03  0.79813867958E+03 0.  0.
        3    1    3    3  502    0  0.29589643535E+03  0.26265169695E+03 -0.17994720387E+03  0.43465114833E+03  0.10100000352E+00 0. -1.
       -3    1    3    3    0  502 -0.29589643535E+03 -0.26265169695E+03 -0.70703494790E+02  0.40191990339E+03  0.10100000352E+00 0.  1.
</event>
<event>
 5   0  0.1747544E-02  0.7928882E+03  0.7818609E-02  0.9570369E-01
        2   -1    0    0  501    0  0.00000000000E+00  0.00000000000E+00  0.77374622714E+03  0.77374622714E+03  0.25500000920E-02 0.  1.
       -2   -1    0    0    0  501  0.00000000000E+00  0.00000000000E+00 -0.20312591739E+03  0.20312591741E+03  0.25500000920E-02 0. -1.
    10030    2    1    2    0    0  0.00000000000E+00  0.00000000000E+00  0.57062030975E+03  0.97687214455E+03  0.79288816923E+03 0.  0.
        1    1    3    3  502    0 -0.19911728387E+03  0.82522375072E+01 -0.13692677813E+03  0.24179481953E+03  0.50400001928E-02 0. -1.
       -1    1    3    3    0  502  0.19911728387E+03 -0.82522375072E+01  0.70754708788E+03  0.73507732501E+03  0.50400001928E-02 0.  1.
</event>
<event>
 5   0  0.1030323E-02  0.8043089E+03  0.7818609E-02  0.9553801E-01
       -1   -1    0    0    0  501  0.00000000000E+00  0.00000000000E+00  0.11530861927E+04  0.11530861927E+04  0.50400001928E-02 0. -1.
        1   -1    0    0  501    0  0.00000000000E+00  0.00000000000E+00 -0.14025683429E+03  0.14025683438E+03  0.50400001928E-02 0.  1.
    10030    2    1    2    0    0  0.00000000000E+00  0.00000000000E+00  0.10128293584E+04  0.12933430271E+04  0.80430894341E+03 0.  0.
        3    1    3    3  502    0  0.55205780964E+01  0.75883206968E+02 -0.12857820199E+03  0.14940248361E+03  0.10100000352E+00 0.  1.
       -3    1    3    3    0  502 -0.55205780964E+01 -0.75883206968E+02  0.11414075604E+04  0.11439405435E+04  0.10100000352E+00 0. -1.
</event>
<event>
 5   0  0.1673727E-02  0.7967032E+03  0.7818609E-02  0.9564801E-01
       -2   -1    0    0    0  501  0.00000000000E+00  0.00000000000E+00  0.50443562001E+03  0.50443562001E+03  0.25500000920E-02 0. -1.
        2   -1    0    0  501    0  0.00000000000E+00  0.00000000000E+00 -0.31457732297E+03  0.31457732298E+03  0.25500000920E-02 0.  1.
    10030    2    1    2    0    0  0.00000000000E+00  0.00000000000E+00  0.18985829704E+03  0.81901294299E+03  0.79670322444E+03 0.  0.
        5    1    3    3  502    0 -0.26357040039E+03 -0.10860099819E+03  0.38092526590E+03  0.47580424648E+03  0.46999998093E+01 0. -1.
       -5    1    3    3    0  502  0.26357040039E+03  0.10860099819E+03 -0.19106696886E+03  0.34320869651E+03  0.46999998093E+01 0.  1.
</event>
<event>
 5   0  0.1747544E-02  0.8073953E+03  0.7818609E-02  0.9549374E-01
        2   -1    0    0  501    0  0.00000000000E+00  0.00000000000E+00  0.32553360984E+03  0.32553360985E+03  0.25500000920E-02 0.  1.
       -2   -1    0    0    0  501  0.00000000000E+00  0.00000000000E+00 -0.50062969054E+03  0.50062969055E+03  0.25500000920E-02 0. -1.
    10030    2    1    2    0    0  0.00000000000E+00  0.00000000000E+00 -0.17509608070E+03  0.82616330040E+03  0.80739529442E+03 0.  0.
        1    1    3    3  502    0 -0.19156159751E+03  0.59039105290E+02 -0.44610797995E+03  0.48907442316E+03  0.50400001928E-02 0. -1.
       -1    1    3    3    0  502  0.19156159751E+03 -0.59039105290E+02  0.27101189925E+03  0.33708887724E+03  0.50400001928E-02 0.  1.
</event>
<event>
 5   0  0.1038912E-02  0.7943459E+03  0.7818609E-02  0.9568237E-01
       -1   -1    0    0    0  501  0.00000000000E+00  0.00000000000E+00  0.77840337458E+02  0.77840337621E+02  0.50400001928E-02 0. -1.
        1   -1    0    0  501    0  0.00000000000E+00  0.00000000000E+00 -0.20265374779E+04  0.20265374779E+04  0.50400001928E-02 0.  1.
    10030    2    1    2    0    0  0.00000000000E+00  0.00000000000E+00 -0.19486971405E+04  0.21043778155E+04  0.79434592296E+03 0.  0.
        2    1    3    3  502    0 -0.28927833864E+03 -0.21736973071E+03 -0.54053677148E+03  0.65047025940E+03  0.25500000920E-02 0. -1.
       -2    1    3    3    0  502  0.28927833864E+03  0.21736973071E+03 -0.14081603690E+04  0.14539075561E+04  0.25500000920E-02 0.  1.
</event>
<event>
 5   0  0.1817089E-02  0.8041463E+03  0.7818609E-02  0.9554035E-01
       -2   -1    0    0    0  501  0.00000000000E+00  0.00000000000E+00  0.40619505571E+03  0.40619505572E+03  0.25500000920E-02 0. -1.
        2   -1    0    0  501    0  0.00000000000E+00  0.00000000000E+00 -0.39799308304E+03  0.39799308305E+03  0.25500000920E-02 0.  1.
    10030    2    1    2    0    0  0.00000000000E+00  0.00000000000E+00  0.82019726725E+01  0.80418813877E+03  0.80414631143E+03 0.  0.
        2    1    3    3  502    0 -0.85192632375E+02 -0.37880056879E+03  0.10858209725E+03  0.40315967975E+03  0.25500000920E-02 0. -1.
       -2    1    3    3    0  502  0.85192632375E+02  0.37880056879E+03 -0.10038012458E+03  0.40102845902E+03  0.25500000920E-02 0.  1.
</event>
<event>
 5   0  0.1747544E-02  0.8032094E+03  0.7818609E-02  0.9555383E-01
        2   -1    0    0  501    0  0.00000000000E+00  0.00000000000E+00  0.13482545074E+04  0.13482545074E+04  0.25500000920E-02 0.  1.
       -2   -1    0    0    0  501  0.00000000000E+00  0.00000000000E+00 -0.11962602153E+03  0.11962602156E+03  0.25500000920E-02 0. -1.
    10030    2    1    2    0    0  0.00000000000E+00  0.00000000000E+00  0.12286284859E+04  0.14678805290E+04  0.80320936936E+03 0.  0.
        1    1    3    3  502    0 -0.16880163527E+03  0.34017905166E+03  0.37554102201E+03  0.53408504800E+03  0.50400001928E-02 0. -1.
       -1    1    3    3    0  502  0.16880163527E+03 -0.34017905166E+03  0.85308746385E+03  0.93379548096E+03  0.50400001928E-02 0.  1.
</event>
<event>
 5   0  0.1038912E-02  0.8010165E+03  0.7818609E-02  0.9558547E-01
        1   -1    0    0  501    0  0.00000000000E+00  0.00000000000E+00  0.27697619785E+03  0.27697619789E+03  0.50400001928E-02 0.  1.
       -1   -1    0    0    0  501  0.00000000000E+00  0.00000000000E+00 -0.57913582407E+03  0.57913582410E+03  0.50400001928E-02 0. -1.
    10030    2    1    2    0    0  0.00000000000E+00  0.00000000000E+00 -0.30215962623E+03  0.85611202199E+03  0.80101645081E+03 0.  0.
        2    1    3    3  502    0  0.22783679365E+03 -0.32822167509E+03 -0.18069425953E+03  0.43850825303E+03  0.25500000920E-02 0. -1.
       -2    1    3    3    0  502 -0.22783679365E+03  0.32822167509E+03 -0.12146536670E+03  0.41760376896E+03  0.25500000920E-02 0.  1.
</event>
<event>
 5   0  0.1146083E-02  0.7963644E+03  0.7818609E-02  0.9565294E-01
        1   -1    0    0  501    0  0.00000000000E+00  0.00000000000E+00  0.21106552359E+04  0.21106552359E+04  0.50400001928E-02 0. -1.
       -1   -1    0    0    0  501  0.00000000000E+00  0.00000000000E+00 -0.75118417695E+02  0.75118417864E+02  0.50400001928E-02 0.  1.
    10030    2    1    2    0    0  0.00000000000E+00  0.00000000000E+00  0.20355368182E+04  0.21857736537E+04  0.79636444373E+03 0.  0.
        4    1    3    3  502    0 -0.35932220713E+03  0.11655734505E+03  0.13633095927E+04  0.14146776034E+04  0.12699999809E+01 0.  1.
       -4    1    3    3    0  502  0.35932220713E+03 -0.11655734505E+03  0.67222722547E+03  0.77109605030E+03  0.12699999809E+01 0. -1.
</event>
<event>
 5   0  0.1673727E-02  0.8112227E+03  0.7818609E-02  0.9543913E-01
        2   -1    0    0  501    0  0.00000000000E+00  0.00000000000E+00  0.83961959850E+03  0.83961959850E+03  0.25500000920E-02 0.  1.
       -2   -1    0    0    0  501  0.00000000000E+00  0.00000000000E+00 -0.19594657593E+03  0.19594657595E+03  0.25500000920E-02 0. -1.
    10030    2    1    2    0    0  0.00000000000E+00  0.00000000000E+00  0.64367302257E+03  0.10355661744E+04  0.81122274480E+03 0.  0.
        5    1    3    3  502    0  0.13672797028E+03 -0.30875550894E+03  0.60863150775E+03  0.69604518847E+03  0.46999998093E+01 0. -1.
       -5    1    3    3    0  502 -0.13672797028E+03  0.30875550894E+03  0.35041514813E+02  0.33952098598E+03  0.46999998093E+01 0.  1.
</event>
<event>
 5   0  0.1030323E-02  0.7619613E+03  0.7818609E-02  0.9616770E-01
       -1   -1    0    0    0  501  0.00000000000E+00  0.00000000000E+00  0.52144148091E+03  0.52144148093E+03  0.50400001928E-02 0.  1.
        1   -1    0    0  501    0  0.00000000000E+00  0.00000000000E+00 -0.27835580338E+03  0.27835580342E+03  0.50400001928E-02 0. -1.
    10030    2    1    2    0    0  0.00000000000E+00  0.00000000000E+00  0.24308567753E+03  0.79979728435E+03  0.76196131755E+03 0.  0.
        3    1    3    3  502    0  0.32253125478E+03 -0.20256734127E+03  0.11179096972E+03  0.39693471652E+03  0.10100000352E+00 0. -1.
       -3    1    3    3    0  502 -0.32253125478E+03  0.20256734127E+03  0.13129470781E+03  0.40286256784E+03  0.10100000352E+00 0.  1.
</event>
<event>
 5   0  0.1030323E-02  0.7989666E+03  0.7818609E-02  0.9561514E-01
        1   -1    0    0  501    0  0.00000000000E+00  0.00000000000E+00  0.18181076079E+04  0.18181076079E+04  0.50400001928E-02 0. -1.
       -1   -1    0    0    0  501  0.00000000000E+00  0.00000000000E+00 -0.87776389136E+02  0.87776389281E+02  0.50400001928E-02 0.  1.
    10030    2    1    2    0    0  0.00000000000E+00  0.00000000000E+00  0.17303312188E+04  0.19058839972E+04  0.79896663517E+03 0.  0.
        3    1    3    3  502    0  0.12344943002E+03 -0.30020469049E+03  0.30969028853E+03  0.44863203517E+03  0.10100000352E+00 0.  1.
       -3    1    3    3    0  502 -0.12344943002E+03  0.30020469049E+03  0.14206409302E+04  0.14572519620E+04  0.10100000352E+00 0. -1.
</event>
<event>
 5   0  0.1818665E-02  0.7966223E+03  0.7818609E-02  0.9564919E-01
        2   -1    0    0  501    0  0.00000000000E+00  0.00000000000E+00  0.30711417899E+03  0.30711417900E+03  0.25500000920E-02 0.  1.
       -2   -1    0    0    0  501  0.00000000000E+00  0.00000000000E+00 -0.51658888810E+03  0.51658888811E+03  0.25500000920E-02 0. -1.
    10030    2    1    2    0    0  0.00000000000E+00  0.00000000000E+00 -0.20947470911E+03  0.82370306711E+03  0.79662230010E+03 0.  0.
        3    1    3    3  502    0  0.74351639815E+02  0.29982589715E+03 -0.36473716953E+03  0.47797170208E+03  0.10100000352E+00 0. -1.
       -3    1    3    3    0  502 -0.74351639815E+02 -0.29982589715E+03  0.15526246043E+03  0.34573136503E+03  0.10100000352E+00 0.  1.
</event>
<event>
 5   0  0.1673727E-02  0.7699298E+03  0.7818609E-02  0.9604592E-01
        2   -1    0    0  501    0  0.00000000000E+00  0.00000000000E+00  0.16011913594E+04  0.16011913594E+04  0.25500000920E-02 0.  1.
       -2   -1    0    0    0  501  0.00000000000E+00  0.00000000000E+00 -0.92554815469E+02  0.92554815504E+02  0.25500000920E-02 0. -1.
    10030    2    1    2    0    0  0.00000000000E+00  0.00000000000E+00  0.15086365439E+04  0.16937461749E+04  0.76992979117E+03 0.  0.
        5    1    3    3  502    0  0.71555185224E+02  0.16837599928E+03  0.14993741895E+04  0.15105017947E+04  0.46999998093E+01 0.  1.
       -5    1    3    3    0  502 -0.71555185224E+02 -0.16837599928E+03  0.92623544247E+01  0.18324438020E+03  0.46999998093E+01 0. -1.
</event>
<event>
 5   0  0.1049780E-02  0.7978505E+03  0.7818609E-02  0.9563134E-01
       -1   -1    0    0    0  501  0.00000000000E+00  0.00000000000E+00  0.28645250871E+03  0.28645250876E+03  0.50400001928E-02 0. -1.
        1   -1    0    0  501    0  0.00000000000E+00  0.00000000000E+00 -0.55555927377E+03  0.55555927379E+03  0.50400001928E-02 0.  1.
    10030    2    1    2    0    0  0.00000000000E+00  0.00000000000E+00 -0.26910676505E+03  0.84201178255E+03  0.79785048157E+03 0.  0.
        5    1    3    3  502    0  0.23413678535E+03  0.23424565028E+03 -0.36918365755E+03  0.49599367126E+03  0.46999998093E+01 0.  1.
       -5    1    3    3    0  502 -0.23413678535E+03 -0.23424565028E+03  0.10007689250E+03  0.34601811129E+03  0.46999998093E+01 0. -1.
</event>
<event>
 5   0  0.1038912E-02  0.7948293E+03  0.7818609E-02  0.9567532E-01
       -1   -1    0    0    0  501  0.00000000000E+00  0.00000000000E+00  0.15816207470E+03  0.15816207478E+03  0.50400001928E-02 0. -1.
        1   -1    0    0  501    0  0.00000000000E+00  0.00000000000E+00 -0.99858569306E+03  0.99858569307E+03  0.50400001928E-02 0.  1.
    10030    2    1    2    0    0  0.00000000000E+00  0.00000000000E+00 -0.84042361836E+03  0.11567477679E+04  0.79482925218E+03 0.  0.
        2    1    3    3  502    0 -0.36941298333E+03  0.29629869789E+02 -0.21135891778E+03  0.42663388704E+03  0.25500000920E-02 0. -1.
       -2    1    3    3    0  502  0.36941298333E+03 -0.29629869789E+02 -0.62906470058E+03  0.73011388081E+03  0.25500000920E-02 0.  1.
</event>
<event>
 5   0  0.1731337E-02  0.7980635E+03  0.7818609E-02  0.9562824E-01
        2   -1    0    0  501    0  0.00000000000E+00  0.00000000000E+00  0.23592367165E+04  0.23592367165E+04  0.25500000920E-02 0. -1.
       -2   -1    0    0    0  501  0.00000000000E+00  0.00000000000E+00 -0.67490621256E+02  0.67490621304E+02  0.25500000920E-02 0.  1.
    10030    2    1    2    0    0  0.00000000000E+00  0.00000000000E+00  0.22917460952E+04  0.24267273378E+04  0.79806353568E+03 0.  0.
        4    1    3    3  502    0 -0.37512989635E+03  0.12966570102E+03  0.10209012757E+04  0.10953431704E+04  0.12699999809E+01 0. -1.
       -4    1    3    3    0  502  0.37512989635E+03 -0.12966570102E+03  0.12708448195E+04  0.13313841674E+04  0.12699999809E+01 0.  1.
</event>
<event>
 5   0  0.1673727E-02  0.8019474E+03  0.7818609E-02  0.9557203E-01
       -2   -1    0    0    0  501  0.00000000000E+00  0.00000000000E+00  0.59212182153E+03  0.59212182153E+03  0.25500000920E-02 0.  1.
        2   -1    0    0  501    0  0.00000000000E+00  0.00000000000E+00 -0.27153183847E+03  0.27153183849E+03  0.25500000920E-02 0. -1.
    10030    2    1    2    0    0  0.00000000000E+00  0.00000000000E+00  0.32058998305E+03  0.86365366002E+03  0.80194744667E+03 0.  0.
        5    1    3    3  502    0 -0.12636905435E+03  0.31604142655E+02  0.56866878566E+03  0.58341600725E+03  0.46999998093E+01 0.  1.
       -5    1    3    3    0  502  0.12636905435E+03 -0.31604142655E+02 -0.24807880261E+03  0.28023765277E+03  0.46999998093E+01 0. -1.
</event>
<event>
 5   0  0.1025900E-02  0.7881677E+03  0.7818609E-02  0.9577304E-01
       -1   -1    0    0    0  501  0.00000000000E+00  0.00000000000E+00  0.15449883877E+03  0.15449883885E+03  0.50400001928E-02 0. -1.
        1   -1    0    0  501    0  0.00000000000E+00  0.00000000000E+00 -0.10051989728E+04  0.10051989728E+04  0.50400001928E-02 0.  1.
    10030    2    1    2    0    0  0.00000000000E+00  0.00000000000E+00 -0.85070013403E+03  0.11596978117E+04  0.78816768288E+03 0.  0.
        1    1    3    3  502    0 -0.16130701270E+03 -0.32475015599E+03 -0.65243700306E+03  0.74642927271E+03  0.50400001928E-02 0.  1.
       -1    1    3    3    0  502  0.16130701270E+03  0.32475015599E+03 -0.19826313096E+03  0.41326853895E+03  0.50400001928E-02 0. -1.
</event>
<event>
 5   0  0.1817089E-02  0.7907824E+03  0.7818609E-02  0.9573456E-01
       -2   -1    0    0    0  501  0.00000000000E+00  0.00000000000E+00  0.96421617454E+03  0.96421617454E+03  0.25500000920E-02 0.  1.
        2   -1    0    0  501    0  0.00000000000E+00  0.00000000000E+00 -0.16213604372E+03  0.16213604374E+03  0.25500000920E-02 0. -1.
    10030    2    1    2    0    0  0.00000000000E+00  0.00000000000E+00  0.80208013082E+03  0.11263522183E+04  0.79078238686E+03 0.  0.
        2    1    3    3  502    0 -0.12460791548E+03 -0.70595026234E+02 -0.12389373604E+03  0.18936855116E+03  0.25500000920E-02 0. -1.
       -2    1    3    3    0  502  0.12460791548E+03  0.70595026234E+02  0.92597386686E+03  0.93698366712E+03  0.25500000920E-02 0.  1.
</event>
<event>
 5   0  0.1038912E-02  0.8020341E+03  0.7818609E-02  0.9557078E-01
       -1   -1    0    0    0  501  0.00000000000E+00  0.00000000000E+00  0.23387797852E+03  0.23387797857E+03  0.50400001928E-02 0.  1.
        1   -1    0    0  501    0  0.00000000000E+00  0.00000000000E+00 -0.68760069736E+03  0.68760069738E+03  0.50400001928E-02 0. -1.
    10030    2    1    2    0    0  0.00000000000E+00  0.00000000000E+00 -0.45372271885E+03  0.92147867595E+03  0.80203406700E+03 0.  0.
        2    1    3    3  502    0 -0.18753238235E+03 -0.58545328027E+02  0.17480117475E+03  0.26296653887E+03  0.25500000920E-02 0.  1.
       -2    1    3    3    0  502  0.18753238235E+03  0.58545328027E+02 -0.62852389359E+03  0.65851213709E+03  0.25500000920E-02 0. -1.
</event>
<event>
 5   0  0.1747544E-02  0.7852212E+03  0.7818609E-02  0.9581659E-01
        2   -1    0    0  501    0  0.00000000000E+00  0.00000000000E+00  0.11231165236E+04  0.11231165236E+04  0.25500000920E-02 0. -1.
       -2   -1    0    0    0  501  0.00000000000E+00  0.00000000000E+00 -0.13724584338E+03  0.13724584340E+03  0.25500000920E-02 0.  1.
    10030    2    1    2    0    0  0.00000000000E+00  0.00000000000E+00  0.98587068024E+03  0.12603623670E+04  0.78522117779E+03 0.  0.
        1    1    3    3  502    0  0.76144203745E+01 -0.31930242428E+03  0.12645415090E+03  0.34351516684E+03  0.50400001928E-02 0.  1.
       -1    1    3    3    0  502 -0.76144203745E+01  0.31930242428E+03  0.85941652934E+03  0.91684720018E+03  0.50400001928E-02 0. -1.
</event>
<event>
 5   0  0.1030323E-02  0.7948951E+03  0.7818609E-02  0.9567436E-01
       -1   -1    0    0    0  501  0.00000000000E+00  0.00000000000E+00  0.30594055746E+03  0.30594055750E+03  0.50400001928E-02 0.  1.
        1   -1    0    0  501    0  0.00000000000E+00  0.00000000000E+00 -0.51632437212E+03  0.51632437214E+03  0.50400001928E-02 0. -1.
    10030    2    1    2    0    0  0.00000000000E+00  0.00000000000E+00 -0.21038381466E+03  0.82226492964E+03  0.79489512833E+03 0.  0.
        3    1    3    3  502    0  0.22793249647E+03 -0.25501790861E+03 -0.31459016744E+03  0.46470887694E+03  0.10100000352E+00 0. -1.
       -3    1    3    3    0  502 -0.22793249647E+03  0.25501790861E+03  0.10420635278E+03  0.35755605270E+03  0.10100000352E+00 0.  1.
</event>
<event>
 5   0  0.1030323E-02  0.8012152E+03  0.7818609E-02  0.9558260E-01
       -1   -1    0    0    0  501  0.00000000000E+00  0.00000000000E+00  0.31319931465E+03  0.31319931469E+03  0.50400001928E-02 0. -1.
        1   -1    0    0  501    0  0.00000000000E+00  0.00000000000E+00 -0.51240999912E+03  0.51240999915E+03  0.50400001928E-02 0.  1.
    10030    2    1    2    0    0  0.00000000000E+00  0.00000000000E+00 -0.19921068447E+03  0.82560931384E+03  0.80121522845E+03 0.  0.
        3    1    3    3  502    0  0.17197310365E+03 -0.24180284043E+03  0.17774190951E+03  0.34588373569E+03  0.10100000352E+00 0. -1.
       -3    1    3    3    0  502 -0.17197310365E+03  0.24180284043E+03 -0.37695259398E+03  0.47972557815E+03  0.10100000352E+00 0.  1.
</event>
<event>
 5   0  0.1731337E-02  0.7974347E+03  0.7818609E-02  0.9563738E-01
        2   -1    0    0  501    0  0.00000000000E+00  0.00000000000E+00  0.42277665944E+03  0.42277665944E+03  0.25500000920E-02 0. -1.
       -2   -1    0    0    0  501  0.00000000000E+00  0.00000000000E+00 -0.37602716201E+03  0.37602716202E+03  0.25500000920E-02 0.  1.
    10030    2    1    2    0    0  0.00000000000E+00  0.00000000000E+00  0.46749497427E+02  0.79880382146E+03  0.79743465542E+03 0.  0.
        4    1    3    3  502    0 -0.23176297318E+03  0.21560891127E+03 -0.21947213777E+03  0.38518944756E+03  0.12699999809E+01 0.  1.
       -4    1    3    3    0  502  0.23176297318E+03 -0.21560891127E+03  0.26622163519E+03  0.41361437390E+03  0.12699999809E+01 0. -1.
</event>
<event>
 5   0  0.1747544E-02  0.8014110E+03  0.7818609E-02  0.9557977E-01
       -2   -1    0    0    0  501  0.00000000000E+00  0.00000000000E+00  0.78204668734E+03  0.78204668734E+03  0.25500000920E-02 0.  1.
        2   -1    0    0  501    0  0.00000000000E+00  0.00000000000E+00 -0.20531368539E+03  0.20531368541E+03  0.25500000920E-02 0. -1.
    10030    2    1    2    0    0  0.00000000000E+00  0.00000000000E+00  0.57673300194E+03  0.98736037275E+03  0.80141097456E+03 0.  0.
        1    1    3    3  502    0 -0.39643962703E+03 -0.56658709788E+02  0.30536224080E+03  0.50360767012E+03  0.50400001928E-02 0. -1.
       -1    1    3    3    0  502  0.39643962703E+03  0.56658709788E+02  0.27137076115E+03  0.48375270263E+03  0.50400001928E-02 0.  1.
</event>
<event>
 5   0  0.6872500E-03  0.8025226E+03  0.7818609E-02  0.9556373E-01
        4   -1    0    0  501    0  0.00000000000E+00  0.00000000000E+00  0.46389888938E+03  0.46390062780E+03  0.12699999809E+01 0. -1.
       -4   -1    0    0    0  501  0.00000000000E+00  0.00000000000E+00 -0.34707775740E+03  0.34708008093E+03  0.12699999809E+01 0.  1.
    10030    2    1    2    0    0  0.00000000000E+00  0.00000000000E+00  0.11682113199E+03  0.81098070873E+03  0.80252260595E+03 0.  0.
        4    1    3    3  502    0 -0.29210549921E+03  0.18522896819E+03 -0.14713828166E+03  0.37588120485E+03  0.12699999809E+01 0.  1.
       -4    1    3    3    0  502  0.29210549921E+03 -0.18522896819E+03  0.26395941365E+03  0.43509950388E+03  0.12699999809E+01 0. -1.
</event>
<event>
 5   0  0.1146083E-02  0.8140794E+03  0.7818609E-02  0.9539858E-01
        1   -1    0    0  501    0  0.00000000000E+00  0.00000000000E+00  0.87343513768E+03  0.87343513769E+03  0.50400001928E-02 0.  1.
       -1   -1    0    0    0  501  0.00000000000E+00  0.00000000000E+00 -0.18968931394E+03  0.18968931401E+03  0.50400001928E-02 0. -1.
    10030    2    1    2    0    0  0.00000000000E+00  0.00000000000E+00  0.68374582373E+03  0.10631244517E+04  0.81407938700E+03 0.  0.
        4    1    3    3  502    0  0.50864545126E+02  0.30341252290E+02 -0.18402949535E+03  0.19332941214E+03  0.12699999809E+01 0. -1.
       -4    1    3    3    0  502 -0.50864545126E+02 -0.30341252290E+02  0.86777531908E+03  0.86979503956E+03  0.12699999809E+01 0.  1.
</event>
<event>
 5   0  0.1049780E-02  0.7875119E+03  0.7818609E-02  0.9578271E-01
        1   -1    0    0  501    0  0.00000000000E+00  0.00000000000E+00  0.15141287485E+04  0.15141287485E+04  0.50400001928E-02 0. -1.
       -1   -1    0    0    0  501  0.00000000000E+00  0.00000000000E+00 -0.10239800332E+03  0.10239800345E+03  0.50400001928E-02 0.  1.
    10030    2    1    2    0    0  0.00000000000E+00  0.00000000000E+00  0.14117307452E+04  0.16165267520E+04  0.78751193191E+03 0.  0.
        5    1    3    3  502    0 -0.19581727175E+03  0.28235062929E+03  0.31125850229E+03  0.46364881863E+03  0.46999998093E+01 0.  1.
       -5    1    3    3    0  502  0.19581727175E+03 -0.28235062929E+03  0.11004722429E+04  0.11528779333E+04  0.46999998093E+01 0. -1.
</event>
<event>
 5   0  0.1817089E-02  0.8002547E+03  0.7818609E-02  0.9559648E-01
       -2   -1    0    0    0  501  0.00000000000E+00  0.00000000000E+00  0.31590407326E+03  0.31590407327E+03  0.25500000920E-02 0. -1.
        2   -1    0    0  501    0  0.00000000000E+00  0.00000000000E+00 -0.50680548134E+03  0.50680548134E+03  0.25500000920E-02 0.  1.
    10030    2    1    2    0    0  0.00000000000E+00  0.00000000000E+00 -0.19090140808E+03  0.82270955461E+03  0.80025474921E+03 0.  0.
        2    1    3    3  502    0 -0.27288155994E+03  0.11682026716E+03 -0.37129001757E+03  0.47536049240E+03  0.25500000920E-02 0.  1.
       -2    1    3    3    0  502  0.27288155994E+03 -0.11682026716E+03  0.18038860949E+03  0.34734906221E+03  0.25500000920E-02 0. -1.
</event>
<event>
 5   0  0.1146083E-02  0.7829103E+03  0.7818609E-02  0.9585088E-01
       -1   -1    0    0    0  501  0.00000000000E+00  0.00000000000E+00  0.17302554323E+03  0.17302554331E+03  0.50400001928E-02 0. -1.
        1   -1    0    0  501    0  0.00000000000E+00  0.00000000000E+00 -0.88563311788E+03  0.88563311790E+03  0.50400001928E-02 0.  1.
    10030    2    1    2    0    0  0.00000000000E+00  0.00000000000E+00 -0.71260757465E+03  0.10586586612E+04  0.78291034320E+03 0.  0.
        4    1    3    3  502    0  0.21306800357E+03  0.27850691009E+03 -0.12103698672E+03  0.37096581806E+03  0.12699999809E+01 0. -1.
       -4    1    3    3    0  502 -0.21306800357E+03 -0.27850691009E+03 -0.59157058793E+03  0.68769284315E+03  0.12699999809E+01 0.  1.
</event>
<event>
 5   0  0.1673727E-02  0.8042528E+03  0.7818609E-02  0.9553882E-01
        2   -1    0    0  501    0  0.00000000000E+00  0.00000000000E+00  0.89842512275E+03  0.89842512275E+03  0.25500000920E-02 0.  1.
       -2   -1    0    0    0  501  0.00000000000E+00  0.00000000000E+00 -0.17998790910E+03  0.17998790912E+03  0.25500000920E-02 0. -1.
    10030    2    1    2    0    0  0.00000000000E+00  0.00000000000E+00  0.71843721365E+03  0.10784130319E+04  0.80425284417E+03 0.  0.
        5    1    3    3  502    0  0.36883470810E+03  0.83765436392E+02  0.17620885699E+03  0.41728568333E+03  0.46999998093E+01 0.  1.
       -5    1    3    3    0  502 -0.36883470810E+03 -0.83765436392E+02  0.54222835666E+03  0.66112734854E+03  0.46999998093E+01 0. -1.
</event>
<event>
 5   0  0.1049780E-02  0.8096771E+03  0.7818609E-02  0.9546115E-01
       -1   -1    0    0    0  501  0.00000000000E+00  0.00000000000E+00  0.23884412165E+03  0.23884412170E+03  0.50400001928E-02 0. -1.
        1   -1    0    0  501    0  0.00000000000E+00  0.00000000000E+00 -0.68619750453E+03  0.68619750454E+03  0.50400001928E-02 0.  1.
    10030    2    1    2    0    0  0.00000000000E+00  0.00000000000E+00 -0.44735338288E+03  0.92504162625E+03  0.80967707212E+03 0.  0.
        5    1    3    3  502    0  0.30964161501E+03 -0.22743308985E+03 -0.36939764069E+03  0.53299197653E+03  0.46999998093E+01 0. -1.
       -5    1    3    3    0  502 -0.30964161501E+03  0.22743308985E+03 -0.77955742187E+02  0.39204964971E+03  0.46999998093E+01 0.  1.
</event>
<event>
 5   0  0.1025900E-02  0.8014599E+03  0.7818609E-02  0.9557906E-01
       -1   -1    0    0    0  501  0.00000000000E+00  0.00000000000E+00  0.17760438696E+03  0.17760438703E+03  0.50400001928E-02 0. -1.
        1   -1    0    0  501    0  0.00000000000E+00  0.00000000000E+00 -0.90416970498E+03  0.90416970499E+03  0.50400001928E-02 0.  1.
    10030    2    1    2    0    0  0.00000000000E+00  0.00000000000E+00 -0.72656531802E+03  0.10817740920E+04  0.80145993339E+03 0.  0.
        1    1    3    3  502    0  0.47895842600E+02  0.25990324221E+03 -0.76987206630E+03  0.81396972028E+03  0.50400001928E-02 0.  1.
       -1    1    3    3    0  502 -0.47895842600E+02 -0.25990324221E+03  0.43306748276E+02  0.26780437174E+03  0.50400001928E-02 0. -1.
</event>
<event>
 5   0  0.1817089E-02  0.8057951E+03  0.7818609E-02  0.9551667E-01
        2   -1    0    0  501    0  0.00000000000E+00  0.00000000000E+00  0.12785809105E+04  0.12785809105E+04  0.25500000920E-02 0.  1.
       -2   -1    0    0    0  501  0.00000000000E+00  0.00000000000E+00 -0.12695828088E+03  0.12695828091E+03  0.25500000920E-02 0. -1.
    10030    2    1    2    0    0  0.00000000000E+00  0.00000000000E+00  0.11516226296E+04  0.14055391914E+04  0.80579509650E+03 0.  0.
        2    1    3    3  502    0  0.19455623224E+03  0.22203793568E+03  0.97566119866E+02  0.31092140508E+03  0.25500000920E-02 0. -1.
       -2    1    3    3    0  502 -0.19455623224E+03 -0.22203793568E+03  0.10540565098E+04  0.10946177863E+04  0.25500000920E-02 0.  1.
</event>
<event>
 5   0  0.1049780E-02  0.8053373E+03  0.7818609E-02  0.9552324E-01
        1   -1    0    0  501    0  0.00000000000E+00  0.00000000000E+00  0.84268962432E+03  0.84268962434E+03  0.50400001928E-02 0.  1.
       -1   -1    0    0    0  501  0.00000000000E+00  0.00000000000E+00 -0.19241016190E+03  0.19241016197E+03  0.50400001928E-02 0. -1.
    10030    2    1    2    0    0  0.00000000000E+00  0.00000000000E+00  0.65027946242E+03  0.10350997863E+04  0.80533731340E+03 0.  0.
        5    1    3    3  502    0  0.16222617220E+02  0.18066978208E+03  0.78716020626E+03  0.80780444650E+03  0.46999998093E+01 0.  1.
       -5    1    3    3    0  502 -0.16222617220E+02 -0.18066978208E+03 -0.13688074383E+03  0.22729533981E+03  0.46999998093E+01 0. -1.
</event>
<event>
 5   0  0.1747544E-02  0.7993363E+03  0.7818609E-02  0.9560978E-01
       -2   -1    0    0    0  501  0.00000000000E+00  0.00000000000E+00  0.27433679416E+03  0.27433679418E+03  0.25500000920E-02 0. -1.
        2   -1    0    0  501    0  0.00000000000E+00  0.00000000000E+00 -0.58225740365E+03  0.58225740366E+03  0.25500000920E-02 0.  1.
    10030    2    1    2    0    0  0.00000000000E+00  0.00000000000E+00 -0.30792060949E+03  0.85659419783E+03  0.79933629845E+03 0.  0.
        1    1    3    3  502    0  0.34723716132E+03  0.18122989256E+03 -0.68789443376E+02  0.39768066046E+03  0.50400001928E-02 0. -1.
       -1    1    3    3    0  502 -0.34723716132E+03 -0.18122989256E+03 -0.23913116611E+03  0.45891353738E+03  0.50400001928E-02 0.  1.
</event>
<event>
 5   0  0.1025900E-02  0.7987640E+03  0.7818609E-02  0.9561808E-01
        1   -1    0    0  501    0  0.00000000000E+00  0.00000000000E+00  0.99844393741E+03  0.99844393743E+03  0.50400001928E-02 0. -1.
       -1   -1    0    0    0  501  0.00000000000E+00  0.00000000000E+00 -0.15975457964E+03  0.15975457972E+03  0.50400001928E-02 0.  1.
    10030    2    1    2    0    0  0.00000000000E+00  0.00000000000E+00  0.83868935777E+03  0.11581985172E+04  0.79876402416E+03 0.  0.
        1    1    3    3  502    0 -0.27359812725E+03  0.28622282285E+03  0.34363151412E+03  0.52427288418E+03  0.50400001928E-02 0.  1.
       -1    1    3    3    0  502  0.27359812725E+03 -0.28622282285E+03  0.49505784365E+03  0.63392563297E+03  0.50400001928E-02 0. -1.
</event>
<event>
 5   0  0.1038912E-02  0.7957733E+03  0.7818609E-02  0.9566155E-01
        1   -1    0    0  501    0  0.00000000000E+00  0.00000000000E+00  0.17318181116E+03  0.17318181123E+03  0.50400001928E-02 0.  1.
       -1   -1    0    0    0  501  0.00000000000E+00  0.00000000000E+00 -0.91414783500E+03  0.91414783502E+03  0.50400001928E-02 0. -1.
    10030    2    1    2    0    0  0.00000000000E+00  0.00000000000E+00 -0.74096602384E+03  0.10873296463E+04  0.79577327872E+03 0.  0.
        2    1    3    3  502    0  0.19109336578E+03 -0.34171333660E+03 -0.27358453149E+03  0.47763288699E+03  0.25500000920E-02 0. -1.
       -2    1    3    3    0  502 -0.19109336578E+03  0.34171333660E+03 -0.46738149235E+03  0.60969675926E+03  0.25500000920E-02 0.  1.
</event>
<event>
 5   0  0.1731337E-02  0.8012869E+03  0.7818609E-02  0.9558156E-01
       -2   -1    0    0    0  501  0.00000000000E+00  0.00000000000E+00  0.63549249458E+02  0.63549249510E+02  0.25500000920E-02 0.  1.
        2   -1    0    0  501    0  0.00000000000E+00  0.00000000000E+00 -0.25258390962E+04  0.25258390962E+04  0.25500000920E-02 0. -1.
    10030    2    1    2    0    0  0.00000000000E+00  0.00000000000E+00 -0.24622898467E+04  0.25893883457E+04  0.80128691212E+03 0.  0.
        4    1    3    3  502    0  0.34561836470E+03  0.17403677273E+03 -0.15665515965E+04  0.16136376203E+04  0.12699999809E+01 0. -1.
       -4    1    3    3    0  502 -0.34561836470E+03 -0.17403677273E+03 -0.89573825026E+03  0.97575072542E+03  0.12699999809E+01 0.  1.
</event>
<event>
 5   0  0.1817089E-02  0.7974281E+03  0.7818609E-02  0.9563747E-01
        2   -1    0    0  501    0  0.00000000000E+00  0.00000000000E+00  0.89576875886E+03  0.89576875887E+03  0.25500000920E-02 0. -1.
       -2   -1    0    0    0  501  0.00000000000E+00  0.00000000000E+00 -0.17747089983E+03  0.17747089985E+03  0.25500000920E-02 0.  1.
    10030    2    1    2    0    0  0.00000000000E+00  0.00000000000E+00  0.71829785903E+03  0.10732396587E+04  0.79742808500E+03 0.  0.
        2    1    3    3  502    0  0.33577551035E+03  0.65389965899E+02  0.83484502293E+02  0.35212313631E+03  0.25500000920E-02 0. -1.
       -2    1    3    3    0  502 -0.33577551035E+03 -0.65389965899E+02  0.63481335674E+03  0.72111652241E+03  0.25500000920E-02 0.  1.
</event>
<event>
 5   0  0.1731337E-02  0.7822445E+03  0.7818609E-02  0.9586079E-01
        2   -1    0    0  501    0  0.00000000000E+00  0.00000000000E+00  0.24498238828E+03  0.24498238830E+03  0.25500000920E-02 0.  1.
       -2   -1    0    0    0  501  0.00000000000E+00  0.00000000000E+00 -0.62443929602E+03  0.62443929603E+03  0.25500000920E-02 0. -1.
    10030    2    1    2    0    0  0.00000000000E+00  0.00000000000E+00 -0.37945690774E+03  0.86942168433E+03  0.78224453999E+03 0.  0.
        4    1    3    3  502    0  0.66278407770E+02  0.50616637610E+02 -0.61444024294E+03  0.62007523446E+03  0.12699999809E+01 0. -1.
       -4    1    3    3    0  502 -0.66278407770E+02 -0.50616637610E+02  0.23498333520E+03  0.24934644987E+03  0.12699999809E+01 0.  1.
</event>
<event>
 5   0  0.1038912E-02  0.7986385E+03  0.7818609E-02  0.9561990E-01
        1   -1    0    0  501    0  0.00000000000E+00  0.00000000000E+00  0.60207935562E+03  0.60207935564E+03  0.50400001928E-02 0.  1.
       -1   -1    0    0    0  501  0.00000000000E+00  0.00000000000E+00 -0.26484192990E+03  0.26484192995E+03  0.50400001928E-02 0. -1.
    10030    2    1    2    0    0  0.00000000000E+00  0.00000000000E+00  0.33723742572E+03  0.86692128558E+03  0.79863848774E+03 0.  0.
        2    1    3    3  502    0  0.63376518758E+02 -0.18740773690E+02 -0.25886405295E+03  0.26716735887E+03  0.25500000920E-02 0. -1.
       -2    1    3    3    0  502 -0.63376518758E+02  0.18740773690E+02  0.59610147867E+03  0.59975392672E+03  0.25500000920E-02 0.  1.
</event>
<event>
 5   0  0.1747544E-02  0.8000317E+03  0.7818609E-02  0.9559971E-01
       -2   -1    0    0    0  501  0.00000000000E+00  0.00000000000E+00  0.90110569902E+02  0.90110569938E+02  0.25500000920E-02 0.  1.
        2   -1    0    0  501    0  0.00000000000E+00  0.00000000000E+00 -0.17757371445E+04  0.17757371445E+04  0.25500000920E-02 0. -1.
    10030    2    1    2    0    0  0.00000000000E+00  0.00000000000E+00 -0.16856265746E+04  0.18658477144E+04  0.80003171467E+03 0.  0.
        1    1    3    3  502    0 -0.22173350955E+02 -0.28646487452E+03 -0.14919029100E+04  0.15193182928E+04  0.50400001928E-02 0. -1.
       -1    1    3    3    0  502  0.22173350955E+02  0.28646487452E+03 -0.19372366456E+03  0.34652942164E+03  0.50400001928E-02 0.  1.
</event>
<event>
 5   0  0.1146083E-02  0.7990685E+03  0.7818609E-02  0.9561366E-01
       -1   -1    0    0    0  501  0.00000000000E+00  0.00000000000E+00  0.14072486136E+03  0.14072486145E+03  0.50400001928E-02 0. -1.
        1   -1    0    0  501    0  0.00000000000E+00  0.00000000000E+00 -0.11343241950E+04  0.11343241951E+04  0.50400001928E-02 0.  1.
    10030    2    1    2    0    0  0.00000000000E+00  0.00000000000E+00 -0.99359933368E+03  0.12750490565E+04  0.79906849557E+03 0.  0.
        4    1    3    3  502    0 -0.20595016836E+03 -0.21313151781E+03 -0.69274967763E+02  0.30437008689E+03  0.12699999809E+01 0. -1.
       -4    1    3    3    0  502  0.20595016836E+03  0.21313151781E+03 -0.92432436592E+03  0.97067896962E+03  0.12699999809E+01 0.  1.
</event>
<event>
 5   0  0.1038912E-02  0.8398957E+03  0.7818609E-02  0.9504000E-01
       -1   -1    0    0    0  501  0.00000000000E+00  0.00000000000E+00  0.11755660192E+03  0.11755660203E+03  0.50400001928E-02 0.  1.
        1   -1    0    0  501    0  0.00000000000E+00  0.00000000000E+00 -0.15001812133E+04  0.15001812133E+04  0.50400001928E-02 0. -1.
    10030    2    1    2    0    0  0.00000000000E+00  0.00000000000E+00 -0.13826246114E+04  0.16177378154E+04  0.83989572162E+03 0.  0.
        2    1    3    3  502    0 -0.15721915998E+03 -0.38936326878E+03 -0.67998476071E+03  0.79918764639E+03  0.25500000920E-02 0.  1.
       -2    1    3    3    0  502  0.15721915998E+03  0.38936326878E+03 -0.70263985068E+03  0.81855016897E+03  0.25500000920E-02 0. -1.
</event>
<event>
 5   0  0.1025900E-02  0.8585051E+03  0.7818609E-02  0.9478992E-01
       -1   -1    0    0    0  501  0.00000000000E+00  0.00000000000E+00  0.10948313036E+03  0.10948313048E+03  0.50400001928E-02 0.  1.
        1   -1    0    0  501    0  0.00000000000E+00  0.00000000000E+00 -0.16829785901E+04  0.16829785901E+04  0.50400001928E-02 0. -1.
    10030    2    1    2    0    0  0.00000000000E+00  0.00000000000E+00 -0.15734954598E+04  0.17924617206E+04  0.85850512984E+03 0.  0.
        1    1    3    3  502    0 -0.27094405866E+03 -0.31268473618E+03 -0.54800319122E+03  0.68665123955E+03  0.50400001928E-02 0.  1.
       -1    1    3    3    0  502  0.27094405866E+03  0.31268473618E+03 -0.10254922686E+04  0.11058104811E+04  0.50400001928E-02 0. -1.
</event>
<event>
 5   0  0.1747544E-02  0.7708728E+03  0.7818609E-02  0.9603162E-01
        2   -1    0    0  501    0  0.00000000000E+00  0.00000000000E+00  0.37389282783E+03  0.37389282784E+03  0.25500000920E-02 0.  1.
       -2   -1    0    0    0  501  0.00000000000E+00  0.00000000000E+00 -0.39733631715E+03  0.39733631716E+03  0.25500000920E-02 0. -1.
    10030    2    1    2    0    0  0.00000000000E+00  0.00000000000E+00 -0.23443489320E+02  0.77122914500E+03  0.77087275014E+03 0.  0.
        1    1    3    3  502    0  0.36444257345E+03  0.11091963776E+03 -0.70397336080E+02  0.38739816770E+03  0.50400001928E-02 0.  1.
       -1    1    3    3    0  502 -0.36444257345E+03 -0.11091963776E+03  0.46953846760E+02  0.38383097730E+03  0.50400001928E-02 0. -1.
</event>
<event>
 5   0  0.1030323E-02  0.7995029E+03  0.7818609E-02  0.9560737E-01
       -1   -1    0    0    0  501  0.00000000000E+00  0.00000000000E+00  0.56722461093E+03  0.56722461095E+03  0.50400001928E-02 0.  1.
        1   -1    0    0  501    0  0.00000000000E+00  0.00000000000E+00 -0.28172473767E+03  0.28172473772E+03  0.50400001928E-02 0. -1.
    10030    2    1    2    0    0  0.00000000000E+00  0.00000000000E+00  0.28549987326E+03  0.84894934867E+03  0.79950285739E+03 0.  0.
        3    1    3    3  502    0  0.18235919300E+03 -0.32889985053E+03 -0.11731987566E+01  0.37607362782E+03  0.10100000352E+00 0. -1.
       -3    1    3    3    0  502 -0.18235919300E+03  0.32889985053E+03  0.28667307202E+03  0.47287572085E+03  0.10100000352E+00 0.  1.
</event>
<event>
 5   0  0.1049780E-02  0.7841182E+03  0.7818609E-02  0.9583294E-01
        1   -1    0    0  501    0  0.00000000000E+00  0.00000000000E+00  0.81651532879E+03  0.81651532881E+03  0.50400001928E-02 0. -1.
       -1   -1    0    0    0  501  0.00000000000E+00  0.00000000000E+00 -0.18825161186E+03  0.18825161193E+03  0.50400001928E-02 0.  1.
    10030    2    1    2    0    0  0.00000000000E+00  0.00000000000E+00  0.62826371693E+03  0.10047669407E+04  0.78411817170E+03 0.  0.
        5    1    3    3  502    0  0.24633271149E+03 -0.30074944135E+03  0.24932043810E+03  0.46185798908E+03  0.46999998093E+01 0. -1.
       -5    1    3    3    0  502 -0.24633271149E+03  0.30074944135E+03  0.37894327883E+03  0.54290895166E+03  0.46999998093E+01 0.  1.
</event>
<event>
 5   0  0.1030323E-02  0.7988829E+03  0.7818609E-02  0.9561635E-01
       -1   -1    0    0    0  501  0.00000000000E+00  0.00000000000E+00  0.36046932738E+03  0.36046932741E+03  0.50400001928E-02 0. -1.
        1   -1    0    0  501    0  0.00000000000E+00  0.00000000000E+00 -0.44262709392E+03  0.44262709395E+03  0.50400001928E-02 0.  1.
    10030    2    1    2    0    0  0.00000000000E+00  0.00000000000E+00 -0.82157766541E+02  0.80309642136E+03  0.79888294725E+03 0.  0.
        3    1    3    3  502    0 -0.18063681827E+03  0.20235689724E+03  0.25368339982E+03  0.37139366112E+03  0.10100000352E+00 0. -1.
       -3    1    3    3    0  502  0.18063681827E+03 -0.20235689724E+03 -0.33584116636E+03  0.43170276024E+03  0.10100000352E+00 0.  1.
</event>
<event>
 5   0  0.1817089E-02  0.8012446E+03  0.7818609E-02  0.9558217E-01
        2   -1    0    0  501    0  0.00000000000E+00  0.00000000000E+00  0.79976879063E+03  0.79976879063E+03  0.25500000920E-02 0. -1.
       -2   -1    0    0    0  501  0.00000000000E+00  0.00000000000E+00 -0.20068079358E+03  0.20068079359E+03  0.25500000920E-02 0.  1.
    10030    2    1    2    0    0  0.00000000000E+00  0.00000000000E+00  0.59908799705E+03  0.10004495842E+04  0.80124462080E+03 0.  0.
        2    1    3    3  502    0 -0.36124093403E+03  0.12594127001E+03  0.44803009824E+03  0.58914105683E+03  0.25500000920E-02 0. -1.
       -2    1    3    3    0  502  0.36124093403E+03 -0.12594127001E+03  0.15105789881E+03  0.41130852739E+03  0.25500000920E-02 0.  1.
</event>
<event>
 5   0  0.1731337E-02  0.7950003E+03  0.7818609E-02  0.9567282E-01
        2   -1    0    0  501    0  0.00000000000E+00  0.00000000000E+00  0.17557880233E+04  0.17557880233E+04  0.25500000920E-02 0. -1.
       -2   -1    0    0    0  501  0.00000000000E+00  0.00000000000E+00 -0.89991711168E+02  0.89991711204E+02  0.25500000920E-02 0.  1.
    10030    2    1    2    0    0  0.00000000000E+00  0.00000000000E+00  0.16657963121E+04  0.18457797345E+04  0.79500029861E+03 0.  0.
        4    1    3    3  502    0 -0.32930706358E+03  0.22153357692E+03  0.78179425170E+03  0.87676914448E+03  0.12699999809E+01 0.  1.
       -4    1    3    3    0  502  0.32930706358E+03 -0.22153357692E+03  0.88400206040E+03  0.96901058999E+03  0.12699999809E+01 0. -1.
</event>
<event>
 5   0  0.1731337E-02  0.7871607E+03  0.7818609E-02  0.9578790E-01
       -2   -1    0    0    0  501  0.00000000000E+00  0.00000000000E+00  0.10202600702E+03  0.10202600706E+03  0.25500000920E-02 0. -1.
        2   -1    0    0  501    0  0.00000000000E+00  0.00000000000E+00 -0.15182941954E+04  0.15182941954E+04  0.25500000920E-02 0.  1.
    10030    2    1    2    0    0  0.00000000000E+00  0.00000000000E+00 -0.14162681884E+04  0.16203202025E+04  0.78716070602E+03 0.  0.
        4    1    3    3  502    0 -0.31181188094E+03 -0.99211852353E+02 -0.25793265159E+03  0.41665394081E+03  0.12699999809E+01 0. -1.
       -4    1    3    3    0  502  0.31181188094E+03  0.99211852353E+02 -0.11583355368E+04  0.12036662617E+04  0.12699999809E+01 0.  1.
</event>
<event>
 5   0  0.6872500E-03  0.7887768E+03  0.7818609E-02  0.9576406E-01
       -3   -1    0    0    0  501  0.00000000000E+00  0.00000000000E+00  0.71216674750E+03  0.71216675466E+03  0.10100000352E+00 0.  1.
        3   -1    0    0  501    0  0.00000000000E+00  0.00000000000E+00 -0.21840699837E+03  0.21840702173E+03  0.10100000352E+00 0. -1.
    10030    2    1    2    0    0  0.00000000000E+00  0.00000000000E+00  0.49375974913E+03  0.93057377639E+03  0.78877681472E+03 0.  0.
        2    1    3    3  502    0  0.18661240928E+03 -0.15107260658E+03 -0.12224824739E+03  0.26942857635E+03  0.25500000920E-02 0. -1.
       -2    1    3    3    0  502 -0.18661240928E+03  0.15107260658E+03  0.61600799652E+03  0.66114520004E+03  0.25500000920E-02 0.  1.
</event>
<event>
 5   0  0.1030323E-02  0.8033219E+03  0.7818609E-02  0.9555221E-01
       -1   -1    0    0    0  501  0.00000000000E+00  0.00000000000E+00  0.94184166457E+02  0.94184166592E+02  0.50400001928E-02 0. -1.
        1   -1    0    0  501    0  0.00000000000E+00  0.00000000000E+00 -0.17129365582E+04  0.17129365582E+04  0.50400001928E-02 0.  1.
    10030    2    1    2    0    0  0.00000000000E+00  0.00000000000E+00 -0.16187523917E+04  0.18071207248E+04  0.80332185842E+03 0.  0.
        3    1    3    3  502    0 -0.28211458935E+03  0.15260077876E+03 -0.13532668323E+04  0.13907576240E+04  0.10100000352E+00 0.  1.
       -3    1    3    3    0  502  0.28211458935E+03 -0.15260077876E+03 -0.26548555944E+03  0.41636310076E+03  0.10100000352E+00 0. -1.
</event>
<event>
 5   0  0.1146083E-02  0.7978782E+03  0.7818609E-02  0.9563093E-01
        1   -1    0    0  501    0  0.00000000000E+00  0.00000000000E+00  0.77405607944E+03  0.77405607946E+03  0.50400001928E-02 0.  1.
       -1   -1    0    0    0  501  0.00000000000E+00  0.00000000000E+00 -0.20560834781E+03  0.20560834787E+03  0.50400001928E-02 0. -1.
    10030    2    1    2    0    0  0.00000000000E+00  0.00000000000E+00  0.56844773163E+03  0.97966442733E+03  0.79787816524E+03 0.  0.
        4    1    3    3  502    0  0.24502205601E+03 -0.20637705171E+03 -0.76903313641E+01  0.32044976127E+03  0.12699999809E+01 0. -1.
       -4    1    3    3    0  502 -0.24502205601E+03  0.20637705171E+03  0.57613806300E+03  0.65921466605E+03  0.12699999809E+01 0.  1.
</event>
<event>
 5   0  0.1673727E-02  0.7476383E+03  0.7818609E-02  0.9639063E-01
       -2   -1    0    0    0  501  0.00000000000E+00  0.00000000000E+00  0.36385095818E+03  0.36385095819E+03  0.25500000920E-02 0.  1.
        2   -1    0    0  501    0  0.00000000000E+00  0.00000000000E+00 -0.38406047870E+03  0.38406047870E+03  0.25500000920E-02 0. -1.
    10030    2    1    2    0    0  0.00000000000E+00  0.00000000000E+00 -0.20209520513E+02  0.74791143690E+03  0.74763834353E+03 0.  0.
        5    1    3    3  502    0 -0.61011472515E+01 -0.25588639390E+03 -0.28260766282E+03  0.38131909428E+03  0.46999998093E+01 0. -1.
       -5    1    3    3    0  502  0.61011472515E+01  0.25588639390E+03  0.26239814231E+03  0.36659234262E+03  0.46999998093E+01 0.  1.
</event>
<event>
 5   0  0.1030323E-02  0.8012129E+03  0.7818609E-02  0.9558263E-01
       -1   -1    0    0    0  501  0.00000000000E+00  0.00000000000E+00  0.75591257949E+03  0.75591257951E+03  0.50400001928E-02 0. -1.
        1   -1    0    0  501    0  0.00000000000E+00  0.00000000000E+00 -0.21230697380E+03  0.21230697386E+03  0.50400001928E-02 0.  1.
    10030    2    1    2    0    0  0.00000000000E+00  0.00000000000E+00  0.54360560569E+03  0.96821955337E+03  0.80121286122E+03 0.  0.
        3    1    3    3  502    0  0.26346574568E+03 -0.39814167965E+02  0.63329906597E+03  0.68707138223E+03  0.10100000352E+00 0. -1.
       -3    1    3    3    0  502 -0.26346574568E+03  0.39814167965E+02 -0.89693460277E+02  0.28114817114E+03  0.10100000352E+00 0.  1.
</event>
<event>
 5   0  0.1038912E-02  0.8819379E+03  0.7818609E-02  0.9448446E-01
       -1   -1    0    0    0  501  0.00000000000E+00  0.00000000000E+00  0.50714536973E+03  0.50714536976E+03  0.50400001928E-02 0.  1.
        1   -1    0    0  501    0  0.00000000000E+00  0.00000000000E+00 -0.38342777765E+03  0.38342777768E+03  0.50400001928E-02 0. -1.
    10030    2    1    2    0    0  0.00000000000E+00  0.00000000000E+00  0.12371759208E+03  0.89057314744E+03  0.88193791638E+03 0.  0.
        2    1    3    3  502    0  0.23612876244E+03 -0.25351411807E+03 -0.21362627503E+03  0.40701644426E+03  0.25500000920E-02 0.  1.
       -2    1    3    3    0  502 -0.23612876244E+03  0.25351411807E+03  0.33734386711E+03  0.48355670318E+03  0.25500000920E-02 0. -1.
</event>
<event>
 5   0  0.1673727E-02  0.7963225E+03  0.7818609E-02  0.9565355E-01
        2   -1    0    0  501    0  0.00000000000E+00  0.00000000000E+00  0.11862962539E+04  0.11862962539E+04  0.25500000920E-02 0.  1.
       -2   -1    0    0    0  501  0.00000000000E+00  0.00000000000E+00 -0.13363643021E+03  0.13363643024E+03  0.25500000920E-02 0. -1.
    10030    2    1    2    0    0  0.00000000000E+00  0.00000000000E+00  0.10526598237E+04  0.13199326842E+04  0.79632253909E+03 0.  0.
        5    1    3    3  502    0 -0.25572669661E+03  0.18184138201E+03  0.12015640153E+03  0.33603881085E+03  0.46999998093E+01 0. -1.
       -5    1    3    3    0  502  0.25572669661E+03 -0.18184138201E+03  0.93250342218E+03  0.98389387331E+03  0.46999998093E+01 0.  1.
</event>
<event>
 5   0  0.1030323E-02  0.7760272E+03  0.7818609E-02  0.9595380E-01
       -1   -1    0    0    0  501  0.00000000000E+00  0.00000000000E+00  0.45817375133E+03  0.45817375136E+03  0.50400001928E-02 0. -1.
        1   -1    0    0  501    0  0.00000000000E+00  0.00000000000E+00 -0.32859708858E+03  0.32859708862E+03  0.50400001928E-02 0.  1.
    10030    2    1    2    0    0  0.00000000000E+00  0.00000000000E+00  0.12957666275E+03  0.78677083998E+03  0.77602721802E+03 0.  0.
        3    1    3    3  502    0 -0.11376099529E+03 -0.17824795095E+03 -0.26504729264E+03  0.33906337697E+03  0.10100000352E+00 0.  1.
       -3    1    3    3    0  502  0.11376099529E+03  0.17824795095E+03  0.39462395538E+03  0.44770746301E+03  0.10100000352E+00 0. -1.
</event>
<event>
 5   0  0.1030323E-02  0.7980175E+03  0.7818609E-02  0.9562891E-01
        1   -1    0    0  501    0  0.00000000000E+00  0.00000000000E+00  0.52181397352E+03  0.52181397355E+03  0.50400001928E-02 0.  1.
       -1   -1    0    0    0  501  0.00000000000E+00  0.00000000000E+00 -0.30510488579E+03  0.30510488583E+03  0.50400001928E-02 0. -1.
    10030    2    1    2    0    0  0.00000000000E+00  0.00000000000E+00  0.21670908773E+03  0.82691885938E+03  0.79801752568E+03 0.  0.
        3    1    3    3  502    0  0.31317532841E+03 -0.16166179548E+03  0.30219809530E+03  0.46425964874E+03  0.10100000352E+00 0. -1.
       -3    1    3    3    0  502 -0.31317532841E+03  0.16166179548E+03 -0.85489007571E+02  0.36265921064E+03  0.10100000352E+00 0.  1.
</event>
<event>
 5   0  0.1030323E-02  0.7997027E+03  0.7818609E-02  0.9560448E-01
        1   -1    0    0  501    0  0.00000000000E+00  0.00000000000E+00  0.53586732198E+03  0.53586732200E+03  0.50400001928E-02 0. -1.
       -1   -1    0    0    0  501  0.00000000000E+00  0.00000000000E+00 -0.29835949320E+03  0.29835949325E+03  0.50400001928E-02 0.  1.
    10030    2    1    2    0    0  0.00000000000E+00  0.00000000000E+00  0.23750782877E+03  0.83422681524E+03  0.79970270135E+03 0.  0.
        3    1    3    3  502    0 -0.25872672700E+03 -0.24899591590E+02 -0.19820809036E+03  0.32687301236E+03  0.10100000352E+00 0.  1.
       -3    1    3    3    0  502  0.25872672700E+03  0.24899591590E+02  0.43571591913E+03  0.50735380289E+03  0.10100000352E+00 0. -1.
</event>
<event>
 5   0  0.6872500E-03  0.8058929E+03  0.7818609E-02  0.9551526E-01
       -4   -1    0    0    0  501  0.00000000000E+00  0.00000000000E+00  0.11405787954E+04  0.11405795024E+04  0.12699999809E+01 0.  1.
        4   -1    0    0  501    0  0.00000000000E+00  0.00000000000E+00 -0.14235032283E+03  0.14235598797E+03  0.12699999809E+01 0. -1.
    10030    2    1    2    0    0  0.00000000000E+00  0.00000000000E+00  0.99822847253E+03  0.12829354904E+04  0.80589291417E+03 0.  0.
        4    1    3    3  502    0 -0.21225043387E+03  0.22868028740E+02 -0.44927536120E+02  0.21815886372E+03  0.12699999809E+01 0. -1.
       -4    1    3    3    0  502  0.21225043387E+03 -0.22868028740E+02  0.10431560086E+04  0.10647766267E+04  0.12699999809E+01 0.  1.
</event>
<event>
 5   0  0.1146083E-02  0.7870352E+03  0.7818609E-02  0.9578975E-01
       -1   -1    0    0    0  501  0.00000000000E+00  0.00000000000E+00  0.10357616088E+03  0.10357616100E+03  0.50400001928E-02 0.  1.
        1   -1    0    0  501    0  0.00000000000E+00  0.00000000000E+00 -0.14950938600E+04  0.14950938600E+04  0.50400001928E-02 0. -1.
    10030    2    1    2    0    0  0.00000000000E+00  0.00000000000E+00 -0.13915176992E+04  0.15986700210E+04  0.78703515113E+03 0.  0.
        4    1    3    3  502    0 -0.10547519768E+03  0.26494499496E+03 -0.14494148804E+03  0.31989141210E+03  0.12699999809E+01 0.  1.
       -4    1    3    3    0  502  0.10547519768E+03 -0.26494499496E+03 -0.12465762111E+04  0.12787786089E+04  0.12699999809E+01 0. -1.
</event>
<event>
 5   0  0.1038912E-02  0.7933208E+03  0.7818609E-02  0.9569736E-01
        1   -1    0    0  501    0  0.00000000000E+00  0.00000000000E+00  0.58011788656E+03  0.58011788658E+03  0.50400001928E-02 0.  1.
       -1   -1    0    0    0  501  0.00000000000E+00  0.00000000000E+00 -0.27121985865E+03  0.27121985870E+03  0.50400001928E-02 0. -1.
    10030    2    1    2    0    0  0.00000000000E+00  0.00000000000E+00  0.30889802791E+03  0.85133774527E+03  0.79332084612E+03 0.  0.
        2    1    3    3  502    0 -0.18067227992E+03  0.32270404785E+03  0.57855797113E+00  0.36983876212E+03  0.25500000920E-02 0. -1.
       -2    1    3    3    0  502  0.18067227992E+03 -0.32270404785E+03  0.30831946994E+03  0.48149898315E+03  0.25500000920E-02 0.  1.
</event>
<event>
 5   0  0.1818665E-02  0.8039848E+03  0.7818609E-02  0.9554267E-01
       -2   -1    0    0    0  501  0.00000000000E+00  0.00000000000E+00  0.35708227385E+03  0.35708227386E+03  0.25500000920E-02 0.  1.
        2   -1    0    0  501    0  0.00000000000E+00  0.00000000000E+00 -0.45255083586E+03  0.45255083587E+03  0.25500000920E-02 0. -1.
    10030    2    1    2    0    0  0.00000000000E+00  0.00000000000E+00 -0.95468562013E+02  0.80963310973E+03  0.80398477973E+03 0.  0.
        3    1    3    3  502    0  0.19991005837E+03  0.17920050425E+03 -0.34903692445E+03  0.44034490685E+03  0.10100000352E+00 0. -1.
       -3    1    3    3    0  502 -0.19991005837E+03 -0.17920050425E+03  0.25356836243E+03  0.36928820288E+03  0.10100000352E+00 0.  1.
</event>
<event>
 5   0  0.1731337E-02  0.8028208E+03  0.7818609E-02  0.9555943E-01
       -2   -1    0    0    0  501  0.00000000000E+00  0.00000000000E+00  0.11761085992E+03  0.11761085995E+03  0.25500000920E-02 0.  1.
        2   -1    0    0  501    0  0.00000000000E+00  0.00000000000E+00 -0.13700292308E+04  0.13700292309E+04  0.25500000920E-02 0. -1.
    10030    2    1    2    0    0  0.00000000000E+00  0.00000000000E+00 -0.12524183709E+04  0.14876400908E+04  0.80282081681E+03 0.  0.
        4    1    3    3  502    0 -0.27916251011E+03  0.28221642436E+03 -0.73662915017E+03  0.83678069709E+03  0.12699999809E+01 0. -1.
       -4    1    3    3    0  502  0.27916251011E+03 -0.28221642436E+03 -0.51578922076E+03  0.65085939371E+03  0.12699999809E+01 0.  1.
</event>
<event>
 5   0  0.1731337E-02  0.7928067E+03  0.7818609E-02  0.9570488E-01
       -2   -1    0    0    0  501  0.00000000000E+00  0.00000000000E+00  0.17762382631E+03  0.17762382633E+03  0.25500000920E-02 0.  1.
        2   -1    0    0  501    0  0.00000000000E+00  0.00000000000E+00 -0.88465400114E+03  0.88465400114E+03  0.25500000920E-02 0. -1.
    10030    2    1    2    0    0  0.00000000000E+00  0.00000000000E+00 -0.70703017483E+03  0.10622778275E+04  0.79280673220E+03 0.  0.
        4    1    3    3  502    0  0.93304256512E+02  0.34567647351E+03 -0.12559067744E+03  0.37943713548E+03  0.12699999809E+01 0. -1.
       -4    1    3    3    0  502 -0.93304256512E+02 -0.34567647351E+03 -0.58143949739E+03  0.68284069199E+03  0.12699999809E+01 0.  1.
</event>
<event>
 5   0  0.1049780E-02  0.7988246E+03  0.7818609E-02  0.9561720E-01
        1   -1    0    0  501    0  0.00000000000E+00  0.00000000000E+00  0.94478470741E+03  0.94478470742E+03  0.50400001928E-02 0. -1.
       -1   -1    0    0    0  501  0.00000000000E+00  0.00000000000E+00 -0.16885349580E+03  0.16885349587E+03  0.50400001928E-02 0.  1.
    10030    2    1    2    0    0  0.00000000000E+00  0.00000000000E+00  0.77593121161E+03  0.11136382033E+04  0.79882463826E+03 0.  0.
        5    1    3    3  502    0  0.35534905601E+03  0.18212003015E+03  0.39941534297E+03  0.56479674502E+03  0.46999998093E+01 0. -1.
       -5    1    3    3    0  502 -0.35534905601E+03 -0.18212003015E+03  0.37651586864E+03  0.54884145827E+03  0.46999998093E+01 0.  1.
</event>
<event>
 5   0  0.1030323E-02  0.8194374E+03  0.7818609E-02  0.9532301E-01
       -1   -1    0    0    0  501  0.00000000000E+00  0.00000000000E+00  0.10185916162E+03  0.10185916175E+03  0.50400001928E-02 0. -1.
        1   -1    0    0  501    0  0.00000000000E+00  0.00000000000E+00 -0.16480541938E+04  0.16480541938E+04  0.50400001928E-02 0.  1.
    10030    2    1    2    0    0  0.00000000000E+00  0.00000000000E+00 -0.15461950321E+04  0.17499133555E+04  0.81943741335E+03 0.  0.
        3    1    3    3  502    0  0.39292709555E+03 -0.91451238281E+01 -0.52594952610E+03  0.65658072612E+03  0.10100000352E+00 0. -1.
       -3    1    3    3    0  502 -0.39292709555E+03  0.91451238281E+01 -0.10202455060E+04  0.10933326294E+04  0.10100000352E+00 0.  1.
</event>
<event>
 5   0  0.1731337E-02  0.8025511E+03  0.7818609E-02  0.9556332E-01
        2   -1    0    0  501    0  0.00000000000E+00  0.00000000000E+00  0.81536173715E+03  0.81536173715E+03  0.25500000920E-02 0.  1.
       -2   -1    0    0    0  501  0.00000000000E+00  0.00000000000E+00 -0.19748544413E+03  0.19748544415E+03  0.25500000920E-02 0. -1.
    10030    2    1    2    0    0  0.00000000000E+00  0.00000000000E+00  0.61787629302E+03  0.10128471813E+04  0.80255111936E+03 0.  0.
        4    1    3    3  502    0 -0.15489594122E+03  0.69939206897E+02 -0.14981827129E+03  0.22656427913E+03  0.12699999809E+01 0. -1.
       -4    1    3    3    0  502  0.15489594122E+03 -0.69939206897E+02  0.76769456431E+03  0.78628290217E+03  0.12699999809E+01 0.  1.
</event>
<event>
 5   0  0.1673727E-02  0.7960241E+03  0.7818609E-02  0.9565790E-01
       -2   -1    0    0    0  501  0.00000000000E+00  0.00000000000E+00  0.33931604158E+03  0.33931604159E+03  0.25500000920E-02 0. -1.
        2   -1    0    0  501    0  0.00000000000E+00  0.00000000000E+00 -0.46686144642E+03  0.46686144642E+03  0.25500000920E-02 0.  1.
    10030    2    1    2    0    0  0.00000000000E+00  0.00000000000E+00 -0.12754540484E+03  0.80617748801E+03  0.79602406489E+03 0.  0.
        5    1    3    3  502    0  0.30574354065E+03 -0.17557658967E+03 -0.25074946034E+03  0.43267035183E+03  0.46999998093E+01 0.  1.
       -5    1    3    3    0  502 -0.30574354065E+03  0.17557658967E+03  0.12320405550E+03  0.37350713618E+03  0.46999998093E+01 0. -1.
</event>
<event>
 5   0  0.1049780E-02  0.8052014E+03  0.7818609E-02  0.9552519E-01
       -1   -1    0    0    0  501  0.00000000000E+00  0.00000000000E+00  0.66905756562E+03  0.66905756564E+03  0.50400001928E-02 0.  1.
        1   -1    0    0  501    0  0.00000000000E+00  0.00000000000E+00 -0.24226215034E+03  0.24226215039E+03  0.50400001928E-02 0. -1.
    10030    2    1    2    0    0  0.00000000000E+00  0.00000000000E+00  0.42679541528E+03  0.91131971603E+03  0.80520140234E+03 0.  0.
        5    1    3    3  502    0  0.30695246370E+02 -0.69282374848E+02 -0.23408645437E+03  0.24609104765E+03  0.46999998093E+01 0. -1.
       -5    1    3    3    0  502 -0.30695246370E+02  0.69282374848E+02  0.66088186965E+03  0.66522866839E+03  0.46999998093E+01 0.  1.
</event>
<event>
 5   0  0.1030323E-02  0.7048396E+03  0.7818609E-02  0.9708991E-01
        1   -1    0    0  501    0  0.00000000000E+00  0.00000000000E+00  0.19069838638E+04  0.19069838638E+04  0.50400001928E-02 0. -1.
       -1   -1    0    0    0  501  0.00000000000E+00  0.00000000000E+00 -0.65128879858E+02  0.65128880053E+02  0.50400001928E-02 0.  1.
    10030    2    1    2    0    0  0.00000000000E+00  0.00000000000E+00  0.18418549839E+04  0.19721127439E+04  0.70483962191E+03 0.  0.
        3    1    3    3  502    0  0.29787706068E+03 -0.15494954256E+03  0.12204478379E+04  0.12657934425E+04  0.10100000352E+00 0. -1.
       -3    1    3    3    0  502 -0.29787706068E+03  0.15494954256E+03  0.62140714608E+03  0.70631930132E+03  0.10100000352E+00 0.  1.
</event>
<event>
 5   0  0.1817089E-02  0.7592426E+03  0.7818609E-02  0.9620961E-01
       -2   -1    0    0    0  501  0.00000000000E+00  0.00000000000E+00  0.85705940695E+02  0.85705940733E+02  0.25500000920E-02 0. -1.
        2   -1    0    0  501    0  0.00000000000E+00  0.00000000000E+00 -0.16814742602E+04  0.16814742602E+04  0.25500000920E-02 0.  1.
    10030    2    1    2    0    0  0.00000000000E+00  0.00000000000E+00 -0.15957683195E+04  0.17671802010E+04  0.75924260488E+03 0.  0.
        2    1    3    3  502    0 -0.41596377908E+01 -0.34674020932E+03 -0.43830672367E+03  0.55889074010E+03  0.25500000920E-02 0.  1.
       -2    1    3    3    0  502  0.41596377908E+01  0.34674020932E+03 -0.11574615959E+04  0.12082894609E+04  0.25500000920E-02 0. -1.
</event>
<event>
 5   0  0.1673727E-02  0.7964393E+03  0.7818609E-02  0.9565185E-01
        2   -1    0    0  501    0  0.00000000000E+00  0.00000000000E+00  0.98898333076E+03  0.98898333076E+03  0.25500000920E-02 0.  1.
       -2   -1    0    0    0  501  0.00000000000E+00  0.00000000000E+00 -0.16034537357E+03  0.16034537359E+03  0.25500000920E-02 0. -1.
    10030    2    1    2    0    0  0.00000000000E+00  0.00000000000E+00  0.82863795719E+03  0.11493287044E+04  0.79643933011E+03 0.  0.
        5    1    3    3  502    0  0.24227219546E+03 -0.26571385056E+03  0.66115442372E+03  0.75262668639E+03  0.46999998093E+01 0. -1.
       -5    1    3    3    0  502 -0.24227219546E+03  0.26571385056E+03  0.16748353347E+03  0.39670201796E+03  0.46999998093E+01 0.  1.
</event>
<event>
 5   0  0.1747544E-02  0.6982069E+03  0.7818609E-02  0.9720304E-01
        2   -1    0    0  501    0  0.00000000000E+00  0.00000000000E+00  0.35335688304E+03  0.35335688305E+03  0.25500000920E-02 0.  1.
       -2   -1    0    0    0  501  0.00000000000E+00  0.00000000000E+00 -0.34490124259E+03  0.34490124260E+03  0.25500000920E-02 0. -1.
    10030    2    1    2    0    0  0.00000000000E+00  0.00000000000E+00  0.84556404479E+01  0.69825812565E+03  0.69820692647E+03 0.  0.
        1    1    3    3  502    0 -0.20586249232E+03  0.30451896488E+02 -0.27608997655E+03  0.34573452087E+03  0.50400001928E-02 0. -1.
       -1    1    3    3    0  502  0.20586249232E+03 -0.30451896488E+02  0.28454561700E+03  0.35252360477E+03  0.50400001928E-02 0.  1.
</event>
<event>
 5   0  0.1731337E-02  0.7967797E+03  0.7818609E-02  0.9564690E-01
        2   -1    0    0  501    0  0.00000000000E+00  0.00000000000E+00  0.13834875715E+04  0.13834875715E+04  0.25500000920E-02 0.  1.
       -2   -1    0    0    0  501  0.00000000000E+00  0.00000000000E+00 -0.11472056228E+03  0.11472056231E+03  0.25500000920E-02 0. -1.
    10030    2    1    2    0    0  0.00000000000E+00  0.00000000000E+00  0.12687670092E+04  0.14982081338E+04  0.79677969885E+03 0.  0.
        4    1    3    3  502    0 -0.18041668395E+03 -0.78061191269E+02  0.12859362392E+04  0.13008756104E+04  0.12699999809E+01 0.  1.
       -4    1    3    3    0  502  0.18041668395E+03  0.78061191269E+02 -0.17169230030E+02  0.19733252340E+03  0.12699999809E+01 0. -1.
</event>
<event>
 5   0  0.1673727E-02  0.7979200E+03  0.7818609E-02  0.9563033E-01
       -2   -1    0    0    0  501  0.00000000000E+00  0.00000000000E+00  0.13351621348E+03  0.13351621351E+03  0.25500000920E-02 0.  1.
        2   -1    0    0  501    0  0.00000000000E+00  0.00000000000E+00 -0.11921329954E+04  0.11921329954E+04  0.25500000920E-02 0. -1.
    10030    2    1    2    0    0  0.00000000000E+00  0.00000000000E+00 -0.10586167819E+04  0.13256492089E+04  0.79792000483E+03 0.  0.
        5    1    3    3  502    0 -0.37866572799E+02 -0.65930490754E+02 -0.11799385860E+04  0.11823949694E+04  0.46999998093E+01 0. -1.
       -5    1    3    3    0  502  0.37866572799E+02  0.65930490754E+02  0.12132180417E+03  0.14325423942E+03  0.46999998093E+01 0.  1.
</event>
<event>
 5   0  0.1818665E-02  0.7877037E+03  0.7818609E-02  0.9577988E-01
       -2   -1    0    0    0  501  0.00000000000E+00  0.00000000000E+00  0.67732403907E+03  0.67732403908E+03  0.25500000920E-02 0. -1.
        2   -1    0    0  501    0  0.00000000000E+00  0.00000000000E+00 -0.22901785134E+03  0.22901785135E+03  0.25500000920E-02 0.  1.
    10030    2    1    2    0    0  0.00000000000E+00  0.00000000000E+00  0.44830618774E+03  0.90634189043E+03  0.78770374151E+03 0.  0.
        3    1    3    3  502    0 -0.32611119795E+03  0.16850283658E+03  0.38840306608E+03  0.53441432551E+03  0.10100000352E+00 0. -1.
       -3    1    3    3    0  502  0.32611119795E+03 -0.16850283658E+03  0.59903121654E+02  0.37192756492E+03  0.10100000352E+00 0.  1.
</event>
<event>
 5   0  0.1038912E-02  0.7972451E+03  0.7818609E-02  0.9564013E-01
       -1   -1    0    0    0  501  0.00000000000E+00  0.00000000000E+00  0.67781489461E+03  0.67781489463E+03  0.50400001928E-02 0. -1.
        1   -1    0    0  501    0  0.00000000000E+00  0.00000000000E+00 -0.23442967045E+03  0.23442967050E+03  0.50400001928E-02 0.  1.
    10030    2    1    2    0    0  0.00000000000E+00  0.00000000000E+00  0.44338522416E+03  0.91224456513E+03  0.79724506245E+03 0.  0.
        2    1    3    3  502    0  0.23883267541E+03 -0.88679133621E+02  0.57250228608E+03  0.62662899961E+03  0.25500000920E-02 0. -1.
       -2    1    3    3    0  502 -0.23883267541E+03  0.88679133621E+02 -0.12911706192E+03  0.28561556552E+03  0.25500000920E-02 0.  1.
</event>
<event>
 5   0  0.1673727E-02  0.8048567E+03  0.7818609E-02  0.9553014E-01
        2   -1    0    0  501    0  0.00000000000E+00  0.00000000000E+00  0.72894591628E+03  0.72894591629E+03  0.25500000920E-02 0.  1.
       -2   -1    0    0    0  501  0.00000000000E+00  0.00000000000E+00 -0.22216817097E+03  0.22216817099E+03  0.25500000920E-02 0. -1.
    10030    2    1    2    0    0  0.00000000000E+00  0.00000000000E+00  0.50677774531E+03  0.95111408727E+03  0.80485671015E+03 0.  0.
        5    1    3    3  502    0 -0.32025745189E+03 -0.16177087622E+03  0.38095974895E+02  0.36084351897E+03  0.46999998093E+01 0. -1.
       -5    1    3    3    0  502  0.32025745189E+03  0.16177087622E+03  0.46868177042E+03  0.59027056830E+03  0.46999998093E+01 0.  1.
</event>
<event>
 5   0  0.1049780E-02  0.7957844E+03  0.7818609E-02  0.9566139E-01
        1   -1    0    0  501    0  0.00000000000E+00  0.00000000000E+00  0.78809834516E+03  0.78809834517E+03  0.50400001928E-02 0. -1.
       -1   -1    0    0    0  501  0.00000000000E+00  0.00000000000E+00 -0.20088637443E+03  0.20088637449E+03  0.50400001928E-02 0.  1.
    10030    2    1    2    0    0  0.00000000000E+00  0.00000000000E+00  0.58721197073E+03  0.98898471966E+03  0.79578444139E+03 0.  0.
        5    1    3    3  502    0  0.39336830569E+02 -0.37239430924E+03  0.12654005550E+03  0.39529657655E+03  0.46999998093E+01 0.  1.
       -5    1    3    3    0  502 -0.39336830569E+02  0.37239430924E+03  0.46067191523E+03  0.59368814311E+03  0.46999998093E+01 0. -1.
</event>
<event>
 5   0  0.1049780E-02  0.7873956E+03  0.7818609E-02  0.9578443E-01
        1   -1    0    0  501    0  0.00000000000E+00  0.00000000000E+00  0.10145344782E+04  0.10145344782E+04  0.50400001928E-02 0. -1.
       -1   -1    0    0    0  501  0.00000000000E+00  0.00000000000E+00 -0.15277742854E+03  0.15277742863E+03  0.50400001928E-02 0.  1.
    10030    2    1    2    0    0  0.00000000000E+00  0.00000000000E+00  0.86175704961E+03  0.11673119068E+04  0.78739562813E+03 0.  0.
        5    1    3    3  502    0  0.30569190271E+03  0.30676034878E+02  0.79578770447E+03  0.85304672737E+03  0.46999998093E+01 0. -1.
       -5    1    3    3    0  502 -0.30569190271E+03 -0.30676034878E+02  0.65969345138E+02  0.31426517942E+03  0.46999998093E+01 0.  1.
</event>
<event>
 5   0  0.1049780E-02  0.7982670E+03  0.7818609E-02  0.9562529E-01
       -1   -1    0    0    0  501  0.00000000000E+00  0.00000000000E+00  0.55720636047E+03  0.55720636049E+03  0.50400001928E-02 0.  1.
        1   -1    0    0  501    0  0.00000000000E+00  0.00000000000E+00 -0.28590400747E+03  0.28590400751E+03  0.50400001928E-02 0. -1.
    10030    2    1    2    0    0  0.00000000000E+00  0.00000000000E+00  0.27130235300E+03  0.84311036800E+03  0.79826695152E+03 0.  0.
        5    1    3    3  502    0  0.83914149606E+02 -0.97143715272E+02  0.53477804125E+03  0.54998920837E+03  0.46999998093E+01 0.  1.
       -5    1    3    3    0  502 -0.83914149606E+02  0.97143715272E+02 -0.26347568826E+03  0.29312115963E+03  0.46999998093E+01 0. -1.
</event>
<event>
 5   0  0.1025900E-02  0.8418310E+03  0.7818609E-02  0.9501367E-01
        1   -1    0    0  501    0  0.00000000000E+00  0.00000000000E+00  0.17622810996E+04  0.17622810996E+04  0.50400001928E-02 0. -1.
       -1   -1    0    0    0  501  0.00000000000E+00  0.00000000000E+00 -0.10053440053E+03  0.10053440065E+03  0.50400001928E-02 0.  1.
    10030    2    1    2    0    0  0.00000000000E+00  0.00000000000E+00  0.16617466991E+04  0.18628155003E+04  0.84183103775E+03 0.  0.
        1    1    3    3  502    0 -0.32894923975E+03  0.15759265936E+03  0.12957055990E+04  0.13460668809E+04  0.50400001928E-02 0. -1.
       -1    1    3    3    0  502  0.32894923975E+03 -0.15759265936E+03  0.36604110008E+03  0.51674861934E+03  0.50400001928E-02 0.  1.
</event>
<event>
 5   0  0.1818665E-02  0.8003113E+03  0.7818609E-02  0.9559567E-01
        2   -1    0    0  501    0  0.00000000000E+00  0.00000000000E+00  0.43094718874E+03  0.43094718875E+03  0.25500000920E-02 0. -1.
       -2   -1    0    0    0  501  0.00000000000E+00  0.00000000000E+00 -0.37156420945E+03  0.37156420946E+03  0.25500000920E-02 0.  1.
    10030    2    1    2    0    0  0.00000000000E+00  0.00000000000E+00  0.59382979296E+02  0.80251139821E+03  0.80031131819E+03 0.  0.
        3    1    3    3  502    0  0.18502316060E+03 -0.45632982896E+02 -0.32314026210E+03  0.37514740873E+03  0.10100000352E+00 0.  1.
       -3    1    3    3    0  502 -0.18502316060E+03  0.45632982896E+02  0.38252324140E+03  0.42736398947E+03  0.10100000352E+00 0. -1.
</event>
<event>
 5   0  0.6872500E-03  0.8016442E+03  0.7818609E-02  0.9557640E-01
        4   -1    0    0  501    0  0.00000000000E+00  0.00000000000E+00  0.11085924875E+04  0.11085932150E+04  0.12699999809E+01 0. -1.
       -4   -1    0    0    0  501  0.00000000000E+00  0.00000000000E+00 -0.14491745090E+03  0.14492301569E+03  0.12699999809E+01 0.  1.
    10030    2    1    2    0    0  0.00000000000E+00  0.00000000000E+00  0.96367503661E+03  0.12535162307E+04  0.80164416316E+03 0.  0.
        4    1    3    3  502    0 -0.37233871323E+03  0.50090205440E+01  0.71374536789E+03  0.80504364524E+03  0.12699999809E+01 0. -1.
       -4    1    3    3    0  502  0.37233871323E+03 -0.50090205440E+01  0.24992966872E+03  0.44847258541E+03  0.12699999809E+01 0.  1.
</event>
<event>
 5   0  0.1146083E-02  0.7882636E+03  0.7818609E-02  0.9577162E-01
       -1   -1    0    0    0  501  0.00000000000E+00  0.00000000000E+00  0.62656880480E+03  0.62656880482E+03  0.50400001928E-02 0. -1.
        1   -1    0    0  501    0  0.00000000000E+00  0.00000000000E+00 -0.24792152102E+03  0.24792152107E+03  0.50400001928E-02 0.  1.
    10030    2    1    2    0    0  0.00000000000E+00  0.00000000000E+00  0.37864728378E+03  0.87449032589E+03  0.78826363899E+03 0.  0.
        4    1    3    3  502    0 -0.17962287873E+03  0.16838150056E+03 -0.15211129629E+03  0.28940657845E+03  0.12699999809E+01 0.  1.
       -4    1    3    3    0  502  0.17962287873E+03 -0.16838150056E+03  0.53075858007E+03  0.58508374743E+03  0.12699999809E+01 0. -1.
</event>
<event>
 5   0  0.1731337E-02  0.7999164E+03  0.7818609E-02  0.9560138E-01
       -2   -1    0    0    0  501  0.00000000000E+00  0.00000000000E+00  0.17918196723E+03  0.17918196725E+03  0.25500000920E-02 0.  1.
        2   -1    0    0  501    0  0.00000000000E+00  0.00000000000E+00 -0.89276035223E+03  0.89276035223E+03  0.25500000920E-02 0. -1.
    10030    2    1    2    0    0  0.00000000000E+00  0.00000000000E+00 -0.71357838499E+03  0.10719423195E+04  0.79991638610E+03 0.  0.
        4    1    3    3  502    0  0.37516124305E+03  0.13730336399E+03 -0.38245319920E+03  0.55305536299E+03  0.12699999809E+01 0.  1.
       -4    1    3    3    0  502 -0.37516124305E+03 -0.13730336399E+03 -0.33112518579E+03  0.51888695649E+03  0.12699999809E+01 0. -1.
</event>
<event>
 5   0  0.1817089E-02  0.7974160E+03  0.7818609E-02  0.9563765E-01
        2   -1    0    0  501    0  0.00000000000E+00  0.00000000000E+00  0.11165666481E+04  0.11165666481E+04  0.25500000920E-02 0. -1.
       -2   -1    0    0    0  501  0.00000000000E+00  0.00000000000E+00 -0.14237220280E+03  0.14237220282E+03  0.25500000920E-02 0.  1.
    10030    2    1    2    0    0  0.00000000000E+00  0.00000000000E+00  0.97419444532E+03  0.12589388510E+04  0.79741595992E+03 0.  0.
        2    1    3    3  502    0  0.31259363035E+03 -0.19125444327E+03  0.73509535587E+03  0.82137581048E+03  0.25500000920E-02 0. -1.
       -2    1    3    3    0  502 -0.31259363035E+03  0.19125444327E+03  0.23909908945E+03  0.43756304048E+03  0.25500000920E-02 0.  1.
</event>
<event>
 5   0  0.1025900E-02  0.7638820E+03  0.7818609E-02  0.9613820E-01
       -1   -1    0    0    0  501  0.00000000000E+00  0.00000000000E+00  0.15082694262E+03  0.15082694271E+03  0.50400001928E-02 0. -1.
        1   -1    0    0  501    0  0.00000000000E+00  0.00000000000E+00 -0.96719419984E+03  0.96719419985E+03  0.50400001928E-02 0.  1.
    10030    2    1    2    0    0  0.00000000000E+00  0.00000000000E+00 -0.81636725722E+03  0.11180211426E+04  0.76388204361E+03 0.  0.
        1    1    3    3  502    0  0.26552075439E+03  0.24762091075E+03 -0.23462730934E+03  0.43228157579E+03  0.50400001928E-02 0.  1.
       -1    1    3    3    0  502 -0.26552075439E+03 -0.24762091075E+03 -0.58173994787E+03  0.68573956677E+03  0.50400001928E-02 0. -1.
</event>
<event>
 5   0  0.1673727E-02  0.7976450E+03  0.7818609E-02  0.9563432E-01
       -2   -1    0    0    0  501  0.00000000000E+00  0.00000000000E+00  0.91577472508E+02  0.91577472543E+02  0.25500000920E-02 0. -1.
        2   -1    0    0  501    0  0.00000000000E+00  0.00000000000E+00 -0.17368832530E+04  0.17368832530E+04  0.25500000920E-02 0.  1.
    10030    2    1    2    0    0  0.00000000000E+00  0.00000000000E+00 -0.16453057805E+04  0.18284607256E+04  0.79764497965E+03 0.  0.
        5    1    3    3  502    0 -0.15188642265E+03  0.20442474422E+02 -0.16666201791E+04  0.16736583557E+04  0.46999998093E+01 0.  1.
       -5    1    3    3    0  502  0.15188642265E+03 -0.20442474422E+02  0.21314398561E+02  0.15480236991E+03  0.46999998093E+01 0. -1.
</event>
<event>
 5   0  0.1030323E-02  0.8023171E+03  0.7818609E-02  0.9556669E-01
       -1   -1    0    0    0  501  0.00000000000E+00  0.00000000000E+00  0.51974428205E+03  0.51974428207E+03  0.50400001928E-02 0.  1.
        1   -1    0    0  501    0  0.00000000000E+00  0.00000000000E+00 -0.30962956054E+03  0.30962956058E+03  0.50400001928E-02 0. -1.
    10030    2    1    2    0    0  0.00000000000E+00  0.00000000000E+00  0.21011472151E+03  0.82937384265E+03  0.80231712849E+03 0.  0.
        3    1    3    3  502    0 -0.21605298133E+03 -0.39739497429E+02  0.45204063654E+03  0.50259214646E+03  0.10100000352E+00 0.  1.
       -3    1    3    3    0  502  0.21605298133E+03  0.39739497429E+02 -0.24192591503E+03  0.32678169619E+03  0.10100000352E+00 0. -1.
</event>
<event>
 5   0  0.1731337E-02  0.8123796E+03  0.7818609E-02  0.9542269E-01
        2   -1    0    0  501    0  0.00000000000E+00  0.00000000000E+00  0.16930753249E+04  0.16930753249E+04  0.25500000920E-02 0.  1.
       -2   -1    0    0    0  501  0.00000000000E+00  0.00000000000E+00 -0.97449970222E+02  0.97449970256E+02  0.25500000920E-02 0. -1.
    10030    2    1    2    0    0  0.00000000000E+00  0.00000000000E+00  0.15956253547E+04  0.17905252951E+04  0.81237956652E+03 0.  0.
        4    1    3    3  502    0 -0.18570620463E+03  0.12186467271E+03  0.15473541483E+04  0.15632160011E+04  0.12699999809E+01 0.  1.
       -4    1    3    3    0  502  0.18570620463E+03 -0.12186467271E+03  0.48271206345E+02  0.22730929404E+03  0.12699999809E+01 0. -1.
</event>
<event>
 5   0  0.6872500E-03  0.7378175E+03  0.7818609E-02  0.9654659E-01
       -3   -1    0    0    0  501  0.00000000000E+00  0.00000000000E+00  0.54249616648E+03  0.54249617588E+03  0.10100000352E+00 0.  1.
        3   -1    0    0  501    0  0.00000000000E+00  0.00000000000E+00 -0.25086563928E+03  0.25086565961E+03  0.10100000352E+00 0. -1.
    10030    2    1    2    0    0  0.00000000000E+00  0.00000000000E+00  0.29163052720E+03  0.79336183549E+03  0.73781748259E+03 0.  0.
        1    1    3    3  502    0 -0.29826995293E+03 -0.21450258908E+03  0.10987230370E+03  0.38346870627E+03  0.50400001928E-02 0.  1.
       -1    1    3    3    0  502  0.29826995293E+03  0.21450258908E+03  0.18175822350E+03  0.40989312922E+03  0.50400001928E-02 0. -1.
</event>
<event>
 5   0  0.6872500E-03  0.8049405E+03  0.7818609E-02  0.9552893E-01
        4   -1    0    0  501    0  0.00000000000E+00  0.00000000000E+00  0.54637176374E+03  0.54637323975E+03  0.12699999809E+01 0. -1.
       -4   -1    0    0    0  501  0.00000000000E+00  0.00000000000E+00 -0.29646579453E+03  0.29646851473E+03  0.12699999809E+01 0.  1.
    10030    2    1    2    0    0  0.00000000000E+00  0.00000000000E+00  0.24990596921E+03  0.84284175449E+03  0.80494051312E+03 0.  0.
        4    1    3    3  502    0  0.29906986546E+02 -0.39748060477E+03  0.66696652730E+02  0.40414764060E+03  0.12699999809E+01 0. -1.
       -4    1    3    3    0  502 -0.29906986546E+02  0.39748060477E+03  0.18320931648E+03  0.43869411389E+03  0.12699999809E+01 0.  1.
</event>
<event>
 5   0  0.1025900E-02  0.8030474E+03  0.7818609E-02  0.9555617E-01
       -1   -1    0    0    0  501  0.00000000000E+00  0.00000000000E+00  0.27758037633E+03  0.27758037638E+03  0.50400001928E-02 0.  1.
        1   -1    0    0  501    0  0.00000000000E+00  0.00000000000E+00 -0.58080939622E+03  0.58080939625E+03  0.50400001928E-02 0. -1.
    10030    2    1    2    0    0  0.00000000000E+00  0.00000000000E+00 -0.30322901989E+03  0.85838977262E+03  0.80304742278E+03 0.  0.
        1    1    3    3  502    0 -0.37004725180E+03 -0.70045724799E+02 -0.28088957169E+01  0.37662881202E+03  0.50400001928E-02 0. -1.
       -1    1    3    3    0  502  0.37004725180E+03  0.70045724799E+02 -0.30042012418E+03  0.48176096060E+03  0.50400001928E-02 0.  1.
</event>
<event>
 5   0  0.1025900E-02  0.6491250E+03  0.7818609E-02  0.9808423E-01
        1   -1    0    0  501    0  0.00000000000E+00  0.00000000000E+00  0.47598489875E+03  0.47598489878E+03  0.50400001928E-02 0. -1.
       -1   -1    0    0    0  501  0.00000000000E+00  0.00000000000E+00 -0.22131122326E+03  0.22131122332E+03  0.50400001928E-02 0.  1.
    10030    2    1    2    0    0  0.00000000000E+00  0.00000000000E+00  0.25467367549E+03  0.69729612210E+03  0.64912495015E+03 0.  0.
        1    1    3    3  502    0 -0.28421971310E+03  0.52427903592E+02 -0.31309270458E+02  0.29070569453E+03  0.50400001928E-02 0. -1.
       -1    1    3    3    0  502  0.28421971310E+03 -0.52427903592E+02  0.28598294594E+03  0.40659042757E+03  0.50400001928E-02 0.  1.
</event>
<event>
 5   0  0.1030323E-02  0.8555349E+03  0.7818609E-02  0.9482938E-01
       -1   -1    0    0    0  501  0.00000000000E+00  0.00000000000E+00  0.31000032605E+03  0.31000032610E+03  0.50400001928E-02 0. -1.
        1   -1    0    0  501    0  0.00000000000E+00  0.00000000000E+00 -0.59027359789E+03  0.59027359791E+03  0.50400001928E-02 0.  1.
    10030    2    1    2    0    0  0.00000000000E+00  0.00000000000E+00 -0.28027327183E+03  0.90027392400E+03  0.85553493870E+03 0.  0.
        3    1    3    3  502    0  0.10695784776E+03  0.16935994652E+03 -0.53787329905E+03  0.57396033723E+03  0.10100000352E+00 0.  1.
       -3    1    3    3    0  502 -0.10695784776E+03 -0.16935994652E+03  0.25760002722E+03  0.32631358677E+03  0.10100000352E+00 0. -1.
</event>
<event>
 5   0  0.1731337E-02  0.7942447E+03  0.7818609E-02  0.9568385E-01
       -2   -1    0    0    0  501  0.00000000000E+00  0.00000000000E+00  0.36821180372E+03  0.36821180373E+03  0.25500000920E-02 0. -1.
        2   -1    0    0  501    0  0.00000000000E+00  0.00000000000E+00 -0.42830287625E+03  0.42830287626E+03  0.25500000920E-02 0.  1.
    10030    2    1    2    0    0  0.00000000000E+00  0.00000000000E+00 -0.60091072531E+02  0.79651467999E+03  0.79424473460E+03 0.  0.
        4    1    3    3  502    0  0.24675994769E+03 -0.28759736849E+03  0.89045037126E+02  0.38927284735E+03  0.12699999809E+01 0.  1.
       -4    1    3    3    0  502 -0.24675994769E+03  0.28759736849E+03 -0.14913610966E+03  0.40724183264E+03  0.12699999809E+01 0. -1.
</event>
<event>
 5   0  0.1747544E-02  0.7961929E+03  0.7818609E-02  0.9565544E-01
       -2   -1    0    0    0  501  0.00000000000E+00  0.00000000000E+00  0.98023998445E+02  0.98023998478E+02  0.25500000920E-02 0. -1.
        2   -1    0    0  501    0  0.00000000000E+00  0.00000000000E+00 -0.16167547885E+04  0.16167547885E+04  0.25500000920E-02 0.  1.
    10030    2    1    2    0    0  0.00000000000E+00  0.00000000000E+00 -0.15187307901E+04  0.17147787870E+04  0.79619286333E+03 0.  0.
        1    1    3    3  502    0 -0.30198558786E+03  0.72239545281E+02 -0.22280337902E+03  0.38217167989E+03  0.50400001928E-02 0. -1.
       -1    1    3    3    0  502  0.30198558786E+03 -0.72239545281E+02 -0.12959274111E+04  0.13326071071E+04  0.50400001928E-02 0.  1.
</event>
<event>
 5   0  0.6872500E-03  0.8111398E+03  0.7818609E-02  0.9544031E-01
       -4   -1    0    0    0  501  0.00000000000E+00  0.00000000000E+00  0.42410603073E+03  0.42410793226E+03  0.12699999809E+01 0.  1.
        4   -1    0    0  501    0  0.00000000000E+00  0.00000000000E+00 -0.38784009028E+03  0.38784216961E+03  0.12699999809E+01 0. -1.
    10030    2    1    2    0    0  0.00000000000E+00  0.00000000000E+00  0.36265940450E+02  0.81195010187E+03  0.81113978419E+03 0.  0.
        4    1    3    3  502    0  0.34584109517E+03 -0.20992194519E+03 -0.10391782765E+02  0.40470098620E+03  0.12699999809E+01 0. -1.
       -4    1    3    3    0  502 -0.34584109517E+03  0.20992194519E+03  0.46657723215E+02  0.40724911567E+03  0.12699999809E+01 0.  1.
</event>
<event>
 5   0  0.1038912E-02  0.8024520E+03  0.7818609E-02  0.9556475E-01
       -1   -1    0    0    0  501  0.00000000000E+00  0.00000000000E+00  0.76630977389E+02  0.76630977555E+02  0.50400001928E-02 0.  1.
        1   -1    0    0  501    0  0.00000000000E+00  0.00000000000E+00 -0.21007473424E+04  0.21007473424E+04  0.50400001928E-02 0. -1.
    10030    2    1    2    0    0  0.00000000000E+00  0.00000000000E+00 -0.20241163650E+04  0.21773783200E+04  0.80245204787E+03 0.  0.
        2    1    3    3  502    0 -0.12657522678E+02 -0.22907751814E+03 -0.11891632287E+03  0.25841403609E+03  0.25500000920E-02 0.  1.
       -2    1    3    3    0  502  0.12657522678E+02  0.22907751814E+03 -0.19052000422E+04  0.19189642839E+04  0.25500000920E-02 0. -1.
</event>
<event>
 5   0  0.1049780E-02  0.7453827E+03  0.7818609E-02  0.9642622E-01
        1   -1    0    0  501    0  0.00000000000E+00  0.00000000000E+00  0.10575364081E+04  0.10575364081E+04  0.50400001928E-02 0.  1.
       -1   -1    0    0    0  501  0.00000000000E+00  0.00000000000E+00 -0.13134191399E+03  0.13134191409E+03  0.50400001928E-02 0. -1.
    10030    2    1    2    0    0  0.00000000000E+00  0.00000000000E+00  0.92619449410E+03  0.11888783222E+04  0.74538273664E+03 0.  0.
        5    1    3    3  502    0  0.36918214855E+03 -0.33153611332E+02  0.40169228544E+03  0.54660168581E+03  0.46999998093E+01 0. -1.
       -5    1    3    3    0  502 -0.36918214855E+03  0.33153611332E+02  0.52450220865E+03  0.64227663638E+03  0.46999998093E+01 0.  1.
</event>
<event>
 5   0  0.1731337E-02  0.8013191E+03  0.7818609E-02  0.9558110E-01
       -2   -1    0    0    0  501  0.00000000000E+00  0.00000000000E+00  0.91866814553E+02  0.91866814589E+02  0.25500000920E-02 0. -1.
        2   -1    0    0  501    0  0.00000000000E+00  0.00000000000E+00 -0.17473999313E+04  0.17473999313E+04  0.25500000920E-02 0.  1.
    10030    2    1    2    0    0  0.00000000000E+00  0.00000000000E+00 -0.16555331167E+04  0.18392667459E+04  0.80131907621E+03 0.  0.
        4    1    3    3  502    0 -0.22888248375E+03 -0.76245905522E+02 -0.15619961105E+04  0.15805170330E+04  0.12699999809E+01 0.  1.
       -4    1    3    3    0  502  0.22888248375E+03  0.76245905522E+02 -0.93537006217E+02  0.25874971287E+03  0.12699999809E+01 0. -1.
</event>
<event>
 5   0  0.1030323E-02  0.7890371E+03  0.7818609E-02  0.9576022E-01
        1   -1    0    0  501    0  0.00000000000E+00  0.00000000000E+00  0.11146529192E+03  0.11146529203E+03  0.50400001928E-02 0. -1.
       -1   -1    0    0    0  501  0.00000000000E+00  0.00000000000E+00 -0.13963530293E+04  0.13963530293E+04  0.50400001928E-02 0.  1.
    10030    2    1    2    0    0  0.00000000000E+00  0.00000000000E+00 -0.12848877374E+04  0.15078183214E+04  0.78903712998E+03 0.  0.
        3    1    3    3  502    0 -0.12836134246E+03 -0.24144740521E+03 -0.11858806980E+04  0.12169989826E+04  0.10100000352E+00 0.  1.
       -3    1    3    3    0  502  0.12836134246E+03  0.24144740521E+03 -0.99007039455E+02  0.29081933874E+03  0.10100000352E+00 0. -1.
</event>
<event>
 5   0  0.1731337E-02  0.8215292E+03  0.7818609E-02  0.9529367E-01
        2   -1    0    0  501    0  0.00000000000E+00  0.00000000000E+00  0.23257074193E+03  0.23257074194E+03  0.25500000920E-02 0.  1.
       -2   -1    0    0    0  501  0.00000000000E+00  0.00000000000E+00 -0.72548920617E+03  0.72548920618E+03  0.25500000920E-02 0. -1.
    10030    2    1    2    0    0  0.00000000000E+00  0.00000000000E+00 -0.49291846425E+03  0.95805994812E+03  0.82152921543E+03 0.  0.
        4    1    3    3  502    0  0.18440922622E+03  0.73846474690E+02  0.17282799739E+03  0.26330817329E+03  0.12699999809E+01 0.  1.
       -4    1    3    3    0  502 -0.18440922622E+03 -0.73846474690E+02 -0.66574646164E+03  0.69475177483E+03  0.12699999809E+01 0. -1.
</event>
<event>
 5   0  0.1030323E-02  0.8037511E+03  0.7818609E-02  0.9554603E-01
        1   -1    0    0  501    0  0.00000000000E+00  0.00000000000E+00  0.41029382987E+03  0.41029382990E+03  0.50400001928E-02 0. -1.
       -1   -1    0    0    0  501  0.00000000000E+00  0.00000000000E+00 -0.39362998584E+03  0.39362998587E+03  0.50400001928E-02 0.  1.
    10030    2    1    2    0    0  0.00000000000E+00  0.00000000000E+00  0.16663844026E+02  0.80392381577E+03  0.80375109198E+03 0.  0.
        3    1    3    3  502    0  0.26771217998E+03 -0.90123009727E+02 -0.27758257426E+03  0.39603543267E+03  0.10100000352E+00 0.  1.
       -3    1    3    3    0  502 -0.26771217998E+03  0.90123009727E+02  0.29424641829E+03  0.40788838310E+03  0.10100000352E+00 0. -1.
</event>
<event>
 5   0  0.1025900E-02  0.7932686E+03  0.7818609E-02  0.9569812E-01
        1   -1    0    0  501    0  0.00000000000E+00  0.00000000000E+00  0.37066139323E+03  0.37066139326E+03  0.50400001928E-02 0. -1.
       -1   -1    0    0    0  501  0.00000000000E+00  0.00000000000E+00 -0.42442712422E+03  0.42442712425E+03  0.50400001928E-02 0.  1.
    10030    2    1    2    0    0  0.00000000000E+00  0.00000000000E+00 -0.53765730996E+02  0.79508851752E+03  0.79326855280E+03 0.  0.
        1    1    3    3  502    0  0.18934843820E+03  0.44107434799E+02 -0.37339333223E+03  0.42097610079E+03  0.50400001928E-02 0.  1.
       -1    1    3    3    0  502 -0.18934843820E+03 -0.44107434799E+02  0.31962760124E+03  0.37411241673E+03  0.50400001928E-02 0. -1.
</event>
<event>
 5   0  0.1747544E-02  0.8019819E+03  0.7818609E-02  0.9557153E-01
        2   -1    0    0  501    0  0.00000000000E+00  0.00000000000E+00  0.15582353434E+04  0.15582353434E+04  0.25500000920E-02 0.  1.
       -2   -1    0    0    0  501  0.00000000000E+00  0.00000000000E+00 -0.10318962577E+03  0.10318962580E+03  0.25500000920E-02 0. -1.
    10030    2    1    2    0    0  0.00000000000E+00  0.00000000000E+00  0.14550457176E+04  0.16614249692E+04  0.80198185012E+03 0.  0.
        1    1    3    3  502    0  0.13048784418E+02 -0.26396058115E+03  0.10276259832E+03  0.28355883131E+03  0.50400001928E-02 0. -1.
       -1    1    3    3    0  502 -0.13048784418E+02  0.26396058115E+03  0.13522831193E+04  0.13778661379E+04  0.50400001928E-02 0.  1.
</event>
<event>
 5   0  0.1747544E-02  0.7977446E+03  0.7818609E-02  0.9563287E-01
       -2   -1    0    0    0  501  0.00000000000E+00  0.00000000000E+00  0.23298162889E+03  0.23298162890E+03  0.25500000920E-02 0. -1.
        2   -1    0    0  501    0  0.00000000000E+00  0.00000000000E+00 -0.68288261561E+03  0.68288261562E+03  0.25500000920E-02 0.  1.
    10030    2    1    2    0    0  0.00000000000E+00  0.00000000000E+00 -0.44990098673E+03  0.91586424452E+03  0.79774458101E+03 0.  0.
        1    1    3    3  502    0  0.24505565491E+03  0.18536694348E+02 -0.58563949893E+03  0.63511377388E+03  0.50400001928E-02 0.  1.
       -1    1    3    3    0  502 -0.24505565491E+03 -0.18536694348E+02  0.13573851220E+03  0.28075047064E+03  0.50400001928E-02 0. -1.
</event>
<event>
 5   0  0.1731337E-02  0.7949434E+03  0.7818609E-02  0.9567365E-01
       -2   -1    0    0    0  501  0.00000000000E+00  0.00000000000E+00  0.14001735474E+03  0.14001735477E+03  0.25500000920E-02 0.  1.
        2   -1    0    0  501    0  0.00000000000E+00  0.00000000000E+00 -0.11283154484E+04  0.11283154484E+04  0.25500000920E-02 0. -1.
    10030    2    1    2    0    0  0.00000000000E+00  0.00000000000E+00 -0.98829809362E+03  0.12683328031E+04  0.79494338015E+03 0.  0.
        4    1    3    3  502    0  0.37515203943E+03 -0.58961523108E+02 -0.30694697428E+03  0.48829660229E+03  0.12699999809E+01 0. -1.
       -4    1    3    3    0  502 -0.37515203943E+03  0.58961523108E+02 -0.68135111934E+03  0.78003620083E+03  0.12699999809E+01 0.  1.
</event>
<event>
 5   0  0.1731337E-02  0.7715063E+03  0.7818609E-02  0.9602202E-01
        2   -1    0    0  501    0  0.00000000000E+00  0.00000000000E+00  0.49286256652E+03  0.49286256653E+03  0.25500000920E-02 0.  1.
       -2   -1    0    0    0  501  0.00000000000E+00  0.00000000000E+00 -0.30192087146E+03  0.30192087147E+03  0.25500000920E-02 0. -1.
    10030    2    1    2    0    0  0.00000000000E+00  0.00000000000E+00  0.19094169507E+03  0.79478343800E+03  0.77150630743E+03 0.  0.
        4    1    3    3  502    0 -0.21754088277E+03  0.27729626105E+03  0.25700294635E+03  0.43619878427E+03  0.12699999809E+01 0.  1.
       -4    1    3    3    0  502  0.21754088277E+03 -0.27729626105E+03 -0.66061251278E+02  0.35858465373E+03  0.12699999809E+01 0. -1.
</event>
<event>
 5   0  0.1025900E-02  0.8040521E+03  0.7818609E-02  0.9554170E-01
       -1   -1    0    0    0  501  0.00000000000E+00  0.00000000000E+00  0.70165374010E+03  0.70165374012E+03  0.50400001928E-02 0.  1.
        1   -1    0    0  501    0  0.00000000000E+00  0.00000000000E+00 -0.23034860304E+03  0.23034860309E+03  0.50400001928E-02 0. -1.
    10030    2    1    2    0    0  0.00000000000E+00  0.00000000000E+00  0.47130513706E+03  0.93200234321E+03  0.80405213483E+03 0.  0.
        1    1    3    3  502    0  0.12935669045E+03 -0.20787854700E+03  0.60526533684E+03  0.65291099827E+03  0.50400001928E-02 0.  1.
       -1    1    3    3    0  502 -0.12935669045E+03  0.20787854700E+03 -0.13396019978E+03  0.27909134493E+03  0.50400001928E-02 0. -1.
</event>
<event>
 5   0  0.1030323E-02  0.7779690E+03  0.7818609E-02  0.9592465E-01
        1   -1    0    0  501    0  0.00000000000E+00  0.00000000000E+00  0.31841892485E+03  0.31841892489E+03  0.50400001928E-02 0. -1.
       -1   -1    0    0    0  501  0.00000000000E+00  0.00000000000E+00 -0.47518829732E+03  0.47518829734E+03  0.50400001928E-02 0.  1.
    10030    2    1    2    0    0  0.00000000000E+00  0.00000000000E+00 -0.15676937246E+03  0.79360722224E+03  0.77796901419E+03 0.  0.
        3    1    3    3  502    0  0.12432668699E+02  0.14771268374E+03 -0.44524598289E+03  0.46927348494E+03  0.10100000352E+00 0.  1.
       -3    1    3    3    0  502 -0.12432668699E+02 -0.14771268374E+03  0.28847661042E+03  0.32433373730E+03  0.10100000352E+00 0. -1.
</event>
<event>
 5   0  0.1817089E-02  0.8053019E+03  0.7818609E-02  0.9552374E-01
       -2   -1    0    0    0  501  0.00000000000E+00  0.00000000000E+00  0.77279613177E+02  0.77279613219E+02  0.25500000920E-02 0. -1.
        2   -1    0    0  501    0  0.00000000000E+00  0.00000000000E+00 -0.20979372087E+04  0.20979372087E+04  0.25500000920E-02 0.  1.
    10030    2    1    2    0    0  0.00000000000E+00  0.00000000000E+00 -0.20206575955E+04  0.21752168219E+04  0.80530187136E+03 0.  0.
        2    1    3    3  502    0 -0.65928373094E+02 -0.36067885603E+02 -0.20788268284E+04  0.20801847094E+04  0.25500000920E-02 0.  1.
       -2    1    3    3    0  502  0.65928373094E+02  0.36067885603E+02  0.58169232874E+02  0.95032112522E+02  0.25500000920E-02 0. -1.
</event>
<event>
 5   0  0.6872500E-03  0.8166003E+03  0.7818609E-02  0.9536295E-01
       -3   -1    0    0    0  501  0.00000000000E+00  0.00000000000E+00  0.91846794479E+03  0.91846795034E+03  0.10100000352E+00 0.  1.
        3   -1    0    0  501    0  0.00000000000E+00  0.00000000000E+00 -0.18150768870E+03  0.18150771680E+03  0.10100000352E+00 0. -1.
    10030    2    1    2    0    0  0.00000000000E+00  0.00000000000E+00  0.73696025609E+03  0.10999756671E+04  0.81660029955E+03 0.  0.
        5    1    3    3  502    0 -0.54606725570E+02 -0.40457448115E+03  0.37514984653E+03  0.55445640282E+03  0.46999998093E+01 0.  1.
       -5    1    3    3    0  502  0.54606725570E+02  0.40457448115E+03  0.36181040956E+03  0.54551926432E+03  0.46999998093E+01 0. -1.
</event>
<event>
 5   0  0.1038912E-02  0.8015912E+03  0.7818609E-02  0.9557717E-01
       -1   -1    0    0    0  501  0.00000000000E+00  0.00000000000E+00  0.15082204796E+03  0.15082204805E+03  0.50400001928E-02 0. -1.
        1   -1    0    0  501    0  0.00000000000E+00  0.00000000000E+00 -0.10650770072E+04  0.10650770072E+04  0.50400001928E-02 0.  1.
    10030    2    1    2    0    0  0.00000000000E+00  0.00000000000E+00 -0.91425495927E+03  0.12158990553E+04  0.80159115646E+03 0.  0.
        2    1    3    3  502    0 -0.19547256625E+03 -0.10802026381E+03 -0.96194509049E+03  0.98753038368E+03  0.25500000920E-02 0.  1.
       -2    1    3    3    0  502  0.19547256625E+03  0.10802026381E+03  0.47690131229E+02  0.22836867161E+03  0.25500000920E-02 0. -1.
</event>
<event>
 5   0  0.1038912E-02  0.8029315E+03  0.7818609E-02  0.9555784E-01
       -1   -1    0    0    0  501  0.00000000000E+00  0.00000000000E+00  0.53856120752E+03  0.53856120755E+03  0.50400001928E-02 0.  1.
        1   -1    0    0  501    0  0.00000000000E+00  0.00000000000E+00 -0.29926915467E+03  0.29926915471E+03  0.50400001928E-02 0. -1.
    10030    2    1    2    0    0  0.00000000000E+00  0.00000000000E+00  0.23929205285E+03  0.83783036226E+03  0.80293152222E+03 0.  0.
        2    1    3    3  502    0  0.13024738816E+03 -0.46574010918E+02 -0.27361853213E+03  0.30659520829E+03  0.25500000920E-02 0. -1.
       -2    1    3    3    0  502 -0.13024738816E+03  0.46574010918E+02  0.51291058498E+03  0.53123515397E+03  0.25500000920E-02 0.  1.
</event>
<event>
 5   0  0.1146083E-02  0.7996815E+03  0.7818609E-02  0.9560478E-01
        1   -1    0    0  501    0  0.00000000000E+00  0.00000000000E+00  0.12556762909E+03  0.12556762919E+03  0.50400001928E-02 0. -1.
       -1   -1    0    0    0  501  0.00000000000E+00  0.00000000000E+00 -0.12731994639E+04  0.12731994639E+04  0.50400001928E-02 0.  1.
    10030    2    1    2    0    0  0.00000000000E+00  0.00000000000E+00 -0.11476318348E+04  0.13987670931E+04  0.79968153189E+03 0.  0.
        4    1    3    3  502    0 -0.81276743139E+02 -0.28967465966E+03 -0.11317428938E+03  0.32144571875E+03  0.12699999809E+01 0.  1.
       -4    1    3    3    0  502  0.81276743139E+02  0.28967465966E+03 -0.10344575454E+04  0.10773213743E+04  0.12699999809E+01 0. -1.
</event>
<event>
 5   0  0.1817089E-02  0.7984472E+03  0.7818609E-02  0.9562267E-01
       -2   -1    0    0    0  501  0.00000000000E+00  0.00000000000E+00  0.26652405814E+03  0.26652405815E+03  0.25500000920E-02 0. -1.
        2   -1    0    0  501    0  0.00000000000E+00  0.00000000000E+00 -0.59799281872E+03  0.59799281873E+03  0.25500000920E-02 0.  1.
    10030    2    1    2    0    0  0.00000000000E+00  0.00000000000E+00 -0.33146876059E+03  0.86451687688E+03  0.79844717493E+03 0.  0.
        2    1    3    3  502    0  0.35323431157E+03  0.17261874679E+02  0.34813832102E+02  0.35536524042E+03  0.25500000920E-02 0. -1.
       -2    1    3    3    0  502 -0.35323431157E+03 -0.17261874679E+02 -0.36628259269E+03  0.50915163645E+03  0.25500000920E-02 0.  1.
</event>
<event>
 5   0  0.1025900E-02  0.8087645E+03  0.7818609E-02  0.9547417E-01
       -1   -1    0    0    0  501  0.00000000000E+00  0.00000000000E+00  0.34161074881E+03  0.34161074885E+03  0.50400001928E-02 0.  1.
        1   -1    0    0  501    0  0.00000000000E+00  0.00000000000E+00 -0.47868814320E+03  0.47868814323E+03  0.50400001928E-02 0. -1.
    10030    2    1    2    0    0  0.00000000000E+00  0.00000000000E+00 -0.13707739439E+03  0.82029889207E+03  0.80876452709E+03 0.  0.
        1    1    3    3  502    0  0.33978669273E+03 -0.83518893939E+02 -0.27414786582E+03  0.44450810405E+03  0.50400001928E-02 0. -1.
       -1    1    3    3    0  502 -0.33978669273E+03  0.83518893939E+02  0.13707047144E+03  0.37579078803E+03  0.50400001928E-02 0.  1.
</event>
<event>
 5   0  0.1817089E-02  0.8012352E+03  0.7818609E-02  0.9558231E-01
       -2   -1    0    0    0  501  0.00000000000E+00  0.00000000000E+00  0.11677112071E+03  0.11677112074E+03  0.25500000920E-02 0.  1.
        2   -1    0    0  501    0  0.00000000000E+00  0.00000000000E+00 -0.13744360893E+04  0.13744360893E+04  0.25500000920E-02 0. -1.
    10030    2    1    2    0    0  0.00000000000E+00  0.00000000000E+00 -0.12576649686E+04  0.14912072100E+04  0.80123515277E+03 0.  0.
        2    1    3    3  502    0 -0.29923407837E+03  0.12564974920E+03 -0.10659638539E+04  0.11142745761E+04  0.25500000920E-02 0. -1.
       -2    1    3    3    0  502  0.29923407837E+03 -0.12564974920E+03 -0.19170111466E+03  0.37693263391E+03  0.25500000920E-02 0.  1.
</event>
<event>
 5   0  0.1817089E-02  0.7792152E+03  0.7818609E-02  0.9590599E-01
       -2   -1    0    0    0  501  0.00000000000E+00  0.00000000000E+00  0.53529827797E+03  0.53529827797E+03  0.25500000920E-02 0. -1.
        2   -1    0    0  501    0  0.00000000000E+00  0.00000000000E+00 -0.28356917356E+03  0.28356917357E+03  0.25500000920E-02 0.  1.
    10030    2    1    2    0    0  0.00000000000E+00  0.00000000000E+00  0.25172910441E+03  0.81886745154E+03  0.77921522136E+03 0.  0.
        2    1    3    3  502    0 -0.27877879499E+03 -0.23470745778E+03 -0.18947894391E+02  0.36491674391E+03  0.25500000920E-02 0. -1.
       -2    1    3    3    0  502  0.27877879499E+03  0.23470745778E+03  0.27067699880E+03  0.45395070764E+03  0.25500000920E-02 0.  1.
</event>
<event>
 5   0  0.1817089E-02  0.8092109E+03  0.7818609E-02  0.9546780E-01
        2   -1    0    0  501    0  0.00000000000E+00  0.00000000000E+00  0.20912687670E+04  0.20912687670E+04  0.25500000920E-02 0. -1.
       -2   -1    0    0    0  501  0.00000000000E+00  0.00000000000E+00 -0.78280506798E+02  0.78280506840E+02  0.25500000920E-02 0.  1.
    10030    2    1    2    0    0  0.00000000000E+00  0.00000000000E+00  0.20129882602E+04  0.21695492739E+04  0.80921092178E+03 0.  0.
        2    1    3    3  502    0  0.40303326042E+03  0.35614886371E+02  0.10033791964E+04  0.10818844860E+04  0.25500000920E-02 0. -1.
       -2    1    3    3    0  502 -0.40303326042E+03 -0.35614886371E+02  0.10096090638E+04  0.10876647879E+04  0.25500000920E-02 0.  1.
</event>
<event>
 5   0  0.1747544E-02  0.8000750E+03  0.7818609E-02  0.9559909E-01
       -2   -1    0    0    0  501  0.00000000000E+00  0.00000000000E+00  0.16034880650E+03  0.16034880652E+03  0.25500000920E-02 0.  1.
        2   -1    0    0  501    0  0.00000000000E+00  0.00000000000E+00 -0.99801177083E+03  0.99801177083E+03  0.25500000920E-02 0. -1.
    10030    2    1    2    0    0  0.00000000000E+00  0.00000000000E+00 -0.83766296433E+03  0.11583605774E+04  0.80007498733E+03 0.  0.
        1    1    3    3  502    0 -0.55176413175E+02  0.26099440314E+03  0.12771573806E+02  0.26706858326E+03  0.50400001928E-02 0.  1.
       -1    1    3    3    0  502  0.55176413175E+02 -0.26099440314E+03 -0.85043453814E+03  0.89129199409E+03  0.50400001928E-02 0. -1.
</event>
<event>
 5   0  0.1038912E-02  0.7999068E+03  0.7818609E-02  0.9560152E-01
       -1   -1    0    0    0  501  0.00000000000E+00  0.00000000000E+00  0.28906032060E+03  0.28906032065E+03  0.50400001928E-02 0. -1.
        1   -1    0    0  501    0  0.00000000000E+00  0.00000000000E+00 -0.55338873485E+03  0.55338873487E+03  0.50400001928E-02 0.  1.
    10030    2    1    2    0    0  0.00000000000E+00  0.00000000000E+00 -0.26432841424E+03  0.84244905551E+03  0.79990680742E+03 0.  0.
        2    1    3    3  502    0 -0.11230450877E+03 -0.10068657512E+03  0.25795857156E+03  0.29881886444E+03  0.25500000920E-02 0. -1.
       -2    1    3    3    0  502  0.11230450877E+03  0.10068657512E+03 -0.52228698581E+03  0.54363019107E+03  0.25500000920E-02 0.  1.
</event>
<event>
 5   0  0.1731337E-02  0.7952474E+03  0.7818609E-02  0.9566922E-01
       -2   -1    0    0    0  501  0.00000000000E+00  0.00000000000E+00  0.32579654341E+03  0.32579654342E+03  0.25500000920E-02 0.  1.
        2   -1    0    0  501    0  0.00000000000E+00  0.00000000000E+00 -0.48528627201E+03  0.48528627202E+03  0.25500000920E-02 0. -1.
    10030    2    1    2    0    0  0.00000000000E+00  0.00000000000E+00 -0.15948972860E+03  0.81108281544E+03  0.79524735773E+03 0.  0.
        4    1    3    3  502    0 -0.34993926836E+03 -0.77085332064E+02  0.96033568249E+02  0.37097668268E+03  0.12699999809E+01 0.  1.
       -4    1    3    3    0  502  0.34993926836E+03  0.77085332064E+02 -0.25552329685E+03  0.44010613276E+03  0.12699999809E+01 0. -1.
</event>
<event>
 5   0  0.1673727E-02  0.7893929E+03  0.7818609E-02  0.9575499E-01
       -2   -1    0    0    0  501  0.00000000000E+00  0.00000000000E+00  0.56694990014E+03  0.56694990014E+03  0.25500000920E-02 0.  1.
        2   -1    0    0  501    0  0.00000000000E+00  0.00000000000E+00 -0.27477788858E+03  0.27477788859E+03  0.25500000920E-02 0. -1.
    10030    2    1    2    0    0  0.00000000000E+00  0.00000000000E+00  0.29217201155E+03  0.84172778874E+03  0.78939292244E+03 0.  0.
        5    1    3    3  502    0  0.23764819010E+03 -0.31238957003E+03  0.10213047131E+03  0.40560649513E+03  0.46999998093E+01 0.  1.
       -5    1    3    3    0  502 -0.23764819010E+03  0.31238957003E+03  0.19004154025E+03  0.43612129361E+03  0.46999998093E+01 0. -1.
</event>
<event>
 5   0  0.1030323E-02  0.7990355E+03  0.7818609E-02  0.9561414E-01
        1   -1    0    0  501    0  0.00000000000E+00  0.00000000000E+00  0.33740163508E+03  0.33740163512E+03  0.50400001928E-02 0.  1.
       -1   -1    0    0    0  501  0.00000000000E+00  0.00000000000E+00 -0.47306950595E+03  0.47306950598E+03  0.50400001928E-02 0. -1.
    10030    2    1    2    0    0  0.00000000000E+00  0.00000000000E+00 -0.13566787087E+03  0.81047114110E+03  0.79903548067E+03 0.  0.
        3    1    3    3  502    0  0.28555257187E+03 -0.44865982625E+02  0.21190507880E+03  0.35840898471E+03  0.10100000352E+00 0. -1.
       -3    1    3    3    0  502 -0.28555257187E+03  0.44865982625E+02 -0.34757294966E+03  0.45206215639E+03  0.10100000352E+00 0.  1.
</event>
<event>
 5   0  0.1673727E-02  0.7922668E+03  0.7818609E-02  0.9571278E-01
       -2   -1    0    0    0  501  0.00000000000E+00  0.00000000000E+00  0.20780946207E+03  0.20780946209E+03  0.25500000920E-02 0.  1.
        2   -1    0    0  501    0  0.00000000000E+00  0.00000000000E+00 -0.75512291752E+03  0.75512291752E+03  0.25500000920E-02 0. -1.
    10030    2    1    2    0    0  0.00000000000E+00  0.00000000000E+00 -0.54731345545E+03  0.96293237962E+03  0.79226684217E+03 0.  0.
        5    1    3    3  502    0  0.24927565211E+03 -0.23806988367E+01  0.10047686531E+03  0.26881538074E+03  0.46999998093E+01 0. -1.
       -5    1    3    3    0  502 -0.24927565211E+03  0.23806988367E+01 -0.64779032076E+03  0.69411699887E+03  0.46999998093E+01 0.  1.
</event>
<event>
 5   0  0.1049780E-02  0.7954943E+03  0.7818609E-02  0.9566562E-01
        1   -1    0    0  501    0  0.00000000000E+00  0.00000000000E+00  0.64439575349E+03  0.64439575351E+03  0.50400001928E-02 0.  1.
       -1   -1    0    0    0  501  0.00000000000E+00  0.00000000000E+00 -0.24550564571E+03  0.24550564577E+03  0.50400001928E-02 0. -1.
    10030    2    1    2    0    0  0.00000000000E+00  0.00000000000E+00  0.39889010778E+03  0.88990139928E+03  0.79549430064E+03 0.  0.
        5    1    3    3  502    0 -0.29783592558E+02  0.35314052617E+03  0.40138229812E+03  0.53546720988E+03  0.46999998093E+01 0.  1.
       -5    1    3    3    0  502  0.29783592558E+02 -0.35314052617E+03 -0.24921903431E+01  0.35443418940E+03  0.46999998093E+01 0. -1.
</event>
<event>
 5   0  0.1673727E-02  0.7962571E+03  0.7818609E-02  0.9565451E-01
       -2   -1    0    0    0  501  0.00000000000E+00  0.00000000000E+00  0.24740041333E+03  0.24740041335E+03  0.25500000920E-02 0. -1.
        2   -1    0    0  501    0  0.00000000000E+00  0.00000000000E+00 -0.64068751562E+03  0.64068751562E+03  0.25500000920E-02 0.  1.
    10030    2    1    2    0    0  0.00000000000E+00  0.00000000000E+00 -0.39328710228E+03  0.88808792897E+03  0.79625713482E+03 0.  0.
        5    1    3    3  502    0 -0.34540201599E+03  0.61754446745E+02 -0.40639670834E+03  0.53693252732E+03  0.46999998093E+01 0.  1.
       -5    1    3    3    0  502  0.34540201599E+03 -0.61754446745E+02  0.13109606058E+02  0.35115540165E+03  0.46999998093E+01 0. -1.
</event>
<event>
 5   0  0.1817089E-02  0.8050839E+03  0.7818609E-02  0.9552687E-01
       -2   -1    0    0    0  501  0.00000000000E+00  0.00000000000E+00  0.16287715054E+03  0.16287715056E+03  0.25500000920E-02 0. -1.
        2   -1    0    0  501    0  0.00000000000E+00  0.00000000000E+00 -0.99486041907E+03  0.99486041907E+03  0.25500000920E-02 0.  1.
    10030    2    1    2    0    0  0.00000000000E+00  0.00000000000E+00 -0.83198326852E+03  0.11577375696E+04  0.80508392173E+03 0.  0.
        2    1    3    3  502    0 -0.35445827498E+01 -0.16195941049E+03  0.11393219177E+03  0.19805039521E+03  0.25500000920E-02 0. -1.
       -2    1    3    3    0  502  0.35445827498E+01  0.16195941049E+03 -0.94591546030E+03  0.95968717442E+03  0.25500000920E-02 0.  1.
</event>
<event>
 5   0  0.1025900E-02  0.8015735E+03  0.7818609E-02  0.9557742E-01
       -1   -1    0    0    0  501  0.00000000000E+00  0.00000000000E+00  0.19980505749E+03  0.19980505755E+03  0.50400001928E-02 0.  1.
        1   -1    0    0  501    0  0.00000000000E+00  0.00000000000E+00 -0.80393369743E+03  0.80393369744E+03  0.50400001928E-02 0. -1.
    10030    2    1    2    0    0  0.00000000000E+00  0.00000000000E+00 -0.60412863994E+03  0.10037387550E+04  0.80157349924E+03 0.  0.
        1    1    3    3  502    0 -0.34654803898E+03  0.19596138719E+03 -0.24422344327E+03  0.46705620525E+03  0.50400001928E-02 0. -1.
       -1    1    3    3    0  502  0.34654803898E+03 -0.19596138719E+03 -0.35990519667E+03  0.53668254975E+03  0.50400001928E-02 0.  1.
</event>
<event>
 5   0  0.1030323E-02  0.8073731E+03  0.7818609E-02  0.9549406E-01
        1   -1    0    0  501    0  0.00000000000E+00  0.00000000000E+00  0.26756382441E+03  0.26756382446E+03  0.50400001928E-02 0.  1.
       -1   -1    0    0    0  501  0.00000000000E+00  0.00000000000E+00 -0.60906152847E+03  0.60906152849E+03  0.50400001928E-02 0. -1.
    10030    2    1    2    0    0  0.00000000000E+00  0.00000000000E+00 -0.34149770406E+03  0.87662535294E+03  0.80737310306E+03 0.  0.
        3    1    3    3  502    0 -0.36398170511E+03  0.20525792674E+02 -0.35899487043E+03  0.51164569481E+03  0.10100000352E+00 0. -1.
       -3    1    3    3    0  502  0.36398170511E+03 -0.20525792674E+02  0.17497166373E+02  0.36497965814E+03  0.10100000352E+00 0.  1.
</event>
<event>
 5   0  0.1731337E-02  0.8036735E+03  0.7818609E-02  0.9554715E-01
       -2   -1    0    0    0  501  0.00000000000E+00  0.00000000000E+00  0.69554369595E+02  0.69554369641E+02  0.25500000920E-02 0. -1.
        2   -1    0    0  501    0  0.00000000000E+00  0.00000000000E+00 -0.23215332610E+04  0.23215332610E+04  0.25500000920E-02 0.  1.
    10030    2    1    2    0    0  0.00000000000E+00  0.00000000000E+00 -0.22519788914E+04  0.23910876307E+04  0.80367352207E+03 0.  0.
        4    1    3    3  502    0  0.36224183786E+03 -0.45238426141E+02 -0.62632002136E+03  0.72494416775E+03  0.12699999809E+01 0. -1.
       -4    1    3    3    0  502 -0.36224183786E+03  0.45238426141E+02 -0.16256588701E+04  0.16661434629E+04  0.12699999809E+01 0.  1.
</event>
<event>
 5   0  0.1731337E-02  0.8040980E+03  0.7818609E-02  0.9554104E-01
        2   -1    0    0  501    0  0.00000000000E+00  0.00000000000E+00  0.43173565672E+03  0.43173565672E+03  0.25500000920E-02 0.  1.
       -2   -1    0    0    0  501  0.00000000000E+00  0.00000000000E+00 -0.37440365046E+03  0.37440365047E+03  0.25500000920E-02 0. -1.
    10030    2    1    2    0    0  0.00000000000E+00  0.00000000000E+00  0.57332006252E+02  0.80613930720E+03  0.80409801869E+03 0.  0.
        4    1    3    3  502    0 -0.32939380483E+02  0.39680643858E+03 -0.27165951821E+02  0.39909892799E+03  0.12699999809E+01 0. -1.
       -4    1    3    3    0  502  0.32939380483E+02 -0.39680643858E+03  0.84497958073E+02  0.40704037921E+03  0.12699999809E+01 0.  1.
</event>
<event>
 5   0  0.1747544E-02  0.8015783E+03  0.7818609E-02  0.9557735E-01
        2   -1    0    0  501    0  0.00000000000E+00  0.00000000000E+00  0.91939710533E+03  0.91939710533E+03  0.25500000920E-02 0.  1.
       -2   -1    0    0    0  501  0.00000000000E+00  0.00000000000E+00 -0.17471444939E+03  0.17471444941E+03  0.25500000920E-02 0. -1.
    10030    2    1    2    0    0  0.00000000000E+00  0.00000000000E+00  0.74468265593E+03  0.10941115547E+04  0.80157834063E+03 0.  0.
        1    1    3    3  502    0 -0.36021692402E+03 -0.16365079366E+03  0.28500454128E+03  0.48761193914E+03  0.50400001928E-02 0.  1.
       -1    1    3    3    0  502  0.36021692402E+03  0.16365079366E+03  0.45967811465E+03  0.60649961560E+03  0.50400001928E-02 0. -1.
</event>
<event>
 5   0  0.6872500E-03  0.7822254E+03  0.7818609E-02  0.9586108E-01
       -4   -1    0    0    0  501  0.00000000000E+00  0.00000000000E+00  0.43643930345E+03  0.43644115124E+03  0.12699999809E+01 0.  1.
        4   -1    0    0  501    0  0.00000000000E+00  0.00000000000E+00 -0.35048974718E+03  0.35049204810E+03  0.12699999809E+01 0. -1.
    10030    2    1    2    0    0  0.00000000000E+00  0.00000000000E+00  0.85949556269E+02  0.78693319934E+03  0.78222537290E+03 0.  0.
        2    1    3    3  502    0  0.49957350071E+02  0.12805214009E+03  0.41134249802E+03  0.43370005544E+03  0.25500000920E-02 0.  1.
       -2    1    3    3    0  502 -0.49957350071E+02 -0.12805214009E+03 -0.32539294175E+03  0.35323314390E+03  0.25500000920E-02 0. -1.
</event>
<event>
 5   0  0.1030323E-02  0.8194604E+03  0.7818609E-02  0.9532268E-01
        1   -1    0    0  501    0  0.00000000000E+00  0.00000000000E+00  0.56273906064E+03  0.56273906067E+03  0.50400001928E-02 0. -1.
       -1   -1    0    0    0  501  0.00000000000E+00  0.00000000000E+00 -0.29832449677E+03  0.29832449681E+03  0.50400001928E-02 0.  1.
    10030    2    1    2    0    0  0.00000000000E+00  0.00000000000E+00  0.26441456388E+03  0.86106355748E+03  0.81946042517E+03 0.  0.
        3    1    3    3  502    0 -0.27882266016E+03  0.22689806928E+03 -0.74380483745E+02  0.36709300759E+03  0.10100000352E+00 0.  1.
       -3    1    3    3    0  502  0.27882266016E+03 -0.22689806928E+03  0.33879504762E+03  0.49397054988E+03  0.10100000352E+00 0. -1.
</event>
<event>
 5   0  0.1025900E-02  0.7043026E+03  0.7818609E-02  0.9709902E-01
       -1   -1    0    0    0  501  0.00000000000E+00  0.00000000000E+00  0.25686713468E+03  0.25686713473E+03  0.50400001928E-02 0.  1.
        1   -1    0    0  501    0  0.00000000000E+00  0.00000000000E+00 -0.48278085750E+03  0.48278085752E+03  0.50400001928E-02 0. -1.
    10030    2    1    2    0    0  0.00000000000E+00  0.00000000000E+00 -0.22591372281E+03  0.73964799226E+03  0.70430259285E+03 0.  0.
        1    1    3    3  502    0  0.16654358200E+02  0.19436403664E+03 -0.42085237550E+03  0.46386578703E+03  0.50400001928E-02 0. -1.
       -1    1    3    3    0  502 -0.16654358200E+02 -0.19436403664E+03  0.19493865269E+03  0.27578220523E+03  0.50400001928E-02 0.  1.
</event>
<event>
 5   0  0.1817089E-02  0.6881452E+03  0.7818609E-02  0.9737723E-01
       -2   -1    0    0    0  501  0.00000000000E+00  0.00000000000E+00  0.35727000495E+03  0.35727000496E+03  0.25500000920E-02 0.  1.
        2   -1    0    0  501    0  0.00000000000E+00  0.00000000000E+00 -0.33136268613E+03  0.33136268614E+03  0.25500000920E-02 0. -1.
    10030    2    1    2    0    0  0.00000000000E+00  0.00000000000E+00  0.25907318812E+02  0.68863269110E+03  0.68814518387E+03 0.  0.
        2    1    3    3  502    0  0.12634083861E+03 -0.46430826784E+02 -0.30392208417E+03  0.33239503972E+03  0.25500000920E-02 0. -1.
       -2    1    3    3    0  502 -0.12634083861E+03  0.46430826784E+02  0.32982940299E+03  0.35623765138E+03  0.25500000920E-02 0.  1.
</event>
<event>
 5   0  0.1049780E-02  0.7881736E+03  0.7818609E-02  0.9577295E-01
       -1   -1    0    0    0  501  0.00000000000E+00  0.00000000000E+00  0.10165579859E+03  0.10165579871E+03  0.50400001928E-02 0. -1.
        1   -1    0    0  501    0  0.00000000000E+00  0.00000000000E+00 -0.15277475647E+04  0.15277475647E+04  0.50400001928E-02 0.  1.
    10030    2    1    2    0    0  0.00000000000E+00  0.00000000000E+00 -0.14260917661E+04  0.16294033634E+04  0.78817358199E+03 0.  0.
        5    1    3    3  502    0  0.32319836643E+03  0.14736547809E+03 -0.36033655081E+03  0.50600226091E+03  0.46999998093E+01 0. -1.
       -5    1    3    3    0  502 -0.32319836643E+03 -0.14736547809E+03 -0.10657552153E+04  0.11234011025E+04  0.46999998093E+01 0.  1.
</event>
<event>
 5   0  0.1025900E-02  0.7915956E+03  0.7818609E-02  0.9572262E-01
        1   -1    0    0  501    0  0.00000000000E+00  0.00000000000E+00  0.18305774866E+04  0.18305774866E+04  0.50400001928E-02 0.  1.
       -1   -1    0    0    0  501  0.00000000000E+00  0.00000000000E+00 -0.85577317445E+02  0.85577317594E+02  0.50400001928E-02 0. -1.
    10030    2    1    2    0    0  0.00000000000E+00  0.00000000000E+00  0.17450001691E+04  0.19161548042E+04  0.79159563118E+03 0.  0.
        1    1    3    3  502    0  0.35791124063E+03 -0.12597873836E+03  0.59987285952E+03  0.70980176550E+03  0.50400001928E-02 0. -1.
       -1    1    3    3    0  502 -0.35791124063E+03  0.12597873836E+03  0.11451273096E+04  0.12063530387E+04  0.50400001928E-02 0.  1.
</event>
<event>
 5   0  0.1038912E-02  0.7975526E+03  0.7818609E-02  0.9563566E-01
       -1   -1    0    0    0  501  0.00000000000E+00  0.00000000000E+00  0.26699415543E+03  0.26699415548E+03  0.50400001928E-02 0. -1.
        1   -1    0    0  501    0  0.00000000000E+00  0.00000000000E+00 -0.59560307874E+03  0.59560307876E+03  0.50400001928E-02 0.  1.
    10030    2    1    2    0    0  0.00000000000E+00  0.00000000000E+00 -0.32860892331E+03  0.86259723424E+03  0.79755260894E+03 0.  0.
        2    1    3    3  502    0 -0.25833182210E+03 -0.12229796065E+03  0.13645818951E+03  0.31672221106E+03  0.25500000920E-02 0. -1.
       -2    1    3    3    0  502  0.25833182210E+03  0.12229796065E+03 -0.46506711283E+03  0.54587502318E+03  0.25500000920E-02 0.  1.
</event>
<event>
 5   0  0.1817089E-02  0.8007823E+03  0.7818609E-02  0.9558886E-01
        2   -1    0    0  501    0  0.00000000000E+00  0.00000000000E+00  0.10702384979E+04  0.10702384979E+04  0.25500000920E-02 0. -1.
       -2   -1    0    0    0  501  0.00000000000E+00  0.00000000000E+00 -0.14979189701E+03  0.14979189703E+03  0.25500000920E-02 0.  1.
    10030    2    1    2    0    0  0.00000000000E+00  0.00000000000E+00  0.92044660086E+03  0.12200303949E+04  0.80078225472E+03 0.  0.
        2    1    3    3  502    0 -0.31847884709E+03  0.86368710916E+02  0.11472795799E+03  0.34935774590E+03  0.25500000920E-02 0.  1.
       -2    1    3    3    0  502  0.31847884709E+03 -0.86368710916E+02  0.80571864287E+03  0.87067264902E+03  0.25500000920E-02 0. -1.
</event>
<event>
 5   0  0.1673727E-02  0.7974914E+03  0.7818609E-02  0.9563655E-01
       -2   -1    0    0    0  501  0.00000000000E+00  0.00000000000E+00  0.14333677684E+03  0.14333677687E+03  0.25500000920E-02 0. -1.
        2   -1    0    0  501    0  0.00000000000E+00  0.00000000000E+00 -0.11092625986E+04  0.11092625986E+04  0.25500000920E-02 0.  1.
    10030    2    1    2    0    0  0.00000000000E+00  0.00000000000E+00 -0.96592582171E+03  0.12525993754E+04  0.79749138069E+03 0.  0.
        5    1    3    3  502    0  0.30576906388E+03 -0.20037086317E+03 -0.23296978475E+03  0.43352071904E+03  0.46999998093E+01 0.  1.
       -5    1    3    3    0  502 -0.30576906388E+03  0.20037086317E+03 -0.73295603697E+03  0.81907865639E+03  0.46999998093E+01 0. -1.
</event>
<event>
 5   0  0.1049780E-02  0.7996655E+03  0.7818609E-02  0.9560501E-01
        1   -1    0    0  501    0  0.00000000000E+00  0.00000000000E+00  0.12665352531E+04  0.12665352531E+04  0.50400001928E-02 0. -1.
       -1   -1    0    0    0  501  0.00000000000E+00  0.00000000000E+00 -0.12622327777E+03  0.12622327787E+03  0.50400001928E-02 0.  1.
    10030    2    1    2    0    0  0.00000000000E+00  0.00000000000E+00  0.11403119753E+04  0.13927585310E+04  0.79966550791E+03 0.  0.
        5    1    3    3  502    0 -0.31200834825E+03  0.20147953059E+03  0.82790603103E+03  0.90741043461E+03  0.46999998093E+01 0. -1.
       -5    1    3    3    0  502  0.31200834825E+03 -0.20147953059E+03  0.31240594431E+03  0.48534809638E+03  0.46999998093E+01 0.  1.
</event>
<event>
 5   0  0.1025900E-02  0.7860424E+03  0.7818609E-02  0.9580443E-01
       -1   -1    0    0    0  501  0.00000000000E+00  0.00000000000E+00  0.45961924959E+03  0.45961924962E+03  0.50400001928E-02 0. -1.
        1   -1    0    0  501    0  0.00000000000E+00  0.00000000000E+00 -0.33607307810E+03  0.33607307813E+03  0.50400001928E-02 0.  1.
    10030    2    1    2    0    0  0.00000000000E+00  0.00000000000E+00  0.12354617149E+03  0.79569232775E+03  0.78604238050E+03 0.  0.
        1    1    3    3  502    0  0.38941103776E+03  0.22280725661E+02  0.11061759790E+03  0.40543019135E+03  0.50400001928E-02 0. -1.
       -1    1    3    3    0  502 -0.38941103776E+03 -0.22280725661E+02  0.12928573592E+02  0.39026213640E+03  0.50400001928E-02 0.  1.
</event>
<event>
 5   0  0.1030323E-02  0.6971370E+03  0.7818609E-02  0.9722141E-01
       -1   -1    0    0    0  501  0.00000000000E+00  0.00000000000E+00  0.21199102440E+03  0.21199102446E+03  0.50400001928E-02 0. -1.
        1   -1    0    0  501    0  0.00000000000E+00  0.00000000000E+00 -0.57313740183E+03  0.57313740185E+03  0.50400001928E-02 0.  1.
    10030    2    1    2    0    0  0.00000000000E+00  0.00000000000E+00 -0.36114637743E+03  0.78512842631E+03  0.69713695919E+03 0.  0.
        3    1    3    3  502    0 -0.14232090279E+03 -0.16523935140E+03 -0.48681490478E+03  0.53343044939E+03  0.10100000352E+00 0.  1.
       -3    1    3    3    0  502  0.14232090279E+03  0.16523935140E+03  0.12566852735E+03  0.25169797692E+03  0.10100000352E+00 0. -1.
</event>
<event>
 5   0  0.1673727E-02  0.7543371E+03  0.7818609E-02  0.9628571E-01
       -2   -1    0    0    0  501  0.00000000000E+00  0.00000000000E+00  0.23898722508E+03  0.23898722510E+03  0.25500000920E-02 0. -1.
        2   -1    0    0  501    0  0.00000000000E+00  0.00000000000E+00 -0.59524573372E+03  0.59524573373E+03  0.25500000920E-02 0.  1.
    10030    2    1    2    0    0  0.00000000000E+00  0.00000000000E+00 -0.35625850864E+03  0.83423295882E+03  0.75433712928E+03 0.  0.
        5    1    3    3  502    0  0.29930607713E+03  0.44325489326E+02 -0.42710799577E+03  0.52344264907E+03  0.46999998093E+01 0.  1.
       -5    1    3    3    0  502 -0.29930607713E+03 -0.44325489326E+02  0.70849487132E+02  0.31079030976E+03  0.46999998093E+01 0. -1.
</event>
<event>
 5   0  0.6872500E-03  0.8059820E+03  0.7818609E-02  0.9551398E-01
       -3   -1    0    0    0  501  0.00000000000E+00  0.00000000000E+00  0.45889913889E+03  0.45889915000E+03  0.10100000352E+00 0. -1.
        3   -1    0    0  501    0  0.00000000000E+00  0.00000000000E+00 -0.35389421708E+03  0.35389423149E+03  0.10100000352E+00 0.  1.
    10030    2    1    2    0    0  0.00000000000E+00  0.00000000000E+00  0.10500492181E+03  0.81279338149E+03  0.80598203912E+03 0.  0.
        2    1    3    3  502    0  0.35113560295E+02 -0.18240481250E+03  0.41315206170E+03  0.45298907695E+03  0.25500000920E-02 0. -1.
       -2    1    3    3    0  502 -0.35113560295E+02  0.18240481250E+03 -0.30814713989E+03  0.35980430454E+03  0.25500000920E-02 0.  1.
</event>
<event>
 5   0  0.1817089E-02  0.8019860E+03  0.7818609E-02  0.9557147E-01
        2   -1    0    0  501    0  0.00000000000E+00  0.00000000000E+00  0.20430978721E+04  0.20430978721E+04  0.25500000920E-02 0. -1.
       -2   -1    0    0    0  501  0.00000000000E+00  0.00000000000E+00 -0.78701744195E+02  0.78701744237E+02  0.25500000920E-02 0.  1.
    10030    2    1    2    0    0  0.00000000000E+00  0.00000000000E+00  0.19643961279E+04  0.21217996164E+04  0.80198595036E+03 0.  0.
        2    1    3    3  502    0  0.25055565900E+03 -0.22911691795E+03  0.15466818209E+04  0.15835079272E+04  0.25500000920E-02 0. -1.
       -2    1    3    3    0  502 -0.25055565900E+03  0.22911691795E+03  0.41771430707E+03  0.53829168922E+03  0.25500000920E-02 0.  1.
</event>
<event>
 5   0  0.1817089E-02  0.7968940E+03  0.7818609E-02  0.9564524E-01
       -2   -1    0    0    0  501  0.00000000000E+00  0.00000000000E+00  0.50810468705E+03  0.50810468706E+03  0.25500000920E-02 0. -1.
        2   -1    0    0  501    0  0.00000000000E+00  0.00000000000E+00 -0.31245531194E+03  0.31245531195E+03  0.25500000920E-02 0.  1.
    10030    2    1    2    0    0  0.00000000000E+00  0.00000000000E+00  0.19564937511E+03  0.82055999900E+03  0.79689399168E+03 0.  0.
        2    1    3    3  502    0 -0.26855903120E+03 -0.12635687154E+03 -0.17590841747E+03  0.34501272957E+03  0.25500000920E-02 0.  1.
       -2    1    3    3    0  502  0.26855903120E+03  0.12635687154E+03  0.37155779259E+03  0.47554726943E+03  0.25500000920E-02 0. -1.
</event>
<event>
 5   0  0.1673727E-02  0.7991159E+03  0.7818609E-02  0.9561298E-01
       -2   -1    0    0    0  501  0.00000000000E+00  0.00000000000E+00  0.33118683577E+03  0.33118683578E+03  0.25500000920E-02 0.  1.
        2   -1    0    0  501    0  0.00000000000E+00  0.00000000000E+00 -0.48204378195E+03  0.48204378196E+03  0.25500000920E-02 0. -1.
    10030    2    1    2    0    0  0.00000000000E+00  0.00000000000E+00 -0.15085694618E+03  0.81323061774E+03  0.79911589862E+03 0.  0.
        5    1    3    3  502    0  0.35934214020E+03  0.24143459532E+02  0.10058539591E+03  0.37396415902E+03  0.46999998093E+01 0.  1.
       -5    1    3    3    0  502 -0.35934214020E+03 -0.24143459532E+02 -0.25144234209E+03  0.43926645872E+03  0.46999998093E+01 0. -1.
</event>
<event>
 5   0  0.1747544E-02  0.8015356E+03  0.7818609E-02  0.9557797E-01
       -2   -1    0    0    0  501  0.00000000000E+00  0.00000000000E+00  0.32740469321E+03  0.32740469322E+03  0.25500000920E-02 0.  1.
        2   -1    0    0  501    0  0.00000000000E+00  0.00000000000E+00 -0.49056976443E+03  0.49056976444E+03  0.25500000920E-02 0. -1.
    10030    2    1    2    0    0  0.00000000000E+00  0.00000000000E+00 -0.16316507122E+03  0.81797445766E+03  0.80153563422E+03 0.  0.
        1    1    3    3  502    0 -0.10643277717E+03  0.28993058489E+03 -0.34221658578E+03  0.46097708372E+03  0.50400001928E-02 0. -1.
       -1    1    3    3    0  502  0.10643277717E+03 -0.28993058489E+03  0.17905151456E+03  0.35699737394E+03  0.50400001928E-02 0.  1.
</event>
<event>
 5   0  0.1817089E-02  0.7932684E+03  0.7818609E-02  0.9569812E-01
        2   -1    0    0  501    0  0.00000000000E+00  0.00000000000E+00  0.97841525443E+03  0.97841525444E+03  0.25500000920E-02 0.  1.
       -2   -1    0    0    0  501  0.00000000000E+00  0.00000000000E+00 -0.16078928185E+03  0.16078928187E+03  0.25500000920E-02 0. -1.
    10030    2    1    2    0    0  0.00000000000E+00  0.00000000000E+00  0.81762597258E+03  0.11392045363E+04  0.79326839373E+03 0.  0.
        2    1    3    3  502    0 -0.18830717478E+03 -0.12838742851E+03 -0.57365169257E+02  0.23501848124E+03  0.25500000920E-02 0. -1.
       -2    1    3    3    0  502  0.18830717478E+03  0.12838742851E+03  0.87499114184E+03  0.90418605507E+03  0.25500000920E-02 0.  1.
</event>
<event>
 5   0  0.1747544E-02  0.8071711E+03  0.7818609E-02  0.9549695E-01
       -2   -1    0    0    0  501  0.00000000000E+00  0.00000000000E+00  0.55573257611E+03  0.55573257611E+03  0.25500000920E-02 0. -1.
        2   -1    0    0  501    0  0.00000000000E+00  0.00000000000E+00 -0.29309296376E+03  0.29309296377E+03  0.25500000920E-02 0.  1.
    10030    2    1    2    0    0  0.00000000000E+00  0.00000000000E+00  0.26263961234E+03  0.84882553988E+03  0.80717112881E+03 0.  0.
        1    1    3    3  502    0  0.30717562304E+03 -0.21899679798E+03  0.28212474287E+03  0.47107412525E+03  0.50400001928E-02 0.  1.
       -1    1    3    3    0  502 -0.30717562304E+03  0.21899679798E+03 -0.19485130527E+02  0.37775141463E+03  0.50400001928E-02 0. -1.
</event>
<event>
 5   0  0.1146083E-02  0.8032122E+03  0.7818609E-02  0.9555379E-01
        1   -1    0    0  501    0  0.00000000000E+00  0.00000000000E+00  0.44501482369E+03  0.44501482372E+03  0.50400001928E-02 0. -1.
       -1   -1    0    0    0  501  0.00000000000E+00  0.00000000000E+00 -0.36243163193E+03  0.36243163196E+03  0.50400001928E-02 0.  1.
    10030    2    1    2    0    0  0.00000000000E+00  0.00000000000E+00  0.82583191767E+02  0.80744645568E+03  0.80321217324E+03 0.  0.
        4    1    3    3  502    0 -0.15560651622E+03 -0.71139099264E+02 -0.32395789899E+03  0.36636660950E+03  0.12699999809E+01 0.  1.
       -4    1    3    3    0  502  0.15560651622E+03  0.71139099264E+02  0.40654109076E+03  0.44107984619E+03  0.12699999809E+01 0. -1.
</event>
<event>
 5   0  0.1146083E-02  0.8339163E+03  0.7818609E-02  0.9512182E-01
        1   -1    0    0  501    0  0.00000000000E+00  0.00000000000E+00  0.13416033109E+04  0.13416033109E+04  0.50400001928E-02 0. -1.
       -1   -1    0    0    0  501  0.00000000000E+00  0.00000000000E+00 -0.12958682640E+03  0.12958682650E+03  0.50400001928E-02 0.  1.
    10030    2    1    2    0    0  0.00000000000E+00  0.00000000000E+00  0.12120164845E+04  0.14711901374E+04  0.83391633974E+03 0.  0.
        4    1    3    3  502    0 -0.67144971961E+02 -0.18423546375E+03  0.12551773088E+04  0.12704026302E+04  0.12699999809E+01 0. -1.
       -4    1    3    3    0  502  0.67144971961E+02  0.18423546375E+03 -0.43160824374E+02  0.20078750714E+03  0.12699999809E+01 0.  1.
</event>
<event>
 5   0  0.1146083E-02  0.8000491E+03  0.7818609E-02  0.9559946E-01
        1   -1    0    0  501    0  0.00000000000E+00  0.00000000000E+00  0.70476352866E+03  0.70476352868E+03  0.50400001928E-02 0.  1.
       -1   -1    0    0    0  501  0.00000000000E+00  0.00000000000E+00 -0.22705435747E+03  0.22705435753E+03  0.50400001928E-02 0. -1.
    10030    2    1    2    0    0  0.00000000000E+00  0.00000000000E+00  0.47770917119E+03  0.93181788621E+03  0.80004907401E+03 0.  0.
        4    1    3    3  502    0 -0.97662266859E+02  0.23486794090E+03 -0.12072906577E+03  0.28156347109E+03  0.12699999809E+01 0. -1.
       -4    1    3    3    0  502  0.97662266859E+02 -0.23486794090E+03  0.59843823696E+03  0.65025441512E+03  0.12699999809E+01 0.  1.
</event>
<event>
 5   0  0.1731337E-02  0.8085355E+03  0.7818609E-02  0.9547744E-01
       -2   -1    0    0    0  501  0.00000000000E+00  0.00000000000E+00  0.12419492804E+03  0.12419492807E+03  0.25500000920E-02 0.  1.
        2   -1    0    0  501    0  0.00000000000E+00  0.00000000000E+00 -0.13159348302E+04  0.13159348302E+04  0.25500000920E-02 0. -1.
    10030    2    1    2    0    0  0.00000000000E+00  0.00000000000E+00 -0.11917399021E+04  0.14401297582E+04  0.80853554421E+03 0.  0.
        4    1    3    3  502    0  0.21643016720E+03 -0.33617704251E+03 -0.48939008974E+03  0.63195038889E+03  0.12699999809E+01 0.  1.
       -4    1    3    3    0  502 -0.21643016720E+03  0.33617704251E+03 -0.70234981238E+03  0.80817936934E+03  0.12699999809E+01 0. -1.
</event>
<event>
 5   0  0.1049780E-02  0.7833863E+03  0.7818609E-02  0.9584381E-01
        1   -1    0    0  501    0  0.00000000000E+00  0.00000000000E+00  0.71739854636E+03  0.71739854637E+03  0.50400001928E-02 0. -1.
       -1   -1    0    0    0  501  0.00000000000E+00  0.00000000000E+00 -0.21386091194E+03  0.21386091200E+03  0.50400001928E-02 0.  1.
    10030    2    1    2    0    0  0.00000000000E+00  0.00000000000E+00  0.50353763442E+03  0.93125945837E+03  0.78338625820E+03 0.  0.
        5    1    3    3  502    0  0.27934786204E+02  0.26859954056E+03  0.58899880738E+03  0.64797202915E+03  0.46999998093E+01 0. -1.
       -5    1    3    3    0  502 -0.27934786204E+02 -0.26859954056E+03 -0.85461172961E+02  0.28328742922E+03  0.46999998093E+01 0.  1.
</event>
<event>
 5   0  0.1038912E-02  0.7973488E+03  0.7818609E-02  0.9563863E-01
       -1   -1    0    0    0  501  0.00000000000E+00  0.00000000000E+00  0.19343751702E+03  0.19343751708E+03  0.50400001928E-02 0.  1.
        1   -1    0    0  501    0  0.00000000000E+00  0.00000000000E+00 -0.82166728858E+03  0.82166728860E+03  0.50400001928E-02 0. -1.
    10030    2    1    2    0    0  0.00000000000E+00  0.00000000000E+00 -0.62822977156E+03  0.10151048057E+04  0.79734880739E+03 0.  0.
        2    1    3    3  502    0  0.36866965251E+03 -0.14507180646E+03 -0.25749214637E+03  0.47250962652E+03  0.25500000920E-02 0.  1.
       -2    1    3    3    0  502 -0.36866965251E+03  0.14507180646E+03 -0.37073762519E+03  0.54259517916E+03  0.25500000920E-02 0. -1.
</event>
<event>
 5   0  0.1146083E-02  0.7998896E+03  0.7818609E-02  0.9560177E-01
       -1   -1    0    0    0  501  0.00000000000E+00  0.00000000000E+00  0.33760839772E+03  0.33760839776E+03  0.50400001928E-02 0.  1.
        1   -1    0    0  501    0  0.00000000000E+00  0.00000000000E+00 -0.47379112357E+03  0.47379112360E+03  0.50400001928E-02 0. -1.
    10030    2    1    2    0    0  0.00000000000E+00  0.00000000000E+00 -0.13618272585E+03  0.81139952136E+03  0.79988964767E+03 0.  0.
        4    1    3    3  502    0  0.37704374505E+03  0.11587528439E+03 -0.13511158285E+03  0.41694822213E+03  0.12699999809E+01 0. -1.
       -4    1    3    3    0  502 -0.37704374505E+03 -0.11587528439E+03 -0.10711429999E+01  0.39445129923E+03  0.12699999809E+01 0.  1.
</event>
<event>
 5   0  0.1146083E-02  0.7897270E+03  0.7818609E-02  0.9575007E-01
       -1   -1    0    0    0  501  0.00000000000E+00  0.00000000000E+00  0.10909347426E+04  0.10909347426E+04  0.50400001928E-02 0.  1.
        1   -1    0    0  501    0  0.00000000000E+00  0.00000000000E+00 -0.14292072501E+03  0.14292072510E+03  0.50400001928E-02 0. -1.
    10030    2    1    2    0    0  0.00000000000E+00  0.00000000000E+00  0.94801401755E+03  0.12338554677E+04  0.78972700197E+03 0.  0.
        4    1    3    3  502    0 -0.10025569341E+03  0.35174984685E+03  0.24155092125E+03  0.43832364672E+03  0.12699999809E+01 0. -1.
       -4    1    3    3    0  502  0.10025569341E+03 -0.35174984685E+03  0.70646309629E+03  0.79553182095E+03  0.12699999809E+01 0.  1.
</event>
<event>
 5   0  0.1818665E-02  0.8001083E+03  0.7818609E-02  0.9559860E-01
        2   -1    0    0  501    0  0.00000000000E+00  0.00000000000E+00  0.71589809427E+03  0.71589809428E+03  0.25500000920E-02 0. -1.
       -2   -1    0    0    0  501  0.00000000000E+00  0.00000000000E+00 -0.22355599994E+03  0.22355599995E+03  0.25500000920E-02 0.  1.
    10030    2    1    2    0    0  0.00000000000E+00  0.00000000000E+00  0.49234209433E+03  0.93945409423E+03  0.80010827849E+03 0.  0.
        3    1    3    3  502    0 -0.24788885122E+02  0.25389900634E+02  0.71404664896E+03  0.71492780262E+03  0.10100000352E+00 0. -1.
       -3    1    3    3    0  502  0.24788885122E+02 -0.25389900634E+02 -0.22170455462E+03  0.22452629160E+03  0.10100000352E+00 0.  1.
</event>
<event>
 5   0  0.1038912E-02  0.7853449E+03  0.7818609E-02  0.9581475E-01
       -1   -1    0    0    0  501  0.00000000000E+00  0.00000000000E+00  0.84561890478E+03  0.84561890480E+03  0.50400001928E-02 0. -1.
        1   -1    0    0  501    0  0.00000000000E+00  0.00000000000E+00 -0.18234177638E+03  0.18234177645E+03  0.50400001928E-02 0.  1.
    10030    2    1    2    0    0  0.00000000000E+00  0.00000000000E+00  0.66327712841E+03  0.10279606812E+04  0.78534490074E+03 0.  0.
        2    1    3    3  502    0  0.14499839986E+03 -0.56175322347E+02  0.80360039493E+03  0.81850705406E+03  0.25500000920E-02 0. -1.
       -2    1    3    3    0  502 -0.14499839986E+03  0.56175322347E+02 -0.14032326653E+03  0.20945362718E+03  0.25500000920E-02 0.  1.
</event>
<event>
 5   0  0.1818665E-02  0.8042705E+03  0.7818609E-02  0.9553856E-01
       -2   -1    0    0    0  501  0.00000000000E+00  0.00000000000E+00  0.79479990773E+03  0.79479990774E+03  0.25500000920E-02 0.  1.
        2   -1    0    0  501    0  0.00000000000E+00  0.00000000000E+00 -0.20346348347E+03  0.20346348349E+03  0.25500000920E-02 0. -1.
    10030    2    1    2    0    0  0.00000000000E+00  0.00000000000E+00  0.59133642426E+03  0.99826339122E+03  0.80427049654E+03 0.  0.
        3    1    3    3  502    0 -0.15679621949E+03  0.23263957626E+03  0.65326953168E+03  0.71096224802E+03  0.10100000352E+00 0.  1.
       -3    1    3    3    0  502  0.15679621949E+03 -0.23263957626E+03 -0.61933107423E+02  0.28730114320E+03  0.10100000352E+00 0. -1.
</event>
<event>
 5   0  0.1049780E-02  0.8713608E+03  0.7818609E-02  0.9462107E-01
       -1   -1    0    0    0  501  0.00000000000E+00  0.00000000000E+00  0.13810066413E+03  0.13810066422E+03  0.50400001928E-02 0.  1.
        1   -1    0    0  501    0  0.00000000000E+00  0.00000000000E+00 -0.13744859757E+04  0.13744859757E+04  0.50400001928E-02 0. -1.
    10030    2    1    2    0    0  0.00000000000E+00  0.00000000000E+00 -0.12363853116E+04  0.15125866399E+04  0.87136083491E+03 0.  0.
        5    1    3    3  502    0 -0.21748829011E+03 -0.24230525711E+03 -0.11206491606E+04  0.11670002678E+04  0.46999998093E+01 0. -1.
       -5    1    3    3    0  502  0.21748829011E+03  0.24230525711E+03 -0.11573615101E+03  0.34558637213E+03  0.46999998093E+01 0.  1.
</event>
<event>
 5   0  0.1818665E-02  0.7915400E+03  0.7818609E-02  0.9572344E-01
        2   -1    0    0  501    0  0.00000000000E+00  0.00000000000E+00  0.64308665222E+03  0.64308665222E+03  0.25500000920E-02 0. -1.
       -2   -1    0    0    0  501  0.00000000000E+00  0.00000000000E+00 -0.24356576276E+03  0.24356576278E+03  0.25500000920E-02 0.  1.
    10030    2    1    2    0    0  0.00000000000E+00  0.00000000000E+00  0.39952088946E+03  0.88665241500E+03  0.79153999515E+03 0.  0.
        3    1    3    3  502    0 -0.19152503255E+03 -0.34514670456E+03  0.16757076416E+03  0.42882170766E+03  0.10100000352E+00 0. -1.
       -3    1    3    3    0  502  0.19152503255E+03  0.34514670456E+03  0.23195012529E+03  0.45783070734E+03  0.10100000352E+00 0.  1.
</event>
<event>
 5   0  0.1030323E-02  0.7998227E+03  0.7818609E-02  0.9560274E-01
       -1   -1    0    0    0  501  0.00000000000E+00  0.00000000000E+00  0.44033759056E+03  0.44033759059E+03  0.50400001928E-02 0. -1.
        1   -1    0    0  501    0  0.00000000000E+00  0.00000000000E+00 -0.36319653214E+03  0.36319653217E+03  0.50400001928E-02 0.  1.
    10030    2    1    2    0    0  0.00000000000E+00  0.00000000000E+00  0.77141058421E+02  0.80353412276E+03  0.79982269506E+03 0.  0.
        3    1    3    3  502    0  0.14214785866E+03 -0.17657349763E+03 -0.29241974772E+03  0.36999126049E+03  0.10100000352E+00 0.  1.
       -3    1    3    3    0  502 -0.14214785866E+03  0.17657349763E+03  0.36956080614E+03  0.43354286226E+03  0.10100000352E+00 0. -1.
</event>
<event>
 5   0  0.1049780E-02  0.7893190E+03  0.7818609E-02  0.9575607E-01
        1   -1    0    0  501    0  0.00000000000E+00  0.00000000000E+00  0.93475738290E+02  0.93475738426E+02  0.50400001928E-02 0.  1.
       -1   -1    0    0    0  501  0.00000000000E+00  0.00000000000E+00 -0.16662731928E+04  0.16662731928E+04  0.50400001928E-02 0. -1.
    10030    2    1    2    0    0  0.00000000000E+00  0.00000000000E+00 -0.15727974545E+04  0.17597489312E+04  0.78931899005E+03 0.  0.
        5    1    3    3  502    0 -0.29580168710E+03  0.85183844072E+02 -0.23585899219E+03  0.38782274247E+03  0.46999998093E+01 0.  1.
       -5    1    3    3    0  502  0.29580168710E+03 -0.85183844072E+02 -0.13369384623E+04  0.13719261887E+04  0.46999998093E+01 0. -1.
</event>
<event>
 5   0  0.1673727E-02  0.7914287E+03  0.7818609E-02  0.9572507E-01
        2   -1    0    0  501    0  0.00000000000E+00  0.00000000000E+00  0.18673496997E+03  0.18673496999E+03  0.25500000920E-02 0.  1.
       -2   -1    0    0    0  501  0.00000000000E+00  0.00000000000E+00 -0.83856731491E+03  0.83856731491E+03  0.25500000920E-02 0. -1.
    10030    2    1    2    0    0  0.00000000000E+00  0.00000000000E+00 -0.65183234493E+03  0.10253022849E+04  0.79142868884E+03 0.  0.
        5    1    3    3  502    0  0.15043882138E+03 -0.27212573890E+03 -0.64294131611E+03  0.71419876975E+03  0.46999998093E+01 0. -1.
       -5    1    3    3    0  502 -0.15043882138E+03  0.27212573890E+03 -0.88910288198E+01  0.31110351515E+03  0.46999998093E+01 0.  1.
</event>
<event>
 5   0  0.1025900E-02  0.7995629E+03  0.7818609E-02  0.9560650E-01
        1   -1    0    0  501    0  0.00000000000E+00  0.00000000000E+00  0.49632737416E+03  0.49632737419E+03  0.50400001928E-02 0.  1.
       -1   -1    0    0    0  501  0.00000000000E+00  0.00000000000E+00 -0.32201568694E+03  0.32201568698E+03  0.50400001928E-02 0. -1.
    10030    2    1    2    0    0  0.00000000000E+00  0.00000000000E+00  0.17431168722E+03  0.81834306117E+03  0.79956288149E+03 0.  0.
        1    1    3    3  502    0 -0.35749894298E+03  0.17689709689E+03  0.11475442676E+03  0.41505018444E+03  0.50400001928E-02 0. -1.
       -1    1    3    3    0  502  0.35749894298E+03 -0.17689709689E+03  0.59557260454E+02  0.40329287672E+03  0.50400001928E-02 0.  1.
</event>
<event>
 5   0  0.1038912E-02  0.7833234E+03  0.7818609E-02  0.9584475E-01
        1   -1    0    0  501    0  0.00000000000E+00  0.00000000000E+00  0.49488417345E+03  0.49488417347E+03  0.50400001928E-02 0. -1.
       -1   -1    0    0    0  501  0.00000000000E+00  0.00000000000E+00 -0.30996923844E+03  0.30996923849E+03  0.50400001928E-02 0.  1.
    10030    2    1    2    0    0  0.00000000000E+00  0.00000000000E+00  0.18491493500E+03  0.80485341196E+03  0.78332335696E+03 0.  0.
        2    1    3    3  502    0  0.94611926056E+02  0.24016000328E+03  0.39512238226E+03  0.47196391885E+03  0.25500000920E-02 0. -1.
       -2    1    3    3    0  502 -0.94611926056E+02 -0.24016000328E+03 -0.21020744726E+03  0.33288949310E+03  0.25500000920E-02 0.  1.
</event>
<event>
 5   0  0.1817089E-02  0.8014402E+03  0.7818609E-02  0.9557935E-01
       -2   -1    0    0    0  501  0.00000000000E+00  0.00000000000E+00  0.57136043344E+03  0.57136043344E+03  0.25500000920E-02 0.  1.
        2   -1    0    0  501    0  0.00000000000E+00  0.00000000000E+00 -0.28104253573E+03  0.28104253574E+03  0.25500000920E-02 0. -1.
    10030    2    1    2    0    0  0.00000000000E+00  0.00000000000E+00  0.29031789771E+03  0.85240296918E+03  0.80144016629E+03 0.  0.
        2    1    3    3  502    0  0.24633735809E+03  0.35233997937E+02  0.47922252186E+03  0.53997940152E+03  0.25500000920E-02 0.  1.
       -2    1    3    3    0  502 -0.24633735809E+03 -0.35233997937E+02 -0.18890462415E+03  0.31242356766E+03  0.25500000920E-02 0. -1.
</event>
<event>
 5   0  0.1817089E-02  0.7814338E+03  0.7818609E-02  0.9587287E-01
       -2   -1    0    0    0  501  0.00000000000E+00  0.00000000000E+00  0.13266978958E+03  0.13266978960E+03  0.25500000920E-02 0. -1.
        2   -1    0    0  501    0  0.00000000000E+00  0.00000000000E+00 -0.11506740385E+04  0.11506740385E+04  0.25500000920E-02 0.  1.
    10030    2    1    2    0    0  0.00000000000E+00  0.00000000000E+00 -0.10180042489E+04  0.12833438281E+04  0.78143376578E+03 0.  0.
        2    1    3    3  502    0  0.26408160524E+03 -0.94312053461E+02 -0.95583228619E+03  0.99611706992E+03  0.25500000920E-02 0.  1.
       -2    1    3    3    0  502 -0.26408160524E+03  0.94312053461E+02 -0.62171962713E+02  0.28722675817E+03  0.25500000920E-02 0. -1.
</event>
<event>
 5   0  0.1731337E-02  0.8144182E+03  0.7818609E-02  0.9539379E-01
        2   -1    0    0  501    0  0.00000000000E+00  0.00000000000E+00  0.13610588319E+04  0.13610588319E+04  0.25500000920E-02 0. -1.
       -2   -1    0    0    0  501  0.00000000000E+00  0.00000000000E+00 -0.12183106273E+03  0.12183106275E+03  0.25500000920E-02 0.  1.
    10030    2    1    2    0    0  0.00000000000E+00  0.00000000000E+00  0.12392277692E+04  0.14828898947E+04  0.81441818237E+03 0.  0.
        4    1    3    3  502    0  0.11141919072E+03  0.37266031447E+03  0.83907604595E+03  0.92484602493E+03  0.12699999809E+01 0.  1.
       -4    1    3    3    0  502 -0.11141919072E+03 -0.37266031447E+03  0.40015172322E+03  0.55804386972E+03  0.12699999809E+01 0. -1.
</event>
<event>
 5   0  0.1747544E-02  0.8050143E+03  0.7818609E-02  0.9552787E-01
        2   -1    0    0  501    0  0.00000000000E+00  0.00000000000E+00  0.20965543977E+03  0.20965543979E+03  0.25500000920E-02 0. -1.
       -2   -1    0    0    0  501  0.00000000000E+00  0.00000000000E+00 -0.77275372620E+03  0.77275372620E+03  0.25500000920E-02 0.  1.
    10030    2    1    2    0    0  0.00000000000E+00  0.00000000000E+00 -0.56309828642E+03  0.98240916599E+03  0.80501434102E+03 0.  0.
        1    1    3    3  502    0  0.18706086855E+03 -0.29802865930E+03 -0.43034106680E+02  0.35449229141E+03  0.50400001928E-02 0. -1.
       -1    1    3    3    0  502 -0.18706086855E+03  0.29802865930E+03 -0.52006417974E+03  0.62791687458E+03  0.50400001928E-02 0.  1.
</event>
<event>
 5   0  0.6872500E-03  0.8156605E+03  0.7818609E-02  0.9537622E-01
        4   -1    0    0  501    0  0.00000000000E+00  0.00000000000E+00  0.36808206596E+03  0.36808425691E+03  0.12699999809E+01 0.  1.
       -4   -1    0    0    0  501  0.00000000000E+00  0.00000000000E+00 -0.45186629886E+03  0.45186808357E+03  0.12699999809E+01 0. -1.
    10030    2    1    2    0    0  0.00000000000E+00  0.00000000000E+00 -0.83784232899E+02  0.81995234047E+03  0.81566049491E+03 0.  0.
        4    1    3    3  502    0  0.50927930134E+02 -0.71758383318E+02  0.35842552340E+03  0.36907098012E+03  0.12699999809E+01 0.  1.
       -4    1    3    3    0  502 -0.50927930134E+02  0.71758383318E+02 -0.44220975630E+03  0.45088136035E+03  0.12699999809E+01 0. -1.
</event>
<event>
 5   0  0.1731337E-02  0.8038891E+03  0.7818609E-02  0.9554405E-01
       -2   -1    0    0    0  501  0.00000000000E+00  0.00000000000E+00  0.10681306423E+03  0.10681306426E+03  0.25500000920E-02 0. -1.
        2   -1    0    0  501    0  0.00000000000E+00  0.00000000000E+00 -0.15125435594E+04  0.15125435594E+04  0.25500000920E-02 0.  1.
    10030    2    1    2    0    0  0.00000000000E+00  0.00000000000E+00 -0.14057304952E+04  0.16193566237E+04  0.80388907791E+03 0.  0.
        4    1    3    3  502    0  0.37549238515E+03  0.13551212447E+03 -0.79734337806E+03  0.89169285217E+03  0.12699999809E+01 0.  1.
       -4    1    3    3    0  502 -0.37549238515E+03 -0.13551212447E+03 -0.60838711714E+03  0.72766377152E+03  0.12699999809E+01 0. -1.
</event>
<event>
 5   0  0.1818665E-02  0.7876240E+03  0.7818609E-02  0.9578106E-01
       -2   -1    0    0    0  501  0.00000000000E+00  0.00000000000E+00  0.21895612188E+03  0.21895612189E+03  0.25500000920E-02 0.  1.
        2   -1    0    0  501    0  0.00000000000E+00  0.00000000000E+00 -0.70830582297E+03  0.70830582298E+03  0.25500000920E-02 0. -1.
    10030    2    1    2    0    0  0.00000000000E+00  0.00000000000E+00 -0.48934970110E+03  0.92726194487E+03  0.78762401210E+03 0.  0.
        3    1    3    3  502    0 -0.95483523301E+02 -0.24566025671E+03 -0.58916413594E+03  0.64543044104E+03  0.10100000352E+00 0. -1.
       -3    1    3    3    0  502  0.95483523301E+02  0.24566025671E+03  0.99814434839E+02  0.28183150383E+03  0.10100000352E+00 0.  1.
</event>
<event>
 5   0  0.6872500E-03  0.7986786E+03  0.7818609E-02  0.9561932E-01
       -3   -1    0    0    0  501  0.00000000000E+00  0.00000000000E+00  0.30530121700E+03  0.30530123371E+03  0.10100000352E+00 0.  1.
        3   -1    0    0  501    0  0.00000000000E+00  0.00000000000E+00 -0.52234277263E+03  0.52234278240E+03  0.10100000352E+00 0. -1.
    10030    2    1    2    0    0  0.00000000000E+00  0.00000000000E+00 -0.21704155563E+03  0.82764401610E+03  0.79867864659E+03 0.  0.
        4    1    3    3  502    0 -0.12045906252E+03 -0.20301741159E+03 -0.44229488170E+03  0.50135100521E+03  0.12699999809E+01 0. -1.
       -4    1    3    3    0  502  0.12045906252E+03  0.20301741159E+03  0.22525332606E+03  0.32629301089E+03  0.12699999809E+01 0.  1.
</event>
<event>
 5   0  0.6872500E-03  0.7987566E+03  0.7818609E-02  0.9561819E-01
       -3   -1    0    0    0  501  0.00000000000E+00  0.00000000000E+00  0.13903690500E+03  0.13903694168E+03  0.10100000352E+00 0.  1.
        3   -1    0    0  501    0  0.00000000000E+00  0.00000000000E+00 -0.11471989450E+04  0.11471989494E+04  0.10100000352E+00 0. -1.
    10030    2    1    2    0    0  0.00000000000E+00  0.00000000000E+00 -0.10081620400E+04  0.12862358911E+04  0.79875657665E+03 0.  0.
        4    1    3    3  502    0  0.25784364264E+03 -0.26564507731E+03 -0.74536119223E+03  0.83223528580E+03  0.12699999809E+01 0. -1.
       -4    1    3    3    0  502 -0.25784364264E+03  0.26564507731E+03 -0.26280084777E+03  0.45400060533E+03  0.12699999809E+01 0.  1.
</event>
<event>
 5   0  0.1030323E-02  0.8021505E+03  0.7818609E-02  0.9556909E-01
        1   -1    0    0  501    0  0.00000000000E+00  0.00000000000E+00  0.38017818941E+03  0.38017818944E+03  0.50400001928E-02 0. -1.
       -1   -1    0    0    0  501  0.00000000000E+00  0.00000000000E+00 -0.42312099388E+03  0.42312099391E+03  0.50400001928E-02 0.  1.
    10030    2    1    2    0    0  0.00000000000E+00  0.00000000000E+00 -0.42942804477E+02  0.80329918335E+03  0.80215054293E+03 0.  0.
        3    1    3    3  502    0  0.28946539331E+03 -0.21559168987E+03  0.15368294669E+03  0.39228618248E+03  0.10100000352E+00 0. -1.
       -3    1    3    3    0  502 -0.28946539331E+03  0.21559168987E+03 -0.19662575116E+03  0.41101300087E+03  0.10100000352E+00 0.  1.
</event>
<event>
 5   0  0.1673727E-02  0.7975416E+03  0.7818609E-02  0.9563582E-01
       -2   -1    0    0    0  501  0.00000000000E+00  0.00000000000E+00  0.17102935514E+03  0.17102935516E+03  0.25500000920E-02 0. -1.
        2   -1    0    0  501    0  0.00000000000E+00  0.00000000000E+00 -0.92977108675E+03  0.92977108675E+03  0.25500000920E-02 0.  1.
    10030    2    1    2    0    0  0.00000000000E+00  0.00000000000E+00 -0.75874173161E+03  0.11008004419E+04  0.79754159617E+03 0.  0.
        5    1    3    3  502    0  0.25042516563E+03 -0.27257584180E+03 -0.58402732831E+03  0.69146248150E+03  0.46999998093E+01 0.  1.
       -5    1    3    3    0  502 -0.25042516563E+03  0.27257584180E+03 -0.17471440330E+03  0.40933796041E+03  0.46999998093E+01 0. -1.
</event>
<event>
 5   0  0.1146083E-02  0.7988059E+03  0.7818609E-02  0.9561747E-01
        1   -1    0    0  501    0  0.00000000000E+00  0.00000000000E+00  0.22238920791E+03  0.22238920797E+03  0.50400001928E-02 0.  1.
       -1   -1    0    0    0  501  0.00000000000E+00  0.00000000000E+00 -0.71731323511E+03  0.71731323513E+03  0.50400001928E-02 0. -1.
    10030    2    1    2    0    0  0.00000000000E+00  0.00000000000E+00 -0.49492402720E+03  0.93970244310E+03  0.79880591439E+03 0.  0.
        4    1    3    3  502    0 -0.27849009650E+03  0.83814354476E+02  0.74574091308E+02  0.30024071653E+03  0.12699999809E+01 0.  1.
       -4    1    3    3    0  502  0.27849009650E+03 -0.83814354476E+02 -0.56949811851E+03  0.63946172657E+03  0.12699999809E+01 0. -1.
</event>
<event>
 5   0  0.1747544E-02  0.8040817E+03  0.7818609E-02  0.9554128E-01
        2   -1    0    0  501    0  0.00000000000E+00  0.00000000000E+00  0.81195385154E+03  0.81195385155E+03  0.25500000920E-02 0.  1.
       -2   -1    0    0    0  501  0.00000000000E+00  0.00000000000E+00 -0.19907148314E+03  0.19907148316E+03  0.25500000920E-02 0. -1.
    10030    2    1    2    0    0  0.00000000000E+00  0.00000000000E+00  0.61288236840E+03  0.10110253347E+04  0.80408173088E+03 0.  0.
        1    1    3    3  502    0 -0.17772584567E+03 -0.21046621146E+03  0.67464639998E+03  0.72871823596E+03  0.50400001928E-02 0.  1.
       -1    1    3    3    0  502  0.17772584567E+03  0.21046621146E+03 -0.61764031584E+02  0.28230709875E+03  0.50400001928E-02 0. -1.
</event>
<event>
 5   0  0.6872500E-03  0.7864912E+03  0.7818609E-02  0.9579779E-01
        3   -1    0    0  501    0  0.00000000000E+00  0.00000000000E+00  0.86030860077E+03  0.86030860670E+03  0.10100000352E+00 0. -1.
       -3   -1    0    0    0  501  0.00000000000E+00  0.00000000000E+00 -0.17975187782E+03  0.17975190620E+03  0.10100000352E+00 0.  1.
    10030    2    1    2    0    0  0.00000000000E+00  0.00000000000E+00  0.68055672295E+03  0.10400605129E+04  0.78649120614E+03 0.  0.
        3    1    3    3  502    0 -0.26177135687E+03  0.12181757158E+03  0.69333427930E+03  0.75105006296E+03  0.10100000352E+00 0. -1.
       -3    1    3    3    0  502  0.26177135687E+03 -0.12181757158E+03 -0.12777556351E+02  0.28901044993E+03  0.10100000352E+00 0.  1.
</event>
<event>
 5   0  0.1817089E-02  0.8785025E+03  0.7818609E-02  0.9452861E-01
        2   -1    0    0  501    0  0.00000000000E+00  0.00000000000E+00  0.44704400326E+03  0.44704400326E+03  0.25500000920E-02 0.  1.
       -2   -1    0    0    0  501  0.00000000000E+00  0.00000000000E+00 -0.43159430729E+03  0.43159430730E+03  0.25500000920E-02 0. -1.
    10030    2    1    2    0    0  0.00000000000E+00  0.00000000000E+00  0.15449695961E+02  0.87863831057E+03  0.87850246880E+03 0.  0.
        2    1    3    3  502    0  0.17254264000E+03 -0.25677582894E+03  0.31960131635E+03  0.44480309168E+03  0.25500000920E-02 0.  1.
       -2    1    3    3    0  502 -0.17254264000E+03  0.25677582894E+03 -0.30415162039E+03  0.43383521888E+03  0.25500000920E-02 0. -1.
</event>
<event>
 5   0  0.1049780E-02  0.8042252E+03  0.7818609E-02  0.9553921E-01
       -1   -1    0    0    0  501  0.00000000000E+00  0.00000000000E+00  0.56469457555E+03  0.56469457558E+03  0.50400001928E-02 0. -1.
        1   -1    0    0  501    0  0.00000000000E+00  0.00000000000E+00 -0.28633982115E+03  0.28633982119E+03  0.50400001928E-02 0.  1.
    10030    2    1    2    0    0  0.00000000000E+00  0.00000000000E+00  0.27835475441E+03  0.85103439677E+03  0.80422520178E+03 0.  0.
        5    1    3    3  502    0 -0.19703929843E+03 -0.45910781971E+02  0.50687881200E+03  0.54578430271E+03  0.46999998093E+01 0. -1.
       -5    1    3    3    0  502  0.19703929843E+03  0.45910781971E+02 -0.22852405759E+03  0.30525009406E+03  0.46999998093E+01 0.  1.
</event>
<event>
 5   0  0.1731337E-02  0.7624356E+03  0.7818609E-02  0.9616040E-01
        2   -1    0    0  501    0  0.00000000000E+00  0.00000000000E+00  0.37168818618E+03  0.37168818619E+03  0.25500000920E-02 0.  1.
       -2   -1    0    0    0  501  0.00000000000E+00  0.00000000000E+00 -0.39099176445E+03  0.39099176446E+03  0.25500000920E-02 0. -1.
    10030    2    1    2    0    0  0.00000000000E+00  0.00000000000E+00 -0.19303578277E+02  0.76267995065E+03  0.76243562285E+03 0.  0.
        4    1    3    3  502    0 -0.23931086728E+02 -0.17441531262E+02 -0.38983739751E+03  0.39096254721E+03  0.12699999809E+01 0. -1.
       -4    1    3    3    0  502  0.23931086728E+02  0.17441531262E+02  0.37053381923E+03  0.37171740344E+03  0.12699999809E+01 0.  1.
</event>
<event>
 5   0  0.1673727E-02  0.8021897E+03  0.7818609E-02  0.9556853E-01
        2   -1    0    0  501    0  0.00000000000E+00  0.00000000000E+00  0.58627481953E+03  0.58627481953E+03  0.25500000920E-02 0. -1.
       -2   -1    0    0    0  501  0.00000000000E+00  0.00000000000E+00 -0.27440557690E+03  0.27440557691E+03  0.25500000920E-02 0.  1.
    10030    2    1    2    0    0  0.00000000000E+00  0.00000000000E+00  0.31186924263E+03  0.86068039644E+03  0.80218970345E+03 0.  0.
        5    1    3    3  502    0  0.32648761922E+03  0.39579080374E+02  0.40222459607E+03  0.51958385732E+03  0.46999998093E+01 0. -1.
       -5    1    3    3    0  502 -0.32648761922E+03 -0.39579080374E+02 -0.90355353437E+02  0.34109653912E+03  0.46999998093E+01 0.  1.
</event>
<event>
 5   0  0.1146083E-02  0.7969760E+03  0.7818609E-02  0.9564405E-01
        1   -1    0    0  501    0  0.00000000000E+00  0.00000000000E+00  0.33514994588E+03  0.33514994592E+03  0.50400001928E-02 0. -1.
       -1   -1    0    0    0  501  0.00000000000E+00  0.00000000000E+00 -0.47379595360E+03  0.47379595362E+03  0.50400001928E-02 0.  1.
    10030    2    1    2    0    0  0.00000000000E+00  0.00000000000E+00 -0.13864600771E+03  0.80894589954E+03  0.79697600524E+03 0.  0.
        4    1    3    3  502    0 -0.15023509033E+03  0.19483754791E+03  0.24884756933E+03  0.34994139238E+03  0.12699999809E+01 0. -1.
       -4    1    3    3    0  502  0.15023509033E+03 -0.19483754791E+03 -0.38749357704E+03  0.45900450716E+03  0.12699999809E+01 0.  1.
</event>
<event>
 5   0  0.1818665E-02  0.7944409E+03  0.7818609E-02  0.9568099E-01
       -2   -1    0    0    0  501  0.00000000000E+00  0.00000000000E+00  0.11268740478E+03  0.11268740481E+03  0.25500000920E-02 0. -1.
        2   -1    0    0  501    0  0.00000000000E+00  0.00000000000E+00 -0.14001927260E+04  0.14001927260E+04  0.25500000920E-02 0.  1.
    10030    2    1    2    0    0  0.00000000000E+00  0.00000000000E+00 -0.12875053213E+04  0.15128801308E+04  0.79444089650E+03 0.  0.
        3    1    3    3  502    0 -0.39219272284E+03  0.29824717397E+02 -0.74942905874E+03  0.84637377671E+03  0.10100000352E+00 0. -1.
       -3    1    3    3    0  502  0.39219272284E+03 -0.29824717397E+02 -0.53807626252E+03  0.66650635414E+03  0.10100000352E+00 0.  1.
</event>
<event>
 5   0  0.1049780E-02  0.8047967E+03  0.7818609E-02  0.9553100E-01
        1   -1    0    0  501    0  0.00000000000E+00  0.00000000000E+00  0.59458985802E+03  0.59458985804E+03  0.50400001928E-02 0.  1.
       -1   -1    0    0    0  501  0.00000000000E+00  0.00000000000E+00 -0.27232961445E+03  0.27232961450E+03  0.50400001928E-02 0. -1.
    10030    2    1    2    0    0  0.00000000000E+00  0.00000000000E+00  0.32226024357E+03  0.86691947254E+03  0.80479668692E+03 0.  0.
        5    1    3    3  502    0  0.19103039902E+03  0.14406691112E+03  0.50960495999E+03  0.56299839562E+03  0.46999998093E+01 0.  1.
       -5    1    3    3    0  502 -0.19103039902E+03 -0.14406691112E+03 -0.18734471641E+03  0.30392107692E+03  0.46999998093E+01 0. -1.
</event>
<event>
 5   0  0.1030323E-02  0.7882790E+03  0.7818609E-02  0.9577139E-01
        1   -1    0    0  501    0  0.00000000000E+00  0.00000000000E+00  0.78171929274E+03  0.78171929276E+03  0.50400001928E-02 0.  1.
       -1   -1    0    0    0  501  0.00000000000E+00  0.00000000000E+00 -0.19872344818E+03  0.19872344824E+03  0.50400001928E-02 0. -1.
    10030    2    1    2    0    0  0.00000000000E+00  0.00000000000E+00  0.58299584456E+03  0.98044274100E+03  0.78827902014E+03 0.  0.
        3    1    3    3  502    0  0.20134719046E+03  0.20591034938E+03 -0.43182328325E+02  0.29121209928E+03  0.10100000352E+00 0. -1.
       -3    1    3    3    0  502 -0.20134719046E+03 -0.20591034938E+03  0.62617817289E+03  0.68923064172E+03  0.10100000352E+00 0.  1.
</event>
<event>
 5   0  0.1030323E-02  0.7944724E+03  0.7818609E-02  0.9568053E-01
        1   -1    0    0  501    0  0.00000000000E+00  0.00000000000E+00  0.19553705514E+04  0.19553705514E+04  0.50400001928E-02 0. -1.
       -1   -1    0    0    0  501  0.00000000000E+00  0.00000000000E+00 -0.80699085397E+02  0.80699085554E+02  0.50400001928E-02 0.  1.
    10030    2    1    2    0    0  0.00000000000E+00  0.00000000000E+00  0.18746714660E+04  0.20360696370E+04  0.79447244201E+03 0.  0.
        3    1    3    3  502    0 -0.29413620551E+03 -0.11908949377E+03  0.15497213211E+04  0.15818769226E+04  0.10100000352E+00 0.  1.
       -3    1    3    3    0  502  0.29413620551E+03  0.11908949377E+03  0.32495014489E+03  0.45419271436E+03  0.10100000352E+00 0. -1.
</event>
<event>
 5   0  0.1025900E-02  0.7928726E+03  0.7818609E-02  0.9570391E-01
        1   -1    0    0  501    0  0.00000000000E+00  0.00000000000E+00  0.22045068577E+04  0.22045068577E+04  0.50400001928E-02 0. -1.
       -1   -1    0    0    0  501  0.00000000000E+00  0.00000000000E+00 -0.71291102481E+02  0.71291102660E+02  0.50400001928E-02 0.  1.
    10030    2    1    2    0    0  0.00000000000E+00  0.00000000000E+00  0.21332157552E+04  0.22757979604E+04  0.79287256107E+03 0.  0.
        1    1    3    3  502    0  0.17158306424E+03 -0.19190789932E+03  0.19319621556E+04  0.19490374959E+04  0.50400001928E-02 0. -1.
       -1    1    3    3    0  502 -0.17158306424E+03  0.19190789932E+03  0.20125359964E+03  0.32676046448E+03  0.50400001928E-02 0.  1.
</event>
<event>
 5   0  0.1818665E-02  0.7983196E+03  0.7818609E-02  0.9562453E-01
        2   -1    0    0  501    0  0.00000000000E+00  0.00000000000E+00  0.23915776382E+03  0.23915776384E+03  0.25500000920E-02 0. -1.
       -2   -1    0    0    0  501  0.00000000000E+00  0.00000000000E+00 -0.66620695006E+03  0.66620695006E+03  0.25500000920E-02 0.  1.
    10030    2    1    2    0    0  0.00000000000E+00  0.00000000000E+00 -0.42704918623E+03  0.90536471390E+03  0.79831964632E+03 0.  0.
        3    1    3    3  502    0 -0.85486824465E+02 -0.33710234248E+02 -0.65404760139E+03  0.66047153772E+03  0.10100000352E+00 0.  1.
       -3    1    3    3    0  502  0.85486824465E+02  0.33710234248E+02  0.22699841516E+03  0.24489317617E+03  0.10100000352E+00 0. -1.
</event>
<event>
 5   0  0.6872500E-03  0.7106744E+03  0.7818609E-02  0.9699150E-01
        3   -1    0    0  501    0  0.00000000000E+00  0.00000000000E+00  0.15991512635E+03  0.15991515824E+03  0.10100000352E+00 0.  1.
       -3   -1    0    0    0  501  0.00000000000E+00  0.00000000000E+00 -0.78957202811E+03  0.78957203457E+03  0.10100000352E+00 0. -1.
    10030    2    1    2    0    0  0.00000000000E+00  0.00000000000E+00 -0.62965690177E+03  0.94948719281E+03  0.71067440884E+03 0.  0.
        2    1    3    3  502    0 -0.18603131460E+03  0.18482113682E+02  0.88900772413E+02  0.20700866136E+03  0.25500000920E-02 0.  1.
       -2    1    3    3    0  502  0.18603131460E+03 -0.18482113682E+02 -0.71855767418E+03  0.74247853145E+03  0.25500000920E-02 0. -1.
</event>
<event>
 5   0  0.1818665E-02  0.8847914E+03  0.7818609E-02  0.9444795E-01
        2   -1    0    0  501    0  0.00000000000E+00  0.00000000000E+00  0.38408764188E+03  0.38408764189E+03  0.25500000920E-02 0. -1.
       -2   -1    0    0    0  501  0.00000000000E+00  0.00000000000E+00 -0.50955549315E+03  0.50955549316E+03  0.25500000920E-02 0.  1.
    10030    2    1    2    0    0  0.00000000000E+00  0.00000000000E+00 -0.12546785127E+03  0.89364313505E+03  0.88479142803E+03 0.  0.
        3    1    3    3  502    0 -0.21971827271E+03  0.14787577148E+03 -0.42063845296E+03  0.49707150538E+03  0.10100000352E+00 0.  1.
       -3    1    3    3    0  502  0.21971827271E+03 -0.14787577148E+03  0.29517060169E+03  0.39657162967E+03  0.10100000352E+00 0. -1.
</event>
<event>
 5   0  0.1673727E-02  0.8006902E+03  0.7818609E-02  0.9559019E-01
        2   -1    0    0  501    0  0.00000000000E+00  0.00000000000E+00  0.47430349310E+03  0.47430349311E+03  0.25500000920E-02 0.  1.
       -2   -1    0    0    0  501  0.00000000000E+00  0.00000000000E+00 -0.33791903829E+03  0.33791903830E+03  0.25500000920E-02 0. -1.
    10030    2    1    2    0    0  0.00000000000E+00  0.00000000000E+00  0.13638445481E+03  0.81222253141E+03  0.80069015294E+03 0.  0.
        5    1    3    3  502    0  0.18784905970E+03  0.14324108193E+03  0.39603249893E+03  0.46116060867E+03  0.46999998093E+01 0.  1.
       -5    1    3    3    0  502 -0.18784905970E+03 -0.14324108193E+03 -0.25964804412E+03  0.35106192274E+03  0.46999998093E+01 0. -1.
</event>
<event>
 5   0  0.1038912E-02  0.7798487E+03  0.7818609E-02  0.9589652E-01
        1   -1    0    0  501    0  0.00000000000E+00  0.00000000000E+00  0.15202666427E+03  0.15202666436E+03  0.50400001928E-02 0.  1.
       -1   -1    0    0    0  501  0.00000000000E+00  0.00000000000E+00 -0.10000942580E+04  0.10000942580E+04  0.50400001928E-02 0. -1.
    10030    2    1    2    0    0  0.00000000000E+00  0.00000000000E+00 -0.84806759375E+03  0.11521209224E+04  0.77984868804E+03 0.  0.
        2    1    3    3  502    0  0.92913862931E+02 -0.28350534130E+03 -0.79494570342E+03  0.84908594139E+03  0.25500000920E-02 0. -1.
       -2    1    3    3    0  502 -0.92913862931E+02  0.28350534130E+03 -0.53121890328E+02  0.30303498100E+03  0.25500000920E-02 0.  1.
</event>
<event>
 5   0  0.1146083E-02  0.7992295E+03  0.7818609E-02  0.9561133E-01
       -1   -1    0    0    0  501  0.00000000000E+00  0.00000000000E+00  0.68099228665E+03  0.68099228667E+03  0.50400001928E-02 0.  1.
        1   -1    0    0  501    0  0.00000000000E+00  0.00000000000E+00 -0.23449889756E+03  0.23449889762E+03  0.50400001928E-02 0. -1.
    10030    2    1    2    0    0  0.00000000000E+00  0.00000000000E+00  0.44649338909E+03  0.91549118428E+03  0.79922948019E+03 0.  0.
        4    1    3    3  502    0 -0.12193124333E+03 -0.17398884328E+03  0.61093444578E+03  0.64682443957E+03  0.12699999809E+01 0.  1.
       -4    1    3    3    0  502  0.12193124333E+03  0.17398884328E+03 -0.16444105670E+03  0.26866674471E+03  0.12699999809E+01 0. -1.
</event>
<event>
 5   0  0.1817089E-02  0.8049516E+03  0.7818609E-02  0.9552877E-01
       -2   -1    0    0    0  501  0.00000000000E+00  0.00000000000E+00  0.22756622322E+03  0.22756622324E+03  0.25500000920E-02 0.  1.
        2   -1    0    0  501    0  0.00000000000E+00  0.00000000000E+00 -0.71182259364E+03  0.71182259365E+03  0.25500000920E-02 0. -1.
    10030    2    1    2    0    0  0.00000000000E+00  0.00000000000E+00 -0.48425637042E+03  0.93938881689E+03  0.80495162401E+03 0.  0.
        2    1    3    3  502    0  0.11966955210E+03  0.95388904359E+02 -0.67654378209E+03  0.69363631239E+03  0.25500000920E-02 0. -1.
       -2    1    3    3    0  502 -0.11966955210E+03 -0.95388904359E+02  0.19228741167E+03  0.24575250450E+03  0.25500000920E-02 0.  1.
</event>
<event>
 5   0  0.1818665E-02  0.8040198E+03  0.7818609E-02  0.9554217E-01
       -2   -1    0    0    0  501  0.00000000000E+00  0.00000000000E+00  0.31566067181E+03  0.31566067182E+03  0.25500000920E-02 0.  1.
        2   -1    0    0  501    0  0.00000000000E+00  0.00000000000E+00 -0.51198003704E+03  0.51198003705E+03  0.25500000920E-02 0. -1.
    10030    2    1    2    0    0  0.00000000000E+00  0.00000000000E+00 -0.19631936523E+03  0.82764070886E+03  0.80401980685E+03 0.  0.
        3    1    3    3  502    0  0.11432005432E+03 -0.35732491704E+03 -0.24683907868E+03  0.44908764415E+03  0.10100000352E+00 0. -1.
       -3    1    3    3    0  502 -0.11432005432E+03  0.35732491704E+03  0.50519713449E+02  0.37855306472E+03  0.10100000352E+00 0.  1.
</event>
<event>
 5   0  0.1025900E-02  0.8001216E+03  0.7818609E-02  0.9559841E-01
        1   -1    0    0  501    0  0.00000000000E+00  0.00000000000E+00  0.96660869559E+03  0.96660869561E+03  0.50400001928E-02 0.  1.
       -1   -1    0    0    0  501  0.00000000000E+00  0.00000000000E+00 -0.16557750196E+03  0.16557750204E+03  0.50400001928E-02 0. -1.
    10030    2    1    2    0    0  0.00000000000E+00  0.00000000000E+00  0.80103119363E+03  0.11321861976E+04  0.80012162386E+03 0.  0.
        1    1    3    3  502    0  0.26853241300E+03  0.83111797648E+02 -0.22835925980E+01  0.28110930714E+03  0.50400001928E-02 0. -1.
       -1    1    3    3    0  502 -0.26853241300E+03 -0.83111797648E+02  0.80331478623E+03  0.85107689050E+03  0.50400001928E-02 0.  1.
</event>
<event>
 5   0  0.1673727E-02  0.8124449E+03  0.7818609E-02  0.9542176E-01
       -2   -1    0    0    0  501  0.00000000000E+00  0.00000000000E+00  0.63120237164E+03  0.63120237164E+03  0.25500000920E-02 0. -1.
        2   -1    0    0  501    0  0.00000000000E+00  0.00000000000E+00 -0.26143228126E+03  0.26143228127E+03  0.25500000920E-02 0.  1.
    10030    2    1    2    0    0  0.00000000000E+00  0.00000000000E+00  0.36977009038E+03  0.89263465291E+03  0.81244489280E+03 0.  0.
        5    1    3    3  502    0  0.92502257392E+02  0.11092562774E+03  0.60200616587E+03  0.61910796817E+03  0.46999998093E+01 0. -1.
       -5    1    3    3    0  502 -0.92502257392E+02 -0.11092562774E+03 -0.23223607548E+03  0.27352668474E+03  0.46999998093E+01 0.  1.
</event>
<event>
 5   0  0.1146083E-02  0.7959146E+03  0.7818609E-02  0.9565950E-01
        1   -1    0    0  501    0  0.00000000000E+00  0.00000000000E+00  0.66676822486E+03  0.66676822488E+03  0.50400001928E-02 0.  1.
       -1   -1    0    0    0  501  0.00000000000E+00  0.00000000000E+00 -0.23751881357E+03  0.23751881362E+03  0.50400001928E-02 0. -1.
    10030    2    1    2    0    0  0.00000000000E+00  0.00000000000E+00  0.42924941129E+03  0.90428703850E+03  0.79591456257E+03 0.  0.
        4    1    3    3  502    0  0.12849470819E+03  0.10553732836E+03 -0.19615579828E+03  0.25715312132E+03  0.12699999809E+01 0. -1.
       -4    1    3    3    0  502 -0.12849470819E+03 -0.10553732836E+03  0.62540520957E+03  0.64713391718E+03  0.12699999809E+01 0.  1.
</event>
<event>
 5   0  0.1049780E-02  0.8013248E+03  0.7818609E-02  0.9558101E-01
        1   -1    0    0  501    0  0.00000000000E+00  0.00000000000E+00  0.39348617676E+03  0.39348617679E+03  0.50400001928E-02 0. -1.
       -1   -1    0    0    0  501  0.00000000000E+00  0.00000000000E+00 -0.40796952637E+03  0.40796952640E+03  0.50400001928E-02 0.  1.
    10030    2    1    2    0    0  0.00000000000E+00  0.00000000000E+00 -0.14483349604E+02  0.80145570319E+03  0.80132482600E+03 0.  0.
        5    1    3    3  502    0  0.31261519110E+03  0.24493060837E+03  0.45578110154E+02  0.39977332921E+03  0.46999998093E+01 0.  1.
       -5    1    3    3    0  502 -0.31261519110E+03 -0.24493060837E+03 -0.60061459759E+02  0.40168237398E+03  0.46999998093E+01 0. -1.
</event>
<event>
 5   0  0.1817089E-02  0.8200897E+03  0.7818609E-02  0.9531385E-01
        2   -1    0    0  501    0  0.00000000000E+00  0.00000000000E+00  0.36357028468E+03  0.36357028469E+03  0.25500000920E-02 0.  1.
       -2   -1    0    0    0  501  0.00000000000E+00  0.00000000000E+00 -0.46246016676E+03  0.46246016677E+03  0.25500000920E-02 0. -1.
    10030    2    1    2    0    0  0.00000000000E+00  0.00000000000E+00 -0.98889882079E+02  0.82603045146E+03  0.82008968897E+03 0.  0.
        2    1    3    3  502    0  0.32862486000E+03  0.22312728778E+03 -0.15194997185E+03  0.42528681982E+03  0.25500000920E-02 0. -1.
       -2    1    3    3    0  502 -0.32862486000E+03 -0.22312728778E+03  0.53060089767E+02  0.40074363164E+03  0.25500000920E-02 0.  1.
</event>
<event>
 5   0  0.1025900E-02  0.8358769E+03  0.7818609E-02  0.9509491E-01
        1   -1    0    0  501    0  0.00000000000E+00  0.00000000000E+00  0.27167234627E+03  0.27167234631E+03  0.50400001928E-02 0. -1.
       -1   -1    0    0    0  501  0.00000000000E+00  0.00000000000E+00 -0.64295299543E+03  0.64295299545E+03  0.50400001928E-02 0.  1.
    10030    2    1    2    0    0  0.00000000000E+00  0.00000000000E+00 -0.37128064917E+03  0.91462534177E+03  0.83587690204E+03 0.  0.
        1    1    3    3  502    0 -0.28124444419E+03 -0.14625215826E+03  0.11238780125E+03  0.33633190316E+03  0.50400001928E-02 0. -1.
       -1    1    3    3    0  502  0.28124444419E+03  0.14625215826E+03 -0.48366845042E+03  0.57829343861E+03  0.50400001928E-02 0.  1.
</event>
<event>
 5   0  0.1038912E-02  0.7998547E+03  0.7818609E-02  0.9560227E-01
        1   -1    0    0  501    0  0.00000000000E+00  0.00000000000E+00  0.23070092763E+03  0.23070092769E+03  0.50400001928E-02 0. -1.
       -1   -1    0    0    0  501  0.00000000000E+00  0.00000000000E+00 -0.69328676884E+03  0.69328676885E+03  0.50400001928E-02 0.  1.
    10030    2    1    2    0    0  0.00000000000E+00  0.00000000000E+00 -0.46258584121E+03  0.92398769654E+03  0.79985473861E+03 0.  0.
        2    1    3    3  502    0 -0.25909497192E+03  0.28737167359E+03 -0.34812881080E+03  0.52048664937E+03  0.25500000920E-02 0. -1.
       -2    1    3    3    0  502  0.25909497192E+03 -0.28737167359E+03 -0.11445703041E+03  0.40350104718E+03  0.25500000920E-02 0.  1.
</event>
<event>
 5   0  0.1673727E-02  0.7923712E+03  0.7818609E-02  0.9571126E-01
       -2   -1    0    0    0  501  0.00000000000E+00  0.00000000000E+00  0.25276276473E+03  0.25276276475E+03  0.25500000920E-02 0.  1.
        2   -1    0    0  501    0  0.00000000000E+00  0.00000000000E+00 -0.62098958262E+03  0.62098958263E+03  0.25500000920E-02 0. -1.
    10030    2    1    2    0    0  0.00000000000E+00  0.00000000000E+00 -0.36822681789E+03  0.87375234737E+03  0.79237123568E+03 0.  0.
        5    1    3    3  502    0  0.44607652397E+02 -0.33625601594E+03  0.41559049332E+02  0.34177067675E+03  0.46999998093E+01 0.  1.
       -5    1    3    3    0  502 -0.44607652397E+02  0.33625601594E+03 -0.40978586722E+03  0.53198167062E+03  0.46999998093E+01 0. -1.
</event>
<event>
 5   0  0.1731337E-02  0.7993810E+03  0.7818609E-02  0.9560913E-01
        2   -1    0    0  501    0  0.00000000000E+00  0.00000000000E+00  0.58867238521E+03  0.58867238521E+03  0.25500000920E-02 0. -1.
       -2   -1    0    0    0  501  0.00000000000E+00  0.00000000000E+00 -0.27137761153E+03  0.27137761154E+03  0.25500000920E-02 0.  1.
    10030    2    1    2    0    0  0.00000000000E+00  0.00000000000E+00  0.31729477368E+03  0.86004999675E+03  0.79938102524E+03 0.  0.
        4    1    3    3  502    0  0.77346628670E+01 -0.20770642107E+03 -0.20865550291E+03  0.29451742589E+03  0.12699999809E+01 0.  1.
       -4    1    3    3    0  502 -0.77346628670E+01  0.20770642107E+03  0.52595027659E+03  0.56553257086E+03  0.12699999809E+01 0. -1.
</event>
<event>
 5   0  0.1038912E-02  0.8081086E+03  0.7818609E-02  0.9548354E-01
       -1   -1    0    0    0  501  0.00000000000E+00  0.00000000000E+00  0.13433526757E+03  0.13433526766E+03  0.50400001928E-02 0.  1.
        1   -1    0    0  501    0  0.00000000000E+00  0.00000000000E+00 -0.12153165137E+04  0.12153165137E+04  0.50400001928E-02 0. -1.
    10030    2    1    2    0    0  0.00000000000E+00  0.00000000000E+00 -0.10809812462E+04  0.13496517814E+04  0.80810857963E+03 0.  0.
        2    1    3    3  502    0 -0.30362474314E+03 -0.86156534378E+02 -0.96184507683E+03  0.10123027634E+04  0.25500000920E-02 0. -1.
       -2    1    3    3    0  502  0.30362474314E+03  0.86156534378E+02 -0.11913616933E+03  0.33734901794E+03  0.25500000920E-02 0.  1.
</event>
<event>
 5   0  0.1030323E-02  0.8047770E+03  0.7818609E-02  0.9553128E-01
        1   -1    0    0  501    0  0.00000000000E+00  0.00000000000E+00  0.23427182224E+04  0.23427182225E+04  0.50400001928E-02 0.  1.
       -1   -1    0    0    0  501  0.00000000000E+00  0.00000000000E+00 -0.69114795431E+02  0.69114795615E+02  0.50400001928E-02 0. -1.
    10030    2    1    2    0    0  0.00000000000E+00  0.00000000000E+00  0.22736034270E+04  0.24118330181E+04  0.80477696519E+03 0.  0.
        3    1    3    3  502    0 -0.10897443908E+03 -0.26220597914E+03  0.28234946904E+03  0.40043555878E+03  0.10100000352E+00 0.  1.
       -3    1    3    3    0  502  0.10897443908E+03  0.26220597914E+03  0.19912539580E+04  0.20113974593E+04  0.10100000352E+00 0. -1.
</event>
<event>
 5   0  0.1038912E-02  0.8061056E+03  0.7818609E-02  0.9551221E-01
       -1   -1    0    0    0  501  0.00000000000E+00  0.00000000000E+00  0.71269315577E+03  0.71269315579E+03  0.50400001928E-02 0. -1.
        1   -1    0    0  501    0  0.00000000000E+00  0.00000000000E+00 -0.22794038547E+03  0.22794038552E+03  0.50400001928E-02 0.  1.
    10030    2    1    2    0    0  0.00000000000E+00  0.00000000000E+00  0.48475277030E+03  0.94063354131E+03  0.80610558286E+03 0.  0.
        2    1    3    3  502    0 -0.17088754413E+03  0.53624900748E+01 -0.18352950244E+03  0.25082740542E+03  0.25500000920E-02 0.  1.
       -2    1    3    3    0  502  0.17088754413E+03 -0.53624900748E+01  0.66828227274E+03  0.68980613589E+03  0.25500000920E-02 0. -1.
</event>
<event>
 5   0  0.1818665E-02  0.7906546E+03  0.7818609E-02  0.9573644E-01
       -2   -1    0    0    0  501  0.00000000000E+00  0.00000000000E+00  0.22349169494E+03  0.22349169496E+03  0.25500000920E-02 0. -1.
        2   -1    0    0  501    0  0.00000000000E+00  0.00000000000E+00 -0.69928182679E+03  0.69928182679E+03  0.25500000920E-02 0.  1.
    10030    2    1    2    0    0  0.00000000000E+00  0.00000000000E+00 -0.47579013184E+03  0.92277352175E+03  0.79065461669E+03 0.  0.
        3    1    3    3  502    0 -0.39488421482E+03  0.20730939618E+01 -0.21619108253E+03  0.45019599643E+03  0.10100000352E+00 0. -1.
       -3    1    3    3    0  502  0.39488421482E+03 -0.20730939618E+01 -0.25959904931E+03  0.47257752532E+03  0.10100000352E+00 0.  1.
</event>
<event>
 5   0  0.1049780E-02  0.8053790E+03  0.7818609E-02  0.9552264E-01
       -1   -1    0    0    0  501  0.00000000000E+00  0.00000000000E+00  0.33874584638E+03  0.33874584642E+03  0.50400001928E-02 0.  1.
        1   -1    0    0  501    0  0.00000000000E+00  0.00000000000E+00 -0.47870350864E+03  0.47870350867E+03  0.50400001928E-02 0. -1.
    10030    2    1    2    0    0  0.00000000000E+00  0.00000000000E+00 -0.13995766227E+03  0.81744935509E+03  0.80537897968E+03 0.  0.
        5    1    3    3  502    0 -0.10934675156E+02 -0.32671649236E+03 -0.30860554178E+03  0.44958058668E+03  0.46999998093E+01 0. -1.
       -5    1    3    3    0  502  0.10934675156E+02  0.32671649236E+03  0.16864787952E+03  0.36786876840E+03  0.46999998093E+01 0.  1.
</event>
<event>
 5   0  0.1146083E-02  0.8360825E+03  0.7818609E-02  0.9509209E-01
       -1   -1    0    0    0  501  0.00000000000E+00  0.00000000000E+00  0.35905841719E+03  0.35905841722E+03  0.50400001928E-02 0.  1.
        1   -1    0    0  501    0  0.00000000000E+00  0.00000000000E+00 -0.48671325972E+03  0.48671325974E+03  0.50400001928E-02 0. -1.
    10030    2    1    2    0    0  0.00000000000E+00  0.00000000000E+00 -0.12765484253E+03  0.84577167697E+03  0.83608251431E+03 0.  0.
        4    1    3    3  502    0 -0.32988426056E+03  0.21313455490E+03 -0.20868931963E+03  0.44475027699E+03  0.12699999809E+01 0. -1.
       -4    1    3    3    0  502  0.32988426056E+03 -0.21313455490E+03  0.81034477101E+02  0.40102139997E+03  0.12699999809E+01 0.  1.
</event>
<event>
 5   0  0.1030323E-02  0.7919183E+03  0.7818609E-02  0.9571789E-01
       -1   -1    0    0    0  501  0.00000000000E+00  0.00000000000E+00  0.68942032586E+03  0.68942032587E+03  0.50400001928E-02 0. -1.
        1   -1    0    0  501    0  0.00000000000E+00  0.00000000000E+00 -0.22741374378E+03  0.22741374384E+03  0.50400001928E-02 0.  1.
    10030    2    1    2    0    0  0.00000000000E+00  0.00000000000E+00  0.46200658207E+03  0.91683406971E+03  0.79191832250E+03 0.  0.
        3    1    3    3  502    0  0.34181875300E+03 -0.18774697771E+03  0.31032871607E+03  0.49839031869E+03  0.10100000352E+00 0.  1.
       -3    1    3    3    0  502 -0.34181875300E+03  0.18774697771E+03  0.15167786600E+03  0.41844375103E+03  0.10100000352E+00 0. -1.
</event>
<event>
 5   0  0.1747544E-02  0.7884048E+03  0.7818609E-02  0.9576954E-01
       -2   -1    0    0    0  501  0.00000000000E+00  0.00000000000E+00  0.22782402126E+03  0.22782402128E+03  0.25500000920E-02 0.  1.
        2   -1    0    0  501    0  0.00000000000E+00  0.00000000000E+00 -0.68208582301E+03  0.68208582302E+03  0.25500000920E-02 0. -1.
    10030    2    1    2    0    0  0.00000000000E+00  0.00000000000E+00 -0.45426180175E+03  0.90990984429E+03  0.78840480732E+03 0.  0.
        1    1    3    3  502    0 -0.23129921543E+02  0.14711399606E+03 -0.64837184481E+03  0.66525451541E+03  0.50400001928E-02 0. -1.
       -1    1    3    3    0  502  0.23129921543E+02 -0.14711399606E+03  0.19411004306E+03  0.24465532888E+03  0.50400001928E-02 0.  1.
</event>
<event>
 5   0  0.1025900E-02  0.8002337E+03  0.7818609E-02  0.9559679E-01
        1   -1    0    0  501    0  0.00000000000E+00  0.00000000000E+00  0.13126200055E+04  0.13126200056E+04  0.50400001928E-02 0.  1.
       -1   -1    0    0    0  501  0.00000000000E+00  0.00000000000E+00 -0.12196484035E+03  0.12196484045E+03  0.50400001928E-02 0. -1.
    10030    2    1    2    0    0  0.00000000000E+00  0.00000000000E+00  0.11906551652E+04  0.14345848460E+04  0.80023368960E+03 0.  0.
        1    1    3    3  502    0  0.21472547279E+02 -0.67562998003E+02 -0.11061604969E+03  0.13138393912E+03  0.50400001928E-02 0. -1.
       -1    1    3    3    0  502 -0.21472547279E+02  0.67562998003E+02  0.13012712149E+04  0.13032009069E+04  0.50400001928E-02 0.  1.
</event>
<event>
 5   0  0.1818665E-02  0.7955054E+03  0.7818609E-02  0.9566546E-01
       -2   -1    0    0    0  501  0.00000000000E+00  0.00000000000E+00  0.64961992430E+02  0.64961992480E+02  0.25500000920E-02 0.  1.
        2   -1    0    0  501    0  0.00000000000E+00  0.00000000000E+00 -0.24353812101E+04  0.24353812101E+04  0.25500000920E-02 0. -1.
    10030    2    1    2    0    0  0.00000000000E+00  0.00000000000E+00 -0.23704192177E+04  0.25003432026E+04  0.79550541368E+03 0.  0.
        3    1    3    3  502    0  0.34145876374E+03  0.18387746012E+02 -0.54665201483E+03  0.64479503104E+03  0.10100000352E+00 0.  1.
       -3    1    3    3    0  502 -0.34145876374E+03 -0.18387746012E+02 -0.18237672028E+04  0.18555481715E+04  0.10100000352E+00 0. -1.
</event>
<event>
 5   0  0.1818665E-02  0.8029363E+03  0.7818609E-02  0.9555777E-01
        2   -1    0    0  501    0  0.00000000000E+00  0.00000000000E+00  0.19283063082E+04  0.19283063082E+04  0.25500000920E-02 0. -1.
       -2   -1    0    0    0  501  0.00000000000E+00  0.00000000000E+00 -0.83584588224E+02  0.83584588263E+02  0.25500000920E-02 0.  1.
    10030    2    1    2    0    0  0.00000000000E+00  0.00000000000E+00  0.18447217200E+04  0.20118908965E+04  0.80293633318E+03 0.  0.
        3    1    3    3  502    0 -0.19047126607E+03  0.87428314222E+02  0.17803593605E+04  0.17926523578E+04  0.10100000352E+00 0. -1.
       -3    1    3    3    0  502  0.19047126607E+03 -0.87428314222E+02  0.64362359546E+02  0.21923853870E+03  0.10100000352E+00 0.  1.
</event>
<event>
 5   0  0.1731337E-02  0.7800609E+03  0.7818609E-02  0.9589335E-01
       -2   -1    0    0    0  501  0.00000000000E+00  0.00000000000E+00  0.69089198908E+03  0.69089198908E+03  0.25500000920E-02 0. -1.
        2   -1    0    0  501    0  0.00000000000E+00  0.00000000000E+00 -0.22018457975E+03  0.22018457977E+03  0.25500000920E-02 0.  1.
    10030    2    1    2    0    0  0.00000000000E+00  0.00000000000E+00  0.47070740932E+03  0.91107656885E+03  0.78006092653E+03 0.  0.
        4    1    3    3  502    0  0.20730784630E+03  0.94423893394E+02  0.60511771913E+03  0.64657674075E+03  0.12699999809E+01 0. -1.
       -4    1    3    3    0  502 -0.20730784630E+03 -0.94423893394E+02 -0.13441030980E+03  0.26449982809E+03  0.12699999809E+01 0.  1.
</event>
<event>
 5   0  0.1030323E-02  0.8032047E+03  0.7818609E-02  0.9555390E-01
       -1   -1    0    0    0  501  0.00000000000E+00  0.00000000000E+00  0.35759513114E+03  0.35759513117E+03  0.50400001928E-02 0.  1.
        1   -1    0    0  501    0  0.00000000000E+00  0.00000000000E+00 -0.45102528521E+03  0.45102528524E+03  0.50400001928E-02 0. -1.
    10030    2    1    2    0    0  0.00000000000E+00  0.00000000000E+00 -0.93430154072E+02  0.80862041641E+03  0.80320469629E+03 0.  0.
        3    1    3    3  502    0 -0.18099813943E+03 -0.22695439350E+03 -0.32610350524E+03  0.43659149045E+03  0.10100000352E+00 0. -1.
       -3    1    3    3    0  502  0.18099813943E+03  0.22695439350E+03  0.23267335116E+03  0.37202892596E+03  0.10100000352E+00 0.  1.
</event>
<event>
 5   0  0.1731337E-02  0.7849321E+03  0.7818609E-02  0.9582087E-01
        2   -1    0    0  501    0  0.00000000000E+00  0.00000000000E+00  0.56858164303E+03  0.56858164304E+03  0.25500000920E-02 0.  1.
       -2   -1    0    0    0  501  0.00000000000E+00  0.00000000000E+00 -0.27090146054E+03  0.27090146055E+03  0.25500000920E-02 0. -1.
    10030    2    1    2    0    0  0.00000000000E+00  0.00000000000E+00  0.29768018249E+03  0.83948310359E+03  0.78493209271E+03 0.  0.
        4    1    3    3  502    0 -0.17251207329E+02  0.10035596808E+03 -0.25652503545E+03  0.27599933188E+03  0.12699999809E+01 0. -1.
       -4    1    3    3    0  502  0.17251207329E+02 -0.10035596808E+03  0.55420521794E+03  0.56348377171E+03  0.12699999809E+01 0.  1.
</event>
<event>
 5   0  0.1049780E-02  0.7939681E+03  0.7818609E-02  0.9568789E-01
       -1   -1    0    0    0  501  0.00000000000E+00  0.00000000000E+00  0.25537900954E+03  0.25537900959E+03  0.50400001928E-02 0. -1.
        1   -1    0    0  501    0  0.00000000000E+00  0.00000000000E+00 -0.61710760865E+03  0.61710760867E+03  0.50400001928E-02 0.  1.
    10030    2    1    2    0    0  0.00000000000E+00  0.00000000000E+00 -0.36172859910E+03  0.87248661826E+03  0.79396808477E+03 0.  0.
        5    1    3    3  502    0 -0.63606623847E+02  0.32149286910E+02 -0.60998882192E+03  0.61415619521E+03  0.46999998093E+01 0.  1.
       -5    1    3    3    0  502  0.63606623847E+02 -0.32149286910E+02  0.24826022282E+03  0.25833042306E+03  0.46999998093E+01 0. -1.
</event>
<event>
 5   0  0.1747544E-02  0.8055752E+03  0.7818609E-02  0.9551982E-01
       -2   -1    0    0    0  501  0.00000000000E+00  0.00000000000E+00  0.88726732075E+02  0.88726732111E+02  0.25500000920E-02 0. -1.
        2   -1    0    0  501    0  0.00000000000E+00  0.00000000000E+00 -0.18285114986E+04  0.18285114986E+04  0.25500000920E-02 0.  1.
    10030    2    1    2    0    0  0.00000000000E+00  0.00000000000E+00 -0.17397847665E+04  0.19172382307E+04  0.80557519789E+03 0.  0.
        1    1    3    3  502    0 -0.10471166880E+02 -0.27661222656E+03 -0.17351912507E+03  0.32669994798E+03  0.50400001928E-02 0. -1.
       -1    1    3    3    0  502  0.10471166880E+02  0.27661222656E+03 -0.15662656414E+04  0.15905382827E+04  0.50400001928E-02 0.  1.
</event>
<event>
 5   0  0.1038912E-02  0.7976170E+03  0.7818609E-02  0.9563473E-01
       -1   -1    0    0    0  501  0.00000000000E+00  0.00000000000E+00  0.14167898542E+03  0.14167898551E+03  0.50400001928E-02 0. -1.
        1   -1    0    0  501    0  0.00000000000E+00  0.00000000000E+00 -0.11225956334E+04  0.11225956334E+04  0.50400001928E-02 0.  1.
    10030    2    1    2    0    0  0.00000000000E+00  0.00000000000E+00 -0.98091664800E+03  0.12642746189E+04  0.79761697687E+03 0.  0.
        2    1    3    3  502    0 -0.28367266864E+01 -0.63775423832E+02 -0.11144443335E+04  0.11162712592E+04  0.25500000920E-02 0.  1.
       -2    1    3    3    0  502  0.28367266864E+01  0.63775423832E+02  0.13352768547E+03  0.14800335975E+03  0.25500000920E-02 0. -1.
</event>
<event>
 5   0  0.1673727E-02  0.8037338E+03  0.7818609E-02  0.9554628E-01
        2   -1    0    0  501    0  0.00000000000E+00  0.00000000000E+00  0.15286071879E+04  0.15286071879E+04  0.25500000920E-02 0.  1.
       -2   -1    0    0    0  501  0.00000000000E+00  0.00000000000E+00 -0.10564976900E+03  0.10564976903E+03  0.25500000920E-02 0. -1.
    10030    2    1    2    0    0  0.00000000000E+00  0.00000000000E+00  0.14229574189E+04  0.16342569569E+04  0.80373377759E+03 0.  0.
        5    1    3    3  502    0 -0.32976342653E+03  0.44425659187E+02  0.11695758601E+04  0.12159964388E+04  0.46999998093E+01 0.  1.
       -5    1    3    3    0  502  0.32976342653E+03 -0.44425659187E+02  0.25338155878E+03  0.41826051809E+03  0.46999998093E+01 0. -1.
</event>
<event>
 5   0  0.1030323E-02  0.8138427E+03  0.7818609E-02  0.9540194E-01
       -1   -1    0    0    0  501  0.00000000000E+00  0.00000000000E+00  0.38517974051E+03  0.38517974054E+03  0.50400001928E-02 0. -1.
        1   -1    0    0  501    0  0.00000000000E+00  0.00000000000E+00 -0.42989019360E+03  0.42989019363E+03  0.50400001928E-02 0.  1.
    10030    2    1    2    0    0  0.00000000000E+00  0.00000000000E+00 -0.44710453092E+02  0.81506993417E+03  0.81384272005E+03 0.  0.
        3    1    3    3  502    0 -0.10102692392E+03 -0.15242734529E+03 -0.38642016102E+03  0.42750565609E+03  0.10100000352E+00 0.  1.
       -3    1    3    3    0  502  0.10102692392E+03  0.15242734529E+03  0.34170970793E+03  0.38756427808E+03  0.10100000352E+00 0. -1.
</event>
<event>
 5   0  0.1030323E-02  0.7980814E+03  0.7818609E-02  0.9562798E-01
       -1   -1    0    0    0  501  0.00000000000E+00  0.00000000000E+00  0.13408129916E+03  0.13408129926E+03  0.50400001928E-02 0.  1.
        1   -1    0    0  501    0  0.00000000000E+00  0.00000000000E+00 -0.11875890430E+04  0.11875890430E+04  0.50400001928E-02 0. -1.
    10030    2    1    2    0    0  0.00000000000E+00  0.00000000000E+00 -0.10535077438E+04  0.13216703423E+04  0.79808140394E+03 0.  0.
        3    1    3    3  502    0  0.89622269200E+02  0.99204343967E+02 -0.11493966324E+04  0.11571457479E+04  0.10100000352E+00 0. -1.
       -3    1    3    3    0  502 -0.89622269200E+02 -0.99204343967E+02  0.95888888601E+02  0.16452459438E+03  0.10100000352E+00 0.  1.
</event>
<event>
 5   0  0.6872500E-03  0.7855231E+03  0.7818609E-02  0.9581211E-01
        3   -1    0    0  501    0  0.00000000000E+00  0.00000000000E+00  0.79570823828E+03  0.79570824469E+03  0.10100000352E+00 0. -1.
       -3   -1    0    0    0  501  0.00000000000E+00  0.00000000000E+00 -0.19386707613E+03  0.19386710244E+03  0.10100000352E+00 0.  1.
    10030    2    1    2    0    0  0.00000000000E+00  0.00000000000E+00  0.60184116214E+03  0.98957534713E+03  0.78552312710E+03 0.  0.
        2    1    3    3  502    0  0.17266753590E+03 -0.13541185166E+02  0.74500231783E+03  0.76486985509E+03  0.25500000920E-02 0. -1.
       -2    1    3    3    0  502 -0.17266753590E+03  0.13541185166E+02 -0.14316115569E+03  0.22470549204E+03  0.25500000920E-02 0.  1.
</event>
<event>
 5   0  0.1025900E-02  0.7999792E+03  0.7818609E-02  0.9560047E-01
        1   -1    0    0  501    0  0.00000000000E+00  0.00000000000E+00  0.55917756721E+03  0.55917756724E+03  0.50400001928E-02 0. -1.
       -1   -1    0    0    0  501  0.00000000000E+00  0.00000000000E+00 -0.28611964030E+03  0.28611964034E+03  0.50400001928E-02 0.  1.
    10030    2    1    2    0    0  0.00000000000E+00  0.00000000000E+00  0.27305792692E+03  0.84529720758E+03  0.79997921078E+03 0.  0.
        1    1    3    3  502    0 -0.24900670004E+03 -0.30173066692E+03  0.22459260373E+03  0.45109596506E+03  0.50400001928E-02 0. -1.
       -1    1    3    3    0  502  0.24900670004E+03  0.30173066692E+03  0.48465323188E+02  0.39420124251E+03  0.50400001928E-02 0.  1.
</event>
<event>
 5   0  0.1038912E-02  0.8067648E+03  0.7818609E-02  0.9550277E-01
       -1   -1    0    0    0  501  0.00000000000E+00  0.00000000000E+00  0.20916078897E+03  0.20916078903E+03  0.50400001928E-02 0.  1.
        1   -1    0    0  501    0  0.00000000000E+00  0.00000000000E+00 -0.77795351837E+03  0.77795351839E+03  0.50400001928E-02 0. -1.
    10030    2    1    2    0    0  0.00000000000E+00  0.00000000000E+00 -0.56879272940E+03  0.98711430742E+03  0.80676482750E+03 0.  0.
        2    1    3    3  502    0 -0.83545287778E+02  0.25945346015E+02  0.19741444128E+03  0.21592924240E+03  0.25500000920E-02 0.  1.
       -2    1    3    3    0  502  0.83545287778E+02 -0.25945346015E+02 -0.76620717069E+03  0.77118506502E+03  0.25500000920E-02 0. -1.
</event>
<event>
 5   0  0.1049780E-02  0.8333346E+03  0.7818609E-02  0.9512982E-01
        1   -1    0    0  501    0  0.00000000000E+00  0.00000000000E+00  0.57522934728E+03  0.57522934730E+03  0.50400001928E-02 0. -1.
       -1   -1    0    0    0  501  0.00000000000E+00  0.00000000000E+00 -0.30181293705E+03  0.30181293709E+03  0.50400001928E-02 0.  1.
    10030    2    1    2    0    0  0.00000000000E+00  0.00000000000E+00  0.27341641023E+03  0.87704228439E+03  0.83333464780E+03 0.  0.
        5    1    3    3  502    0  0.15051340770E+03 -0.25003366315E+03  0.44965646602E+03  0.53608221948E+03  0.46999998093E+01 0. -1.
       -5    1    3    3    0  502 -0.15051340770E+03  0.25003366315E+03 -0.17624005579E+03  0.34096006492E+03  0.46999998093E+01 0.  1.
</event>
<event>
 5   0  0.1673727E-02  0.8072456E+03  0.7818609E-02  0.9549588E-01
       -2   -1    0    0    0  501  0.00000000000E+00  0.00000000000E+00  0.11338538803E+04  0.11338538803E+04  0.25500000920E-02 0.  1.
        2   -1    0    0  501    0  0.00000000000E+00  0.00000000000E+00 -0.14367931690E+03  0.14367931692E+03  0.25500000920E-02 0. -1.
    10030    2    1    2    0    0  0.00000000000E+00  0.00000000000E+00  0.99017456342E+03  0.12775331972E+04  0.80724556612E+03 0.  0.
        5    1    3    3  502    0 -0.61286183176E+02 -0.18672008879E+03  0.10529761632E+04  0.10711681839E+04  0.46999998093E+01 0.  1.
       -5    1    3    3    0  502  0.61286183176E+02  0.18672008879E+03 -0.62801599815E+02  0.20636501337E+03  0.46999998093E+01 0. -1.
</event>
<event>
 5   0  0.1049780E-02  0.8015177E+03  0.7818609E-02  0.9557823E-01
        1   -1    0    0  501    0  0.00000000000E+00  0.00000000000E+00  0.88085046687E+03  0.88085046689E+03  0.50400001928E-02 0. -1.
       -1   -1    0    0    0  501  0.00000000000E+00  0.00000000000E+00 -0.18233247973E+03  0.18233247980E+03  0.50400001928E-02 0.  1.
    10030    2    1    2    0    0  0.00000000000E+00  0.00000000000E+00  0.69851798714E+03  0.10631829467E+04  0.80151768525E+03 0.  0.
        5    1    3    3  502    0  0.17293735514E+03 -0.22172646406E+03 -0.29458419548E+02  0.28277171384E+03  0.46999998093E+01 0.  1.
       -5    1    3    3    0  502 -0.17293735514E+03  0.22172646406E+03  0.72797640669E+03  0.78041123285E+03  0.46999998093E+01 0. -1.
</event>
<event>
 5   0  0.1747544E-02  0.8095884E+03  0.7818609E-02  0.9546241E-01
        2   -1    0    0  501    0  0.00000000000E+00  0.00000000000E+00  0.56454111035E+03  0.56454111035E+03  0.25500000920E-02 0. -1.
       -2   -1    0    0    0  501  0.00000000000E+00  0.00000000000E+00 -0.29025050353E+03  0.29025050355E+03  0.25500000920E-02 0.  1.
    10030    2    1    2    0    0  0.00000000000E+00  0.00000000000E+00  0.27429060681E+03  0.85479161390E+03  0.80958839308E+03 0.  0.
        1    1    3    3  502    0  0.36159497501E+02 -0.38294980758E+03  0.40084382918E+01  0.38467405942E+03  0.50400001928E-02 0. -1.
       -1    1    3    3    0  502 -0.36159497501E+02  0.38294980758E+03  0.27028216852E+03  0.47011755448E+03  0.50400001928E-02 0.  1.
</event>
<event>
 5   0  0.1025900E-02  0.7787105E+03  0.7818609E-02  0.9591354E-01
        1   -1    0    0  501    0  0.00000000000E+00  0.00000000000E+00  0.90082821884E+03  0.90082821885E+03  0.50400001928E-02 0.  1.
       -1   -1    0    0    0  501  0.00000000000E+00  0.00000000000E+00 -0.16828681608E+03  0.16828681616E+03  0.50400001928E-02 0. -1.
    10030    2    1    2    0    0  0.00000000000E+00  0.00000000000E+00  0.73254140275E+03  0.10691150350E+04  0.77871050548E+03 0.  0.
        1    1    3    3  502    0 -0.37793926015E+03 -0.92247492984E+02  0.34457021947E+03  0.51968867651E+03  0.50400001928E-02 0. -1.
       -1    1    3    3    0  502  0.37793926015E+03  0.92247492984E+02  0.38797118328E+03  0.54942635850E+03  0.50400001928E-02 0.  1.
</event>
<event>
 5   0  0.1731337E-02  0.7939171E+03  0.7818609E-02  0.9568864E-01
        2   -1    0    0  501    0  0.00000000000E+00  0.00000000000E+00  0.10740208010E+04  0.10740208010E+04  0.25500000920E-02 0.  1.
       -2   -1    0    0    0  501  0.00000000000E+00  0.00000000000E+00 -0.14671603624E+03  0.14671603627E+03  0.25500000920E-02 0. -1.
    10030    2    1    2    0    0  0.00000000000E+00  0.00000000000E+00  0.92730476478E+03  0.12207368373E+04  0.79391706062E+03 0.  0.
        4    1    3    3  502    0  0.28838404857E+03 -0.26264815547E+03  0.35039963616E+03  0.52433856520E+03  0.12699999809E+01 0.  1.
       -4    1    3    3    0  502 -0.28838404857E+03  0.26264815547E+03  0.57690512863E+03  0.69639827209E+03  0.12699999809E+01 0. -1.
</event>
<event>
 5   0  0.1818665E-02  0.8345079E+03  0.7818609E-02  0.9511369E-01
        2   -1    0    0  501    0  0.00000000000E+00  0.00000000000E+00  0.66226312313E+03  0.66226312313E+03  0.25500000920E-02 0.  1.
       -2   -1    0    0    0  501  0.00000000000E+00  0.00000000000E+00 -0.26288777057E+03  0.26288777058E+03  0.25500000920E-02 0. -1.
    10030    2    1    2    0    0  0.00000000000E+00  0.00000000000E+00  0.39937535256E+03  0.92515089371E+03  0.83450794119E+03 0.  0.
        3    1    3    3  502    0  0.17047597090E+03 -0.24226200101E+03 -0.12608005947E+03  0.32194584232E+03  0.10100000352E+00 0. -1.
       -3    1    3    3    0  502 -0.17047597090E+03  0.24226200101E+03  0.52545541204E+03  0.60320505140E+03  0.10100000352E+00 0.  1.
</event>
<event>
 5   0  0.1030323E-02  0.8022706E+03  0.7818609E-02  0.9556736E-01
       -1   -1    0    0    0  501  0.00000000000E+00  0.00000000000E+00  0.33537432772E+03  0.33537432776E+03  0.50400001928E-02 0.  1.
        1   -1    0    0  501    0  0.00000000000E+00  0.00000000000E+00 -0.47979084341E+03  0.47979084344E+03  0.50400001928E-02 0. -1.
    10030    2    1    2    0    0  0.00000000000E+00  0.00000000000E+00 -0.14441651569E+03  0.81516517120E+03  0.80227060668E+03 0.  0.
        3    1    3    3  502    0 -0.29605167631E+03  0.88500530208E+02  0.18769703754E+03  0.36153717236E+03  0.10100000352E+00 0. -1.
       -3    1    3    3    0  502  0.29605167631E+03 -0.88500530208E+02 -0.33211355323E+03  0.45362799884E+03  0.10100000352E+00 0.  1.
</event>
<event>
 5   0  0.1049780E-02  0.7945399E+03  0.7818609E-02  0.9567954E-01
        1   -1    0    0  501    0  0.00000000000E+00  0.00000000000E+00  0.26402757277E+03  0.26402757282E+03  0.50400001928E-02 0.  1.
       -1   -1    0    0    0  501  0.00000000000E+00  0.00000000000E+00 -0.59775347930E+03  0.59775347932E+03  0.50400001928E-02 0. -1.
    10030    2    1    2    0    0  0.00000000000E+00  0.00000000000E+00 -0.33372590654E+03  0.86178105214E+03  0.79453986756E+03 0.  0.
        5    1    3    3  502    0  0.15245452054E+03  0.19236537565E+03  0.17190699878E+03  0.29970139274E+03  0.46999998093E+01 0. -1.
       -5    1    3    3    0  502 -0.15245452054E+03 -0.19236537565E+03 -0.50563290531E+03  0.56207965940E+03  0.46999998093E+01 0.  1.
</event>
<event>
 5   0  0.6872500E-03  0.7986134E+03  0.7818609E-02  0.9562026E-01
        3   -1    0    0  501    0  0.00000000000E+00  0.00000000000E+00  0.15564923179E+03  0.15564926456E+03  0.10100000352E+00 0. -1.
       -3   -1    0    0    0  501  0.00000000000E+00  0.00000000000E+00 -0.10243919316E+04  0.10243919366E+04  0.10100000352E+00 0.  1.
    10030    2    1    2    0    0  0.00000000000E+00  0.00000000000E+00 -0.86874269981E+03  0.11800412011E+04  0.79861339703E+03 0.  0.
        4    1    3    3  502    0 -0.14077071133E+03 -0.33785088093E+03 -0.19848673068E+03  0.41636307001E+03  0.12699999809E+01 0. -1.
       -4    1    3    3    0  502  0.14077071133E+03  0.33785088093E+03 -0.67025596913E+03  0.76367813113E+03  0.12699999809E+01 0.  1.
</event>
<event>
 5   0  0.1038912E-02  0.7979028E+03  0.7818609E-02  0.9563058E-01
       -1   -1    0    0    0  501  0.00000000000E+00  0.00000000000E+00  0.34422223418E+03  0.34422223422E+03  0.50400001928E-02 0. -1.
        1   -1    0    0  501    0  0.00000000000E+00  0.00000000000E+00 -0.46238212382E+03  0.46238212385E+03  0.50400001928E-02 0.  1.
    10030    2    1    2    0    0  0.00000000000E+00  0.00000000000E+00 -0.11815988964E+03  0.80660435806E+03  0.79790277035E+03 0.  0.
        2    1    3    3  502    0  0.34029626156E+03 -0.19286782589E+03 -0.13843869695E+03  0.41492748368E+03  0.25500000920E-02 0.  1.
       -2    1    3    3    0  502 -0.34029626156E+03  0.19286782589E+03  0.20278807310E+02  0.39167687438E+03  0.25500000920E-02 0. -1.
</event>
<event>
 5   0  0.1673727E-02  0.8038418E+03  0.7818609E-02  0.9554473E-01
        2   -1    0    0  501    0  0.00000000000E+00  0.00000000000E+00  0.11148528091E+04  0.11148528091E+04  0.25500000920E-02 0. -1.
       -2   -1    0    0    0  501  0.00000000000E+00  0.00000000000E+00 -0.14489841064E+03  0.14489841066E+03  0.25500000920E-02 0.  1.
    10030    2    1    2    0    0  0.00000000000E+00  0.00000000000E+00  0.96995439848E+03  0.12597512198E+04  0.80384177587E+03 0.  0.
        5    1    3    3  502    0  0.10092551062E+03 -0.53797970771E+02  0.10887686392E+04  0.10947691173E+04  0.46999998093E+01 0. -1.
       -5    1    3    3    0  502 -0.10092551062E+03  0.53797970771E+02 -0.11881424074E+03  0.16498210253E+03  0.46999998093E+01 0.  1.
</event>
<event>
 5   0  0.1817089E-02  0.8214798E+03  0.7818609E-02  0.9529436E-01
        2   -1    0    0  501    0  0.00000000000E+00  0.00000000000E+00  0.40747827334E+03  0.40747827334E+03  0.25500000920E-02 0. -1.
       -2   -1    0    0    0  501  0.00000000000E+00  0.00000000000E+00 -0.41402760890E+03  0.41402760891E+03  0.25500000920E-02 0.  1.
    10030    2    1    2    0    0  0.00000000000E+00  0.00000000000E+00 -0.65493355650E+01  0.82150588225E+03  0.82147977503E+03 0.  0.
        2    1    3    3  502    0 -0.26322279631E+03  0.10608938300E+03 -0.30021180180E+03  0.41312022902E+03  0.25500000920E-02 0.  1.
       -2    1    3    3    0  502  0.26322279631E+03 -0.10608938300E+03  0.29366246624E+03  0.40838565323E+03  0.25500000920E-02 0. -1.
</event>
<event>
 5   0  0.1818665E-02  0.8142061E+03  0.7818609E-02  0.9539679E-01
        2   -1    0    0  501    0  0.00000000000E+00  0.00000000000E+00  0.73371494801E+03  0.73371494801E+03  0.25500000920E-02 0. -1.
       -2   -1    0    0    0  501  0.00000000000E+00  0.00000000000E+00 -0.22588185137E+03  0.22588185139E+03  0.25500000920E-02 0.  1.
    10030    2    1    2    0    0  0.00000000000E+00  0.00000000000E+00  0.50783309663E+03  0.95959679940E+03  0.81420609392E+03 0.  0.
        3    1    3    3  502    0 -0.39055616928E+03 -0.11456715848E+03  0.26399488367E+03  0.48513200675E+03  0.10100000352E+00 0. -1.
       -3    1    3    3    0  502  0.39055616928E+03  0.11456715848E+03  0.24383821296E+03  0.47446479265E+03  0.10100000352E+00 0.  1.
</event>
<event>
 5   0  0.1817089E-02  0.7948972E+03  0.7818609E-02  0.9567433E-01
        2   -1    0    0  501    0  0.00000000000E+00  0.00000000000E+00  0.70234540968E+03  0.70234540968E+03  0.25500000920E-02 0.  1.
       -2   -1    0    0    0  501  0.00000000000E+00  0.00000000000E+00 -0.22491128425E+03  0.22491128426E+03  0.25500000920E-02 0. -1.
    10030    2    1    2    0    0  0.00000000000E+00  0.00000000000E+00  0.47743412543E+03  0.92725669395E+03  0.79489724640E+03 0.  0.
        2    1    3    3  502    0  0.11479217267E+03 -0.32173481427E+03  0.47570806908E+03  0.58565237182E+03  0.25500000920E-02 0.  1.
       -2    1    3    3    0  502 -0.11479217267E+03  0.32173481427E+03  0.17260563515E+01  0.34160432213E+03  0.25500000920E-02 0. -1.
</event>
<event>
 5   0  0.1818665E-02  0.7999314E+03  0.7818609E-02  0.9560116E-01
        2   -1    0    0  501    0  0.00000000000E+00  0.00000000000E+00  0.33281602579E+03  0.33281602580E+03  0.25500000920E-02 0.  1.
       -2   -1    0    0    0  501  0.00000000000E+00  0.00000000000E+00 -0.48066365003E+03  0.48066365004E+03  0.25500000920E-02 0. -1.
    10030    2    1    2    0    0  0.00000000000E+00  0.00000000000E+00 -0.14784762424E+03  0.81347967584E+03  0.79993141144E+03 0.  0.
        3    1    3    3  502    0  0.32988027875E+03 -0.70076276379E+02  0.14475513143E+03  0.36699556005E+03  0.10100000352E+00 0.  1.
       -3    1    3    3    0  502 -0.32988027875E+03  0.70076276379E+02 -0.29260275567E+03  0.44648411579E+03  0.10100000352E+00 0. -1.
</event>
<event>
 5   0  0.1673727E-02  0.8238671E+03  0.7818609E-02  0.9526099E-01
        2   -1    0    0  501    0  0.00000000000E+00  0.00000000000E+00  0.18431802404E+04  0.18431802404E+04  0.25500000920E-02 0.  1.
       -2   -1    0    0    0  501  0.00000000000E+00  0.00000000000E+00 -0.92063297596E+02  0.92063297632E+02  0.25500000920E-02 0. -1.
    10030    2    1    2    0    0  0.00000000000E+00  0.00000000000E+00  0.17511169428E+04  0.19352435380E+04  0.82386710344E+03 0.  0.
        5    1    3    3  502    0 -0.40650092638E+03 -0.34721819672E+02  0.10088212317E+04  0.10882053921E+04  0.46999998093E+01 0.  1.
       -5    1    3    3    0  502  0.40650092638E+03  0.34721819672E+02  0.74229571111E+03  0.84703814592E+03  0.46999998093E+01 0. -1.
</event>
<event>
 5   0  0.1731337E-02  0.7925861E+03  0.7818609E-02  0.9570811E-01
       -2   -1    0    0    0  501  0.00000000000E+00  0.00000000000E+00  0.17741482339E+03  0.17741482341E+03  0.25500000920E-02 0. -1.
        2   -1    0    0  501    0  0.00000000000E+00  0.00000000000E+00 -0.88520325448E+03  0.88520325449E+03  0.25500000920E-02 0.  1.
    10030    2    1    2    0    0  0.00000000000E+00  0.00000000000E+00 -0.70778843109E+03  0.10626180779E+04  0.79258609393E+03 0.  0.
        4    1    3    3  502    0  0.34863954410E+03  0.10839105726E+03 -0.14728577970E+03  0.39369133443E+03  0.12699999809E+01 0. -1.
       -4    1    3    3    0  502 -0.34863954410E+03 -0.10839105726E+03 -0.56050265139E+03  0.66892674347E+03  0.12699999809E+01 0.  1.
</event>
<event>
 5   0  0.1731337E-02  0.7962759E+03  0.7818609E-02  0.9565423E-01
       -2   -1    0    0    0  501  0.00000000000E+00  0.00000000000E+00  0.12152308500E+03  0.12152308503E+03  0.25500000920E-02 0. -1.
        2   -1    0    0  501    0  0.00000000000E+00  0.00000000000E+00 -0.13043928289E+04  0.13043928289E+04  0.25500000920E-02 0.  1.
    10030    2    1    2    0    0  0.00000000000E+00  0.00000000000E+00 -0.11828697439E+04  0.14259159139E+04  0.79627593368E+03 0.  0.
        4    1    3    3  502    0  0.37030273204E+03 -0.47185552652E+01 -0.85318711358E+03  0.93009474883E+03  0.12699999809E+01 0.  1.
       -4    1    3    3    0  502 -0.37030273204E+03  0.47185552652E+01 -0.32968263029E+03  0.49582116507E+03  0.12699999809E+01 0. -1.
</event>
<event>
 5   0  0.1025900E-02  0.8300709E+03  0.7818609E-02  0.9517483E-01
       -1   -1    0    0    0  501  0.00000000000E+00  0.00000000000E+00  0.18603367670E+03  0.18603367677E+03  0.50400001928E-02 0. -1.
        1   -1    0    0  501    0  0.00000000000E+00  0.00000000000E+00 -0.92593132592E+03  0.92593132593E+03  0.50400001928E-02 0.  1.
    10030    2    1    2    0    0  0.00000000000E+00  0.00000000000E+00 -0.73989764922E+03  0.11119650027E+04  0.83007086198E+03 0.  0.
        1    1    3    3  502    0  0.77801117106E+01 -0.23514670272E+03  0.88069688489E+02  0.25121857414E+03  0.50400001928E-02 0. -1.
       -1    1    3    3    0  502 -0.77801117106E+01  0.23514670272E+03 -0.82796733771E+03  0.86074642856E+03  0.50400001928E-02 0.  1.
</event>
<event>
 5   0  0.1817089E-02  0.7996159E+03  0.7818609E-02  0.9560573E-01
        2   -1    0    0  501    0  0.00000000000E+00  0.00000000000E+00  0.72922953931E+03  0.72922953931E+03  0.25500000920E-02 0. -1.
       -2   -1    0    0    0  501  0.00000000000E+00  0.00000000000E+00 -0.21919899068E+03  0.21919899069E+03  0.25500000920E-02 0.  1.
    10030    2    1    2    0    0  0.00000000000E+00  0.00000000000E+00  0.51003054863E+03  0.94842853001E+03  0.79961585526E+03 0.  0.
        2    1    3    3  502    0 -0.39401734411E+03  0.43788557812E+02  0.31641009795E+03  0.50723017985E+03  0.25500000920E-02 0.  1.
       -2    1    3    3    0  502  0.39401734411E+03 -0.43788557812E+02  0.19362045068E+03  0.44119835016E+03  0.25500000920E-02 0. -1.
</event>
<event>
 5   0  0.1049780E-02  0.7948317E+03  0.7818609E-02  0.9567528E-01
        1   -1    0    0  501    0  0.00000000000E+00  0.00000000000E+00  0.16722676742E+03  0.16722676750E+03  0.50400001928E-02 0.  1.
       -1   -1    0    0    0  501  0.00000000000E+00  0.00000000000E+00 -0.94446207587E+03  0.94446207588E+03  0.50400001928E-02 0. -1.
    10030    2    1    2    0    0  0.00000000000E+00  0.00000000000E+00 -0.77723530845E+03  0.11116888434E+04  0.79483165501E+03 0.  0.
        5    1    3    3  502    0 -0.34387151636E+03 -0.53561813959E+02 -0.12030787650E+03  0.36825611036E+03  0.46999998093E+01 0.  1.
       -5    1    3    3    0  502  0.34387151636E+03  0.53561813959E+02 -0.65692743195E+03  0.74343273302E+03  0.46999998093E+01 0. -1.
</event>
<event>
 5   0  0.1146083E-02  0.7979473E+03  0.7818609E-02  0.9562993E-01
        1   -1    0    0  501    0  0.00000000000E+00  0.00000000000E+00  0.23277491017E+03  0.23277491023E+03  0.50400001928E-02 0. -1.
       -1   -1    0    0    0  501  0.00000000000E+00  0.00000000000E+00 -0.68383645883E+03  0.68383645885E+03  0.50400001928E-02 0.  1.
    10030    2    1    2    0    0  0.00000000000E+00  0.00000000000E+00 -0.45106154865E+03  0.91661136907E+03  0.79794729227E+03 0.  0.
        4    1    3    3  502    0  0.30249277420E+03  0.23440976162E+03 -0.35512939368E+03  0.52208075424E+03  0.12699999809E+01 0.  1.
       -4    1    3    3    0  502 -0.30249277420E+03 -0.23440976162E+03 -0.95932154973E+02  0.39453061484E+03  0.12699999809E+01 0. -1.
</event>
<event>
 5   0  0.1049780E-02  0.8088807E+03  0.7818609E-02  0.9547251E-01
       -1   -1    0    0    0  501  0.00000000000E+00  0.00000000000E+00  0.65369620956E+03  0.65369620957E+03  0.50400001928E-02 0.  1.
        1   -1    0    0  501    0  0.00000000000E+00  0.00000000000E+00 -0.25022634160E+03  0.25022634165E+03  0.50400001928E-02 0. -1.
    10030    2    1    2    0    0  0.00000000000E+00  0.00000000000E+00  0.40346986796E+03  0.90392255122E+03  0.80888073550E+03 0.  0.
        5    1    3    3  502    0  0.13912360341E+03 -0.31313775354E+03 -0.38304276191E+02  0.34481870206E+03  0.46999998093E+01 0. -1.
       -5    1    3    3    0  502 -0.13912360341E+03  0.31313775354E+03  0.44177414415E+03  0.55910384917E+03  0.46999998093E+01 0.  1.
</event>
<event>
 5   0  0.1747544E-02  0.8009592E+03  0.7818609E-02  0.9558630E-01
       -2   -1    0    0    0  501  0.00000000000E+00  0.00000000000E+00  0.29295677995E+03  0.29295677996E+03  0.25500000920E-02 0.  1.
        2   -1    0    0  501    0  0.00000000000E+00  0.00000000000E+00 -0.54746608240E+03  0.54746608241E+03  0.25500000920E-02 0. -1.
    10030    2    1    2    0    0  0.00000000000E+00  0.00000000000E+00 -0.25450930245E+03  0.84042286237E+03  0.80095917659E+03 0.  0.
        1    1    3    3  502    0 -0.29752193924E+03  0.22552355312E+03  0.24812573728E+02  0.37416018118E+03  0.50400001928E-02 0.  1.
       -1    1    3    3    0  502  0.29752193924E+03 -0.22552355312E+03 -0.27932187618E+03  0.46626268119E+03  0.50400001928E-02 0. -1.
</event>
<event>
 5   0  0.1818665E-02  0.7894119E+03  0.7818609E-02  0.9575471E-01
       -2   -1    0    0    0  501  0.00000000000E+00  0.00000000000E+00  0.67362673685E+02  0.67362673733E+02  0.25500000920E-02 0.  1.
        2   -1    0    0  501    0  0.00000000000E+00  0.00000000000E+00 -0.23127462282E+04  0.23127462282E+04  0.25500000920E-02 0. -1.
    10030    2    1    2    0    0  0.00000000000E+00  0.00000000000E+00 -0.22453835545E+04  0.23801089019E+04  0.78941185587E+03 0.  0.
        3    1    3    3  502    0  0.31316086758E+03  0.23658270755E+03 -0.12488795294E+04  0.13090993834E+04  0.10100000352E+00 0. -1.
       -3    1    3    3    0  502 -0.31316086758E+03 -0.23658270755E+03 -0.99650402516E+03  0.10710095186E+04  0.10100000352E+00 0.  1.
</event>
<event>
 5   0  0.1673727E-02  0.8024972E+03  0.7818609E-02  0.9556409E-01
        2   -1    0    0  501    0  0.00000000000E+00  0.00000000000E+00  0.13230413915E+04  0.13230413915E+04  0.25500000920E-02 0. -1.
       -2   -1    0    0    0  501  0.00000000000E+00  0.00000000000E+00 -0.12168965971E+03  0.12168965974E+03  0.25500000920E-02 0.  1.
    10030    2    1    2    0    0  0.00000000000E+00  0.00000000000E+00  0.12013517318E+04  0.14447310512E+04  0.80249724419E+03 0.  0.
        5    1    3    3  502    0  0.35136614681E+03  0.55650943429E+01  0.25210049175E+03  0.43251114129E+03  0.46999998093E+01 0.  1.
       -5    1    3    3    0  502 -0.35136614681E+03 -0.55650943429E+01  0.94925124002E+03  0.10122199099E+04  0.46999998093E+01 0. -1.
</event>
<event>
 5   0  0.1049780E-02  0.8033823E+03  0.7818609E-02  0.9555134E-01
       -1   -1    0    0    0  501  0.00000000000E+00  0.00000000000E+00  0.62479666013E+03  0.62479666015E+03  0.50400001928E-02 0. -1.
        1   -1    0    0  501    0  0.00000000000E+00  0.00000000000E+00 -0.25825325972E+03  0.25825325977E+03  0.50400001928E-02 0.  1.
    10030    2    1    2    0    0  0.00000000000E+00  0.00000000000E+00  0.36654340041E+03  0.88304991992E+03  0.80338228552E+03 0.  0.
        5    1    3    3  502    0  0.15159615845E+03  0.19059041255E+03  0.53436440420E+03  0.58725931843E+03  0.46999998093E+01 0. -1.
       -5    1    3    3    0  502 -0.15159615845E+03 -0.19059041255E+03 -0.16782100379E+03  0.29579060148E+03  0.46999998093E+01 0.  1.
</event>
<event>
 5   0  0.1818665E-02  0.7955945E+03  0.7818609E-02  0.9566416E-01
        2   -1    0    0  501    0  0.00000000000E+00  0.00000000000E+00  0.70942079616E+03  0.70942079617E+03  0.25500000920E-02 0. -1.
       -2   -1    0    0    0  501  0.00000000000E+00  0.00000000000E+00 -0.22305895552E+03  0.22305895553E+03  0.25500000920E-02 0.  1.
    10030    2    1    2    0    0  0.00000000000E+00  0.00000000000E+00  0.48636184064E+03  0.93247975170E+03  0.79559452443E+03 0.  0.
        3    1    3    3  502    0  0.19493856997E+03 -0.33094326859E+03  0.36452196031E+03  0.52952881210E+03  0.10100000352E+00 0. -1.
       -3    1    3    3    0  502 -0.19493856997E+03  0.33094326859E+03  0.12183988033E+03  0.40295093960E+03  0.10100000352E+00 0.  1.
</event>
<event>
 5   0  0.1731337E-02  0.7904247E+03  0.7818609E-02  0.9573981E-01
       -2   -1    0    0    0  501  0.00000000000E+00  0.00000000000E+00  0.20707693971E+03  0.20707693973E+03  0.25500000920E-02 0. -1.
        2   -1    0    0  501    0  0.00000000000E+00  0.00000000000E+00 -0.75427432037E+03  0.75427432037E+03  0.25500000920E-02 0.  1.
    10030    2    1    2    0    0  0.00000000000E+00  0.00000000000E+00 -0.54719738066E+03  0.96135126010E+03  0.79042474145E+03 0.  0.
        4    1    3    3  502    0 -0.15908435949E+03  0.33053522511E+03 -0.45247309172E+03  0.58249024035E+03  0.12699999809E+01 0.  1.
       -4    1    3    3    0  502  0.15908435949E+03 -0.33053522511E+03 -0.94724288937E+02  0.37886101975E+03  0.12699999809E+01 0. -1.
</event>
<event>
 5   0  0.1673727E-02  0.8018066E+03  0.7818609E-02  0.9557406E-01
        2   -1    0    0  501    0  0.00000000000E+00  0.00000000000E+00  0.18934837357E+04  0.18934837357E+04  0.25500000920E-02 0.  1.
       -2   -1    0    0    0  501  0.00000000000E+00  0.00000000000E+00 -0.84882397787E+02  0.84882397825E+02  0.25500000920E-02 0. -1.
    10030    2    1    2    0    0  0.00000000000E+00  0.00000000000E+00  0.18086013379E+04  0.19783661335E+04  0.80180655946E+03 0.  0.
        5    1    3    3  502    0  0.19885081171E+03 -0.68426449719E+02  0.17463899355E+04  0.17590121435E+04  0.46999998093E+01 0.  1.
       -5    1    3    3    0  502 -0.19885081171E+03  0.68426449719E+02  0.62211402441E+02  0.21935399000E+03  0.46999998093E+01 0. -1.
</event>
<event>
 5   0  0.1049780E-02  0.8008156E+03  0.7818609E-02  0.9558837E-01
       -1   -1    0    0    0  501  0.00000000000E+00  0.00000000000E+00  0.58221967246E+03  0.58221967248E+03  0.50400001928E-02 0.  1.
        1   -1    0    0  501    0  0.00000000000E+00  0.00000000000E+00 -0.27537099711E+03  0.27537099715E+03  0.50400001928E-02 0. -1.
    10030    2    1    2    0    0  0.00000000000E+00  0.00000000000E+00  0.30684867535E+03  0.85759066964E+03  0.80081561366E+03 0.  0.
        5    1    3    3  502    0 -0.36432795557E+03  0.68475379004E+01  0.33108531124E+03  0.49236299749E+03  0.46999998093E+01 0.  1.
       -5    1    3    3    0  502  0.36432795557E+03 -0.68475379004E+01 -0.24236635882E+02  0.36522767215E+03  0.46999998093E+01 0. -1.
</event>
<event>
 5   0  0.1818665E-02  0.7649361E+03  0.7818609E-02  0.9612205E-01
        2   -1    0    0  501    0  0.00000000000E+00  0.00000000000E+00  0.66528491558E+03  0.66528491558E+03  0.25500000920E-02 0.  1.
       -2   -1    0    0    0  501  0.00000000000E+00  0.00000000000E+00 -0.21987843892E+03  0.21987843894E+03  0.25500000920E-02 0. -1.
    10030    2    1    2    0    0  0.00000000000E+00  0.00000000000E+00  0.44540647665E+03  0.88516335452E+03  0.76493609847E+03 0.  0.
        3    1    3    3  502    0  0.18274620759E+03 -0.20996741703E+03  0.52622532404E+03  0.59531134246E+03  0.10100000352E+00 0.  1.
       -3    1    3    3    0  502 -0.18274620759E+03  0.20996741703E+03 -0.80818847383E+02  0.28985201206E+03  0.10100000352E+00 0. -1.
</event>
<event>
 5   0  0.1747544E-02  0.7947227E+03  0.7818609E-02  0.9567687E-01
        2   -1    0    0  501    0  0.00000000000E+00  0.00000000000E+00  0.49259769951E+03  0.49259769952E+03  0.25500000920E-02 0. -1.
       -2   -1    0    0    0  501  0.00000000000E+00  0.00000000000E+00 -0.32053751656E+03  0.32053751657E+03  0.25500000920E-02 0.  1.
    10030    2    1    2    0    0  0.00000000000E+00  0.00000000000E+00  0.17206018295E+03  0.81313521609E+03  0.79472270201E+03 0.  0.
        1    1    3    3  502    0 -0.22102595514E+03 -0.32135137201E+03  0.82634573982E+01  0.39011211452E+03  0.50400001928E-02 0.  1.
       -1    1    3    3    0  502  0.22102595514E+03  0.32135137201E+03  0.16379672555E+03  0.42302310157E+03  0.50400001928E-02 0. -1.
</event>
<event>
 5   0  0.1731337E-02  0.7872323E+03  0.7818609E-02  0.9578684E-01
       -2   -1    0    0    0  501  0.00000000000E+00  0.00000000000E+00  0.24273585373E+03  0.24273585374E+03  0.25500000920E-02 0.  1.
        2   -1    0    0  501    0  0.00000000000E+00  0.00000000000E+00 -0.63828103596E+03  0.63828103596E+03  0.25500000920E-02 0. -1.
    10030    2    1    2    0    0  0.00000000000E+00  0.00000000000E+00 -0.39554518223E+03  0.88101688970E+03  0.78723234738E+03 0.  0.
        4    1    3    3  502    0 -0.32740735487E+03 -0.21834413719E+03 -0.18893633575E+03  0.43654128113E+03  0.12699999809E+01 0.  1.
       -4    1    3    3    0  502  0.32740735487E+03  0.21834413719E+03 -0.20660884648E+03  0.44447560857E+03  0.12699999809E+01 0. -1.
</event>
<event>
 5   0  0.1747544E-02  0.7901371E+03  0.7818609E-02  0.9574404E-01
        2   -1    0    0  501    0  0.00000000000E+00  0.00000000000E+00  0.10565129828E+04  0.10565129828E+04  0.25500000920E-02 0.  1.
       -2   -1    0    0    0  501  0.00000000000E+00  0.00000000000E+00 -0.14773048264E+03  0.14773048266E+03  0.25500000920E-02 0. -1.
    10030    2    1    2    0    0  0.00000000000E+00  0.00000000000E+00  0.90878250019E+03  0.12042434655E+04  0.79013713463E+03 0.  0.
        1    1    3    3  502    0  0.14295184364E+02 -0.89571428529E+02 -0.13164584051E+03  0.15986876010E+03  0.50400001928E-02 0. -1.
       -1    1    3    3    0  502 -0.14295184364E+02  0.89571428529E+02  0.10404283407E+04  0.10443747054E+04  0.50400001928E-02 0.  1.
</event>
<event>
 5   0  0.1818665E-02  0.8075496E+03  0.7818609E-02  0.9549153E-01
       -2   -1    0    0    0  501  0.00000000000E+00  0.00000000000E+00  0.13445047453E+03  0.13445047455E+03  0.25500000920E-02 0. -1.
        2   -1    0    0  501    0  0.00000000000E+00  0.00000000000E+00 -0.12125957823E+04  0.12125957823E+04  0.25500000920E-02 0.  1.
    10030    2    1    2    0    0  0.00000000000E+00  0.00000000000E+00 -0.10781453078E+04  0.13470462569E+04  0.80754957337E+03 0.  0.
        3    1    3    3  502    0 -0.90461555533E+02  0.11732048469E+03 -0.11656235029E+04  0.11750002340E+04  0.10100000352E+00 0.  1.
       -3    1    3    3    0  502  0.90461555533E+02 -0.11732048469E+03  0.87478195131E+02  0.17204602286E+03  0.10100000352E+00 0. -1.
</event>
<event>
 5   0  0.1817089E-02  0.8053036E+03  0.7818609E-02  0.9552372E-01
        2   -1    0    0  501    0  0.00000000000E+00  0.00000000000E+00  0.84197064223E+03  0.84197064224E+03  0.25500000920E-02 0.  1.
       -2   -1    0    0    0  501  0.00000000000E+00  0.00000000000E+00 -0.19255833203E+03  0.19255833205E+03  0.25500000920E-02 0. -1.
    10030    2    1    2    0    0  0.00000000000E+00  0.00000000000E+00  0.64941231020E+03  0.10345289743E+04  0.80530357630E+03 0.  0.
        2    1    3    3  502    0 -0.38379469645E+03  0.25209160987E+02  0.17165222608E+03  0.42118684398E+03  0.25500000920E-02 0.  1.
       -2    1    3    3    0  502  0.38379469645E+03 -0.25209160987E+02  0.47776008412E+03  0.61334213031E+03  0.25500000920E-02 0. -1.
</event>
<event>
 5   0  0.1747544E-02  0.8075426E+03  0.7818609E-02  0.9549163E-01
       -2   -1    0    0    0  501  0.00000000000E+00  0.00000000000E+00  0.58225461439E+03  0.58225461440E+03  0.25500000920E-02 0. -1.
        2   -1    0    0  501    0  0.00000000000E+00  0.00000000000E+00 -0.27999997377E+03  0.27999997378E+03  0.25500000920E-02 0.  1.
    10030    2    1    2    0    0  0.00000000000E+00  0.00000000000E+00  0.30225464063E+03  0.86225458818E+03  0.80754263482E+03 0.  0.
        1    1    3    3  502    0 -0.26068650993E+03  0.23122392336E+03  0.36893106880E+03  0.50747619919E+03  0.50400001928E-02 0. -1.
       -1    1    3    3    0  502  0.26068650993E+03 -0.23122392336E+03 -0.66676428175E+02  0.35477838899E+03  0.50400001928E-02 0.  1.
</event>
<event>
 5   0  0.1817089E-02  0.8188819E+03  0.7818609E-02  0.9533081E-01
        2   -1    0    0  501    0  0.00000000000E+00  0.00000000000E+00  0.63253707307E+03  0.63253707307E+03  0.25500000920E-02 0.  1.
       -2   -1    0    0    0  501  0.00000000000E+00  0.00000000000E+00 -0.26503092205E+03  0.26503092206E+03  0.25500000920E-02 0. -1.
    10030    2    1    2    0    0  0.00000000000E+00  0.00000000000E+00  0.36750615102E+03  0.89756799513E+03  0.81888188089E+03 0.  0.
        2    1    3    3  502    0 -0.10585337215E+03 -0.18626914657E+03 -0.19868760943E+03  0.29219496489E+03  0.25500000920E-02 0. -1.
       -2    1    3    3    0  502  0.10585337215E+03  0.18626914657E+03  0.56619376045E+03  0.60537303024E+03  0.25500000920E-02 0.  1.
</event>
<event>
 5   0  0.1025900E-02  0.8183082E+03  0.7818609E-02  0.9533888E-01
       -1   -1    0    0    0  501  0.00000000000E+00  0.00000000000E+00  0.34690594426E+03  0.34690594429E+03  0.50400001928E-02 0. -1.
        1   -1    0    0  501    0  0.00000000000E+00  0.00000000000E+00 -0.48257191504E+03  0.48257191507E+03  0.50400001928E-02 0.  1.
    10030    2    1    2    0    0  0.00000000000E+00  0.00000000000E+00 -0.13566597078E+03  0.82947785936E+03  0.81830817150E+03 0.  0.
        1    1    3    3  502    0  0.46322003503E+02 -0.40032294388E+03  0.38635031840E+01  0.40301254830E+03  0.50400001928E-02 0. -1.
       -1    1    3    3    0  502 -0.46322003503E+02  0.40032294388E+03 -0.13952947397E+03  0.42646531106E+03  0.50400001928E-02 0.  1.
</event>
<event>
 5   0  0.1038912E-02  0.8009049E+03  0.7818609E-02  0.9558708E-01
       -1   -1    0    0    0  501  0.00000000000E+00  0.00000000000E+00  0.25324360365E+03  0.25324360370E+03  0.50400001928E-02 0.  1.
        1   -1    0    0  501    0  0.00000000000E+00  0.00000000000E+00 -0.63323285326E+03  0.63323285328E+03  0.50400001928E-02 0. -1.
    10030    2    1    2    0    0  0.00000000000E+00  0.00000000000E+00 -0.37998924961E+03  0.88647645699E+03  0.80090491257E+03 0.  0.
        2    1    3    3  502    0  0.63721656592E+02 -0.96635030792E+02  0.23432276493E+03  0.26135404505E+03  0.25500000920E-02 0.  1.
       -2    1    3    3    0  502 -0.63721656592E+02  0.96635030792E+02 -0.61431201454E+03  0.62512241194E+03  0.25500000920E-02 0. -1.
</event>
<event>
 5   0  0.1146083E-02  0.7864973E+03  0.7818609E-02  0.9579770E-01
       -1   -1    0    0    0  501  0.00000000000E+00  0.00000000000E+00  0.42849687467E+03  0.42849687470E+03  0.50400001928E-02 0. -1.
        1   -1    0    0  501    0  0.00000000000E+00  0.00000000000E+00 -0.36089993745E+03  0.36089993748E+03  0.50400001928E-02 0.  1.
    10030    2    1    2    0    0  0.00000000000E+00  0.00000000000E+00  0.67596937221E+02  0.78939681218E+03  0.78649728617E+03 0.  0.
        4    1    3    3  502    0 -0.92818990954E+02 -0.38094027089E+03  0.64109594226E+02  0.39729398188E+03  0.12699999809E+01 0. -1.
       -4    1    3    3    0  502  0.92818990954E+02  0.38094027089E+03  0.34873429954E+01  0.39210283030E+03  0.12699999809E+01 0.  1.
</event>
<event>
 5   0  0.1049780E-02  0.7956336E+03  0.7818609E-02  0.9566359E-01
        1   -1    0    0  501    0  0.00000000000E+00  0.00000000000E+00  0.40017750604E+03  0.40017750607E+03  0.50400001928E-02 0.  1.
       -1   -1    0    0    0  501  0.00000000000E+00  0.00000000000E+00 -0.39546998542E+03  0.39546998545E+03  0.50400001928E-02 0. -1.
    10030    2    1    2    0    0  0.00000000000E+00  0.00000000000E+00  0.47075206148E+01  0.79564749152E+03  0.79563356516E+03 0.  0.
        5    1    3    3  502    0 -0.15409134802E+03  0.10054666838E+03 -0.35033119930E+03  0.39573705318E+03  0.46999998093E+01 0. -1.
       -5    1    3    3    0  502  0.15409134802E+03 -0.10054666838E+03  0.35503871992E+03  0.39991043834E+03  0.46999998093E+01 0.  1.
</event>
<event>
 5   0  0.1818665E-02  0.8008160E+03  0.7818609E-02  0.9558837E-01
       -2   -1    0    0    0  501  0.00000000000E+00  0.00000000000E+00  0.24309184457E+03  0.24309184458E+03  0.25500000920E-02 0. -1.
        2   -1    0    0  501    0  0.00000000000E+00  0.00000000000E+00 -0.65953075749E+03  0.65953075750E+03  0.25500000920E-02 0.  1.
    10030    2    1    2    0    0  0.00000000000E+00  0.00000000000E+00 -0.41643891292E+03  0.90262260208E+03  0.80081595488E+03 0.  0.
        3    1    3    3  502    0  0.13736638417E+03  0.35210463073E+03 -0.59202376728E+02  0.38255996405E+03  0.10100000352E+00 0. -1.
       -3    1    3    3    0  502 -0.13736638417E+03 -0.35210463073E+03 -0.35723653619E+03  0.52006263803E+03  0.10100000352E+00 0.  1.
</event>
<event>
 5   0  0.6872500E-03  0.7712209E+03  0.7818609E-02  0.9602634E-01
       -3   -1    0    0    0  501  0.00000000000E+00  0.00000000000E+00  0.35480413056E+03  0.35480414494E+03  0.10100000352E+00 0. -1.
        3   -1    0    0  501    0  0.00000000000E+00  0.00000000000E+00 -0.41909152464E+03  0.41909153682E+03  0.10100000352E+00 0.  1.
    10030    2    1    2    0    0  0.00000000000E+00  0.00000000000E+00 -0.64287394082E+02  0.77389568175E+03  0.77122088742E+03 0.  0.
        1    1    3    3  502    0 -0.13665824504E+02 -0.34153846448E+03 -0.21125684143E+03  0.40182674196E+03  0.50400001928E-02 0.  1.
       -1    1    3    3    0  502  0.13665824504E+02  0.34153846448E+03  0.14696944735E+03  0.37206893979E+03  0.50400001928E-02 0. -1.
</event>
<event>
 5   0  0.1818665E-02  0.8089256E+03  0.7818609E-02  0.9547187E-01
        2   -1    0    0  501    0  0.00000000000E+00  0.00000000000E+00  0.53965450520E+03  0.53965450521E+03  0.25500000920E-02 0. -1.
       -2   -1    0    0    0  501  0.00000000000E+00  0.00000000000E+00 -0.30313865268E+03  0.30313865269E+03  0.25500000920E-02 0.  1.
    10030    2    1    2    0    0  0.00000000000E+00  0.00000000000E+00  0.23651585253E+03  0.84279315789E+03  0.80892555807E+03 0.  0.
        3    1    3    3  502    0 -0.74644346363E+01 -0.30708012875E+02  0.53836623293E+03  0.53929297307E+03  0.10100000352E+00 0. -1.
       -3    1    3    3    0  502  0.74644346363E+01  0.30708012875E+02 -0.30185038040E+03  0.30350018483E+03  0.10100000352E+00 0.  1.
</event>
<event>
 5   0  0.1030323E-02  0.7869353E+03  0.7818609E-02  0.9579123E-01
       -1   -1    0    0    0  501  0.00000000000E+00  0.00000000000E+00  0.54477406552E+03  0.54477406555E+03  0.50400001928E-02 0. -1.
        1   -1    0    0  501    0  0.00000000000E+00  0.00000000000E+00 -0.28418534382E+03  0.28418534387E+03  0.50400001928E-02 0.  1.
    10030    2    1    2    0    0  0.00000000000E+00  0.00000000000E+00  0.26058872170E+03  0.82895940941E+03  0.78693533443E+03 0.  0.
        3    1    3    3  502    0  0.67864766180E+02 -0.77064926468E+02 -0.26982124878E+03  0.28870078952E+03  0.10100000352E+00 0.  1.
       -3    1    3    3    0  502 -0.67864766180E+02  0.77064926468E+02  0.53040997048E+03  0.54025861989E+03  0.10100000352E+00 0. -1.
</event>
<event>
 5   0  0.1146083E-02  0.7975182E+03  0.7818609E-02  0.9563616E-01
       -1   -1    0    0    0  501  0.00000000000E+00  0.00000000000E+00  0.64244596436E+02  0.64244596634E+02  0.50400001928E-02 0. -1.
        1   -1    0    0  501    0  0.00000000000E+00  0.00000000000E+00 -0.24750534984E+04  0.24750534984E+04  0.50400001928E-02 0.  1.
    10030    2    1    2    0    0  0.00000000000E+00  0.00000000000E+00 -0.24108089020E+04  0.25392980951E+04  0.79751818392E+03 0.  0.
        4    1    3    3  502    0 -0.33749712963E+03  0.12204773074E+03 -0.17587910168E+04  0.17950340984E+04  0.12699999809E+01 0.  1.
       -4    1    3    3    0  502  0.33749712963E+03 -0.12204773074E+03 -0.65201788523E+03  0.74426399661E+03  0.12699999809E+01 0. -1.
</event>
<event>
 5   0  0.1049780E-02  0.8042738E+03  0.7818609E-02  0.9553851E-01
       -1   -1    0    0    0  501  0.00000000000E+00  0.00000000000E+00  0.13125133761E+03  0.13125133771E+03  0.50400001928E-02 0.  1.
        1   -1    0    0  501    0  0.00000000000E+00  0.00000000000E+00 -0.12320948847E+04  0.12320948847E+04  0.50400001928E-02 0. -1.
    10030    2    1    2    0    0  0.00000000000E+00  0.00000000000E+00 -0.11008435471E+04  0.13633462224E+04  0.80427383833E+03 0.  0.
        5    1    3    3  502    0  0.87979054116E+02 -0.20961825673E+02 -0.12145834402E+04  0.12179551450E+04  0.46999998093E+01 0. -1.
       -5    1    3    3    0  502 -0.87979054116E+02  0.20961825673E+02  0.11373989312E+03  0.14539107739E+03  0.46999998093E+01 0.  1.
</event>
<event>
 5   0  0.1731337E-02  0.7990396E+03  0.7818609E-02  0.9561408E-01
        2   -1    0    0  501    0  0.00000000000E+00  0.00000000000E+00  0.22954614059E+04  0.22954614059E+04  0.25500000920E-02 0. -1.
       -2   -1    0    0    0  501  0.00000000000E+00  0.00000000000E+00 -0.69535502160E+02  0.69535502206E+02  0.25500000920E-02 0.  1.
    10030    2    1    2    0    0  0.00000000000E+00  0.00000000000E+00  0.22259259038E+04  0.23649969081E+04  0.79903957751E+03 0.  0.
        4    1    3    3  502    0  0.35565971098E+03 -0.12385657149E+03  0.71829649107E+03  0.81103991412E+03  0.12699999809E+01 0.  1.
       -4    1    3    3    0  502 -0.35565971098E+03  0.12385657149E+03  0.15076294127E+04  0.15539569940E+04  0.12699999809E+01 0. -1.
</event>
<event>
 5   0  0.1731337E-02  0.7792266E+03  0.7818609E-02  0.9590582E-01
        2   -1    0    0  501    0  0.00000000000E+00  0.00000000000E+00  0.17986714266E+03  0.17986714268E+03  0.25500000920E-02 0.  1.
       -2   -1    0    0    0  501  0.00000000000E+00  0.00000000000E+00 -0.84394806403E+03  0.84394806403E+03  0.25500000920E-02 0. -1.
    10030    2    1    2    0    0  0.00000000000E+00  0.00000000000E+00 -0.66408092136E+03  0.10238152067E+04  0.77922660849E+03 0.  0.
        4    1    3    3  502    0 -0.36999709768E+03  0.12181820267E+03 -0.34216567082E+03  0.51847515464E+03  0.12699999809E+01 0. -1.
       -4    1    3    3    0  502  0.36999709768E+03 -0.12181820267E+03 -0.32191525054E+03  0.50534005207E+03  0.12699999809E+01 0.  1.
</event>
<event>
 5   0  0.1818665E-02  0.8030383E+03  0.7818609E-02  0.9555630E-01
       -2   -1    0    0    0  501  0.00000000000E+00  0.00000000000E+00  0.17099956529E+03  0.17099956531E+03  0.25500000920E-02 0. -1.
        2   -1    0    0  501    0  0.00000000000E+00  0.00000000000E+00 -0.94279549375E+03  0.94279549375E+03  0.25500000920E-02 0.  1.
    10030    2    1    2    0    0  0.00000000000E+00  0.00000000000E+00 -0.77179592846E+03  0.11137950591E+04  0.80303827954E+03 0.  0.
        3    1    3    3  502    0  0.95022956889E+02  0.20238532416E+03 -0.84846740491E+03  0.87743155241E+03  0.10100000352E+00 0.  1.
       -3    1    3    3    0  502 -0.95022956889E+02 -0.20238532416E+03  0.76671476452E+02  0.23636350665E+03  0.10100000352E+00 0. -1.
</event>
<event>
 5   0  0.1025900E-02  0.7980499E+03  0.7818609E-02  0.9562844E-01
       -1   -1    0    0    0  501  0.00000000000E+00  0.00000000000E+00  0.73264127672E+03  0.73264127674E+03  0.50400001928E-02 0.  1.
        1   -1    0    0  501    0  0.00000000000E+00  0.00000000000E+00 -0.21732449792E+03  0.21732449798E+03  0.50400001928E-02 0. -1.
    10030    2    1    2    0    0  0.00000000000E+00  0.00000000000E+00  0.51531677880E+03  0.94996577472E+03  0.79804986725E+03 0.  0.
        1    1    3    3  502    0  0.12652248399E+03  0.32619046092E+03  0.29268427522E+02  0.35109086662E+03  0.50400001928E-02 0.  1.
       -1    1    3    3    0  502 -0.12652248399E+03 -0.32619046092E+03  0.48604835128E+03  0.59887490810E+03  0.50400001928E-02 0. -1.
</event>
<event>
 5   0  0.1731337E-02  0.8088264E+03  0.7818609E-02  0.9547328E-01
       -2   -1    0    0    0  501  0.00000000000E+00  0.00000000000E+00  0.12081027321E+03  0.12081027323E+03  0.25500000920E-02 0. -1.
        2   -1    0    0  501    0  0.00000000000E+00  0.00000000000E+00 -0.13537759345E+04  0.13537759345E+04  0.25500000920E-02 0.  1.
    10030    2    1    2    0    0  0.00000000000E+00  0.00000000000E+00 -0.12329656613E+04  0.14745862077E+04  0.80882641036E+03 0.  0.
        4    1    3    3  502    0 -0.38171883806E+03  0.13083487480E+03 -0.66544948754E+03  0.77823625536E+03  0.12699999809E+01 0. -1.
       -4    1    3    3    0  502  0.38171883806E+03 -0.13083487480E+03 -0.56751617372E+03  0.69634995234E+03  0.12699999809E+01 0.  1.
</event>
<event>
 5   0  0.1146083E-02  0.8007919E+03  0.7818609E-02  0.9558872E-01
       -1   -1    0    0    0  501  0.00000000000E+00  0.00000000000E+00  0.24496721942E+03  0.24496721947E+03  0.50400001928E-02 0.  1.
        1   -1    0    0  501    0  0.00000000000E+00  0.00000000000E+00 -0.65444225496E+03  0.65444225498E+03  0.50400001928E-02 0. -1.
    10030    2    1    2    0    0  0.00000000000E+00  0.00000000000E+00 -0.40947503554E+03  0.89940947445E+03  0.80079185685E+03 0.  0.
        4    1    3    3  502    0 -0.35379425898E+03  0.18243705234E+03 -0.25319764978E+03  0.47176722916E+03  0.12699999809E+01 0. -1.
       -4    1    3    3    0  502  0.35379425898E+03 -0.18243705234E+03 -0.15627738576E+03  0.42764224529E+03  0.12699999809E+01 0.  1.
</event>
<event>
 5   0  0.1747544E-02  0.7986311E+03  0.7818609E-02  0.9562001E-01
       -2   -1    0    0    0  501  0.00000000000E+00  0.00000000000E+00  0.50502831162E+03  0.50502831163E+03  0.25500000920E-02 0. -1.
        2   -1    0    0  501    0  0.00000000000E+00  0.00000000000E+00 -0.31573065803E+03  0.31573065804E+03  0.25500000920E-02 0.  1.
    10030    2    1    2    0    0  0.00000000000E+00  0.00000000000E+00  0.18929765359E+03  0.82075896966E+03  0.79863113177E+03 0.  0.
        1    1    3    3  502    0 -0.32170638770E+03  0.21332021551E+03 -0.10420888644E+02  0.38614648668E+03  0.50400001928E-02 0.  1.
       -1    1    3    3    0  502  0.32170638770E+03 -0.21332021551E+03  0.19971854223E+03  0.43461248299E+03  0.50400001928E-02 0. -1.
</event>
<event>
 5   0  0.1673727E-02  0.8050717E+03  0.7818609E-02  0.9552705E-01
       -2   -1    0    0    0  501  0.00000000000E+00  0.00000000000E+00  0.45199024443E+03  0.45199024444E+03  0.25500000920E-02 0. -1.
        2   -1    0    0  501    0  0.00000000000E+00  0.00000000000E+00 -0.35849253078E+03  0.35849253079E+03  0.25500000920E-02 0.  1.
    10030    2    1    2    0    0  0.00000000000E+00  0.00000000000E+00  0.93497713645E+02  0.81048277523E+03  0.80507173996E+03 0.  0.
        5    1    3    3  502    0  0.24251708413E+03  0.68968218492E+02 -0.26911444344E+03  0.36880323334E+03  0.46999998093E+01 0.  1.
       -5    1    3    3    0  502 -0.24251708413E+03 -0.68968218492E+02  0.36261215708E+03  0.44167954189E+03  0.46999998093E+01 0. -1.
</event>
<event>
 5   0  0.1025900E-02  0.7887032E+03  0.7818609E-02  0.9576514E-01
        1   -1    0    0  501    0  0.00000000000E+00  0.00000000000E+00  0.34021868404E+03  0.34021868408E+03  0.50400001928E-02 0. -1.
       -1   -1    0    0    0  501  0.00000000000E+00  0.00000000000E+00 -0.45709766161E+03  0.45709766164E+03  0.50400001928E-02 0.  1.
    10030    2    1    2    0    0  0.00000000000E+00  0.00000000000E+00 -0.11687897757E+03  0.79731634572E+03  0.78870315060E+03 0.  0.
        1    1    3    3  502    0  0.19774645025E+03  0.45189713925E+02 -0.40031516960E+03  0.44877388947E+03  0.50400001928E-02 0.  1.
       -1    1    3    3    0  502 -0.19774645025E+03 -0.45189713925E+02  0.28343619204E+03  0.34854245625E+03  0.50400001928E-02 0. -1.
</event>
<event>
 5   0  0.1025900E-02  0.7998764E+03  0.7818609E-02  0.9560196E-01
        1   -1    0    0  501    0  0.00000000000E+00  0.00000000000E+00  0.11326646682E+04  0.11326646682E+04  0.50400001928E-02 0.  1.
       -1   -1    0    0    0  501  0.00000000000E+00  0.00000000000E+00 -0.14121617551E+03  0.14121617560E+03  0.50400001928E-02 0. -1.
    10030    2    1    2    0    0  0.00000000000E+00  0.00000000000E+00  0.99144849270E+03  0.12738808438E+04  0.79987642208E+03 0.  0.
        1    1    3    3  502    0  0.27939452782E+03 -0.14444197325E+03  0.10229865584E+03  0.33074128987E+03  0.50400001928E-02 0. -1.
       -1    1    3    3    0  502 -0.27939452782E+03  0.14444197325E+03  0.88914983687E+03  0.94313955396E+03  0.50400001928E-02 0.  1.
</event>
<event>
 5   0  0.1146083E-02  0.8033612E+03  0.7818609E-02  0.9555165E-01
       -1   -1    0    0    0  501  0.00000000000E+00  0.00000000000E+00  0.37964108917E+03  0.37964108920E+03  0.50400001928E-02 0. -1.
        1   -1    0    0  501    0  0.00000000000E+00  0.00000000000E+00 -0.42499958223E+03  0.42499958226E+03  0.50400001928E-02 0.  1.
    10030    2    1    2    0    0  0.00000000000E+00  0.00000000000E+00 -0.45358493058E+02  0.80464067146E+03  0.80336119976E+03 0.  0.
        4    1    3    3  502    0  0.36547864563E+03 -0.11586466272E+03  0.97288103038E+02  0.39555764229E+03  0.12699999809E+01 0. -1.
       -4    1    3    3    0  502 -0.36547864563E+03  0.11586466272E+03 -0.14264659610E+03  0.40908302917E+03  0.12699999809E+01 0.  1.
</event>
<event>
 5   0  0.1731337E-02  0.8004446E+03  0.7818609E-02  0.9559374E-01
       -2   -1    0    0    0  501  0.00000000000E+00  0.00000000000E+00  0.25212568277E+03  0.25212568278E+03  0.25500000920E-02 0.  1.
        2   -1    0    0  501    0  0.00000000000E+00  0.00000000000E+00 -0.63530971856E+03  0.63530971857E+03  0.25500000920E-02 0. -1.
    10030    2    1    2    0    0  0.00000000000E+00  0.00000000000E+00 -0.38318403579E+03  0.88743540135E+03  0.80044461787E+03 0.  0.
        4    1    3    3  502    0  0.15401005228E+03 -0.36617214825E+03 -0.24562395692E+03  0.46704804835E+03  0.12699999809E+01 0. -1.
       -4    1    3    3    0  502 -0.15401005228E+03  0.36617214825E+03 -0.13756007887E+03  0.42038735299E+03  0.12699999809E+01 0.  1.
</event>
<event>
 5   0  0.1025900E-02  0.8014367E+03  0.7818609E-02  0.9557940E-01
        1   -1    0    0  501    0  0.00000000000E+00  0.00000000000E+00  0.44077299350E+03  0.44077299353E+03  0.50400001928E-02 0. -1.
       -1   -1    0    0    0  501  0.00000000000E+00  0.00000000000E+00 -0.36430363027E+03  0.36430363031E+03  0.50400001928E-02 0.  1.
    10030    2    1    2    0    0  0.00000000000E+00  0.00000000000E+00  0.76469363225E+02  0.80507662383E+03  0.80143671412E+03 0.  0.
        1    1    3    3  502    0  0.63849165534E+02  0.13639235640E+03 -0.33479484095E+03  0.36710649188E+03  0.50400001928E-02 0.  1.
       -1    1    3    3    0  502 -0.63849165534E+02 -0.13639235640E+03  0.41126420418E+03  0.43797013196E+03  0.50400001928E-02 0. -1.
</event>
<event>
 5   0  0.1747544E-02  0.7901526E+03  0.7818609E-02  0.9574381E-01
        2   -1    0    0  501    0  0.00000000000E+00  0.00000000000E+00  0.63781507998E+03  0.63781507999E+03  0.25500000920E-02 0. -1.
       -2   -1    0    0    0  501  0.00000000000E+00  0.00000000000E+00 -0.24471868784E+03  0.24471868785E+03  0.25500000920E-02 0.  1.
    10030    2    1    2    0    0  0.00000000000E+00  0.00000000000E+00  0.39309639215E+03  0.88253376784E+03  0.79015256619E+03 0.  0.
        1    1    3    3  502    0  0.29351602860E+03 -0.48164351617E+02  0.48697591712E+03  0.57062860750E+03  0.50400001928E-02 0. -1.
       -1    1    3    3    0  502 -0.29351602860E+03  0.48164351617E+02 -0.93879524974E+02  0.31190516034E+03  0.50400001928E-02 0.  1.
</event>
<event>
 5   0  0.6872500E-03  0.7962915E+03  0.7818609E-02  0.9565401E-01
        3   -1    0    0  501    0  0.00000000000E+00  0.00000000000E+00  0.75438860291E+03  0.75438860967E+03  0.10100000352E+00 0.  1.
       -3   -1    0    0    0  501  0.00000000000E+00  0.00000000000E+00 -0.21013044505E+03  0.21013046933E+03  0.10100000352E+00 0. -1.
    10030    2    1    2    0    0  0.00000000000E+00  0.00000000000E+00  0.54425815786E+03  0.96451907900E+03  0.79629147387E+03 0.  0.
        4    1    3    3  502    0 -0.11348573837E+03  0.39262918740E+02 -0.18766933674E+03  0.22280480797E+03  0.12699999809E+01 0. -1.
       -4    1    3    3    0  502  0.11348573837E+03 -0.39262918740E+02  0.73192749460E+03  0.74171427103E+03  0.12699999809E+01 0.  1.
</event>
<event>
 5   0  0.1049780E-02  0.7493023E+03  0.7818609E-02  0.9636446E-01
        1   -1    0    0  501    0  0.00000000000E+00  0.00000000000E+00  0.65339473961E+03  0.65339473963E+03  0.50400001928E-02 0.  1.
       -1   -1    0    0    0  501  0.00000000000E+00  0.00000000000E+00 -0.21482186627E+03  0.21482186633E+03  0.50400001928E-02 0. -1.
    10030    2    1    2    0    0  0.00000000000E+00  0.00000000000E+00  0.43857287334E+03  0.86821660596E+03  0.74930228188E+03 0.  0.
        5    1    3    3  502    0 -0.24842818921E+03  0.27777106419E+03  0.26368231549E+03  0.45653453625E+03  0.46999998093E+01 0.  1.
       -5    1    3    3    0  502  0.24842818921E+03 -0.27777106419E+03  0.17489055785E+03  0.41168206970E+03  0.46999998093E+01 0. -1.
</event>
<event>
 5   0  0.1818665E-02  0.7989556E+03  0.7818609E-02  0.9561530E-01
       -2   -1    0    0    0  501  0.00000000000E+00  0.00000000000E+00  0.39093626209E+03  0.39093626210E+03  0.25500000920E-02 0.  1.
        2   -1    0    0  501    0  0.00000000000E+00  0.00000000000E+00 -0.40820592509E+03  0.40820592509E+03  0.25500000920E-02 0. -1.
    10030    2    1    2    0    0  0.00000000000E+00  0.00000000000E+00 -0.17269662998E+02  0.79914218719E+03  0.79895556453E+03 0.  0.
        3    1    3    3  502    0  0.20060324222E+03 -0.34509056591E+03  0.72851940115E+01  0.39922705785E+03  0.10100000352E+00 0. -1.
       -3    1    3    3    0  502 -0.20060324222E+03  0.34509056591E+03 -0.24554857010E+02  0.39991512934E+03  0.10100000352E+00 0.  1.
</event>
<event>
 5   0  0.1025900E-02  0.8004463E+03  0.7818609E-02  0.9559371E-01
       -1   -1    0    0    0  501  0.00000000000E+00  0.00000000000E+00  0.32351657767E+03  0.32351657771E+03  0.50400001928E-02 0.  1.
        1   -1    0    0  501    0  0.00000000000E+00  0.00000000000E+00 -0.49511704169E+03  0.49511704171E+03  0.50400001928E-02 0. -1.
    10030    2    1    2    0    0  0.00000000000E+00  0.00000000000E+00 -0.17160046401E+03  0.81863361942E+03  0.80044630276E+03 0.  0.
        1    1    3    3  502    0 -0.10521901255E+03 -0.19756965521E+03 -0.42511227749E+03  0.48044277262E+03  0.50400001928E-02 0. -1.
       -1    1    3    3    0  502  0.10521901255E+03  0.19756965521E+03  0.25351181348E+03  0.33819084680E+03  0.50400001928E-02 0.  1.
</event>
<event>
 5   0  0.1049780E-02  0.7987415E+03  0.7818609E-02  0.9561840E-01
       -1   -1    0    0    0  501  0.00000000000E+00  0.00000000000E+00  0.28541332717E+03  0.28541332721E+03  0.50400001928E-02 0. -1.
        1   -1    0    0  501    0  0.00000000000E+00  0.00000000000E+00 -0.55882816480E+03  0.55882816482E+03  0.50400001928E-02 0.  1.
    10030    2    1    2    0    0  0.00000000000E+00  0.00000000000E+00 -0.27341483763E+03  0.84424149203E+03  0.79874152480E+03 0.  0.
        5    1    3    3  502    0  0.11452705215E+03 -0.31405050717E+03 -0.36762635866E+03  0.49690582237E+03  0.46999998093E+01 0.  1.
       -5    1    3    3    0  502 -0.11452705215E+03  0.31405050717E+03  0.94211521033E+02  0.34733566966E+03  0.46999998093E+01 0. -1.
</event>
<event>
 5   0  0.6872500E-03  0.8062298E+03  0.7818609E-02  0.9551043E-01
        3   -1    0    0  501    0  0.00000000000E+00  0.00000000000E+00  0.27709925168E+03  0.27709927009E+03  0.10100000352E+00 0.  1.
       -3   -1    0    0    0  501  0.00000000000E+00  0.00000000000E+00 -0.58643822969E+03  0.58643823839E+03  0.10100000352E+00 0. -1.
    10030    2    1    2    0    0  0.00000000000E+00  0.00000000000E+00 -0.30933897801E+03  0.86353750848E+03  0.80622975958E+03 0.  0.
        1    1    3    3  502    0  0.37457661012E+03 -0.14779129059E+03 -0.13458268016E+03  0.42457319775E+03  0.50400001928E-02 0.  1.
       -1    1    3    3    0  502 -0.37457661012E+03  0.14779129059E+03 -0.17475629785E+03  0.43896431072E+03  0.50400001928E-02 0. -1.
</event>
<event>
 5   0  0.1673727E-02  0.7253228E+03  0.7818609E-02  0.9674881E-01
       -2   -1    0    0    0  501  0.00000000000E+00  0.00000000000E+00  0.89318810733E+02  0.89318810770E+02  0.25500000920E-02 0. -1.
        2   -1    0    0  501    0  0.00000000000E+00  0.00000000000E+00 -0.14725149337E+04  0.14725149337E+04  0.25500000920E-02 0.  1.
    10030    2    1    2    0    0  0.00000000000E+00  0.00000000000E+00 -0.13831961230E+04  0.15618337445E+04  0.72532277696E+03 0.  0.
        5    1    3    3  502    0 -0.41164953104E+02  0.55337537319E+02 -0.14581963931E+04  0.14598341027E+04  0.46999998093E+01 0.  1.
       -5    1    3    3    0  502  0.41164953104E+02 -0.55337537319E+02  0.75000270172E+02  0.10199964179E+03  0.46999998093E+01 0. -1.
</event>
<event>
 5   0  0.1025900E-02  0.8106188E+03  0.7818609E-02  0.9544773E-01
        1   -1    0    0  501    0  0.00000000000E+00  0.00000000000E+00  0.50174993375E+03  0.50174993378E+03  0.50400001928E-02 0. -1.
       -1   -1    0    0    0  501  0.00000000000E+00  0.00000000000E+00 -0.32740557455E+03  0.32740557459E+03  0.50400001928E-02 0.  1.
    10030    2    1    2    0    0  0.00000000000E+00  0.00000000000E+00  0.17434435920E+03  0.82915550836E+03  0.81061883858E+03 0.  0.
        1    1    3    3  502    0  0.32603352458E+03  0.23396645430E+03  0.14537291997E+03  0.42681547157E+03  0.50400001928E-02 0. -1.
       -1    1    3    3    0  502 -0.32603352458E+03 -0.23396645430E+03  0.28971439231E+02  0.40234003679E+03  0.50400001928E-02 0.  1.
</event>
<event>
 5   0  0.1049780E-02  0.8117255E+03  0.7818609E-02  0.9543198E-01
        1   -1    0    0  501    0  0.00000000000E+00  0.00000000000E+00  0.29197286590E+03  0.29197286594E+03  0.50400001928E-02 0.  1.
       -1   -1    0    0    0  501  0.00000000000E+00  0.00000000000E+00 -0.56417764422E+03  0.56417764425E+03  0.50400001928E-02 0. -1.
    10030    2    1    2    0    0  0.00000000000E+00  0.00000000000E+00 -0.27220477833E+03  0.85615051019E+03  0.81172547992E+03 0.  0.
        5    1    3    3  502    0  0.36002696762E+03  0.91256520480E+02 -0.30862494529E+03  0.48292713404E+03  0.46999998093E+01 0. -1.
       -5    1    3    3    0  502 -0.36002696762E+03 -0.91256520480E+02  0.36420166960E+02  0.37322337615E+03  0.46999998093E+01 0.  1.
</event>
<event>
 5   0  0.1030323E-02  0.8180377E+03  0.7818609E-02  0.9534269E-01
        1   -1    0    0  501    0  0.00000000000E+00  0.00000000000E+00  0.12280941407E+04  0.12280941407E+04  0.50400001928E-02 0.  1.
       -1   -1    0    0    0  501  0.00000000000E+00  0.00000000000E+00 -0.13622441405E+03  0.13622441414E+03  0.50400001928E-02 0. -1.
    10030    2    1    2    0    0  0.00000000000E+00  0.00000000000E+00  0.10918697266E+04  0.13643185548E+04  0.81803766363E+03 0.  0.
        3    1    3    3  502    0  0.10170565865E+03 -0.39066416242E+03  0.43614045703E+03  0.59429036443E+03  0.10100000352E+00 0.  1.
       -3    1    3    3    0  502 -0.10170565865E+03  0.39066416242E+03  0.65572926962E+03  0.77002819041E+03  0.10100000352E+00 0. -1.
</event>
<event>
 5   0  0.1731337E-02  0.7893022E+03  0.7818609E-02  0.9575632E-01
       -2   -1    0    0    0  501  0.00000000000E+00  0.00000000000E+00  0.66567068174E+03  0.66567068175E+03  0.25500000920E-02 0. -1.
        2   -1    0    0  501    0  0.00000000000E+00  0.00000000000E+00 -0.23397380880E+03  0.23397380881E+03  0.25500000920E-02 0.  1.
    10030    2    1    2    0    0  0.00000000000E+00  0.00000000000E+00  0.43169687295E+03  0.89964449056E+03  0.78930223570E+03 0.  0.
        4    1    3    3  502    0 -0.17101382278E+03 -0.31142508572E+03  0.20026828737E+02  0.35585671044E+03  0.12699999809E+01 0.  1.
       -4    1    3    3    0  502  0.17101382278E+03  0.31142508572E+03  0.41167004421E+03  0.54378778011E+03  0.12699999809E+01 0. -1.
</event>
<event>
 5   0  0.1038912E-02  0.7962127E+03  0.7818609E-02  0.9565515E-01
        1   -1    0    0  501    0  0.00000000000E+00  0.00000000000E+00  0.50918171238E+03  0.50918171240E+03  0.50400001928E-02 0. -1.
       -1   -1    0    0    0  501  0.00000000000E+00  0.00000000000E+00 -0.31126150728E+03  0.31126150732E+03  0.50400001928E-02 0.  1.
    10030    2    1    2    0    0  0.00000000000E+00  0.00000000000E+00  0.19792020510E+03  0.82044321972E+03  0.79621270350E+03 0.  0.
        2    1    3    3  502    0  0.12900897670E+03 -0.25490008466E+03  0.38465437592E+03  0.47914127160E+03  0.25500000920E-02 0. -1.
       -2    1    3    3    0  502 -0.12900897670E+03  0.25490008466E+03 -0.18673417083E+03  0.34130194812E+03  0.25500000920E-02 0.  1.
</event>
<event>
 5   0  0.6872500E-03  0.7985296E+03  0.7818609E-02  0.9562148E-01
        3   -1    0    0  501    0  0.00000000000E+00  0.00000000000E+00  0.38937301110E+03  0.38937302420E+03  0.10100000352E+00 0. -1.
       -3   -1    0    0    0  501  0.00000000000E+00  0.00000000000E+00 -0.40940782813E+03  0.40940784059E+03  0.10100000352E+00 0.  1.
    10030    2    1    2    0    0  0.00000000000E+00  0.00000000000E+00 -0.20034817033E+02  0.79878086479E+03  0.79852957119E+03 0.  0.
        2    1    3    3  502    0 -0.37653223761E+03  0.33090095529E+02  0.11863445096E+03  0.39616361941E+03  0.25500000920E-02 0. -1.
       -2    1    3    3    0  502  0.37653223761E+03 -0.33090095529E+02 -0.13866926800E+03  0.40261724538E+03  0.25500000920E-02 0.  1.
</event>
<event>
 5   0  0.1747544E-02  0.7927666E+03  0.7818609E-02  0.9570547E-01
       -2   -1    0    0    0  501  0.00000000000E+00  0.00000000000E+00  0.68486924554E+02  0.68486924601E+02  0.25500000920E-02 0. -1.
        2   -1    0    0  501    0  0.00000000000E+00  0.00000000000E+00 -0.22941564043E+04  0.22941564043E+04  0.25500000920E-02 0.  1.
    10030    2    1    2    0    0  0.00000000000E+00  0.00000000000E+00 -0.22256694798E+04  0.23626433289E+04  0.79276659020E+03 0.  0.
        1    1    3    3  502    0  0.27858703867E+03 -0.15324250397E+03 -0.40741676311E+03  0.51680017610E+03  0.50400001928E-02 0. -1.
       -1    1    3    3    0  502 -0.27858703867E+03  0.15324250397E+03 -0.18182527167E+04  0.18458431528E+04  0.50400001928E-02 0.  1.
</event>
<event>
 5   0  0.1731337E-02  0.8028395E+03  0.7818609E-02  0.9555916E-01
        2   -1    0    0  501    0  0.00000000000E+00  0.00000000000E+00  0.11623708496E+04  0.11623708496E+04  0.25500000920E-02 0.  1.
       -2   -1    0    0    0  501  0.00000000000E+00  0.00000000000E+00 -0.13862856210E+03  0.13862856213E+03  0.25500000920E-02 0. -1.
    10030    2    1    2    0    0  0.00000000000E+00  0.00000000000E+00  0.10237422875E+04  0.13009994117E+04  0.80283945974E+03 0.  0.
        4    1    3    3  502    0  0.11370454237E+03 -0.22179523369E+03  0.19565587216E+01  0.24925346471E+03  0.12699999809E+01 0. -1.
       -4    1    3    3    0  502 -0.11370454237E+03  0.22179523369E+03  0.10217857288E+04  0.10517459470E+04  0.12699999809E+01 0.  1.
</event>
<event>
 5   0  0.1731337E-02  0.7965332E+03  0.7818609E-02  0.9565049E-01
       -2   -1    0    0    0  501  0.00000000000E+00  0.00000000000E+00  0.10407604933E+04  0.10407604933E+04  0.25500000920E-02 0.  1.
        2   -1    0    0  501    0  0.00000000000E+00  0.00000000000E+00 -0.15240420650E+03  0.15240420652E+03  0.25500000920E-02 0. -1.
    10030    2    1    2    0    0  0.00000000000E+00  0.00000000000E+00  0.88835628684E+03  0.11931646999E+04  0.79653318113E+03 0.  0.
        4    1    3    3  502    0  0.15110861230E+03 -0.19462193940E+03 -0.24521757707E+02  0.24761753070E+03  0.12699999809E+01 0. -1.
       -4    1    3    3    0  502 -0.15110861230E+03  0.19462193940E+03  0.91287804455E+03  0.94554716917E+03  0.12699999809E+01 0.  1.
</event>
<event>
 5   0  0.1731337E-02  0.7940749E+03  0.7818609E-02  0.9568633E-01
        2   -1    0    0  501    0  0.00000000000E+00  0.00000000000E+00  0.47850042804E+03  0.47850042805E+03  0.25500000920E-02 0. -1.
       -2   -1    0    0    0  501  0.00000000000E+00  0.00000000000E+00 -0.32944327876E+03  0.32944327877E+03  0.25500000920E-02 0.  1.
    10030    2    1    2    0    0  0.00000000000E+00  0.00000000000E+00  0.14905714929E+03  0.80794370682E+03  0.79407493326E+03 0.  0.
        4    1    3    3  502    0 -0.11267243879E+03 -0.25032810786E+03 -0.21732243966E+03  0.35012839892E+03  0.12699999809E+01 0.  1.
       -4    1    3    3    0  502  0.11267243879E+03  0.25032810786E+03  0.36637958895E+03  0.45781530790E+03  0.12699999809E+01 0. -1.
</event>
<event>
 5   0  0.1818665E-02  0.7995323E+03  0.7818609E-02  0.9560694E-01
        2   -1    0    0  501    0  0.00000000000E+00  0.00000000000E+00  0.78053133434E+03  0.78053133434E+03  0.25500000920E-02 0. -1.
       -2   -1    0    0    0  501  0.00000000000E+00  0.00000000000E+00 -0.20474892968E+03  0.20474892969E+03  0.25500000920E-02 0.  1.
    10030    2    1    2    0    0  0.00000000000E+00  0.00000000000E+00  0.57578240466E+03  0.98528026404E+03  0.79953225150E+03 0.  0.
        3    1    3    3  502    0  0.16438241309E+03  0.28824725494E+03  0.13150285188E+02  0.33208582914E+03  0.10100000352E+00 0.  1.
       -3    1    3    3    0  502 -0.16438241309E+03 -0.28824725494E+03  0.56263211947E+03  0.65319443490E+03  0.10100000352E+00 0. -1.
</event>
<event>
 5   0  0.1030323E-02  0.7704214E+03  0.7818609E-02  0.9603846E-01
        1   -1    0    0  501    0  0.00000000000E+00  0.00000000000E+00  0.27943098579E+03  0.27943098584E+03  0.50400001928E-02 0. -1.
       -1   -1    0    0    0  501  0.00000000000E+00  0.00000000000E+00 -0.53103373614E+03  0.53103373617E+03  0.50400001928E-02 0.  1.
    10030    2    1    2    0    0  0.00000000000E+00  0.00000000000E+00 -0.25160275035E+03  0.81046472200E+03  0.77042139225E+03 0.  0.
        3    1    3    3  502    0  0.38266767120E+03  0.13172462720E+02 -0.17017443420E+03  0.41900764744E+03  0.10100000352E+00 0. -1.
       -3    1    3    3    0  502 -0.38266767120E+03 -0.13172462720E+02 -0.81428316147E+02  0.39145707456E+03  0.10100000352E+00 0.  1.
</event>
<event>
 5   0  0.1146083E-02  0.7983836E+03  0.7818609E-02  0.9562360E-01
       -1   -1    0    0    0  501  0.00000000000E+00  0.00000000000E+00  0.28534949598E+03  0.28534949603E+03  0.50400001928E-02 0. -1.
        1   -1    0    0  501    0  0.00000000000E+00  0.00000000000E+00 -0.55845227458E+03  0.55845227460E+03  0.50400001928E-02 0.  1.
    10030    2    1    2    0    0  0.00000000000E+00  0.00000000000E+00 -0.27310277860E+03  0.84380177063E+03  0.79838355471E+03 0.  0.
        4    1    3    3  502    0 -0.31468158962E+03  0.15646402088E+03  0.63552289542E+02  0.35713582721E+03  0.12699999809E+01 0. -1.
       -4    1    3    3    0  502  0.31468158962E+03 -0.15646402088E+03 -0.33665506814E+03  0.48666594342E+03  0.12699999809E+01 0.  1.
</event>
<event>
 5   0  0.1818665E-02  0.7976017E+03  0.7818609E-02  0.9563495E-01
       -2   -1    0    0    0  501  0.00000000000E+00  0.00000000000E+00  0.14874103539E+03  0.14874103541E+03  0.25500000920E-02 0.  1.
        2   -1    0    0  501    0  0.00000000000E+00  0.00000000000E+00 -0.10692551276E+04  0.10692551276E+04  0.25500000920E-02 0. -1.
    10030    2    1    2    0    0  0.00000000000E+00  0.00000000000E+00 -0.92051409219E+03  0.12179961630E+04  0.79760169204E+03 0.  0.
        3    1    3    3  502    0 -0.16683927144E+02  0.33076266964E+03 -0.79952792379E+03  0.86540580549E+03  0.10100000352E+00 0. -1.
       -3    1    3    3    0  502  0.16683927144E+02 -0.33076266964E+03 -0.12098616839E+03  0.35259035749E+03  0.10100000352E+00 0.  1.
</event>
<event>
 5   0  0.1817089E-02  0.7862880E+03  0.7818609E-02  0.9580079E-01
       -2   -1    0    0    0  501  0.00000000000E+00  0.00000000000E+00  0.19411799842E+03  0.19411799843E+03  0.25500000920E-02 0.  1.
        2   -1    0    0  501    0  0.00000000000E+00  0.00000000000E+00 -0.79622812196E+03  0.79622812197E+03  0.25500000920E-02 0. -1.
    10030    2    1    2    0    0  0.00000000000E+00  0.00000000000E+00 -0.60211012355E+03  0.99034612040E+03  0.78628801168E+03 0.  0.
        2    1    3    3  502    0 -0.27875485100E+03 -0.23693312630E+03 -0.11975126812E+03  0.38494407324E+03  0.25500000920E-02 0.  1.
       -2    1    3    3    0  502  0.27875485100E+03  0.23693312630E+03 -0.48235885542E+03  0.60540204716E+03  0.25500000920E-02 0. -1.
</event>
<event>
 5   0  0.1025900E-02  0.7732547E+03  0.7818609E-02  0.9599558E-01
        1   -1    0    0  501    0  0.00000000000E+00  0.00000000000E+00  0.56949081120E+03  0.56949081122E+03  0.50400001928E-02 0.  1.
       -1   -1    0    0    0  501  0.00000000000E+00  0.00000000000E+00 -0.26248132399E+03  0.26248132404E+03  0.50400001928E-02 0. -1.
    10030    2    1    2    0    0  0.00000000000E+00  0.00000000000E+00  0.30700948721E+03  0.83197213527E+03  0.77325468549E+03 0.  0.
        1    1    3    3  502    0 -0.15899522129E+03  0.13505080252E+03 -0.19673249804E+03  0.28674357092E+03  0.50400001928E-02 0. -1.
       -1    1    3    3    0  502  0.15899522129E+03 -0.13505080252E+03  0.50374198525E+03  0.54522856435E+03  0.50400001928E-02 0.  1.
</event>
<event>
 5   0  0.1747544E-02  0.7545457E+03  0.7818609E-02  0.9628246E-01
        2   -1    0    0  501    0  0.00000000000E+00  0.00000000000E+00  0.43583772507E+03  0.43583772508E+03  0.25500000920E-02 0. -1.
       -2   -1    0    0    0  501  0.00000000000E+00  0.00000000000E+00 -0.32657750165E+03  0.32657750166E+03  0.25500000920E-02 0.  1.
    10030    2    1    2    0    0  0.00000000000E+00  0.00000000000E+00  0.10926022341E+03  0.76241522674E+03  0.75454567890E+03 0.  0.
        1    1    3    3  502    0 -0.20291048800E+03  0.30795175497E+03 -0.25747291287E+02  0.36968888617E+03  0.50400001928E-02 0. -1.
       -1    1    3    3    0  502  0.20291048800E+03 -0.30795175497E+03  0.13500751470E+03  0.39272634057E+03  0.50400001928E-02 0.  1.
</event>
<event>
 5   0  0.1038912E-02  0.6948209E+03  0.7818609E-02  0.9726130E-01
       -1   -1    0    0    0  501  0.00000000000E+00  0.00000000000E+00  0.15749413817E+03  0.15749413825E+03  0.50400001928E-02 0.  1.
        1   -1    0    0  501    0  0.00000000000E+00  0.00000000000E+00 -0.76633976343E+03  0.76633976345E+03  0.50400001928E-02 0. -1.
    10030    2    1    2    0    0  0.00000000000E+00  0.00000000000E+00 -0.60884562526E+03  0.92383390170E+03  0.69482089960E+03 0.  0.
        2    1    3    3  502    0 -0.79331738135E+02 -0.29564612272E+03 -0.85972049285E+02  0.31794865595E+03  0.25500000920E-02 0.  1.
       -2    1    3    3    0  502  0.79331738135E+02  0.29564612272E+03 -0.52287357598E+03  0.60588524575E+03  0.25500000920E-02 0. -1.
</event>
<event>
 5   0  0.1673727E-02  0.7997952E+03  0.7818609E-02  0.9560314E-01
        2   -1    0    0  501    0  0.00000000000E+00  0.00000000000E+00  0.69241440693E+03  0.69241440693E+03  0.25500000920E-02 0. -1.
       -2   -1    0    0    0  501  0.00000000000E+00  0.00000000000E+00 -0.23095720809E+03  0.23095720811E+03  0.25500000920E-02 0.  1.
    10030    2    1    2    0    0  0.00000000000E+00  0.00000000000E+00  0.46145719883E+03  0.92337161504E+03  0.79979521948E+03 0.  0.
        5    1    3    3  502    0  0.26100761558E+03  0.29862403248E+03  0.28953748845E+03  0.49107569211E+03  0.46999998093E+01 0. -1.
       -5    1    3    3    0  502 -0.26100761558E+03 -0.29862403248E+03  0.17191971038E+03  0.43229592293E+03  0.46999998093E+01 0.  1.
</event>
<event>
 5   0  0.1038912E-02  0.6516818E+03  0.7818609E-02  0.9803629E-01
       -1   -1    0    0    0  501  0.00000000000E+00  0.00000000000E+00  0.49354311667E+02  0.49354311924E+02  0.50400001928E-02 0. -1.
        1   -1    0    0  501    0  0.00000000000E+00  0.00000000000E+00 -0.21512261932E+04  0.21512261932E+04  0.50400001928E-02 0.  1.
    10030    2    1    2    0    0  0.00000000000E+00  0.00000000000E+00 -0.21018718816E+04  0.22005805052E+04  0.65168178828E+03 0.  0.
        2    1    3    3  502    0 -0.12784562527E+03 -0.16608397773E+03 -0.18933974417E+04  0.19049625361E+04  0.25500000920E-02 0.  1.
       -2    1    3    3    0  502  0.12784562527E+03  0.16608397773E+03 -0.20847443981E+03  0.29561796904E+03  0.25500000920E-02 0. -1.
</event>
<event>
 5   0  0.1030323E-02  0.6658167E+03  0.7818609E-02  0.9777545E-01
       -1   -1    0    0    0  501  0.00000000000E+00  0.00000000000E+00  0.13900422928E+03  0.13900422937E+03  0.50400001928E-02 0. -1.
        1   -1    0    0  501    0  0.00000000000E+00  0.00000000000E+00 -0.79729923406E+03  0.79729923407E+03  0.50400001928E-02 0.  1.
    10030    2    1    2    0    0  0.00000000000E+00  0.00000000000E+00 -0.65829500478E+03  0.93630346344E+03  0.66581668824E+03 0.  0.
        3    1    3    3  502    0  0.16939049019E+03 -0.53908326605E+02  0.66677519776E+02  0.18985559694E+03  0.10100000352E+00 0. -1.
       -3    1    3    3    0  502 -0.16939049019E+03  0.53908326605E+02 -0.72497252456E+03  0.74644786650E+03  0.10100000352E+00 0.  1.
</event>
<event>
 5   0  0.1049780E-02  0.7992204E+03  0.7818609E-02  0.9561146E-01
        1   -1    0    0  501    0  0.00000000000E+00  0.00000000000E+00  0.10343164353E+04  0.10343164353E+04  0.50400001928E-02 0.  1.
       -1   -1    0    0    0  501  0.00000000000E+00  0.00000000000E+00 -0.15439017997E+03  0.15439018005E+03  0.50400001928E-02 0. -1.
    10030    2    1    2    0    0  0.00000000000E+00  0.00000000000E+00  0.87992625534E+03  0.11887066154E+04  0.79922037173E+03 0.  0.
        5    1    3    3  502    0 -0.37842888341E+03 -0.11557084194E+03  0.35713630242E+03  0.53304171301E+03  0.46999998093E+01 0. -1.
       -5    1    3    3    0  502  0.37842888341E+03  0.11557084194E+03  0.52278995293E+03  0.65566490236E+03  0.46999998093E+01 0.  1.
</event>
<event>
 5   0  0.1747544E-02  0.7914994E+03  0.7818609E-02  0.9572404E-01
       -2   -1    0    0    0  501  0.00000000000E+00  0.00000000000E+00  0.55114430335E+03  0.55114430336E+03  0.25500000920E-02 0.  1.
        2   -1    0    0  501    0  0.00000000000E+00  0.00000000000E+00 -0.28416846368E+03  0.28416846369E+03  0.25500000920E-02 0. -1.
    10030    2    1    2    0    0  0.00000000000E+00  0.00000000000E+00  0.26697583967E+03  0.83531276705E+03  0.79149941240E+03 0.  0.
        1    1    3    3  502    0 -0.10617826393E+01  0.25568902706E+03  0.45226768173E+03  0.51954216567E+03  0.50400001928E-02 0.  1.
       -1    1    3    3    0  502  0.10617826393E+01 -0.25568902706E+03 -0.18529184206E+03  0.31577060139E+03  0.50400001928E-02 0. -1.
</event>
<event>
 5   0  0.1030323E-02  0.7690273E+03  0.7818609E-02  0.9605963E-01
        1   -1    0    0  501    0  0.00000000000E+00  0.00000000000E+00  0.53115395047E+03  0.53115395049E+03  0.50400001928E-02 0. -1.
       -1   -1    0    0    0  501  0.00000000000E+00  0.00000000000E+00 -0.27835762088E+03  0.27835762093E+03  0.50400001928E-02 0.  1.
    10030    2    1    2    0    0  0.00000000000E+00  0.00000000000E+00  0.25279632959E+03  0.80951157142E+03  0.76902730771E+03 0.  0.
        3    1    3    3  502    0  0.25957054755E+03  0.16648808358E+03  0.36817547193E+03  0.48025861727E+03  0.10100000352E+00 0. -1.
       -3    1    3    3    0  502 -0.25957054755E+03 -0.16648808358E+03 -0.11537914234E+03  0.32925295415E+03  0.10100000352E+00 0.  1.
</event>
<event>
 5   0  0.1817089E-02  0.7752159E+03  0.7818609E-02  0.9596600E-01
        2   -1    0    0  501    0  0.00000000000E+00  0.00000000000E+00  0.83326323228E+03  0.83326323229E+03  0.25500000920E-02 0. -1.
       -2   -1    0    0    0  501  0.00000000000E+00  0.00000000000E+00 -0.18030308925E+03  0.18030308927E+03  0.25500000920E-02 0.  1.
    10030    2    1    2    0    0  0.00000000000E+00  0.00000000000E+00  0.65296014303E+03  0.10135663216E+04  0.77521593109E+03 0.  0.
        2    1    3    3  502    0 -0.16969272923E+03 -0.31628551837E+03  0.51778023186E+03  0.63002263451E+03  0.25500000920E-02 0. -1.
       -2    1    3    3    0  502  0.16969272923E+03  0.31628551837E+03  0.13517991118E+03  0.38354368705E+03  0.25500000920E-02 0.  1.
</event>
<event>
 5   0  0.1146083E-02  0.7972898E+03  0.7818609E-02  0.9563948E-01
       -1   -1    0    0    0  501  0.00000000000E+00  0.00000000000E+00  0.71104753248E+02  0.71104753427E+02  0.50400001928E-02 0.  1.
        1   -1    0    0  501    0  0.00000000000E+00  0.00000000000E+00 -0.22349809749E+04  0.22349809749E+04  0.50400001928E-02 0. -1.
    10030    2    1    2    0    0  0.00000000000E+00  0.00000000000E+00 -0.21638762217E+04  0.23060857284E+04  0.79728983676E+03 0.  0.
        4    1    3    3  502    0 -0.37865245967E+03 -0.52183913373E+02 -0.14093721401E+04  0.14602850024E+04  0.12699999809E+01 0. -1.
       -4    1    3    3    0  502  0.37865245967E+03  0.52183913373E+02 -0.75450408160E+03  0.84580072599E+03  0.12699999809E+01 0.  1.
</event>
<event>
 5   0  0.1049780E-02  0.8005596E+03  0.7818609E-02  0.9559207E-01
        1   -1    0    0  501    0  0.00000000000E+00  0.00000000000E+00  0.80343549728E+03  0.80343549729E+03  0.50400001928E-02 0. -1.
       -1   -1    0    0    0  501  0.00000000000E+00  0.00000000000E+00 -0.19942352080E+03  0.19942352086E+03  0.50400001928E-02 0.  1.
    10030    2    1    2    0    0  0.00000000000E+00  0.00000000000E+00  0.60401197648E+03  0.10028590182E+04  0.80055964335E+03 0.  0.
        5    1    3    3  502    0 -0.37389931064E+03 -0.14216915620E+03  0.28478050239E+03  0.49105477089E+03  0.46999998093E+01 0.  1.
       -5    1    3    3    0  502  0.37389931064E+03  0.14216915620E+03  0.31923147409E+03  0.51180424727E+03  0.46999998093E+01 0. -1.
</event>
<event>
 5   0  0.1673727E-02  0.7967622E+03  0.7818609E-02  0.9564716E-01
        2   -1    0    0  501    0  0.00000000000E+00  0.00000000000E+00  0.10025898270E+04  0.10025898270E+04  0.25500000920E-02 0. -1.
       -2   -1    0    0    0  501  0.00000000000E+00  0.00000000000E+00 -0.15829753676E+03  0.15829753678E+03  0.25500000920E-02 0.  1.
    10030    2    1    2    0    0  0.00000000000E+00  0.00000000000E+00  0.84429229020E+03  0.11608873637E+04  0.79676219790E+03 0.  0.
        5    1    3    3  502    0  0.15647363409E+03  0.18813789713E+03  0.88013195133E+03  0.91352843867E+03  0.46999998093E+01 0. -1.
       -5    1    3    3    0  502 -0.15647363409E+03 -0.18813789713E+03 -0.35839661137E+02  0.24735892507E+03  0.46999998093E+01 0.  1.
</event>
<event>
 5   0  0.1049780E-02  0.7958981E+03  0.7818609E-02  0.9565974E-01
       -1   -1    0    0    0  501  0.00000000000E+00  0.00000000000E+00  0.43284568143E+03  0.43284568146E+03  0.50400001928E-02 0.  1.
        1   -1    0    0  501    0  0.00000000000E+00  0.00000000000E+00 -0.36586579330E+03  0.36586579333E+03  0.50400001928E-02 0. -1.
    10030    2    1    2    0    0  0.00000000000E+00  0.00000000000E+00  0.66979888131E+02  0.79871147479E+03  0.79589805537E+03 0.  0.
        5    1    3    3  502    0 -0.19843125568E+03  0.16402737387E+03 -0.27099881090E+03  0.37382133181E+03  0.46999998093E+01 0. -1.
       -5    1    3    3    0  502  0.19843125568E+03 -0.16402737387E+03  0.33797869903E+03  0.42489014298E+03  0.46999998093E+01 0.  1.
</event>
<event>
 5   0  0.1038912E-02  0.7970012E+03  0.7818609E-02  0.9564368E-01
        1   -1    0    0  501    0  0.00000000000E+00  0.00000000000E+00  0.91610825399E+03  0.91610825400E+03  0.50400001928E-02 0.  1.
       -1   -1    0    0    0  501  0.00000000000E+00  0.00000000000E+00 -0.17334492610E+03  0.17334492617E+03  0.50400001928E-02 0. -1.
    10030    2    1    2    0    0  0.00000000000E+00  0.00000000000E+00  0.74276332789E+03  0.10894531802E+04  0.79700117348E+03 0.  0.
        2    1    3    3  502    0  0.31839233338E+03  0.23955511558E+03  0.38028109384E+03  0.55079401022E+03  0.25500000920E-02 0. -1.
       -2    1    3    3    0  502 -0.31839233338E+03 -0.23955511558E+03  0.36248223405E+03  0.53865916995E+03  0.25500000920E-02 0.  1.
</event>
<event>
 5   0  0.1747544E-02  0.8157450E+03  0.7818609E-02  0.9537502E-01
       -2   -1    0    0    0  501  0.00000000000E+00  0.00000000000E+00  0.24366395683E+03  0.24366395684E+03  0.25500000920E-02 0. -1.
        2   -1    0    0  501    0  0.00000000000E+00  0.00000000000E+00 -0.68274344932E+03  0.68274344932E+03  0.25500000920E-02 0.  1.
    10030    2    1    2    0    0  0.00000000000E+00  0.00000000000E+00 -0.43907949248E+03  0.92640740616E+03  0.81574498557E+03 0.  0.
        1    1    3    3  502    0 -0.30766698679E+02  0.51550715445E+02 -0.67769849263E+03  0.68035234471E+03  0.50400001928E-02 0.  1.
       -1    1    3    3    0  502  0.30766698679E+02 -0.51550715445E+02  0.23861900015E+03  0.24605506145E+03  0.50400001928E-02 0. -1.
</event>
<event>
 5   0  0.1146083E-02  0.7984316E+03  0.7818609E-02  0.9562290E-01
        1   -1    0    0  501    0  0.00000000000E+00  0.00000000000E+00  0.38003264600E+03  0.38003264603E+03  0.50400001928E-02 0.  1.
       -1   -1    0    0    0  501  0.00000000000E+00  0.00000000000E+00 -0.41936729249E+03  0.41936729252E+03  0.50400001928E-02 0. -1.
    10030    2    1    2    0    0  0.00000000000E+00  0.00000000000E+00 -0.39334646490E+02  0.79939993855E+03  0.79843161720E+03 0.  0.
        4    1    3    3  502    0 -0.13401728312E+03  0.32079081056E+03  0.17679571050E+03  0.39003296330E+03  0.12699999809E+01 0.  1.
       -4    1    3    3    0  502  0.13401728312E+03 -0.32079081056E+03 -0.21613035699E+03  0.40936697525E+03  0.12699999809E+01 0. -1.
</event>
<event>
 5   0  0.1747544E-02  0.8190221E+03  0.7818609E-02  0.9532884E-01
       -2   -1    0    0    0  501  0.00000000000E+00  0.00000000000E+00  0.20831473899E+03  0.20831473901E+03  0.25500000920E-02 0.  1.
        2   -1    0    0  501    0  0.00000000000E+00  0.00000000000E+00 -0.80502856396E+03  0.80502856396E+03  0.25500000920E-02 0. -1.
    10030    2    1    2    0    0  0.00000000000E+00  0.00000000000E+00 -0.59671382496E+03  0.10133433030E+04  0.81902213692E+03 0.  0.
        1    1    3    3  502    0  0.24164297866E+02  0.25587725373E+03 -0.69281245251E+03  0.73894937354E+03  0.50400001928E-02 0. -1.
       -1    1    3    3    0  502 -0.24164297866E+02 -0.25587725373E+03  0.96098627548E+02  0.27439392943E+03  0.50400001928E-02 0.  1.
</event>
<event>
 5   0  0.1747544E-02  0.7918553E+03  0.7818609E-02  0.9571882E-01
        2   -1    0    0  501    0  0.00000000000E+00  0.00000000000E+00  0.24786022107E+03  0.24786022109E+03  0.25500000920E-02 0. -1.
       -2   -1    0    0    0  501  0.00000000000E+00  0.00000000000E+00 -0.63244808590E+03  0.63244808590E+03  0.25500000920E-02 0.  1.
    10030    2    1    2    0    0  0.00000000000E+00  0.00000000000E+00 -0.38458786482E+03  0.88030830699E+03  0.79185534637E+03 0.  0.
        1    1    3    3  502    0 -0.27644202999E+03  0.22450576053E+03  0.52255094645E-01  0.35612221949E+03  0.50400001928E-02 0. -1.
       -1    1    3    3    0  502  0.27644202999E+03 -0.22450576053E+03 -0.38464011992E+03  0.52418608750E+03  0.50400001928E-02 0.  1.
</event>
<event>
 5   0  0.1146083E-02  0.8008951E+03  0.7818609E-02  0.9558722E-01
       -1   -1    0    0    0  501  0.00000000000E+00  0.00000000000E+00  0.32395258565E+04  0.32395258565E+04  0.50400001928E-02 0.  1.
        1   -1    0    0  501    0  0.00000000000E+00  0.00000000000E+00 -0.49500526679E+02  0.49500526936E+02  0.50400001928E-02 0. -1.
    10030    2    1    2    0    0  0.00000000000E+00  0.00000000000E+00  0.31900253298E+04  0.32890263834E+04  0.80089509055E+03 0.  0.
        4    1    3    3  502    0 -0.28103384498E+02 -0.35636607233E+03  0.85387154229E+03  0.92568072323E+03  0.12699999809E+01 0. -1.
       -4    1    3    3    0  502  0.28103384498E+02  0.35636607233E+03  0.23361537875E+04  0.23633456602E+04  0.12699999809E+01 0.  1.
</event>
<event>
 5   0  0.1030323E-02  0.7935569E+03  0.7818609E-02  0.9569390E-01
        1   -1    0    0  501    0  0.00000000000E+00  0.00000000000E+00  0.53704979708E+03  0.53704979710E+03  0.50400001928E-02 0. -1.
       -1   -1    0    0    0  501  0.00000000000E+00  0.00000000000E+00 -0.29314442496E+03  0.29314442500E+03  0.50400001928E-02 0.  1.
    10030    2    1    2    0    0  0.00000000000E+00  0.00000000000E+00  0.24390537212E+03  0.83019422210E+03  0.79355693927E+03 0.  0.
        3    1    3    3  502    0 -0.27066459876E+01  0.13502712661E+03  0.51226394520E+03  0.52976788371E+03  0.10100000352E+00 0. -1.
       -3    1    3    3    0  502  0.27066459876E+01 -0.13502712661E+03 -0.26835857308E+03  0.30042633839E+03  0.10100000352E+00 0.  1.
</event>
<event>
 5   0  0.6872500E-03  0.7688686E+03  0.7818609E-02  0.9606205E-01
        3   -1    0    0  501    0  0.00000000000E+00  0.00000000000E+00  0.60628994420E+03  0.60628995262E+03  0.10100000352E+00 0. -1.
       -3   -1    0    0    0  501  0.00000000000E+00  0.00000000000E+00 -0.24376077878E+03  0.24376079971E+03  0.10100000352E+00 0.  1.
    10030    2    1    2    0    0  0.00000000000E+00  0.00000000000E+00  0.36252916542E+03  0.85005075233E+03  0.76886857508E+03 0.  0.
        5    1    3    3  502    0 -0.95955032532E+02  0.16020264111E+03 -0.19021147173E+03  0.26659847798E+03  0.46999998093E+01 0.  1.
       -5    1    3    3    0  502  0.95955032532E+02 -0.16020264111E+03  0.55274063715E+03  0.58345227434E+03  0.46999998093E+01 0. -1.
</event>
<event>
 5   0  0.1731337E-02  0.8063902E+03  0.7818609E-02  0.9550813E-01
       -2   -1    0    0    0  501  0.00000000000E+00  0.00000000000E+00  0.44006640714E+03  0.44006640715E+03  0.25500000920E-02 0.  1.
        2   -1    0    0  501    0  0.00000000000E+00  0.00000000000E+00 -0.36941309080E+03  0.36941309081E+03  0.25500000920E-02 0. -1.
    10030    2    1    2    0    0  0.00000000000E+00  0.00000000000E+00  0.70653316342E+02  0.80947949795E+03  0.80639020734E+03 0.  0.
        4    1    3    3  502    0  0.35676218941E+03 -0.17619392348E+03  0.10070003248E+03  0.41044569423E+03  0.12699999809E+01 0.  1.
       -4    1    3    3    0  502 -0.35676218941E+03  0.17619392348E+03 -0.30046716138E+02  0.39903380373E+03  0.12699999809E+01 0. -1.
</event>
<event>
 5   0  0.1146083E-02  0.8213206E+03  0.7818609E-02  0.9529659E-01
       -1   -1    0    0    0  501  0.00000000000E+00  0.00000000000E+00  0.14520555360E+03  0.14520555369E+03  0.50400001928E-02 0.  1.
        1   -1    0    0  501    0  0.00000000000E+00  0.00000000000E+00 -0.11614011550E+04  0.11614011550E+04  0.50400001928E-02 0. -1.
    10030    2    1    2    0    0  0.00000000000E+00  0.00000000000E+00 -0.10161956014E+04  0.13066067087E+04  0.82132063829E+03 0.  0.
        4    1    3    3  502    0 -0.98169964120E+02  0.26143615480E+03 -0.29108486331E+02  0.28077592804E+03  0.12699999809E+01 0.  1.
       -4    1    3    3    0  502  0.98169964120E+02 -0.26143615480E+03 -0.98708711503E+03  0.10258307806E+04  0.12699999809E+01 0. -1.
</event>
<event>
 5   0  0.1025900E-02  0.8126651E+03  0.7818609E-02  0.9541864E-01
       -1   -1    0    0    0  501  0.00000000000E+00  0.00000000000E+00  0.76148416695E+03  0.76148416696E+03  0.50400001928E-02 0. -1.
        1   -1    0    0  501    0  0.00000000000E+00  0.00000000000E+00 -0.21682149153E+03  0.21682149158E+03  0.50400001928E-02 0.  1.
    10030    2    1    2    0    0  0.00000000000E+00  0.00000000000E+00  0.54466267542E+03  0.97830565855E+03  0.81266507957E+03 0.  0.
        1    1    3    3  502    0 -0.42480571857E+02 -0.42282941068E+02  0.75613330767E+03  0.75850512529E+03  0.50400001928E-02 0. -1.
       -1    1    3    3    0  502  0.42480571857E+02  0.42282941068E+02 -0.21147063225E+03  0.21980053326E+03  0.50400001928E-02 0.  1.
</event>
<event>
 5   0  0.1049780E-02  0.8052341E+03  0.7818609E-02  0.9552472E-01
       -1   -1    0    0    0  501  0.00000000000E+00  0.00000000000E+00  0.36715073112E+03  0.36715073116E+03  0.50400001928E-02 0. -1.
        1   -1    0    0  501    0  0.00000000000E+00  0.00000000000E+00 -0.44150942300E+03  0.44150942302E+03  0.50400001928E-02 0.  1.
    10030    2    1    2    0    0  0.00000000000E+00  0.00000000000E+00 -0.74358691874E+02  0.80866015418E+03  0.80523414601E+03 0.  0.
        5    1    3    3  502    0 -0.56396661556E+02  0.33826268900E+03 -0.24897041204E+03  0.42380489175E+03  0.46999998093E+01 0.  1.
       -5    1    3    3    0  502  0.56396661556E+02 -0.33826268900E+03  0.17461172016E+03  0.38485526243E+03  0.46999998093E+01 0. -1.
</event>
<event>
 5   0  0.1731337E-02  0.7968614E+03  0.7818609E-02  0.9564571E-01
       -2   -1    0    0    0  501  0.00000000000E+00  0.00000000000E+00  0.13895135629E+03  0.13895135631E+03  0.25500000920E-02 0.  1.
        2   -1    0    0  501    0  0.00000000000E+00  0.00000000000E+00 -0.11424648501E+04  0.11424648501E+04  0.25500000920E-02 0. -1.
    10030    2    1    2    0    0  0.00000000000E+00  0.00000000000E+00 -0.10035134938E+04  0.12814162064E+04  0.79686144454E+03 0.  0.
        4    1    3    3  502    0  0.96355963188E+02 -0.35740110069E+03 -0.73878023223E+03  0.82632793904E+03  0.12699999809E+01 0. -1.
       -4    1    3    3    0  502 -0.96355963188E+02  0.35740110069E+03 -0.26473326162E+03  0.45508826740E+03  0.12699999809E+01 0.  1.
</event>
<event>
 5   0  0.1817089E-02  0.8126162E+03  0.7818609E-02  0.9541933E-01
       -2   -1    0    0    0  501  0.00000000000E+00  0.00000000000E+00  0.31629478141E+03  0.31629478142E+03  0.25500000920E-02 0.  1.
        2   -1    0    0  501    0  0.00000000000E+00  0.00000000000E+00 -0.52193803474E+03  0.52193803475E+03  0.25500000920E-02 0. -1.
    10030    2    1    2    0    0  0.00000000000E+00  0.00000000000E+00 -0.20564325334E+03  0.83823281617E+03  0.81261621105E+03 0.  0.
        2    1    3    3  502    0  0.27122974861E+03 -0.29364990421E+03 -0.27793375962E+02  0.40070976345E+03  0.25500000920E-02 0.  1.
       -2    1    3    3    0  502 -0.27122974861E+03  0.29364990421E+03 -0.17784987737E+03  0.43752305272E+03  0.25500000920E-02 0. -1.
</event>
<event>
 5   0  0.1049780E-02  0.8041707E+03  0.7818609E-02  0.9554000E-01
        1   -1    0    0  501    0  0.00000000000E+00  0.00000000000E+00  0.38154695362E+03  0.38154695366E+03  0.50400001928E-02 0.  1.
       -1   -1    0    0    0  501  0.00000000000E+00  0.00000000000E+00 -0.42372935220E+03  0.42372935223E+03  0.50400001928E-02 0. -1.
    10030    2    1    2    0    0  0.00000000000E+00  0.00000000000E+00 -0.42182398575E+02  0.80527630589E+03  0.80417073689E+03 0.  0.
        5    1    3    3  502    0  0.18387417914E+03  0.16845081738E+03 -0.33690576208E+03  0.41918131417E+03  0.46999998093E+01 0. -1.
       -5    1    3    3    0  502 -0.18387417914E+03 -0.16845081738E+03  0.29472336351E+03  0.38609499171E+03  0.46999998093E+01 0.  1.
</event>
<event>
 5   0  0.1025900E-02  0.8042225E+03  0.7818609E-02  0.9553925E-01
        1   -1    0    0  501    0  0.00000000000E+00  0.00000000000E+00  0.39007680878E+03  0.39007680881E+03  0.50400001928E-02 0. -1.
       -1   -1    0    0    0  501  0.00000000000E+00  0.00000000000E+00 -0.41451696228E+03  0.41451696231E+03  0.50400001928E-02 0.  1.
    10030    2    1    2    0    0  0.00000000000E+00  0.00000000000E+00 -0.24440153495E+02  0.80459377112E+03  0.80422249125E+03 0.  0.
        1    1    3    3  502    0 -0.51154251145E+02 -0.13491930910E+03  0.36328435553E+03  0.39089065015E+03  0.50400001928E-02 0. -1.
       -1    1    3    3    0  502  0.51154251145E+02  0.13491930910E+03 -0.38772450902E+03  0.41370312097E+03  0.50400001928E-02 0.  1.
</event>
<event>
 5   0  0.1818665E-02  0.8024518E+03  0.7818609E-02  0.9556475E-01
        2   -1    0    0  501    0  0.00000000000E+00  0.00000000000E+00  0.72400103282E+03  0.72400103282E+03  0.25500000920E-02 0.  1.
       -2   -1    0    0    0  501  0.00000000000E+00  0.00000000000E+00 -0.22235083301E+03  0.22235083302E+03  0.25500000920E-02 0. -1.
    10030    2    1    2    0    0  0.00000000000E+00  0.00000000000E+00  0.50165019981E+03  0.94635186585E+03  0.80245182473E+03 0.  0.
        3    1    3    3  502    0 -0.11972206293E+03 -0.38289979569E+03  0.24369075018E+03  0.46939409649E+03  0.10100000352E+00 0.  1.
       -3    1    3    3    0  502  0.11972206293E+03  0.38289979569E+03  0.25795944963E+03  0.47695776936E+03  0.10100000352E+00 0. -1.
</event>
<event>
 5   0  0.1731337E-02  0.8032592E+03  0.7818609E-02  0.9555311E-01
       -2   -1    0    0    0  501  0.00000000000E+00  0.00000000000E+00  0.60436909768E+03  0.60436909768E+03  0.25500000920E-02 0.  1.
        2   -1    0    0  501    0  0.00000000000E+00  0.00000000000E+00 -0.26690037316E+03  0.26690037317E+03  0.25500000920E-02 0. -1.
    10030    2    1    2    0    0  0.00000000000E+00  0.00000000000E+00  0.33746872451E+03  0.87126947086E+03  0.80325920525E+03 0.  0.
        4    1    3    3  502    0 -0.12346890770E+02 -0.31416266192E+03 -0.10233302262E+03  0.33064223002E+03  0.12699999809E+01 0. -1.
       -4    1    3    3    0  502  0.12346890770E+02  0.31416266192E+03  0.43980174713E+03  0.54062724084E+03  0.12699999809E+01 0.  1.
</event>
<event>
 5   0  0.1731337E-02  0.7978343E+03  0.7818609E-02  0.9563157E-01
       -2   -1    0    0    0  501  0.00000000000E+00  0.00000000000E+00  0.13021171004E+03  0.13021171006E+03  0.25500000920E-02 0. -1.
        2   -1    0    0  501    0  0.00000000000E+00  0.00000000000E+00 -0.12221242225E+04  0.12221242226E+04  0.25500000920E-02 0.  1.
    10030    2    1    2    0    0  0.00000000000E+00  0.00000000000E+00 -0.10919125125E+04  0.13523359326E+04  0.79783428083E+03 0.  0.
        4    1    3    3  502    0  0.14736988741E+03  0.37065225796E+03 -0.53632419643E+03  0.66839078137E+03  0.12699999809E+01 0.  1.
       -4    1    3    3    0  502 -0.14736988741E+03 -0.37065225796E+03 -0.55558831608E+03  0.68394515125E+03  0.12699999809E+01 0. -1.
</event>
<event>
 5   0  0.1030323E-02  0.7984860E+03  0.7818609E-02  0.9562211E-01
       -1   -1    0    0    0  501  0.00000000000E+00  0.00000000000E+00  0.26256896850E+03  0.26256896855E+03  0.50400001928E-02 0.  1.
        1   -1    0    0  501    0  0.00000000000E+00  0.00000000000E+00 -0.60705943491E+03  0.60705943493E+03  0.50400001928E-02 0. -1.
    10030    2    1    2    0    0  0.00000000000E+00  0.00000000000E+00 -0.34449046641E+03  0.86962840348E+03  0.79848599154E+03 0.  0.
        3    1    3    3  502    0  0.15852926252E+03 -0.13175875793E+03  0.20012877389E+03  0.28730373075E+03  0.10100000352E+00 0.  1.
       -3    1    3    3    0  502 -0.15852926252E+03  0.13175875793E+03 -0.54461924029E+03  0.58232467273E+03  0.10100000352E+00 0. -1.
</event>
<event>
 5   0  0.1030323E-02  0.7522221E+03  0.7818609E-02  0.9631871E-01
       -1   -1    0    0    0  501  0.00000000000E+00  0.00000000000E+00  0.90673865489E+03  0.90673865491E+03  0.50400001928E-02 0.  1.
        1   -1    0    0  501    0  0.00000000000E+00  0.00000000000E+00 -0.15600915562E+03  0.15600915571E+03  0.50400001928E-02 0. -1.
    10030    2    1    2    0    0  0.00000000000E+00  0.00000000000E+00  0.75072949927E+03  0.10627478106E+04  0.75222212670E+03 0.  0.
        3    1    3    3  502    0  0.26060526836E+03  0.12935107319E+03  0.71211419548E+03  0.76925512259E+03  0.10100000352E+00 0.  1.
       -3    1    3    3    0  502 -0.26060526836E+03 -0.12935107319E+03  0.38615303794E+02  0.29349268802E+03  0.10100000352E+00 0. -1.
</event>
<event>
 5   0  0.1025900E-02  0.7976842E+03  0.7818609E-02  0.9563375E-01
       -1   -1    0    0    0  501  0.00000000000E+00  0.00000000000E+00  0.38488847292E+03  0.38488847295E+03  0.50400001928E-02 0. -1.
        1   -1    0    0  501    0  0.00000000000E+00  0.00000000000E+00 -0.41330162725E+03  0.41330162728E+03  0.50400001928E-02 0.  1.
    10030    2    1    2    0    0  0.00000000000E+00  0.00000000000E+00 -0.28413154329E+02  0.79819010023E+03  0.79768422874E+03 0.  0.
        1    1    3    3  502    0 -0.53995384400E+02 -0.38640407300E+03  0.68619238612E+02  0.39614670149E+03  0.50400001928E-02 0. -1.
       -1    1    3    3    0  502  0.53995384400E+02  0.38640407300E+03 -0.97032392941E+02  0.40204339874E+03  0.50400001928E-02 0.  1.
</event>
<event>
 5   0  0.6872500E-03  0.8080556E+03  0.7818609E-02  0.9548430E-01
        4   -1    0    0  501    0  0.00000000000E+00  0.00000000000E+00  0.14990787399E+03  0.14991325353E+03  0.12699999809E+01 0. -1.
       -4   -1    0    0    0  501  0.00000000000E+00  0.00000000000E+00 -0.10888998219E+04  0.10889005625E+04  0.12699999809E+01 0.  1.
    10030    2    1    2    0    0  0.00000000000E+00  0.00000000000E+00 -0.93899194791E+03  0.12388138160E+04  0.80805556279E+03 0.  0.
        5    1    3    3  502    0 -0.18593753758E+03 -0.33177379397E+03 -0.67841006138E+03  0.77775890842E+03  0.46999998093E+01 0.  1.
       -5    1    3    3    0  502  0.18593753758E+03  0.33177379397E+03 -0.26058188652E+03  0.46105490761E+03  0.46999998093E+01 0. -1.
</event>
<event>
 5   0  0.1818665E-02  0.7855272E+03  0.7818609E-02  0.9581205E-01
       -2   -1    0    0    0  501  0.00000000000E+00  0.00000000000E+00  0.86935031133E+02  0.86935031170E+02  0.25500000920E-02 0.  1.
        2   -1    0    0  501    0  0.00000000000E+00  0.00000000000E+00 -0.17744656945E+04  0.17744656945E+04  0.25500000920E-02 0. -1.
    10030    2    1    2    0    0  0.00000000000E+00  0.00000000000E+00 -0.16875306634E+04  0.18614007257E+04  0.78552716168E+03 0.  0.
        3    1    3    3  502    0 -0.18971967102E+03 -0.30586650823E+03 -0.47123467499E+03  0.59296711843E+03  0.10100000352E+00 0.  1.
       -3    1    3    3    0  502  0.18971967102E+03  0.30586650823E+03 -0.12162959884E+04  0.12684336073E+04  0.10100000352E+00 0. -1.
</event>
<event>
 5   0  0.1818665E-02  0.7962806E+03  0.7818609E-02  0.9565416E-01
        2   -1    0    0  501    0  0.00000000000E+00  0.00000000000E+00  0.90337896091E+03  0.90337896091E+03  0.25500000920E-02 0.  1.
       -2   -1    0    0    0  501  0.00000000000E+00  0.00000000000E+00 -0.17546978121E+03  0.17546978123E+03  0.25500000920E-02 0. -1.
    10030    2    1    2    0    0  0.00000000000E+00  0.00000000000E+00  0.72790917969E+03  0.10788487421E+04  0.79628062550E+03 0.  0.
        3    1    3    3  502    0  0.17722383660E+03 -0.29674333657E+03  0.63169220553E+03  0.72006940554E+03  0.10100000352E+00 0.  1.
       -3    1    3    3    0  502 -0.17722383660E+03  0.29674333657E+03  0.96216974159E+02  0.35877933661E+03  0.10100000352E+00 0. -1.
</event>
<event>
 5   0  0.1030323E-02  0.8110786E+03  0.7818609E-02  0.9544118E-01
       -1   -1    0    0    0  501  0.00000000000E+00  0.00000000000E+00  0.47697159241E+03  0.47697159244E+03  0.50400001928E-02 0. -1.
        1   -1    0    0  501    0  0.00000000000E+00  0.00000000000E+00 -0.34480488161E+03  0.34480488165E+03  0.50400001928E-02 0.  1.
    10030    2    1    2    0    0  0.00000000000E+00  0.00000000000E+00  0.13216671080E+03  0.82177647408E+03  0.81107862376E+03 0.  0.
        3    1    3    3  502    0  0.62307557668E+02  0.33726757878E+03 -0.15317442597E+03  0.37562490121E+03  0.10100000352E+00 0.  1.
       -3    1    3    3    0  502 -0.62307557668E+02 -0.33726757878E+03  0.28534113677E+03  0.44615157287E+03  0.10100000352E+00 0. -1.
</event>
<event>
 5   0  0.1731337E-02  0.7895778E+03  0.7818609E-02  0.9575227E-01
       -2   -1    0    0    0  501  0.00000000000E+00  0.00000000000E+00  0.27007524898E+03  0.27007524900E+03  0.25500000920E-02 0.  1.
        2   -1    0    0  501    0  0.00000000000E+00  0.00000000000E+00 -0.57709203014E+03  0.57709203015E+03  0.25500000920E-02 0. -1.
    10030    2    1    2    0    0  0.00000000000E+00  0.00000000000E+00 -0.30701678116E+03  0.84716727914E+03  0.78957779537E+03 0.  0.
        4    1    3    3  502    0 -0.20678549690E+03 -0.21423768938E+03  0.12462585256E+03  0.32278668700E+03  0.12699999809E+01 0.  1.
       -4    1    3    3    0  502  0.20678549690E+03  0.21423768938E+03 -0.43164263372E+03  0.52438059215E+03  0.12699999809E+01 0. -1.
</event>
<event>
 5   0  0.1747544E-02  0.8035688E+03  0.7818609E-02  0.9554866E-01
        2   -1    0    0  501    0  0.00000000000E+00  0.00000000000E+00  0.11288383249E+04  0.11288383249E+04  0.25500000920E-02 0.  1.
       -2   -1    0    0    0  501  0.00000000000E+00  0.00000000000E+00 -0.14300603394E+03  0.14300603396E+03  0.25500000920E-02 0. -1.
    10030    2    1    2    0    0  0.00000000000E+00  0.00000000000E+00  0.98583229098E+03  0.12718443589E+04  0.80356876948E+03 0.  0.
        1    1    3    3  502    0 -0.35286204716E+03 -0.19160785453E+03  0.51560508751E+03  0.65350883738E+03  0.50400001928E-02 0. -1.
       -1    1    3    3    0  502  0.35286204716E+03  0.19160785453E+03  0.47022720347E+03  0.61833552150E+03  0.50400001928E-02 0.  1.
</event>
<event>
 5   0  0.1731337E-02  0.7983614E+03  0.7818609E-02  0.9562392E-01
       -2   -1    0    0    0  501  0.00000000000E+00  0.00000000000E+00  0.68292552918E+02  0.68292552966E+02  0.25500000920E-02 0.  1.
        2   -1    0    0  501    0  0.00000000000E+00  0.00000000000E+00 -0.23332736145E+04  0.23332736145E+04  0.25500000920E-02 0. -1.
    10030    2    1    2    0    0  0.00000000000E+00  0.00000000000E+00 -0.22649810615E+04  0.24015661674E+04  0.79836135139E+03 0.  0.
        4    1    3    3  502    0  0.30715646533E+03  0.17096654932E+03 -0.56357458033E+03  0.66422328751E+03  0.12699999809E+01 0.  1.
       -4    1    3    3    0  502 -0.30715646533E+03 -0.17096654932E+03 -0.17014064812E+04  0.17373428799E+04  0.12699999809E+01 0. -1.
</event>
<event>
 5   0  0.1049780E-02  0.7978958E+03  0.7818609E-02  0.9563068E-01
       -1   -1    0    0    0  501  0.00000000000E+00  0.00000000000E+00  0.18105838112E+03  0.18105838119E+03  0.50400001928E-02 0. -1.
        1   -1    0    0  501    0  0.00000000000E+00  0.00000000000E+00 -0.87905022678E+03  0.87905022679E+03  0.50400001928E-02 0.  1.
    10030    2    1    2    0    0  0.00000000000E+00  0.00000000000E+00 -0.69799184566E+03  0.10601086080E+04  0.79789576017E+03 0.  0.
        5    1    3    3  502    0 -0.25349865079E+03  0.28804120339E+03 -0.49398122747E+03  0.62551486305E+03  0.46999998093E+01 0.  1.
       -5    1    3    3    0  502  0.25349865079E+03 -0.28804120339E+03 -0.20401061819E+03  0.43459374493E+03  0.46999998093E+01 0. -1.
</event>
<event>
 5   0  0.1747544E-02  0.7996690E+03  0.7818609E-02  0.9560496E-01
       -2   -1    0    0    0  501  0.00000000000E+00  0.00000000000E+00  0.38175777081E+03  0.38175777081E+03  0.25500000920E-02 0.  1.
        2   -1    0    0  501    0  0.00000000000E+00  0.00000000000E+00 -0.41876723472E+03  0.41876723473E+03  0.25500000920E-02 0. -1.
    10030    2    1    2    0    0  0.00000000000E+00  0.00000000000E+00 -0.37009463915E+02  0.80052500554E+03  0.79966904659E+03 0.  0.
        1    1    3    3  502    0 -0.19512972340E+03  0.27849139527E+03 -0.22905004090E+03  0.40999632615E+03  0.50400001928E-02 0. -1.
       -1    1    3    3    0  502  0.19512972340E+03 -0.27849139527E+03  0.19204057698E+03  0.39052867939E+03  0.50400001928E-02 0.  1.
</event>
<event>
 5   0  0.1673727E-02  0.8298592E+03  0.7818609E-02  0.9517775E-01
       -2   -1    0    0    0  501  0.00000000000E+00  0.00000000000E+00  0.21326671896E+03  0.21326671897E+03  0.25500000920E-02 0. -1.
        2   -1    0    0  501    0  0.00000000000E+00  0.00000000000E+00 -0.80728284247E+03  0.80728284247E+03  0.25500000920E-02 0.  1.
    10030    2    1    2    0    0  0.00000000000E+00  0.00000000000E+00 -0.59401612351E+03  0.10205495614E+04  0.82985917623E+03 0.  0.
        5    1    3    3  502    0 -0.87920528268E+01  0.11165799419E+03 -0.78830684421E+03  0.79623776504E+03  0.46999998093E+01 0.  1.
       -5    1    3    3    0  502  0.87920528268E+01 -0.11165799419E+03  0.19429072069E+03  0.22431179640E+03  0.46999998093E+01 0. -1.
</event>
<event>
 5   0  0.1146083E-02  0.8003010E+03  0.7818609E-02  0.9559582E-01
       -1   -1    0    0    0  501  0.00000000000E+00  0.00000000000E+00  0.82373707452E+02  0.82373707606E+02  0.50400001928E-02 0. -1.
        1   -1    0    0  501    0  0.00000000000E+00  0.00000000000E+00 -0.19438291813E+04  0.19438291813E+04  0.50400001928E-02 0.  1.
    10030    2    1    2    0    0  0.00000000000E+00  0.00000000000E+00 -0.18614554738E+04  0.20262028889E+04  0.80030098458E+03 0.  0.
        4    1    3    3  502    0  0.39038527331E+03 -0.87334350808E+02 -0.90659539214E+03  0.99093126321E+03  0.12699999809E+01 0.  1.
       -4    1    3    3    0  502 -0.39038527331E+03  0.87334350808E+02 -0.95486008171E+03  0.10352716257E+04  0.12699999809E+01 0. -1.
</event>
<event>
 5   0  0.1673727E-02  0.8003996E+03  0.7818609E-02  0.9559439E-01
        2   -1    0    0  501    0  0.00000000000E+00  0.00000000000E+00  0.85067057676E+03  0.85067057676E+03  0.25500000920E-02 0. -1.
       -2   -1    0    0    0  501  0.00000000000E+00  0.00000000000E+00 -0.18827484864E+03  0.18827484866E+03  0.25500000920E-02 0.  1.
    10030    2    1    2    0    0  0.00000000000E+00  0.00000000000E+00  0.66239572812E+03  0.10389454254E+04  0.80039958544E+03 0.  0.
        5    1    3    3  502    0  0.66082976298E+02 -0.11183179206E+03  0.82250733479E+03  0.83271466617E+03  0.46999998093E+01 0. -1.
       -5    1    3    3    0  502 -0.66082976298E+02  0.11183179206E+03 -0.16011160667E+03  0.20623075925E+03  0.46999998093E+01 0.  1.
</event>
<event>
 5   0  0.1817089E-02  0.7958225E+03  0.7818609E-02  0.9566084E-01
       -2   -1    0    0    0  501  0.00000000000E+00  0.00000000000E+00  0.13838918654E+03  0.13838918656E+03  0.25500000920E-02 0. -1.
        2   -1    0    0  501    0  0.00000000000E+00  0.00000000000E+00 -0.11441165003E+04  0.11441165004E+04  0.25500000920E-02 0.  1.
    10030    2    1    2    0    0  0.00000000000E+00  0.00000000000E+00 -0.10057273138E+04  0.12825056869E+04  0.79582247218E+03 0.  0.
        2    1    3    3  502    0 -0.31414141341E+03  0.23702898290E+03 -0.40799037204E+03  0.56685422292E+03  0.25500000920E-02 0.  1.
       -2    1    3    3    0  502  0.31414141341E+03 -0.23702898290E+03 -0.59773694177E+03  0.71565146399E+03  0.25500000920E-02 0. -1.
</event>
<event>
 5   0  0.1817089E-02  0.8079726E+03  0.7818609E-02  0.9548548E-01
       -2   -1    0    0    0  501  0.00000000000E+00  0.00000000000E+00  0.39557782915E+03  0.39557782915E+03  0.25500000920E-02 0.  1.
        2   -1    0    0  501    0  0.00000000000E+00  0.00000000000E+00 -0.41257352759E+03  0.41257352760E+03  0.25500000920E-02 0. -1.
    10030    2    1    2    0    0  0.00000000000E+00  0.00000000000E+00 -0.16995698442E+02  0.80815135675E+03  0.80797262432E+03 0.  0.
        2    1    3    3  502    0  0.65763498079E+02  0.27075034292E+03 -0.30109350657E+03  0.41022906476E+03  0.25500000920E-02 0. -1.
       -2    1    3    3    0  502 -0.65763498079E+02 -0.27075034292E+03  0.28409780813E+03  0.39792229199E+03  0.25500000920E-02 0.  1.
</event>
<event>
 5   0  0.1030323E-02  0.7879627E+03  0.7818609E-02  0.9577606E-01
       -1   -1    0    0    0  501  0.00000000000E+00  0.00000000000E+00  0.16331420867E+03  0.16331420875E+03  0.50400001928E-02 0.  1.
        1   -1    0    0  501    0  0.00000000000E+00  0.00000000000E+00 -0.95044583261E+03  0.95044583263E+03  0.50400001928E-02 0. -1.
    10030    2    1    2    0    0  0.00000000000E+00  0.00000000000E+00 -0.78713162394E+03  0.11137600414E+04  0.78796271253E+03 0.  0.
        3    1    3    3  502    0 -0.58040470757E+02 -0.59785005439E-02 -0.94436981240E+03  0.94615170509E+03  0.10100000352E+00 0. -1.
       -3    1    3    3    0  502  0.58040470757E+02  0.59785005439E-02  0.15723818845E+03  0.16760833628E+03  0.10100000352E+00 0.  1.
</event>
<event>
 5   0  0.1038912E-02  0.8412658E+03  0.7818609E-02  0.9502135E-01
        1   -1    0    0  501    0  0.00000000000E+00  0.00000000000E+00  0.11702364155E+04  0.11702364155E+04  0.50400001928E-02 0.  1.
       -1   -1    0    0    0  501  0.00000000000E+00  0.00000000000E+00 -0.15119342515E+03  0.15119342524E+03  0.50400001928E-02 0. -1.
    10030    2    1    2    0    0  0.00000000000E+00  0.00000000000E+00  0.10190429903E+04  0.13214298407E+04  0.84126583660E+03 0.  0.
        2    1    3    3  502    0 -0.24010056914E+03 -0.56304294216E+02 -0.25723226327E+02  0.24795189297E+03  0.25500000920E-02 0. -1.
       -2    1    3    3    0  502  0.24010056914E+03  0.56304294216E+02  0.10447662166E+04  0.10734779477E+04  0.25500000920E-02 0.  1.
</event>
<event>
 5   0  0.1747544E-02  0.8010676E+03  0.7818609E-02  0.9558473E-01
        2   -1    0    0  501    0  0.00000000000E+00  0.00000000000E+00  0.39870816312E+03  0.39870816313E+03  0.25500000920E-02 0. -1.
       -2   -1    0    0    0  501  0.00000000000E+00  0.00000000000E+00 -0.40236784388E+03  0.40236784389E+03  0.25500000920E-02 0.  1.
    10030    2    1    2    0    0  0.00000000000E+00  0.00000000000E+00 -0.36596807605E+01  0.80107600701E+03  0.80106764742E+03 0.  0.
        1    1    3    3  502    0  0.31559201177E+03 -0.12249475387E+03  0.21223794725E+03  0.39956004417E+03  0.50400001928E-02 0. -1.
       -1    1    3    3    0  502 -0.31559201177E+03  0.12249475387E+03 -0.21589762801E+03  0.40151596285E+03  0.50400001928E-02 0.  1.
</event>
<event>
 5   0  0.6872500E-03  0.7902324E+03  0.7818609E-02  0.9574264E-01
       -4   -1    0    0    0  501  0.00000000000E+00  0.00000000000E+00  0.12871035800E+04  0.12871042066E+04  0.12699999809E+01 0. -1.
        4   -1    0    0  501    0  0.00000000000E+00  0.00000000000E+00 -0.12128915461E+03  0.12129580341E+03  0.12699999809E+01 0.  1.
    10030    2    1    2    0    0  0.00000000000E+00  0.00000000000E+00  0.11658144254E+04  0.14084000100E+04  0.79023244280E+03 0.  0.
        3    1    3    3  502    0 -0.33899907971E+03  0.16189427327E+03  0.80109175276E+03  0.88480401124E+03  0.10100000352E+00 0.  1.
       -3    1    3    3    0  502  0.33899907971E+03 -0.16189427327E+03  0.36472267266E+03  0.52359599876E+03  0.10100000352E+00 0. -1.
</event>
<event>
 5   0  0.1049780E-02  0.7915107E+03  0.7818609E-02  0.9572387E-01
        1   -1    0    0  501    0  0.00000000000E+00  0.00000000000E+00  0.52233571442E+03  0.52233571444E+03  0.50400001928E-02 0. -1.
       -1   -1    0    0    0  501  0.00000000000E+00  0.00000000000E+00 -0.29984983439E+03  0.29984983444E+03  0.50400001928E-02 0.  1.
    10030    2    1    2    0    0  0.00000000000E+00  0.00000000000E+00  0.22248588002E+03  0.82218554888E+03  0.79151065057E+03 0.  0.
        5    1    3    3  502    0 -0.28851795752E+03 -0.10310168880E+03 -0.14891822708E+03  0.34069238089E+03  0.46999998093E+01 0.  1.
       -5    1    3    3    0  502  0.28851795752E+03  0.10310168880E+03  0.37140410710E+03  0.48149316798E+03  0.46999998093E+01 0. -1.
</event>
<event>
 5   0  0.1673727E-02  0.7974345E+03  0.7818609E-02  0.9563738E-01
        2   -1    0    0  501    0  0.00000000000E+00  0.00000000000E+00  0.15972764320E+03  0.15972764322E+03  0.25500000920E-02 0.  1.
       -2   -1    0    0    0  501  0.00000000000E+00  0.00000000000E+00 -0.99529076788E+03  0.99529076788E+03  0.25500000920E-02 0. -1.
    10030    2    1    2    0    0  0.00000000000E+00  0.00000000000E+00 -0.83556312467E+03  0.11550184111E+04  0.79743450808E+03 0.  0.
        5    1    3    3  502    0 -0.18253159852E+03 -0.26569386079E+03 -0.77966713830E+02  0.33168043443E+03  0.46999998093E+01 0.  1.
       -5    1    3    3    0  502  0.18253159852E+03  0.26569386079E+03 -0.75759641084E+03  0.82333797668E+03  0.46999998093E+01 0. -1.
</event>
<event>
 5   0  0.6872500E-03  0.7907980E+03  0.7818609E-02  0.9573433E-01
        4   -1    0    0  501    0  0.00000000000E+00  0.00000000000E+00  0.14928149979E+03  0.14928690191E+03  0.12699999809E+01 0.  1.
       -4   -1    0    0    0  501  0.00000000000E+00  0.00000000000E+00 -0.10472608797E+04  0.10472616498E+04  0.12699999809E+01 0. -1.
    10030    2    1    2    0    0  0.00000000000E+00  0.00000000000E+00 -0.89797937994E+03  0.11965485517E+04  0.79079799555E+03 0.  0.
        5    1    3    3  502    0 -0.13508501426E+03 -0.45869469724E+02 -0.10069205946E+04  0.10169872876E+04  0.46999998093E+01 0. -1.
       -5    1    3    3    0  502  0.13508501426E+03  0.45869469724E+02  0.10894121463E+03  0.17956126412E+03  0.46999998093E+01 0.  1.
</event>
<event>
 5   0  0.1030323E-02  0.7978178E+03  0.7818609E-02  0.9563181E-01
       -1   -1    0    0    0  501  0.00000000000E+00  0.00000000000E+00  0.21415495116E+03  0.21415495122E+03  0.50400001928E-02 0. -1.
        1   -1    0    0  501    0  0.00000000000E+00  0.00000000000E+00 -0.74305222105E+03  0.74305222107E+03  0.50400001928E-02 0.  1.
    10030    2    1    2    0    0  0.00000000000E+00  0.00000000000E+00 -0.52889726989E+03  0.95720717229E+03  0.79781780413E+03 0.  0.
        3    1    3    3  502    0  0.11924907187E+03 -0.33591143810E+03 -0.47931163244E+03  0.59732443996E+03  0.10100000352E+00 0.  1.
       -3    1    3    3    0  502 -0.11924907187E+03  0.33591143810E+03 -0.49585637453E+02  0.35988273233E+03  0.10100000352E+00 0. -1.
</event>
<event>
 5   0  0.1049780E-02  0.7815175E+03  0.7818609E-02  0.9587162E-01
       -1   -1    0    0    0  501  0.00000000000E+00  0.00000000000E+00  0.51589812466E+03  0.51589812469E+03  0.50400001928E-02 0. -1.
        1   -1    0    0  501    0  0.00000000000E+00  0.00000000000E+00 -0.29597394434E+03  0.29597394438E+03  0.50400001928E-02 0.  1.
    10030    2    1    2    0    0  0.00000000000E+00  0.00000000000E+00  0.21992418032E+03  0.81187206907E+03  0.78151750553E+03 0.  0.
        5    1    3    3  502    0 -0.37957632633E+03 -0.34705266389E+02  0.19925205032E+03  0.43012336903E+03  0.46999998093E+01 0. -1.
       -5    1    3    3    0  502  0.37957632633E+03  0.34705266389E+02  0.20672129998E+02  0.38174870004E+03  0.46999998093E+01 0.  1.
</event>
<event>
 5   0  0.1817089E-02  0.8170152E+03  0.7818609E-02  0.9535710E-01
       -2   -1    0    0    0  501  0.00000000000E+00  0.00000000000E+00  0.20197131585E+03  0.20197131587E+03  0.25500000920E-02 0.  1.
        2   -1    0    0  501    0  0.00000000000E+00  0.00000000000E+00 -0.82624839118E+03  0.82624839118E+03  0.25500000920E-02 0. -1.
    10030    2    1    2    0    0  0.00000000000E+00  0.00000000000E+00 -0.62427707533E+03  0.10282197070E+04  0.81701523804E+03 0.  0.
        2    1    3    3  502    0  0.73069362593E+02 -0.38348471068E+03 -0.46357217259E+03  0.60605182475E+03  0.25500000920E-02 0. -1.
       -2    1    3    3    0  502 -0.73069362593E+02  0.38348471068E+03 -0.16070490274E+03  0.42216788230E+03  0.25500000920E-02 0.  1.
</event>
<event>
 5   0  0.1818665E-02  0.7990471E+03  0.7818609E-02  0.9561397E-01
        2   -1    0    0  501    0  0.00000000000E+00  0.00000000000E+00  0.79852350551E+03  0.79852350552E+03  0.25500000920E-02 0.  1.
       -2   -1    0    0    0  501  0.00000000000E+00  0.00000000000E+00 -0.19989277009E+03  0.19989277011E+03  0.25500000920E-02 0. -1.
    10030    2    1    2    0    0  0.00000000000E+00  0.00000000000E+00  0.59863073543E+03  0.99841627562E+03  0.79904712128E+03 0.  0.
        3    1    3    3  502    0 -0.76095664564E+02  0.41575494795E+02 -0.18799298825E+03  0.20702764493E+03  0.10100000352E+00 0. -1.
       -3    1    3    3    0  502  0.76095664564E+02 -0.41575494795E+02  0.78662372368E+03  0.79138863069E+03  0.10100000352E+00 0.  1.
</event>
<event>
 5   0  0.1030323E-02  0.8031321E+03  0.7818609E-02  0.9555495E-01
       -1   -1    0    0    0  501  0.00000000000E+00  0.00000000000E+00  0.19027272524E+03  0.19027272531E+03  0.50400001928E-02 0.  1.
        1   -1    0    0  501    0  0.00000000000E+00  0.00000000000E+00 -0.84749553570E+03  0.84749553572E+03  0.50400001928E-02 0. -1.
    10030    2    1    2    0    0  0.00000000000E+00  0.00000000000E+00 -0.65722281046E+03  0.10377682610E+04  0.80313208192E+03 0.  0.
        3    1    3    3  502    0  0.38743616199E+03  0.16933529222E+02 -0.46327907063E+03  0.60416970424E+03  0.10100000352E+00 0. -1.
       -3    1    3    3    0  502 -0.38743616199E+03 -0.16933529222E+02 -0.19394373983E+03  0.43359855679E+03  0.10100000352E+00 0.  1.
</event>
<event>
 5   0  0.1747544E-02  0.8027789E+03  0.7818609E-02  0.9556003E-01
       -2   -1    0    0    0  501  0.00000000000E+00  0.00000000000E+00  0.25972305300E+03  0.25972305301E+03  0.25500000920E-02 0. -1.
        2   -1    0    0  501    0  0.00000000000E+00  0.00000000000E+00 -0.62032799814E+03  0.62032799815E+03  0.25500000920E-02 0.  1.
    10030    2    1    2    0    0  0.00000000000E+00  0.00000000000E+00 -0.36060494514E+03  0.88005105116E+03  0.80277887752E+03 0.  0.
        1    1    3    3  502    0  0.91718579888E+02 -0.27647718720E+03 -0.48303894007E+03  0.56407317840E+03  0.50400001928E-02 0.  1.
       -1    1    3    3    0  502 -0.91718579888E+02  0.27647718720E+03  0.12243399493E+03  0.31597787276E+03  0.50400001928E-02 0. -1.
</event>
<event>
 5   0  0.1747544E-02  0.8012006E+03  0.7818609E-02  0.9558281E-01
        2   -1    0    0  501    0  0.00000000000E+00  0.00000000000E+00  0.74471917462E+03  0.74471917463E+03  0.25500000920E-02 0. -1.
       -2   -1    0    0    0  501  0.00000000000E+00  0.00000000000E+00 -0.21549140611E+03  0.21549140613E+03  0.25500000920E-02 0.  1.
    10030    2    1    2    0    0  0.00000000000E+00  0.00000000000E+00  0.52922776851E+03  0.96021058075E+03  0.80120055443E+03 0.  0.
        1    1    3    3  502    0  0.78848291735E+02 -0.36410162646E+03  0.88095312312E+02  0.38281566266E+03  0.50400001928E-02 0.  1.
       -1    1    3    3    0  502 -0.78848291735E+02  0.36410162646E+03  0.44113245620E+03  0.57739491809E+03  0.50400001928E-02 0. -1.
</event>
<event>
 5   0  0.1673727E-02  0.7513620E+03  0.7818609E-02  0.9633216E-01
        2   -1    0    0  501    0  0.00000000000E+00  0.00000000000E+00  0.72742923970E+03  0.72742923971E+03  0.25500000920E-02 0.  1.
       -2   -1    0    0    0  501  0.00000000000E+00  0.00000000000E+00 -0.19402054986E+03  0.19402054987E+03  0.25500000920E-02 0. -1.
    10030    2    1    2    0    0  0.00000000000E+00  0.00000000000E+00  0.53340868985E+03  0.92144978958E+03  0.75136201948E+03 0.  0.
        5    1    3    3  502    0 -0.34453788627E+02  0.37129051328E+03  0.32250661970E+03  0.49302770566E+03  0.46999998093E+01 0.  1.
       -5    1    3    3    0  502  0.34453788627E+02 -0.37129051328E+03  0.21090207014E+03  0.42842208392E+03  0.46999998093E+01 0. -1.
</event>
<event>
 5   0  0.1818665E-02  0.8121968E+03  0.7818609E-02  0.9542529E-01
        2   -1    0    0  501    0  0.00000000000E+00  0.00000000000E+00  0.18573810367E+04  0.18573810367E+04  0.25500000920E-02 0.  1.
       -2   -1    0    0    0  501  0.00000000000E+00  0.00000000000E+00 -0.88789491919E+02  0.88789491955E+02  0.25500000920E-02 0. -1.
    10030    2    1    2    0    0  0.00000000000E+00  0.00000000000E+00  0.17685915448E+04  0.19461705287E+04  0.81219681996E+03 0.  0.
        3    1    3    3  502    0 -0.39843945523E+03  0.75567088537E+02  0.93521244828E+03  0.10193560310E+04  0.10100000352E+00 0. -1.
       -3    1    3    3    0  502  0.39843945523E+03 -0.75567088537E+02  0.83337909652E+03  0.92681449766E+03  0.10100000352E+00 0.  1.
</event>
<event>
 5   0  0.1025900E-02  0.8132054E+03  0.7818609E-02  0.9541097E-01
       -1   -1    0    0    0  501  0.00000000000E+00  0.00000000000E+00  0.85203799562E+02  0.85203799711E+02  0.50400001928E-02 0.  1.
        1   -1    0    0  501    0  0.00000000000E+00  0.00000000000E+00 -0.19403564907E+04  0.19403564907E+04  0.50400001928E-02 0. -1.
    10030    2    1    2    0    0  0.00000000000E+00  0.00000000000E+00 -0.18551526912E+04  0.20255602905E+04  0.81320537547E+03 0.  0.
        1    1    3    3  502    0 -0.26868128519E+03  0.10287091152E+02 -0.16785012197E+03  0.31696864312E+03  0.50400001928E-02 0.  1.
       -1    1    3    3    0  502  0.26868128519E+03 -0.10287091152E+02 -0.16873025692E+04  0.17085916473E+04  0.50400001928E-02 0. -1.
</event>
<event>
 5   0  0.1025900E-02  0.8113321E+03  0.7818609E-02  0.9543758E-01
       -1   -1    0    0    0  501  0.00000000000E+00  0.00000000000E+00  0.19126630200E+03  0.19126630206E+03  0.50400001928E-02 0.  1.
        1   -1    0    0  501    0  0.00000000000E+00  0.00000000000E+00 -0.86039688250E+03  0.86039688251E+03  0.50400001928E-02 0. -1.
    10030    2    1    2    0    0  0.00000000000E+00  0.00000000000E+00 -0.66913058050E+03  0.10516631846E+04  0.81133206520E+03 0.  0.
        1    1    3    3  502    0 -0.32111861845E+02  0.20570945521E+02  0.18893763871E+03  0.19274793596E+03  0.50400001928E-02 0.  1.
       -1    1    3    3    0  502  0.32111861845E+02 -0.20570945521E+02 -0.85806821920E+03  0.85891524862E+03  0.50400001928E-02 0. -1.
</event>
<event>
 5   0  0.1025900E-02  0.8013466E+03  0.7818609E-02  0.9558070E-01
       -1   -1    0    0    0  501  0.00000000000E+00  0.00000000000E+00  0.36932821576E+03  0.36932821580E+03  0.50400001928E-02 0.  1.
        1   -1    0    0  501    0  0.00000000000E+00  0.00000000000E+00 -0.43467868901E+03  0.43467868904E+03  0.50400001928E-02 0. -1.
    10030    2    1    2    0    0  0.00000000000E+00  0.00000000000E+00 -0.65350473241E+02  0.80400690483E+03  0.80134662829E+03 0.  0.
        1    1    3    3  502    0  0.47458009384E+00  0.37645949903E+03  0.10495567913E+03  0.39081667601E+03  0.50400001928E-02 0.  1.
       -1    1    3    3    0  502 -0.47458009384E+00 -0.37645949903E+03 -0.17030615237E+03  0.41319022883E+03  0.50400001928E-02 0. -1.
</event>
<event>
 5   0  0.1673727E-02  0.7977603E+03  0.7818609E-02  0.9563265E-01
        2   -1    0    0  501    0  0.00000000000E+00  0.00000000000E+00  0.23655595908E+04  0.23655595909E+04  0.25500000920E-02 0.  1.
       -2   -1    0    0    0  501  0.00000000000E+00  0.00000000000E+00 -0.67259088587E+02  0.67259088636E+02  0.25500000920E-02 0. -1.
    10030    2    1    2    0    0  0.00000000000E+00  0.00000000000E+00  0.22983005023E+04  0.24328186795E+04  0.79776032025E+03 0.  0.
        5    1    3    3  502    0  0.71907099303E+02 -0.30292796851E+02 -0.43672572622E+02  0.89541432136E+02  0.46999998093E+01 0. -1.
       -5    1    3    3    0  502 -0.71907099303E+02  0.30292796851E+02  0.23419730749E+04  0.23432772474E+04  0.46999998093E+01 0.  1.
</event>
<event>
 5   0  0.1747544E-02  0.8020823E+03  0.7818609E-02  0.9557008E-01
       -2   -1    0    0    0  501  0.00000000000E+00  0.00000000000E+00  0.81629972162E+03  0.81629972162E+03  0.25500000920E-02 0.  1.
        2   -1    0    0  501    0  0.00000000000E+00  0.00000000000E+00 -0.19702814931E+03  0.19702814933E+03  0.25500000920E-02 0. -1.
    10030    2    1    2    0    0  0.00000000000E+00  0.00000000000E+00  0.61927157231E+03  0.10133278709E+04  0.80208234850E+03 0.  0.
        1    1    3    3  502    0  0.14936455887E+03  0.85741676411E+02 -0.14792902765E+03  0.22703392647E+03  0.50400001928E-02 0. -1.
       -1    1    3    3    0  502 -0.14936455887E+03 -0.85741676411E+02  0.76720059996E+03  0.78629394448E+03  0.50400001928E-02 0.  1.
</event>
<event>
 5   0  0.1049780E-02  0.7805344E+03  0.7818609E-02  0.9588628E-01
       -1   -1    0    0    0  501  0.00000000000E+00  0.00000000000E+00  0.14592278113E+03  0.14592278121E+03  0.50400001928E-02 0. -1.
        1   -1    0    0  501    0  0.00000000000E+00  0.00000000000E+00 -0.10437607349E+04  0.10437607349E+04  0.50400001928E-02 0.  1.
    10030    2    1    2    0    0  0.00000000000E+00  0.00000000000E+00 -0.89783795381E+03  0.11896835162E+04  0.78053435371E+03 0.  0.
        5    1    3    3  502    0 -0.21349015211E+03 -0.30158112444E+03 -0.64024691427E+03  0.73923434776E+03  0.46999998093E+01 0.  1.
       -5    1    3    3    0  502  0.21349015211E+03  0.30158112444E+03 -0.25759103954E+03  0.45044916841E+03  0.46999998093E+01 0. -1.
</event>
<event>
 5   0  0.1030323E-02  0.8057153E+03  0.7818609E-02  0.9551781E-01
        1   -1    0    0  501    0  0.00000000000E+00  0.00000000000E+00  0.62008444944E+03  0.62008444946E+03  0.50400001928E-02 0. -1.
       -1   -1    0    0    0  501  0.00000000000E+00  0.00000000000E+00 -0.26172933390E+03  0.26172933395E+03  0.50400001928E-02 0.  1.
    10030    2    1    2    0    0  0.00000000000E+00  0.00000000000E+00  0.35835511554E+03  0.88181378341E+03  0.80571530938E+03 0.  0.
        3    1    3    3  502    0 -0.23876587075E+03 -0.21025483995E+03 -0.91304098217E+02  0.33098744283E+03  0.10100000352E+00 0.  1.
       -3    1    3    3    0  502  0.23876587075E+03  0.21025483995E+03  0.44965921376E+03  0.55082634058E+03  0.10100000352E+00 0. -1.
</event>
<event>
 5   0  0.1747544E-02  0.8003850E+03  0.7818609E-02  0.9559460E-01
        2   -1    0    0  501    0  0.00000000000E+00  0.00000000000E+00  0.69645899877E+03  0.69645899878E+03  0.25500000920E-02 0.  1.
       -2   -1    0    0    0  501  0.00000000000E+00  0.00000000000E+00 -0.22995471009E+03  0.22995471010E+03  0.25500000920E-02 0. -1.
    10030    2    1    2    0    0  0.00000000000E+00  0.00000000000E+00  0.46650428868E+03  0.92641370888E+03  0.80038497527E+03 0.  0.
        1    1    3    3  502    0  0.19988456172E+03  0.18640732765E+03 -0.10509960420E+03  0.29282666655E+03  0.50400001928E-02 0. -1.
       -1    1    3    3    0  502 -0.19988456172E+03 -0.18640732765E+03  0.57160389289E+03  0.63358704233E+03  0.50400001928E-02 0.  1.
</event>
<event>
 5   0  0.1025900E-02  0.7960081E+03  0.7818609E-02  0.9565813E-01
       -1   -1    0    0    0  501  0.00000000000E+00  0.00000000000E+00  0.41939286311E+03  0.41939286314E+03  0.50400001928E-02 0. -1.
        1   -1    0    0  501    0  0.00000000000E+00  0.00000000000E+00 -0.37770609581E+03  0.37770609584E+03  0.50400001928E-02 0.  1.
    10030    2    1    2    0    0  0.00000000000E+00  0.00000000000E+00  0.41686767307E+02  0.79709895898E+03  0.79600814308E+03 0.  0.
        1    1    3    3  502    0  0.32177898400E+03  0.29783970912E+02 -0.21180760469E+03  0.38638227302E+03  0.50400001928E-02 0.  1.
       -1    1    3    3    0  502 -0.32177898400E+03 -0.29783970912E+02  0.25349437200E+03  0.41071668597E+03  0.50400001928E-02 0. -1.
</event>
<event>
 5   0  0.1038912E-02  0.8051899E+03  0.7818609E-02  0.9552535E-01
        1   -1    0    0  501    0  0.00000000000E+00  0.00000000000E+00  0.13838795384E+04  0.13838795384E+04  0.50400001928E-02 0. -1.
       -1   -1    0    0    0  501  0.00000000000E+00  0.00000000000E+00 -0.11712196245E+03  0.11712196256E+03  0.50400001928E-02 0.  1.
    10030    2    1    2    0    0  0.00000000000E+00  0.00000000000E+00  0.12667575760E+04  0.15010015010E+04  0.80518988425E+03 0.  0.
        2    1    3    3  502    0 -0.27410389181E+03 -0.92337580317E+02  0.11554214178E+04  0.11910742315E+04  0.25500000920E-02 0. -1.
       -2    1    3    3    0  502  0.27410389181E+03  0.92337580317E+02  0.11133615816E+03  0.30992726947E+03  0.25500000920E-02 0.  1.
</event>
<event>
 5   0  0.1146083E-02  0.8025664E+03  0.7818609E-02  0.9556310E-01
       -1   -1    0    0    0  501  0.00000000000E+00  0.00000000000E+00  0.12485065636E+04  0.12485065636E+04  0.50400001928E-02 0. -1.
        1   -1    0    0  501    0  0.00000000000E+00  0.00000000000E+00 -0.12897665890E+03  0.12897665900E+03  0.50400001928E-02 0.  1.
    10030    2    1    2    0    0  0.00000000000E+00  0.00000000000E+00  0.11195299047E+04  0.13774832226E+04  0.80256639666E+03 0.  0.
        4    1    3    3  502    0 -0.35038218796E+03 -0.82928610203E+02  0.86381424449E+03  0.93585335065E+03  0.12699999809E+01 0. -1.
       -4    1    3    3    0  502  0.35038218796E+03  0.82928610203E+02  0.25571566019E+03  0.44162987195E+03  0.12699999809E+01 0.  1.
</event>
<event>
 5   0  0.1038912E-02  0.8105395E+03  0.7818609E-02  0.9544886E-01
        1   -1    0    0  501    0  0.00000000000E+00  0.00000000000E+00  0.49865473372E+03  0.49865473375E+03  0.50400001928E-02 0.  1.
       -1   -1    0    0    0  501  0.00000000000E+00  0.00000000000E+00 -0.32937335770E+03  0.32937335774E+03  0.50400001928E-02 0. -1.
    10030    2    1    2    0    0  0.00000000000E+00  0.00000000000E+00  0.16928137602E+03  0.82802809149E+03  0.81053953391E+03 0.  0.
        2    1    3    3  502    0 -0.51535560893E+02 -0.49517402192E+02 -0.32288470375E+03  0.33069989277E+03  0.25500000920E-02 0. -1.
       -2    1    3    3    0  502  0.51535560893E+02  0.49517402192E+02  0.49216607977E+03  0.49732819872E+03  0.25500000920E-02 0.  1.
</event>
<event>
 5   0  0.1025900E-02  0.7961744E+03  0.7818609E-02  0.9565571E-01
       -1   -1    0    0    0  501  0.00000000000E+00  0.00000000000E+00  0.34218509621E+03  0.34218509624E+03  0.50400001928E-02 0. -1.
        1   -1    0    0  501    0  0.00000000000E+00  0.00000000000E+00 -0.46312194117E+03  0.46312194120E+03  0.50400001928E-02 0.  1.
    10030    2    1    2    0    0  0.00000000000E+00  0.00000000000E+00 -0.12093684497E+03  0.80530703744E+03  0.79617441813E+03 0.  0.
        1    1    3    3  502    0 -0.23635287900E+03 -0.17882097504E+03  0.20835033249E+03  0.36228370872E+03  0.50400001928E-02 0. -1.
       -1    1    3    3    0  502  0.23635287900E+03  0.17882097504E+03 -0.32928717746E+03  0.44302332872E+03  0.50400001928E-02 0.  1.
</event>
<event>
 5   0  0.1030323E-02  0.8004090E+03  0.7818609E-02  0.9559425E-01
       -1   -1    0    0    0  501  0.00000000000E+00  0.00000000000E+00  0.34633037497E+03  0.34633037501E+03  0.50400001928E-02 0.  1.
        1   -1    0    0  501    0  0.00000000000E+00  0.00000000000E+00 -0.46245909349E+03  0.46245909351E+03  0.50400001928E-02 0. -1.
    10030    2    1    2    0    0  0.00000000000E+00  0.00000000000E+00 -0.11612871851E+03  0.80878946852E+03  0.80040897367E+03 0.  0.
        3    1    3    3  502    0  0.39395734087E+03 -0.65825464176E+02 -0.32737149795E+02  0.40075816814E+03  0.10100000352E+00 0. -1.
       -3    1    3    3    0  502 -0.39395734087E+03  0.65825464176E+02 -0.83391568719E+02  0.40803130038E+03  0.10100000352E+00 0.  1.
</event>
<event>
 5   0  0.1146083E-02  0.7995831E+03  0.7818609E-02  0.9560621E-01
        1   -1    0    0  501    0  0.00000000000E+00  0.00000000000E+00  0.65279421206E+03  0.65279421208E+03  0.50400001928E-02 0. -1.
       -1   -1    0    0    0  501  0.00000000000E+00  0.00000000000E+00 -0.24484485279E+03  0.24484485284E+03  0.50400001928E-02 0.  1.
    10030    2    1    2    0    0  0.00000000000E+00  0.00000000000E+00  0.40794935928E+03  0.89763906492E+03  0.79958314836E+03 0.  0.
        4    1    3    3  502    0  0.20746360440E+03 -0.25574299708E+03 -0.50509495398E+02  0.33316429840E+03  0.12699999809E+01 0.  1.
       -4    1    3    3    0  502 -0.20746360440E+03  0.25574299708E+03  0.45845885467E+03  0.56447476652E+03  0.12699999809E+01 0. -1.
</event>
<event>
 5   0  0.1673727E-02  0.8033646E+03  0.7818609E-02  0.9555160E-01
        2   -1    0    0  501    0  0.00000000000E+00  0.00000000000E+00  0.43018039848E+03  0.43018039849E+03  0.25500000920E-02 0.  1.
       -2   -1    0    0    0  501  0.00000000000E+00  0.00000000000E+00 -0.37507207649E+03  0.37507207650E+03  0.25500000920E-02 0. -1.
    10030    2    1    2    0    0  0.00000000000E+00  0.00000000000E+00  0.55108321991E+02  0.80525247499E+03  0.80336456315E+03 0.  0.
        5    1    3    3  502    0  0.34480138374E+02  0.27945420491E+03  0.31465882681E+03  0.42227455509E+03  0.46999998093E+01 0.  1.
       -5    1    3    3    0  502 -0.34480138374E+02 -0.27945420491E+03 -0.25955050482E+03  0.38297791991E+03  0.46999998093E+01 0. -1.
</event>
<event>
 5   0  0.1038912E-02  0.7990206E+03  0.7818609E-02  0.9561436E-01
        1   -1    0    0  501    0  0.00000000000E+00  0.00000000000E+00  0.47810131064E+03  0.47810131066E+03  0.50400001928E-02 0.  1.
       -1   -1    0    0    0  501  0.00000000000E+00  0.00000000000E+00 -0.33383821052E+03  0.33383821056E+03  0.50400001928E-02 0. -1.
    10030    2    1    2    0    0  0.00000000000E+00  0.00000000000E+00  0.14426310012E+03  0.81193952122E+03  0.79902061554E+03 0.  0.
        2    1    3    3  502    0 -0.69829677105E+02 -0.35125458916E+03 -0.10779775153E+03  0.37400043510E+03  0.25500000920E-02 0. -1.
       -2    1    3    3    0  502  0.69829677105E+02  0.35125458916E+03  0.25206085165E+03  0.43793908612E+03  0.25500000920E-02 0.  1.
</event>
<event>
 5   0  0.1030323E-02  0.7969478E+03  0.7818609E-02  0.9564446E-01
        1   -1    0    0  501    0  0.00000000000E+00  0.00000000000E+00  0.71443731569E+03  0.71443731571E+03  0.50400001928E-02 0.  1.
       -1   -1    0    0    0  501  0.00000000000E+00  0.00000000000E+00 -0.22224683124E+03  0.22224683130E+03  0.50400001928E-02 0. -1.
    10030    2    1    2    0    0  0.00000000000E+00  0.00000000000E+00  0.49219048445E+03  0.93668414700E+03  0.79694775128E+03 0.  0.
        3    1    3    3  502    0  0.28208548789E+03  0.24840783357E+03  0.90600250832E+02  0.38663560352E+03  0.10100000352E+00 0. -1.
       -3    1    3    3    0  502 -0.28208548789E+03 -0.24840783357E+03  0.40159023362E+03  0.55004854349E+03  0.10100000352E+00 0.  1.
</event>
<event>
 5   0  0.6872500E-03  0.7858435E+03  0.7818609E-02  0.9580737E-01
        4   -1    0    0  501    0  0.00000000000E+00  0.00000000000E+00  0.23001421086E+03  0.23001771692E+03  0.12699999809E+01 0.  1.
       -4   -1    0    0    0  501  0.00000000000E+00  0.00000000000E+00 -0.67119930776E+03  0.67120050926E+03  0.12699999809E+01 0. -1.
    10030    2    1    2    0    0  0.00000000000E+00  0.00000000000E+00 -0.44118509690E+03  0.90121822618E+03  0.78584349680E+03 0.  0.
        5    1    3    3  502    0  0.36711511169E+03 -0.12489193814E+02 -0.60711675088E+02  0.37234054666E+03  0.46999998093E+01 0.  1.
       -5    1    3    3    0  502 -0.36711511169E+03  0.12489193814E+02 -0.38047342181E+03  0.52887767952E+03  0.46999998093E+01 0. -1.
</event>
<event>
 5   0  0.1747544E-02  0.8202926E+03  0.7818609E-02  0.9531100E-01
       -2   -1    0    0    0  501  0.00000000000E+00  0.00000000000E+00  0.67874552707E+03  0.67874552707E+03  0.25500000920E-02 0. -1.
        2   -1    0    0  501    0  0.00000000000E+00  0.00000000000E+00 -0.24783954387E+03  0.24783954388E+03  0.25500000920E-02 0.  1.
    10030    2    1    2    0    0  0.00000000000E+00  0.00000000000E+00  0.43090598320E+03  0.92658507095E+03  0.82029258643E+03 0.  0.
        1    1    3    3  502    0  0.58830616047E+01  0.89670484798E+02 -0.23658259746E+03  0.25307455760E+03  0.50400001928E-02 0.  1.
       -1    1    3    3    0  502 -0.58830616047E+01 -0.89670484798E+02  0.66748858066E+03  0.67351051335E+03  0.50400001928E-02 0. -1.
</event>
<event>
 5   0  0.6872500E-03  0.7554647E+03  0.7818609E-02  0.9626816E-01
       -3   -1    0    0    0  501  0.00000000000E+00  0.00000000000E+00  0.24317019098E+03  0.24317021195E+03  0.10100000352E+00 0.  1.
        3   -1    0    0  501    0  0.00000000000E+00  0.00000000000E+00 -0.58675665031E+03  0.58675665900E+03  0.10100000352E+00 0. -1.
    10030    2    1    2    0    0  0.00000000000E+00  0.00000000000E+00 -0.34358645933E+03  0.82992687095E+03  0.75546472855E+03 0.  0.
        5    1    3    3  502    0 -0.24809134854E+03 -0.18241666530E+03 -0.41206138646E+03  0.51443350709E+03  0.46999998093E+01 0. -1.
       -5    1    3    3    0  502  0.24809134854E+03  0.18241666530E+03  0.68474927133E+02  0.31549336387E+03  0.46999998093E+01 0.  1.
</event>
<event>
 5   0  0.1025900E-02  0.8902907E+03  0.7818609E-02  0.9437801E-01
        1   -1    0    0  501    0  0.00000000000E+00  0.00000000000E+00  0.77220220740E+03  0.77220220742E+03  0.50400001928E-02 0. -1.
       -1   -1    0    0    0  501  0.00000000000E+00  0.00000000000E+00 -0.25660946283E+03  0.25660946288E+03  0.50400001928E-02 0.  1.
    10030    2    1    2    0    0  0.00000000000E+00  0.00000000000E+00  0.51559274457E+03  0.10288116703E+04  0.89029072482E+03 0.  0.
        1    1    3    3  502    0 -0.26946741835E+03 -0.10276816836E+03 -0.13405011260E+03  0.31803053107E+03  0.50400001928E-02 0.  1.
       -1    1    3    3    0  502  0.26946741835E+03  0.10276816836E+03  0.64964285717E+03  0.71078113923E+03  0.50400001928E-02 0. -1.
</event>
<event>
 5   0  0.1817089E-02  0.8003087E+03  0.7818609E-02  0.9559570E-01
        2   -1    0    0  501    0  0.00000000000E+00  0.00000000000E+00  0.82396974442E+03  0.82396974442E+03  0.25500000920E-02 0. -1.
       -2   -1    0    0    0  501  0.00000000000E+00  0.00000000000E+00 -0.19433178739E+03  0.19433178741E+03  0.25500000920E-02 0.  1.
    10030    2    1    2    0    0  0.00000000000E+00  0.00000000000E+00  0.62963795703E+03  0.10183015318E+04  0.80030872342E+03 0.  0.
        2    1    3    3  502    0  0.22517840692E+03 -0.27266117946E+03  0.55311236382E+03  0.65649274234E+03  0.25500000920E-02 0. -1.
       -2    1    3    3    0  502 -0.22517840692E+03  0.27266117946E+03  0.76525593212E+02  0.36180878949E+03  0.25500000920E-02 0.  1.
</event>
<event>
 5   0  0.1049780E-02  0.7887306E+03  0.7818609E-02  0.9576474E-01
        1   -1    0    0  501    0  0.00000000000E+00  0.00000000000E+00  0.87844898707E+03  0.87844898709E+03  0.50400001928E-02 0.  1.
       -1   -1    0    0    0  501  0.00000000000E+00  0.00000000000E+00 -0.17704386590E+03  0.17704386597E+03  0.50400001928E-02 0. -1.
    10030    2    1    2    0    0  0.00000000000E+00  0.00000000000E+00  0.70140512117E+03  0.10554928531E+04  0.78873063771E+03 0.  0.
        5    1    3    3  502    0  0.88205913037E+02 -0.28795571786E+03  0.10039849721E+02  0.30136633376E+03  0.46999998093E+01 0. -1.
       -5    1    3    3    0  502 -0.88205913037E+02  0.28795571786E+03  0.69136527145E+03  0.75412651930E+03  0.46999998093E+01 0.  1.
</event>
<event>
 5   0  0.1146083E-02  0.7963942E+03  0.7818609E-02  0.9565251E-01
        1   -1    0    0  501    0  0.00000000000E+00  0.00000000000E+00  0.47855569844E+03  0.47855569846E+03  0.50400001928E-02 0. -1.
       -1   -1    0    0    0  501  0.00000000000E+00  0.00000000000E+00 -0.33133226547E+03  0.33133226551E+03  0.50400001928E-02 0.  1.
    10030    2    1    2    0    0  0.00000000000E+00  0.00000000000E+00  0.14722343297E+03  0.80988796397E+03  0.79639423339E+03 0.  0.
        4    1    3    3  502    0  0.44740725196E+02  0.21253013212E+03 -0.26579239301E+03  0.34324626528E+03  0.12699999809E+01 0.  1.
       -4    1    3    3    0  502 -0.44740725196E+02 -0.21253013212E+03  0.41301582597E+03  0.46664169869E+03  0.12699999809E+01 0. -1.
</event>
<event>
 5   0  0.1030323E-02  0.8049769E+03  0.7818609E-02  0.9552841E-01
        1   -1    0    0  501    0  0.00000000000E+00  0.00000000000E+00  0.90650020164E+03  0.90650020166E+03  0.50400001928E-02 0. -1.
       -1   -1    0    0    0  501  0.00000000000E+00  0.00000000000E+00 -0.17870589891E+03  0.17870589898E+03  0.50400001928E-02 0.  1.
    10030    2    1    2    0    0  0.00000000000E+00  0.00000000000E+00  0.72779430273E+03  0.10852061006E+04  0.80497685295E+03 0.  0.
        3    1    3    3  502    0  0.11303228582E+03 -0.16092661927E+02  0.88421182509E+03  0.89155248485E+03  0.10100000352E+00 0. -1.
       -3    1    3    3    0  502 -0.11303228582E+03  0.16092661927E+02 -0.15641752236E+03  0.19365361579E+03  0.10100000352E+00 0.  1.
</event>
<event>
 5   0  0.6872500E-03  0.7847369E+03  0.7818609E-02  0.9582376E-01
        3   -1    0    0  501    0  0.00000000000E+00  0.00000000000E+00  0.38898290662E+03  0.38898291974E+03  0.10100000352E+00 0.  1.
       -3   -1    0    0    0  501  0.00000000000E+00  0.00000000000E+00 -0.39578342396E+03  0.39578343685E+03  0.10100000352E+00 0. -1.
    10030    2    1    2    0    0  0.00000000000E+00  0.00000000000E+00 -0.68005173407E+01  0.78476635659E+03  0.78473689055E+03 0.  0.
        1    1    3    3  502    0  0.24507980069E+03  0.26314869392E+03  0.15358223583E+03  0.39102282159E+03  0.50400001928E-02 0.  1.
       -1    1    3    3    0  502 -0.24507980069E+03 -0.26314869392E+03 -0.16038275317E+03  0.39374353500E+03  0.50400001928E-02 0. -1.
</event>
<event>
 5   0  0.1818665E-02  0.7997317E+03  0.7818609E-02  0.9560406E-01
        2   -1    0    0  501    0  0.00000000000E+00  0.00000000000E+00  0.98992565051E+03  0.98992565051E+03  0.25500000920E-02 0. -1.
       -2   -1    0    0    0  501  0.00000000000E+00  0.00000000000E+00 -0.16151989164E+03  0.16151989166E+03  0.25500000920E-02 0.  1.
    10030    2    1    2    0    0  0.00000000000E+00  0.00000000000E+00  0.82840575887E+03  0.11514455422E+04  0.79973166454E+03 0.  0.
        3    1    3    3  502    0 -0.39736968949E+03 -0.15922893871E+02  0.47420023666E+03  0.61888777926E+03  0.10100000352E+00 0.  1.
       -3    1    3    3    0  502  0.39736968949E+03  0.15922893871E+02  0.35420552221E+03  0.53255776291E+03  0.10100000352E+00 0. -1.
</event>
<event>
 5   0  0.1731337E-02  0.7974848E+03  0.7818609E-02  0.9563665E-01
        2   -1    0    0  501    0  0.00000000000E+00  0.00000000000E+00  0.30808242992E+03  0.30808242993E+03  0.25500000920E-02 0. -1.
       -2   -1    0    0    0  501  0.00000000000E+00  0.00000000000E+00 -0.51608103885E+03  0.51608103885E+03  0.25500000920E-02 0.  1.
    10030    2    1    2    0    0  0.00000000000E+00  0.00000000000E+00 -0.20799860892E+03  0.82416346879E+03  0.79748479733E+03 0.  0.
        4    1    3    3  502    0  0.24747762847E+03 -0.23875227397E+03 -0.31260865553E+03  0.46472960884E+03  0.12699999809E+01 0.  1.
       -4    1    3    3    0  502 -0.24747762847E+03  0.23875227397E+03  0.10461004661E+03  0.35943385994E+03  0.12699999809E+01 0. -1.
</event>
<event>
 5   0  0.1025900E-02  0.8059328E+03  0.7818609E-02  0.9551469E-01
       -1   -1    0    0    0  501  0.00000000000E+00  0.00000000000E+00  0.91441953710E+03  0.91441953711E+03  0.50400001928E-02 0.  1.
        1   -1    0    0  501    0  0.00000000000E+00  0.00000000000E+00 -0.17757923966E+03  0.17757923973E+03  0.50400001928E-02 0. -1.
    10030    2    1    2    0    0  0.00000000000E+00  0.00000000000E+00  0.73684029744E+03  0.10919987768E+04  0.80593281649E+03 0.  0.
        1    1    3    3  502    0  0.35236587258E+03  0.16466372393E+03  0.51121206850E+03  0.64235008302E+03  0.50400001928E-02 0. -1.
       -1    1    3    3    0  502 -0.35236587258E+03 -0.16466372393E+03  0.22562822894E+03  0.44964869383E+03  0.50400001928E-02 0.  1.
</event>
<event>
 5   0  0.1049780E-02  0.8075456E+03  0.7818609E-02  0.9549159E-01
        1   -1    0    0  501    0  0.00000000000E+00  0.00000000000E+00  0.10536598862E+04  0.10536598862E+04  0.50400001928E-02 0.  1.
       -1   -1    0    0    0  501  0.00000000000E+00  0.00000000000E+00 -0.15472971031E+03  0.15472971040E+03  0.50400001928E-02 0. -1.
    10030    2    1    2    0    0  0.00000000000E+00  0.00000000000E+00  0.89893017589E+03  0.12083895966E+04  0.80754563715E+03 0.  0.
        5    1    3    3  502    0 -0.34198357096E+03 -0.19827433694E+03  0.57235844769E+03  0.69561609968E+03  0.46999998093E+01 0.  1.
       -5    1    3    3    0  502  0.34198357096E+03  0.19827433694E+03  0.32657172820E+03  0.51277349693E+03  0.46999998093E+01 0. -1.
</event>
<event>
 5   0  0.1818665E-02  0.8008001E+03  0.7818609E-02  0.9558860E-01
       -2   -1    0    0    0  501  0.00000000000E+00  0.00000000000E+00  0.14806257139E+03  0.14806257141E+03  0.25500000920E-02 0.  1.
        2   -1    0    0  501    0  0.00000000000E+00  0.00000000000E+00 -0.10827869402E+04  0.10827869402E+04  0.25500000920E-02 0. -1.
    10030    2    1    2    0    0  0.00000000000E+00  0.00000000000E+00 -0.93472436877E+03  0.12308495116E+04  0.80080014645E+03 0.  0.
        3    1    3    3  502    0 -0.38294100148E+02  0.15157562757E+03 -0.10339357979E+04  0.10456886981E+04  0.10100000352E+00 0. -1.
       -3    1    3    3    0  502  0.38294100148E+02 -0.15157562757E+03  0.99211429113E+02  0.18516081347E+03  0.10100000352E+00 0.  1.
</event>
<event>
 5   0  0.1146083E-02  0.7924972E+03  0.7818609E-02  0.9570941E-01
       -1   -1    0    0    0  501  0.00000000000E+00  0.00000000000E+00  0.27681818848E+03  0.27681818852E+03  0.50400001928E-02 0. -1.
        1   -1    0    0  501    0  0.00000000000E+00  0.00000000000E+00 -0.56720609061E+03  0.56720609063E+03  0.50400001928E-02 0.  1.
    10030    2    1    2    0    0  0.00000000000E+00  0.00000000000E+00 -0.29038790213E+03  0.84402427916E+03  0.79249722403E+03 0.  0.
        4    1    3    3  502    0  0.49440350398E+02  0.53040391433E+02  0.26969021509E+03  0.27927057916E+03  0.12699999809E+01 0. -1.
       -4    1    3    3    0  502 -0.49440350398E+02 -0.53040391433E+02 -0.56007811722E+03  0.56475370000E+03  0.12699999809E+01 0.  1.
</event>
<event>
 5   0  0.1818665E-02  0.8173932E+03  0.7818609E-02  0.9535177E-01
        2   -1    0    0  501    0  0.00000000000E+00  0.00000000000E+00  0.29608640582E+03  0.29608640583E+03  0.25500000920E-02 0. -1.
       -2   -1    0    0    0  501  0.00000000000E+00  0.00000000000E+00 -0.56413563493E+03  0.56413563493E+03  0.25500000920E-02 0.  1.
    10030    2    1    2    0    0  0.00000000000E+00  0.00000000000E+00 -0.26804922911E+03  0.86022204077E+03  0.81739315522E+03 0.  0.
        3    1    3    3  502    0  0.90877222319E+02 -0.30131879936E+02  0.28411783639E+03  0.29981586829E+03  0.10100000352E+00 0. -1.
       -3    1    3    3    0  502 -0.90877222319E+02  0.30131879936E+02 -0.55216706550E+03  0.56040617247E+03  0.10100000352E+00 0.  1.
</event>
<event>
 5   0  0.1049780E-02  0.8331103E+03  0.7818609E-02  0.9513290E-01
        1   -1    0    0  501    0  0.00000000000E+00  0.00000000000E+00  0.29979649394E+03  0.29979649399E+03  0.50400001928E-02 0. -1.
       -1   -1    0    0    0  501  0.00000000000E+00  0.00000000000E+00 -0.57878660661E+03  0.57878660664E+03  0.50400001928E-02 0.  1.
    10030    2    1    2    0    0  0.00000000000E+00  0.00000000000E+00 -0.27899011267E+03  0.87858310062E+03  0.83311030586E+03 0.  0.
        5    1    3    3  502    0  0.26072379605E+03  0.38826536778E+02 -0.47960666216E+03  0.54729246128E+03  0.46999998093E+01 0.  1.
       -5    1    3    3    0  502 -0.26072379605E+03 -0.38826536778E+02  0.20061654949E+03  0.33129063934E+03  0.46999998093E+01 0. -1.
</event>
<event>
 5   0  0.1038912E-02  0.8008270E+03  0.7818609E-02  0.9558821E-01
       -1   -1    0    0    0  501  0.00000000000E+00  0.00000000000E+00  0.81292471311E+02  0.81292471467E+02  0.50400001928E-02 0. -1.
        1   -1    0    0  501    0  0.00000000000E+00  0.00000000000E+00 -0.19722733646E+04  0.19722733646E+04  0.50400001928E-02 0.  1.
    10030    2    1    2    0    0  0.00000000000E+00  0.00000000000E+00 -0.18909808933E+04  0.20535658361E+04  0.80082701273E+03 0.  0.
        2    1    3    3  502    0  0.21543218064E+03  0.32969495455E+03 -0.11307815663E+04  0.11974041666E+04  0.25500000920E-02 0.  1.
       -2    1    3    3    0  502 -0.21543218064E+03 -0.32969495455E+03 -0.76019932700E+03  0.85616166948E+03  0.25500000920E-02 0. -1.
</event>
<event>
 5   0  0.1673727E-02  0.7940865E+03  0.7818609E-02  0.9568616E-01
        2   -1    0    0  501    0  0.00000000000E+00  0.00000000000E+00  0.86355788207E+03  0.86355788208E+03  0.25500000920E-02 0.  1.
       -2   -1    0    0    0  501  0.00000000000E+00  0.00000000000E+00 -0.18255097698E+03  0.18255097699E+03  0.25500000920E-02 0. -1.
    10030    2    1    2    0    0  0.00000000000E+00  0.00000000000E+00  0.68100690510E+03  0.10461088591E+04  0.79408648158E+03 0.  0.
        5    1    3    3  502    0 -0.37380369025E+02  0.70205901740E+02 -0.17191113669E+03  0.18947741170E+03  0.46999998093E+01 0. -1.
       -5    1    3    3    0  502  0.37380369025E+02 -0.70205901740E+02  0.85291804179E+03  0.85663144737E+03  0.46999998093E+01 0.  1.
</event>
<event>
 5   0  0.1025900E-02  0.8080843E+03  0.7818609E-02  0.9548389E-01
        1   -1    0    0  501    0  0.00000000000E+00  0.00000000000E+00  0.98524115053E+03  0.98524115054E+03  0.50400001928E-02 0.  1.
       -1   -1    0    0    0  501  0.00000000000E+00  0.00000000000E+00 -0.16569551717E+03  0.16569551725E+03  0.50400001928E-02 0. -1.
    10030    2    1    2    0    0  0.00000000000E+00  0.00000000000E+00  0.81954563336E+03  0.11509366678E+04  0.80808425805E+03 0.  0.
        1    1    3    3  502    0  0.37263425321E+03  0.15493605423E+03  0.43784860074E+03  0.59546021258E+03  0.50400001928E-02 0. -1.
       -1    1    3    3    0  502 -0.37263425321E+03 -0.15493605423E+03  0.38169703262E+03  0.55547645522E+03  0.50400001928E-02 0.  1.
</event>
<event>
 5   0  0.1025900E-02  0.7852980E+03  0.7818609E-02  0.9581545E-01
       -1   -1    0    0    0  501  0.00000000000E+00  0.00000000000E+00  0.14021989293E+04  0.14021989293E+04  0.50400001928E-02 0. -1.
        1   -1    0    0  501    0  0.00000000000E+00  0.00000000000E+00 -0.10995103742E+03  0.10995103753E+03  0.50400001928E-02 0.  1.
    10030    2    1    2    0    0  0.00000000000E+00  0.00000000000E+00  0.12922478919E+04  0.15121499668E+04  0.78529797411E+03 0.  0.
        1    1    3    3  502    0  0.56631908881E+02 -0.37943496507E+03  0.48507449428E+03  0.61844589969E+03  0.50400001928E-02 0.  1.
       -1    1    3    3    0  502 -0.56631908881E+02  0.37943496507E+03  0.80717339757E+03  0.89370406712E+03  0.50400001928E-02 0. -1.
</event>
<event>
 5   0  0.1673727E-02  0.7982630E+03  0.7818609E-02  0.9562535E-01
        2   -1    0    0  501    0  0.00000000000E+00  0.00000000000E+00  0.14519668898E+04  0.14519668898E+04  0.25500000920E-02 0.  1.
       -2   -1    0    0    0  501  0.00000000000E+00  0.00000000000E+00 -0.10971733642E+03  0.10971733645E+03  0.25500000920E-02 0. -1.
    10030    2    1    2    0    0  0.00000000000E+00  0.00000000000E+00  0.13422495534E+04  0.15616842263E+04  0.79826296356E+03 0.  0.
        5    1    3    3  502    0 -0.74175732365E+02 -0.34651526948E+03  0.31193824835E+03  0.47212544100E+03  0.46999998093E+01 0. -1.
       -5    1    3    3    0  502  0.74175732365E+02  0.34651526948E+03  0.10303113051E+04  0.10895587853E+04  0.46999998093E+01 0.  1.
</event>
<event>
 5   0  0.1146083E-02  0.8074339E+03  0.7818609E-02  0.9549319E-01
        1   -1    0    0  501    0  0.00000000000E+00  0.00000000000E+00  0.28238980219E+03  0.28238980224E+03  0.50400001928E-02 0. -1.
       -1   -1    0    0    0  501  0.00000000000E+00  0.00000000000E+00 -0.57717155240E+03  0.57717155243E+03  0.50400001928E-02 0.  1.
    10030    2    1    2    0    0  0.00000000000E+00  0.00000000000E+00 -0.29478175021E+03  0.85956135466E+03  0.80743386241E+03 0.  0.
        4    1    3    3  502    0  0.26890492296E+03 -0.29009150059E+03 -0.23336887368E+03  0.45926635018E+03  0.12699999809E+01 0. -1.
       -4    1    3    3    0  502 -0.26890492296E+03  0.29009150059E+03 -0.61412876528E+02  0.40029500448E+03  0.12699999809E+01 0.  1.
</event>
<event>
 5   0  0.1025900E-02  0.7938123E+03  0.7818609E-02  0.9569017E-01
        1   -1    0    0  501    0  0.00000000000E+00  0.00000000000E+00  0.74901385067E+03  0.74901385069E+03  0.50400001928E-02 0.  1.
       -1   -1    0    0    0  501  0.00000000000E+00  0.00000000000E+00 -0.21032255545E+03  0.21032255551E+03  0.50400001928E-02 0. -1.
    10030    2    1    2    0    0  0.00000000000E+00  0.00000000000E+00  0.53869129522E+03  0.95933640621E+03  0.79381233848E+03 0.  0.
        1    1    3    3  502    0 -0.12632231217E+03  0.31259744717E+03  0.16248368141E+02  0.33754777443E+03  0.50400001928E-02 0. -1.
       -1    1    3    3    0  502  0.12632231217E+03 -0.31259744717E+03  0.52244292708E+03  0.62178863178E+03  0.50400001928E-02 0.  1.
</event>
<event>
 5   0  0.1673727E-02  0.8001254E+03  0.7818609E-02  0.9559836E-01
        2   -1    0    0  501    0  0.00000000000E+00  0.00000000000E+00  0.18559684450E+03  0.18559684452E+03  0.25500000920E-02 0.  1.
       -2   -1    0    0    0  501  0.00000000000E+00  0.00000000000E+00 -0.86235396670E+03  0.86235396670E+03  0.25500000920E-02 0. -1.
    10030    2    1    2    0    0  0.00000000000E+00  0.00000000000E+00 -0.67675712220E+03  0.10479508112E+04  0.80012542785E+03 0.  0.
        5    1    3    3  502    0 -0.78562688603E+02 -0.91812898160E+02 -0.83784282883E+03  0.84652489634E+03  0.46999998093E+01 0. -1.
       -5    1    3    3    0  502  0.78562688603E+02  0.91812898160E+02  0.16108570662E+03  0.20142591488E+03  0.46999998093E+01 0.  1.
</event>
<event>
 5   0  0.1049780E-02  0.7962913E+03  0.7818609E-02  0.9565401E-01
        1   -1    0    0  501    0  0.00000000000E+00  0.00000000000E+00  0.14361700645E+04  0.14361700645E+04  0.50400001928E-02 0.  1.
       -1   -1    0    0    0  501  0.00000000000E+00  0.00000000000E+00 -0.11037687559E+03  0.11037687571E+03  0.50400001928E-02 0. -1.
    10030    2    1    2    0    0  0.00000000000E+00  0.00000000000E+00  0.13257931889E+04  0.15465469402E+04  0.79629131512E+03 0.  0.
        5    1    3    3  502    0  0.35311854726E+03 -0.12883781454E+03  0.91765638396E+03  0.99166890638E+03  0.46999998093E+01 0.  1.
       -5    1    3    3    0  502 -0.35311854726E+03  0.12883781454E+03  0.40813680495E+03  0.55487803383E+03  0.46999998093E+01 0. -1.
</event>
<event>
 5   0  0.1818665E-02  0.8031516E+03  0.7818609E-02  0.9555466E-01
       -2   -1    0    0    0  501  0.00000000000E+00  0.00000000000E+00  0.48712775128E+03  0.48712775129E+03  0.25500000920E-02 0. -1.
        2   -1    0    0  501    0  0.00000000000E+00  0.00000000000E+00 -0.33104893076E+03  0.33104893076E+03  0.25500000920E-02 0.  1.
    10030    2    1    2    0    0  0.00000000000E+00  0.00000000000E+00  0.15607882053E+03  0.81817668205E+03  0.80315159518E+03 0.  0.
        3    1    3    3  502    0 -0.16898976606E+03 -0.24436805244E+03  0.35325988059E+03  0.46159055398E+03  0.10100000352E+00 0. -1.
       -3    1    3    3    0  502  0.16898976606E+03  0.24436805244E+03 -0.19718106007E+03  0.35658612807E+03  0.10100000352E+00 0.  1.
</event>
<event>
 5   0  0.1038912E-02  0.8117925E+03  0.7818609E-02  0.9543103E-01
        1   -1    0    0  501    0  0.00000000000E+00  0.00000000000E+00  0.91622435949E+03  0.91622435950E+03  0.50400001928E-02 0.  1.
       -1   -1    0    0    0  501  0.00000000000E+00  0.00000000000E+00 -0.17981595422E+03  0.17981595429E+03  0.50400001928E-02 0. -1.
    10030    2    1    2    0    0  0.00000000000E+00  0.00000000000E+00  0.73640840527E+03  0.10960403138E+04  0.81179247970E+03 0.  0.
        2    1    3    3  502    0 -0.26842276035E+03  0.25165452916E+03  0.13681627170E+03  0.39255505668E+03  0.25500000920E-02 0. -1.
       -2    1    3    3    0  502  0.26842276035E+03 -0.25165452916E+03  0.59959213357E+03  0.70348525711E+03  0.25500000920E-02 0.  1.
</event>
<event>
 5   0  0.1146083E-02  0.7968486E+03  0.7818609E-02  0.9564590E-01
        1   -1    0    0  501    0  0.00000000000E+00  0.00000000000E+00  0.56909946200E+03  0.56909946202E+03  0.50400001928E-02 0. -1.
       -1   -1    0    0    0  501  0.00000000000E+00  0.00000000000E+00 -0.27893529014E+03  0.27893529019E+03  0.50400001928E-02 0.  1.
    10030    2    1    2    0    0  0.00000000000E+00  0.00000000000E+00  0.29016417186E+03  0.84803475221E+03  0.79684860189E+03 0.  0.
        4    1    3    3  502    0 -0.37080547366E+03  0.51102334555E+02  0.29034992287E+03  0.47372232215E+03  0.12699999809E+01 0. -1.
       -4    1    3    3    0  502  0.37080547366E+03 -0.51102334555E+02 -0.18575101265E+00  0.37431243006E+03  0.12699999809E+01 0.  1.
</event>
<event>
 5   0  0.1025900E-02  0.7977258E+03  0.7818609E-02  0.9563315E-01
       -1   -1    0    0    0  501  0.00000000000E+00  0.00000000000E+00  0.25523253269E+03  0.25523253274E+03  0.50400001928E-02 0.  1.
        1   -1    0    0  501    0  0.00000000000E+00  0.00000000000E+00 -0.62332026037E+03  0.62332026039E+03  0.50400001928E-02 0. -1.
    10030    2    1    2    0    0  0.00000000000E+00  0.00000000000E+00 -0.36808772768E+03  0.87855279312E+03  0.79772578938E+03 0.  0.
        1    1    3    3  502    0  0.61062352461E+01  0.10853940390E+03  0.23860194392E+03  0.26220025930E+03  0.50400001928E-02 0.  1.
       -1    1    3    3    0  502 -0.61062352461E+01 -0.10853940390E+03 -0.60668967160E+03  0.61635253383E+03  0.50400001928E-02 0. -1.
</event>
<event>
 5   0  0.1146083E-02  0.8028970E+03  0.7818609E-02  0.9555833E-01
        1   -1    0    0  501    0  0.00000000000E+00  0.00000000000E+00  0.71373454906E+03  0.71373454907E+03  0.50400001928E-02 0. -1.
       -1   -1    0    0    0  501  0.00000000000E+00  0.00000000000E+00 -0.22579950283E+03  0.22579950289E+03  0.50400001928E-02 0.  1.
    10030    2    1    2    0    0  0.00000000000E+00  0.00000000000E+00  0.48793504622E+03  0.93953405196E+03  0.80289702046E+03 0.  0.
        4    1    3    3  502    0 -0.19957813116E+03 -0.21353246634E+03  0.56599406754E+03  0.63700741127E+03  0.12699999809E+01 0. -1.
       -4    1    3    3    0  502  0.19957813116E+03  0.21353246634E+03 -0.78059021319E+02  0.30252664069E+03  0.12699999809E+01 0.  1.
</event>
<event>
 5   0  0.1817089E-02  0.7839387E+03  0.7818609E-02  0.9583561E-01
       -2   -1    0    0    0  501  0.00000000000E+00  0.00000000000E+00  0.35575509537E+03  0.35575509537E+03  0.25500000920E-02 0. -1.
        2   -1    0    0  501    0  0.00000000000E+00  0.00000000000E+00 -0.43187009854E+03  0.43187009855E+03  0.25500000920E-02 0.  1.
    10030    2    1    2    0    0  0.00000000000E+00  0.00000000000E+00 -0.76115003177E+02  0.78762519393E+03  0.78393874276E+03 0.  0.
        2    1    3    3  502    0 -0.93134336736E+02  0.45739986216E+02  0.34170652692E+03  0.35711272949E+03  0.25500000920E-02 0. -1.
       -2    1    3    3    0  502  0.93134336736E+02 -0.45739986216E+02 -0.41782153009E+03  0.43051246444E+03  0.25500000920E-02 0.  1.
</event>
<event>
 5   0  0.1747544E-02  0.7961522E+03  0.7818609E-02  0.9565603E-01
       -2   -1    0    0    0  501  0.00000000000E+00  0.00000000000E+00  0.67245185477E+03  0.67245185478E+03  0.25500000920E-02 0.  1.
        2   -1    0    0  501    0  0.00000000000E+00  0.00000000000E+00 -0.23565191173E+03  0.23565191175E+03  0.25500000920E-02 0. -1.
    10030    2    1    2    0    0  0.00000000000E+00  0.00000000000E+00  0.43679994304E+03  0.90810376652E+03  0.79615215916E+03 0.  0.
        1    1    3    3  502    0 -0.23732732173E+03 -0.29536972133E+03  0.35761602611E+03  0.52101511693E+03  0.50400001928E-02 0. -1.
       -1    1    3    3    0  502  0.23732732173E+03  0.29536972133E+03  0.79183916933E+02  0.38708864959E+03  0.50400001928E-02 0.  1.
</event>
<event>
 5   0  0.1818665E-02  0.7541151E+03  0.7818609E-02  0.9628916E-01
       -2   -1    0    0    0  501  0.00000000000E+00  0.00000000000E+00  0.18782060667E+03  0.18782060668E+03  0.25500000920E-02 0.  1.
        2   -1    0    0  501    0  0.00000000000E+00  0.00000000000E+00 -0.75695838073E+03  0.75695838074E+03  0.25500000920E-02 0. -1.
    10030    2    1    2    0    0  0.00000000000E+00  0.00000000000E+00 -0.56913777407E+03  0.94477898742E+03  0.75411506363E+03 0.  0.
        3    1    3    3  502    0 -0.18570389663E+03 -0.32530219452E+03 -0.33867201531E+03  0.50498138494E+03  0.10100000352E+00 0. -1.
       -3    1    3    3    0  502  0.18570389663E+03  0.32530219452E+03 -0.23046575876E+03  0.43979760248E+03  0.10100000352E+00 0.  1.
</event>
<event>
 5   0  0.1747544E-02  0.8040290E+03  0.7818609E-02  0.9554204E-01
        2   -1    0    0  501    0  0.00000000000E+00  0.00000000000E+00  0.32862574204E+03  0.32862574205E+03  0.25500000920E-02 0.  1.
       -2   -1    0    0    0  501  0.00000000000E+00  0.00000000000E+00 -0.49179238765E+03  0.49179238766E+03  0.25500000920E-02 0. -1.
    10030    2    1    2    0    0  0.00000000000E+00  0.00000000000E+00 -0.16316664561E+03  0.82041812971E+03  0.80402895054E+03 0.  0.
        1    1    3    3  502    0 -0.33860310565E+03 -0.16485527818E+03 -0.22511441620E+03  0.43875485901E+03  0.50400001928E-02 0. -1.
       -1    1    3    3    0  502  0.33860310565E+03  0.16485527818E+03  0.61947770587E+02  0.38166327070E+03  0.50400001928E-02 0.  1.
</event>
<event>
 5   0  0.1731337E-02  0.7930672E+03  0.7818609E-02  0.9570107E-01
       -2   -1    0    0    0  501  0.00000000000E+00  0.00000000000E+00  0.41488306540E+03  0.41488306541E+03  0.25500000920E-02 0.  1.
        2   -1    0    0  501    0  0.00000000000E+00  0.00000000000E+00 -0.37899567512E+03  0.37899567513E+03  0.25500000920E-02 0. -1.
    10030    2    1    2    0    0  0.00000000000E+00  0.00000000000E+00  0.35887390275E+02  0.79387874054E+03  0.79306717868E+03 0.  0.
        4    1    3    3  502    0  0.33342890084E+03  0.62009393996E+02 -0.18773499975E+03  0.38764163849E+03  0.12699999809E+01 0. -1.
       -4    1    3    3    0  502 -0.33342890084E+03 -0.62009393996E+02  0.22362239003E+03  0.40623710205E+03  0.12699999809E+01 0.  1.
</event>
<event>
 5   0  0.1030323E-02  0.6538408E+03  0.7818609E-02  0.9799599E-01
       -1   -1    0    0    0  501  0.00000000000E+00  0.00000000000E+00  0.35154193711E+03  0.35154193715E+03  0.50400001928E-02 0.  1.
        1   -1    0    0  501    0  0.00000000000E+00  0.00000000000E+00 -0.30402328152E+03  0.30402328156E+03  0.50400001928E-02 0. -1.
    10030    2    1    2    0    0  0.00000000000E+00  0.00000000000E+00  0.47518655595E+02  0.65556521871E+03  0.65384075534E+03 0.  0.
        3    1    3    3  502    0  0.16755503018E+03 -0.23134431119E+03  0.18318197396E+03  0.33933836247E+03  0.10100000352E+00 0.  1.
       -3    1    3    3    0  502 -0.16755503018E+03  0.23134431119E+03 -0.13566331836E+03  0.31622685624E+03  0.10100000352E+00 0. -1.
</event>
<event>
 5   0  0.1025900E-02  0.8016351E+03  0.7818609E-02  0.9557653E-01
       -1   -1    0    0    0  501  0.00000000000E+00  0.00000000000E+00  0.24832667379E+03  0.24832667384E+03  0.50400001928E-02 0.  1.
        1   -1    0    0  501    0  0.00000000000E+00  0.00000000000E+00 -0.64694910567E+03  0.64694910569E+03  0.50400001928E-02 0. -1.
    10030    2    1    2    0    0  0.00000000000E+00  0.00000000000E+00 -0.39862243188E+03  0.89527577953E+03  0.80163512786E+03 0.  0.
        1    1    3    3  502    0 -0.15063782471E+03  0.78852041079E+02  0.20605513492E+03  0.26714811859E+03  0.50400001928E-02 0.  1.
       -1    1    3    3    0  502  0.15063782471E+03 -0.78852041079E+02 -0.60467756680E+03  0.62812766094E+03  0.50400001928E-02 0. -1.
</event>
<event>
 5   0  0.1049780E-02  0.8061950E+03  0.7818609E-02  0.9551093E-01
        1   -1    0    0  501    0  0.00000000000E+00  0.00000000000E+00  0.13691656465E+04  0.13691656465E+04  0.50400001928E-02 0.  1.
       -1   -1    0    0    0  501  0.00000000000E+00  0.00000000000E+00 -0.11867635746E+03  0.11867635757E+03  0.50400001928E-02 0. -1.
    10030    2    1    2    0    0  0.00000000000E+00  0.00000000000E+00  0.12504892890E+04  0.14878420040E+04  0.80619499321E+03 0.  0.
        5    1    3    3  502    0  0.33021516923E+03 -0.20032530457E+03  0.83802510851E+03  0.92275698758E+03  0.46999998093E+01 0.  1.
       -5    1    3    3    0  502 -0.33021516923E+03  0.20032530457E+03  0.41246418051E+03  0.56508501647E+03  0.46999998093E+01 0. -1.
</event>
<event>
 5   0  0.1025900E-02  0.7978470E+03  0.7818609E-02  0.9563139E-01
       -1   -1    0    0    0  501  0.00000000000E+00  0.00000000000E+00  0.14996134075E+03  0.14996134084E+03  0.50400001928E-02 0.  1.
        1   -1    0    0  501    0  0.00000000000E+00  0.00000000000E+00 -0.10612065197E+04  0.10612065198E+04  0.50400001928E-02 0. -1.
    10030    2    1    2    0    0  0.00000000000E+00  0.00000000000E+00 -0.91124517899E+03  0.12111678606E+04  0.79784698426E+03 0.  0.
        1    1    3    3  502    0 -0.14874824826E+03 -0.10477294414E+01 -0.10175307279E+04  0.10283462070E+04  0.50400001928E-02 0. -1.
       -1    1    3    3    0  502  0.14874824826E+03  0.10477294414E+01  0.10628554893E+03  0.18282165362E+03  0.50400001928E-02 0.  1.
</event>
<event>
 5   0  0.1146083E-02  0.7996003E+03  0.7818609E-02  0.9560596E-01
       -1   -1    0    0    0  501  0.00000000000E+00  0.00000000000E+00  0.66731650489E+03  0.66731650490E+03  0.50400001928E-02 0. -1.
        1   -1    0    0  501    0  0.00000000000E+00  0.00000000000E+00 -0.23952673734E+03  0.23952673739E+03  0.50400001928E-02 0.  1.
    10030    2    1    2    0    0  0.00000000000E+00  0.00000000000E+00  0.42778976755E+03  0.90684324230E+03  0.79960026318E+03 0.  0.
        4    1    3    3  502    0 -0.10422685769E+03  0.25342747902E+03 -0.11626830656E+03  0.29767206284E+03  0.12699999809E+01 0.  1.
       -4    1    3    3    0  502  0.10422685769E+03 -0.25342747902E+03  0.54405807410E+03  0.60917117946E+03  0.12699999809E+01 0. -1.
</event>
<event>
 5   0  0.1030323E-02  0.7966173E+03  0.7818609E-02  0.9564926E-01
        1   -1    0    0  501    0  0.00000000000E+00  0.00000000000E+00  0.14211529268E+03  0.14211529277E+03  0.50400001928E-02 0.  1.
       -1   -1    0    0    0  501  0.00000000000E+00  0.00000000000E+00 -0.11163456806E+04  0.11163456806E+04  0.50400001928E-02 0. -1.
    10030    2    1    2    0    0  0.00000000000E+00  0.00000000000E+00 -0.97423038794E+03  0.12584609734E+04  0.79661733146E+03 0.  0.
        3    1    3    3  502    0  0.37729004014E+03 -0.12698692258E+03 -0.50809266941E+03  0.64547007972E+03  0.10100000352E+00 0.  1.
       -3    1    3    3    0  502 -0.37729004014E+03  0.12698692258E+03 -0.46613771853E+03  0.61299089368E+03  0.10100000352E+00 0. -1.
</event>
<event>
 5   0  0.1731337E-02  0.7993591E+03  0.7818609E-02  0.9560945E-01
        2   -1    0    0  501    0  0.00000000000E+00  0.00000000000E+00  0.18143639069E+04  0.18143639069E+04  0.25500000920E-02 0.  1.
       -2   -1    0    0    0  501  0.00000000000E+00  0.00000000000E+00 -0.88043930701E+02  0.88043930738E+02  0.25500000920E-02 0. -1.
    10030    2    1    2    0    0  0.00000000000E+00  0.00000000000E+00  0.17263199762E+04  0.19024078377E+04  0.79935906857E+03 0.  0.
        4    1    3    3  502    0 -0.39144071268E+03  0.95456243326E+01  0.67239269318E+03  0.77809414419E+03  0.12699999809E+01 0. -1.
       -4    1    3    3    0  502  0.39144071268E+03 -0.95456243326E+01  0.10539272830E+04  0.11243136935E+04  0.12699999809E+01 0.  1.
</event>
<event>
 5   0  0.1038912E-02  0.7967165E+03  0.7818609E-02  0.9564782E-01
       -1   -1    0    0    0  501  0.00000000000E+00  0.00000000000E+00  0.28727938826E+03  0.28727938830E+03  0.50400001928E-02 0. -1.
        1   -1    0    0  501    0  0.00000000000E+00  0.00000000000E+00 -0.55238665464E+03  0.55238665467E+03  0.50400001928E-02 0.  1.
    10030    2    1    2    0    0  0.00000000000E+00  0.00000000000E+00 -0.26510726639E+03  0.83966604297E+03  0.79671651233E+03 0.  0.
        2    1    3    3  502    0  0.30838024984E+03 -0.18458635061E+03  0.48518712654E+02  0.36266315612E+03  0.25500000920E-02 0.  1.
       -2    1    3    3    0  502 -0.30838024984E+03  0.18458635061E+03 -0.31362597904E+03  0.47700288684E+03  0.25500000920E-02 0. -1.
</event>
<event>
 5   0  0.1030323E-02  0.7991603E+03  0.7818609E-02  0.9561233E-01
        1   -1    0    0  501    0  0.00000000000E+00  0.00000000000E+00  0.14926805774E+04  0.14926805774E+04  0.50400001928E-02 0. -1.
       -1   -1    0    0    0  501  0.00000000000E+00  0.00000000000E+00 -0.10696480849E+03  0.10696480861E+03  0.50400001928E-02 0.  1.
    10030    2    1    2    0    0  0.00000000000E+00  0.00000000000E+00  0.13857157689E+04  0.15996453860E+04  0.79916028980E+03 0.  0.
        3    1    3    3  502    0 -0.32775961771E+03  0.17492926684E+03  0.98729668119E+03  0.10548845256E+04  0.10100000352E+00 0. -1.
       -3    1    3    3    0  502  0.32775961771E+03 -0.17492926684E+03  0.39841908766E+03  0.54476086040E+03  0.10100000352E+00 0.  1.
</event>
<event>
 5   0  0.1673727E-02  0.7896355E+03  0.7818609E-02  0.9575142E-01
       -2   -1    0    0    0  501  0.00000000000E+00  0.00000000000E+00  0.13307318480E+04  0.13307318480E+04  0.25500000920E-02 0.  1.
        2   -1    0    0  501    0  0.00000000000E+00  0.00000000000E+00 -0.11713935475E+03  0.11713935478E+03  0.25500000920E-02 0. -1.
    10030    2    1    2    0    0  0.00000000000E+00  0.00000000000E+00  0.12135924933E+04  0.14478712028E+04  0.78963553631E+03 0.  0.
        5    1    3    3  502    0 -0.26157332375E+03  0.21537026391E+03  0.97831532514E+03  0.10353395190E+04  0.46999998093E+01 0.  1.
       -5    1    3    3    0  502  0.26157332375E+03 -0.21537026391E+03  0.23527716813E+03  0.41253168377E+03  0.46999998093E+01 0. -1.
</event>
<event>
 5   0  0.1038912E-02  0.6767152E+03  0.7818609E-02  0.9757902E-01
       -1   -1    0    0    0  501  0.00000000000E+00  0.00000000000E+00  0.41291134652E+03  0.41291134655E+03  0.50400001928E-02 0.  1.
        1   -1    0    0  501    0  0.00000000000E+00  0.00000000000E+00 -0.27726503678E+03  0.27726503683E+03  0.50400001928E-02 0. -1.
    10030    2    1    2    0    0  0.00000000000E+00  0.00000000000E+00  0.13564630974E+03  0.69017638338E+03  0.67671524205E+03 0.  0.
        2    1    3    3  502    0  0.10723162223E+03 -0.29190051662E+03 -0.68176080973E+02  0.31835909038E+03  0.25500000920E-02 0. -1.
       -2    1    3    3    0  502 -0.10723162223E+03  0.29190051662E+03  0.20382239071E+03  0.37181729299E+03  0.25500000920E-02 0.  1.
</event>
<event>
 5   0  0.1049780E-02  0.8129689E+03  0.7818609E-02  0.9541433E-01
        1   -1    0    0  501    0  0.00000000000E+00  0.00000000000E+00  0.67756871508E+03  0.67756871510E+03  0.50400001928E-02 0.  1.
       -1   -1    0    0    0  501  0.00000000000E+00  0.00000000000E+00 -0.24385661054E+03  0.24385661059E+03  0.50400001928E-02 0. -1.
    10030    2    1    2    0    0  0.00000000000E+00  0.00000000000E+00  0.43371210454E+03  0.92142532570E+03  0.81296890544E+03 0.  0.
        5    1    3    3  502    0 -0.12559527207E+03  0.17070265126E+03 -0.17624853136E+03  0.27567952829E+03  0.46999998093E+01 0. -1.
       -5    1    3    3    0  502  0.12559527207E+03 -0.17070265126E+03  0.60996063591E+03  0.64574579740E+03  0.46999998093E+01 0.  1.
</event>
<event>
 5   0  0.1049780E-02  0.7941986E+03  0.7818609E-02  0.9568453E-01
       -1   -1    0    0    0  501  0.00000000000E+00  0.00000000000E+00  0.18440121811E+03  0.18440121818E+03  0.50400001928E-02 0.  1.
        1   -1    0    0  501    0  0.00000000000E+00  0.00000000000E+00 -0.85513459787E+03  0.85513459788E+03  0.50400001928E-02 0. -1.
    10030    2    1    2    0    0  0.00000000000E+00  0.00000000000E+00 -0.67073337975E+03  0.10395358161E+04  0.79419861884E+03 0.  0.
        5    1    3    3  502    0 -0.39456501106E+03  0.12480354387E+01 -0.27708460101E+03  0.48216290988E+03  0.46999998093E+01 0.  1.
       -5    1    3    3    0  502  0.39456501106E+03 -0.12480354387E+01 -0.39364877874E+03  0.55737290619E+03  0.46999998093E+01 0. -1.
</event>
<event>
 5   0  0.1817089E-02  0.7969718E+03  0.7818609E-02  0.9564411E-01
       -2   -1    0    0    0  501  0.00000000000E+00  0.00000000000E+00  0.62917892107E+03  0.62917892108E+03  0.25500000920E-02 0. -1.
        2   -1    0    0  501    0  0.00000000000E+00  0.00000000000E+00 -0.25237814192E+03  0.25237814193E+03  0.25500000920E-02 0.  1.
    10030    2    1    2    0    0  0.00000000000E+00  0.00000000000E+00  0.37680077916E+03  0.88155706301E+03  0.79697178630E+03 0.  0.
        2    1    3    3  502    0  0.28190750842E+03  0.11086254563E+03 -0.97976356325E+02  0.31837354433E+03  0.25500000920E-02 0.  1.
       -2    1    3    3    0  502 -0.28190750842E+03 -0.11086254563E+03  0.47477713548E+03  0.56318351868E+03  0.25500000920E-02 0. -1.
</event>
<event>
 5   0  0.1817089E-02  0.7948939E+03  0.7818609E-02  0.9567437E-01
        2   -1    0    0  501    0  0.00000000000E+00  0.00000000000E+00  0.36358941052E+03  0.36358941053E+03  0.25500000920E-02 0.  1.
       -2   -1    0    0    0  501  0.00000000000E+00  0.00000000000E+00 -0.43445732754E+03  0.43445732755E+03  0.25500000920E-02 0. -1.
    10030    2    1    2    0    0  0.00000000000E+00  0.00000000000E+00 -0.70867917024E+02  0.79804673808E+03  0.79489391399E+03 0.  0.
        2    1    3    3  502    0  0.88724782209E+02 -0.26152755934E+03 -0.32239158854E+03  0.42450569801E+03  0.25500000920E-02 0. -1.
       -2    1    3    3    0  502 -0.88724782209E+02  0.26152755934E+03  0.25152367152E+03  0.37354104007E+03  0.25500000920E-02 0.  1.
</event>
<event>
 5   0  0.1673727E-02  0.8061335E+03  0.7818609E-02  0.9551181E-01
       -2   -1    0    0    0  501  0.00000000000E+00  0.00000000000E+00  0.21939688403E+03  0.21939688405E+03  0.25500000920E-02 0. -1.
        2   -1    0    0  501    0  0.00000000000E+00  0.00000000000E+00 -0.74049736360E+03  0.74049736360E+03  0.25500000920E-02 0.  1.
    10030    2    1    2    0    0  0.00000000000E+00  0.00000000000E+00 -0.52110047956E+03  0.95989424765E+03  0.80613352297E+03 0.  0.
        5    1    3    3  502    0  0.69313990621E+02  0.20678512837E+03  0.14303144464E+03  0.26085360409E+03  0.46999998093E+01 0. -1.
       -5    1    3    3    0  502 -0.69313990621E+02 -0.20678512837E+03 -0.66413192420E+03  0.69904064356E+03  0.46999998093E+01 0.  1.
</event>
<event>
 5   0  0.1731337E-02  0.7972632E+03  0.7818609E-02  0.9563987E-01
        2   -1    0    0  501    0  0.00000000000E+00  0.00000000000E+00  0.24349475899E+03  0.24349475901E+03  0.25500000920E-02 0.  1.
       -2   -1    0    0    0  501  0.00000000000E+00  0.00000000000E+00 -0.65261015180E+03  0.65261015180E+03  0.25500000920E-02 0. -1.
    10030    2    1    2    0    0  0.00000000000E+00  0.00000000000E+00 -0.40911539281E+03  0.89610491081E+03  0.79726319779E+03 0.  0.
        4    1    3    3  502    0  0.19080767850E+03 -0.28615437421E+03 -0.43107068591E+03  0.55146663109E+03  0.12699999809E+01 0. -1.
       -4    1    3    3    0  502 -0.19080767850E+03  0.28615437421E+03  0.21955293100E+02  0.34463827972E+03  0.12699999809E+01 0.  1.
</event>
<event>
 5   0  0.1025900E-02  0.8037363E+03  0.7818609E-02  0.9554625E-01
       -1   -1    0    0    0  501  0.00000000000E+00  0.00000000000E+00  0.20945070655E+03  0.20945070662E+03  0.50400001928E-02 0. -1.
        1   -1    0    0  501    0  0.00000000000E+00  0.00000000000E+00 -0.77105495198E+03  0.77105495199E+03  0.50400001928E-02 0.  1.
    10030    2    1    2    0    0  0.00000000000E+00  0.00000000000E+00 -0.56160424542E+03  0.98050565861E+03  0.80373628641E+03 0.  0.
        1    1    3    3  502    0 -0.29475411899E+03  0.17945251166E+03 -0.53204588654E+03  0.63415772487E+03  0.50400001928E-02 0.  1.
       -1    1    3    3    0  502  0.29475411899E+03 -0.17945251166E+03 -0.29558358880E+02  0.34634793374E+03  0.50400001928E-02 0. -1.
</event>
<event>
 5   0  0.1731337E-02  0.7986054E+03  0.7818609E-02  0.9562038E-01
        2   -1    0    0  501    0  0.00000000000E+00  0.00000000000E+00  0.45375843258E+03  0.45375843259E+03  0.25500000920E-02 0. -1.
       -2   -1    0    0    0  501  0.00000000000E+00  0.00000000000E+00 -0.35138223229E+03  0.35138223230E+03  0.25500000920E-02 0.  1.
    10030    2    1    2    0    0  0.00000000000E+00  0.00000000000E+00  0.10237620029E+03  0.80514066488E+03  0.79860541187E+03 0.  0.
        4    1    3    3  502    0 -0.32035198130E+03  0.41208548581E+02  0.28788047922E+03  0.43266652242E+03  0.12699999809E+01 0. -1.
       -4    1    3    3    0  502  0.32035198130E+03 -0.41208548581E+02 -0.18550427893E+03  0.37247414247E+03  0.12699999809E+01 0.  1.
</event>
<event>
 5   0  0.1146083E-02  0.8040055E+03  0.7818609E-02  0.9554237E-01
        1   -1    0    0  501    0  0.00000000000E+00  0.00000000000E+00  0.11305494339E+04  0.11305494339E+04  0.50400001928E-02 0.  1.
       -1   -1    0    0    0  501  0.00000000000E+00  0.00000000000E+00 -0.14294483245E+03  0.14294483254E+03  0.50400001928E-02 0. -1.
    10030    2    1    2    0    0  0.00000000000E+00  0.00000000000E+00  0.98760460146E+03  0.12734942665E+04  0.80400547130E+03 0.  0.
        4    1    3    3  502    0 -0.13736917588E+03 -0.82325979362E+02 -0.90231985980E+02  0.18382405053E+03  0.12699999809E+01 0. -1.
       -4    1    3    3    0  502  0.13736917588E+03  0.82325979362E+02  0.10778365874E+04  0.10896702159E+04  0.12699999809E+01 0.  1.
</event>
<event>
 5   0  0.1747544E-02  0.8087436E+03  0.7818609E-02  0.9547447E-01
       -2   -1    0    0    0  501  0.00000000000E+00  0.00000000000E+00  0.96115982941E+03  0.96115982941E+03  0.25500000920E-02 0. -1.
        2   -1    0    0  501    0  0.00000000000E+00  0.00000000000E+00 -0.17012422185E+03  0.17012422187E+03  0.25500000920E-02 0.  1.
    10030    2    1    2    0    0  0.00000000000E+00  0.00000000000E+00  0.79103560756E+03  0.11312840513E+04  0.80874363816E+03 0.  0.
        1    1    3    3  502    0 -0.39115279019E+03  0.59472898227E+02  0.51237582873E+03  0.64735347438E+03  0.50400001928E-02 0. -1.
       -1    1    3    3    0  502  0.39115279019E+03 -0.59472898227E+02  0.27865977883E+03  0.48393057691E+03  0.50400001928E-02 0.  1.
</event>
<event>
 5   0  0.1030323E-02  0.7937116E+03  0.7818609E-02  0.9569164E-01
       -1   -1    0    0    0  501  0.00000000000E+00  0.00000000000E+00  0.16734309139E+03  0.16734309146E+03  0.50400001928E-02 0.  1.
        1   -1    0    0  501    0  0.00000000000E+00  0.00000000000E+00 -0.94114736922E+03  0.94114736924E+03  0.50400001928E-02 0. -1.
    10030    2    1    2    0    0  0.00000000000E+00  0.00000000000E+00 -0.77380427783E+03  0.11084904607E+04  0.79371156037E+03 0.  0.
        3    1    3    3  502    0 -0.14812400529E+03 -0.31200519973E+03 -0.65988669485E+03  0.74480764351E+03  0.10100000352E+00 0.  1.
       -3    1    3    3    0  502  0.14812400529E+03  0.31200519973E+03 -0.11391758299E+03  0.36368281718E+03  0.10100000352E+00 0. -1.
</event>
<event>
 5   0  0.1818665E-02  0.8031450E+03  0.7818609E-02  0.9555476E-01
        2   -1    0    0  501    0  0.00000000000E+00  0.00000000000E+00  0.43705279249E+03  0.43705279250E+03  0.25500000920E-02 0.  1.
       -2   -1    0    0    0  501  0.00000000000E+00  0.00000000000E+00 -0.36897253343E+03  0.36897253344E+03  0.25500000920E-02 0. -1.
    10030    2    1    2    0    0  0.00000000000E+00  0.00000000000E+00  0.68080259067E+02  0.80602532594E+03  0.80314500831E+03 0.  0.
        3    1    3    3  502    0  0.41211522105E+02 -0.18245680966E+03  0.39066164905E+03  0.43313440314E+03  0.10100000352E+00 0.  1.
       -3    1    3    3    0  502 -0.41211522105E+02  0.18245680966E+03 -0.32258138998E+03  0.37289092280E+03  0.10100000352E+00 0. -1.
</event>
<event>
 5   0  0.1049780E-02  0.8078944E+03  0.7818609E-02  0.9548660E-01
        1   -1    0    0  501    0  0.00000000000E+00  0.00000000000E+00  0.79929163439E+03  0.79929163441E+03  0.50400001928E-02 0. -1.
       -1   -1    0    0    0  501  0.00000000000E+00  0.00000000000E+00 -0.20414741885E+03  0.20414741892E+03  0.50400001928E-02 0.  1.
    10030    2    1    2    0    0  0.00000000000E+00  0.00000000000E+00  0.59514421554E+03  0.10034390533E+04  0.80789435971E+03 0.  0.
        5    1    3    3  502    0  0.10722166505E+03  0.37706001279E+03  0.41850708845E+03  0.57344660762E+03  0.46999998093E+01 0. -1.
       -5    1    3    3    0  502 -0.10722166505E+03 -0.37706001279E+03  0.17663712708E+03  0.42999244571E+03  0.46999998093E+01 0.  1.
</event>
<event>
 5   0  0.1747544E-02  0.7939907E+03  0.7818609E-02  0.9568756E-01
        2   -1    0    0  501    0  0.00000000000E+00  0.00000000000E+00  0.14737727595E+04  0.14737727595E+04  0.25500000920E-02 0.  1.
       -2   -1    0    0    0  501  0.00000000000E+00  0.00000000000E+00 -0.10694002526E+03  0.10694002529E+03  0.25500000920E-02 0. -1.
    10030    2    1    2    0    0  0.00000000000E+00  0.00000000000E+00  0.13668327342E+04  0.15807127847E+04  0.79399067036E+03 0.  0.
        1    1    3    3  502    0  0.21041439218E+03  0.33647764659E+03  0.70466094039E+03  0.80872644574E+03  0.50400001928E-02 0. -1.
       -1    1    3    3    0  502 -0.21041439218E+03 -0.33647764659E+03  0.66217179380E+03  0.77198633901E+03  0.50400001928E-02 0.  1.
</event>
<event>
 5   0  0.1818665E-02  0.8150067E+03  0.7818609E-02  0.9538546E-01
        2   -1    0    0  501    0  0.00000000000E+00  0.00000000000E+00  0.36338827743E+03  0.36338827743E+03  0.25500000920E-02 0.  1.
       -2   -1    0    0    0  501  0.00000000000E+00  0.00000000000E+00 -0.45697393260E+03  0.45697393261E+03  0.25500000920E-02 0. -1.
    10030    2    1    2    0    0  0.00000000000E+00  0.00000000000E+00 -0.93585655177E+02  0.82036221004E+03  0.81500667532E+03 0.  0.
        3    1    3    3  502    0 -0.19977017074E+03  0.11126467677E+03 -0.38630886106E+03  0.44891257028E+03  0.10100000352E+00 0. -1.
       -3    1    3    3    0  502  0.19977017074E+03 -0.11126467677E+03  0.29272320589E+03  0.37144963977E+03  0.10100000352E+00 0.  1.
</event>
<event>
 5   0  0.1049780E-02  0.7949003E+03  0.7818609E-02  0.9567428E-01
       -1   -1    0    0    0  501  0.00000000000E+00  0.00000000000E+00  0.14917551064E+03  0.14917551072E+03  0.50400001928E-02 0. -1.
        1   -1    0    0  501    0  0.00000000000E+00  0.00000000000E+00 -0.10589314120E+04  0.10589314120E+04  0.50400001928E-02 0.  1.
    10030    2    1    2    0    0  0.00000000000E+00  0.00000000000E+00 -0.90975590136E+03  0.12081069227E+04  0.79490033129E+03 0.  0.
        5    1    3    3  502    0 -0.16785653839E+03 -0.68616084675E+02  0.82590379336E+02  0.19931694688E+03  0.46999998093E+01 0. -1.
       -5    1    3    3    0  502  0.16785653839E+03  0.68616084675E+02 -0.99234628070E+03  0.10087899758E+04  0.46999998093E+01 0.  1.
</event>
<event>
 5   0  0.1146083E-02  0.7917761E+03  0.7818609E-02  0.9571998E-01
       -1   -1    0    0    0  501  0.00000000000E+00  0.00000000000E+00  0.16567437442E+03  0.16567437449E+03  0.50400001928E-02 0. -1.
        1   -1    0    0  501    0  0.00000000000E+00  0.00000000000E+00 -0.94599622888E+03  0.94599622890E+03  0.50400001928E-02 0.  1.
    10030    2    1    2    0    0  0.00000000000E+00  0.00000000000E+00 -0.78032185447E+03  0.11116706034E+04  0.79177606296E+03 0.  0.
        4    1    3    3  502    0  0.21551957206E+03  0.81901991713E+01 -0.85626636173E+03  0.88301158567E+03  0.12699999809E+01 0.  1.
       -4    1    3    3    0  502 -0.21551957206E+03 -0.81901991713E+01  0.75944507257E+02  0.22865901772E+03  0.12699999809E+01 0. -1.
</event>
<event>
 5   0  0.1038912E-02  0.8115436E+03  0.7818609E-02  0.9543457E-01
        1   -1    0    0  501    0  0.00000000000E+00  0.00000000000E+00  0.28314078163E+03  0.28314078167E+03  0.50400001928E-02 0.  1.
       -1   -1    0    0    0  501  0.00000000000E+00  0.00000000000E+00 -0.58151556409E+03  0.58151556412E+03  0.50400001928E-02 0. -1.
    10030    2    1    2    0    0  0.00000000000E+00  0.00000000000E+00 -0.29837478247E+03  0.86465634579E+03  0.81154364362E+03 0.  0.
        2    1    3    3  502    0  0.15568646876E+03  0.63647285500E+02 -0.54262653481E+03  0.56809577519E+03  0.25500000920E-02 0. -1.
       -2    1    3    3    0  502 -0.15568646876E+03 -0.63647285500E+02  0.24425175234E+03  0.29656057060E+03  0.25500000920E-02 0.  1.
</event>
<event>
 5   0  0.1731337E-02  0.8003585E+03  0.7818609E-02  0.9559498E-01
        2   -1    0    0  501    0  0.00000000000E+00  0.00000000000E+00  0.87360983331E+03  0.87360983331E+03  0.25500000920E-02 0.  1.
       -2   -1    0    0    0  501  0.00000000000E+00  0.00000000000E+00 -0.18331231495E+03  0.18331231497E+03  0.25500000920E-02 0. -1.
    10030    2    1    2    0    0  0.00000000000E+00  0.00000000000E+00  0.69029751836E+03  0.10569221483E+04  0.80035852196E+03 0.  0.
        4    1    3    3  502    0 -0.10098601435E+03 -0.29870740917E+03  0.67054722203E+03  0.74098547979E+03  0.12699999809E+01 0.  1.
       -4    1    3    3    0  502  0.10098601435E+03  0.29870740917E+03  0.19750296330E+02  0.31593666849E+03  0.12699999809E+01 0. -1.
</event>
<event>
 5   0  0.1747544E-02  0.8117443E+03  0.7818609E-02  0.9543172E-01
        2   -1    0    0  501    0  0.00000000000E+00  0.00000000000E+00  0.17595113082E+04  0.17595113082E+04  0.25500000920E-02 0.  1.
       -2   -1    0    0    0  501  0.00000000000E+00  0.00000000000E+00 -0.93623845150E+02  0.93623845185E+02  0.25500000920E-02 0. -1.
    10030    2    1    2    0    0  0.00000000000E+00  0.00000000000E+00  0.16658874631E+04  0.18531351534E+04  0.81174432994E+03 0.  0.
        1    1    3    3  502    0  0.10330117865E+02  0.40210747745E+03  0.95662324458E+03  0.10377500503E+04  0.50400001928E-02 0.  1.
       -1    1    3    3    0  502 -0.10330117865E+02 -0.40210747745E+03  0.70926421852E+03  0.81538510316E+03  0.50400001928E-02 0. -1.
</event>
<event>
 5   0  0.1025900E-02  0.7929700E+03  0.7818609E-02  0.9570249E-01
       -1   -1    0    0    0  501  0.00000000000E+00  0.00000000000E+00  0.16933702914E+03  0.16933702922E+03  0.50400001928E-02 0. -1.
        1   -1    0    0  501    0  0.00000000000E+00  0.00000000000E+00 -0.92832826936E+03  0.92832826937E+03  0.50400001928E-02 0.  1.
    10030    2    1    2    0    0  0.00000000000E+00  0.00000000000E+00 -0.75899124022E+03  0.10976652986E+04  0.79296998997E+03 0.  0.
        1    1    3    3  502    0  0.17751033734E+03 -0.35137554795E+03 -0.44479997896E+03  0.59398797704E+03  0.50400001928E-02 0.  1.
       -1    1    3    3    0  502 -0.17751033734E+03  0.35137554795E+03 -0.31419126126E+03  0.50367732154E+03  0.50400001928E-02 0. -1.
</event>
<event>
 5   0  0.1673727E-02  0.8012586E+03  0.7818609E-02  0.9558197E-01
        2   -1    0    0  501    0  0.00000000000E+00  0.00000000000E+00  0.32059172178E+03  0.32059172179E+03  0.25500000920E-02 0. -1.
       -2   -1    0    0    0  501  0.00000000000E+00  0.00000000000E+00 -0.50064871415E+03  0.50064871416E+03  0.25500000920E-02 0.  1.
    10030    2    1    2    0    0  0.00000000000E+00  0.00000000000E+00 -0.18005699237E+03  0.82124043595E+03  0.80125859317E+03 0.  0.
        5    1    3    3  502    0 -0.80703928917E+02  0.31128446790E+03 -0.33488060051E+03  0.46430404983E+03  0.46999998093E+01 0.  1.
       -5    1    3    3    0  502  0.80703928917E+02 -0.31128446790E+03  0.15482360814E+03  0.35693638611E+03  0.46999998093E+01 0. -1.
</event>
<event>
 5   0  0.1146083E-02  0.7972155E+03  0.7818609E-02  0.9564056E-01
       -1   -1    0    0    0  501  0.00000000000E+00  0.00000000000E+00  0.34899659418E+03  0.34899659421E+03  0.50400001928E-02 0. -1.
        1   -1    0    0  501    0  0.00000000000E+00  0.00000000000E+00 -0.45527127103E+03  0.45527127105E+03  0.50400001928E-02 0.  1.
    10030    2    1    2    0    0  0.00000000000E+00  0.00000000000E+00 -0.10627467685E+03  0.80426786527E+03  0.79721546157E+03 0.  0.
        4    1    3    3  502    0 -0.35917845200E+03 -0.91533255121E+02  0.94785170553E+02  0.38258768751E+03  0.12699999809E+01 0. -1.
       -4    1    3    3    0  502  0.35917845200E+03  0.91533255121E+02 -0.20105984740E+03  0.42168017776E+03  0.12699999809E+01 0.  1.
</event>
<event>
 5   0  0.1030323E-02  0.7996964E+03  0.7818609E-02  0.9560457E-01
       -1   -1    0    0    0  501  0.00000000000E+00  0.00000000000E+00  0.89075376652E+02  0.89075376795E+02  0.50400001928E-02 0. -1.
        1   -1    0    0  501    0  0.00000000000E+00  0.00000000000E+00 -0.17948682256E+04  0.17948682256E+04  0.50400001928E-02 0.  1.
    10030    2    1    2    0    0  0.00000000000E+00  0.00000000000E+00 -0.17057928490E+04  0.18839436024E+04  0.79969635082E+03 0.  0.
        3    1    3    3  502    0 -0.20512999005E+03 -0.17432340365E+03 -0.15494063292E+04  0.15726178636E+04  0.10100000352E+00 0.  1.
       -3    1    3    3    0  502  0.20512999005E+03  0.17432340365E+03 -0.15638651982E+03  0.31132573883E+03  0.10100000352E+00 0. -1.
</event>
<event>
 5   0  0.6872500E-03  0.8130503E+03  0.7818609E-02  0.9541317E-01
        3   -1    0    0  501    0  0.00000000000E+00  0.00000000000E+00  0.14280781488E+03  0.14280785060E+03  0.10100000352E+00 0. -1.
       -3   -1    0    0    0  501  0.00000000000E+00  0.00000000000E+00 -0.11572381973E+04  0.11572382017E+04  0.10100000352E+00 0.  1.
    10030    2    1    2    0    0  0.00000000000E+00  0.00000000000E+00 -0.10144303825E+04  0.13000460523E+04  0.81305026742E+03 0.  0.
        1    1    3    3  502    0 -0.15807170114E+03  0.16055887705E+03 -0.10482661170E+04  0.10722069147E+04  0.50400001928E-02 0.  1.
       -1    1    3    3    0  502  0.15807170114E+03 -0.16055887705E+03  0.33835734572E+02  0.22783913768E+03  0.50400001928E-02 0. -1.
</event>
<event>
 5   0  0.1038912E-02  0.7983542E+03  0.7818609E-02  0.9562402E-01
       -1   -1    0    0    0  501  0.00000000000E+00  0.00000000000E+00  0.73307074340E+03  0.73307074342E+03  0.50400001928E-02 0.  1.
        1   -1    0    0  501    0  0.00000000000E+00  0.00000000000E+00 -0.21736288778E+03  0.21736288784E+03  0.50400001928E-02 0. -1.
    10030    2    1    2    0    0  0.00000000000E+00  0.00000000000E+00  0.51570785562E+03  0.95043363126E+03  0.79835424160E+03 0.  0.
        2    1    3    3  502    0  0.20411614606E+03  0.23467883182E+03 -0.40018317563E+02  0.31359053068E+03  0.25500000920E-02 0. -1.
       -2    1    3    3    0  502 -0.20411614606E+03 -0.23467883182E+03  0.55572617319E+03  0.63684310058E+03  0.25500000920E-02 0.  1.
</event>
<event>
 5   0  0.6872500E-03  0.7967789E+03  0.7818609E-02  0.9564691E-01
        3   -1    0    0  501    0  0.00000000000E+00  0.00000000000E+00  0.34596649139E+03  0.34596650614E+03  0.10100000352E+00 0. -1.
       -3   -1    0    0    0  501  0.00000000000E+00  0.00000000000E+00 -0.45875585032E+03  0.45875586144E+03  0.10100000352E+00 0.  1.
    10030    2    1    2    0    0  0.00000000000E+00  0.00000000000E+00 -0.11278935893E+03  0.80472236758E+03  0.79677892128E+03 0.  0.
        5    1    3    3  502    0  0.28287967613E+03  0.16363566175E+03 -0.28646946922E+03  0.43460831533E+03  0.46999998093E+01 0.  1.
       -5    1    3    3    0  502 -0.28287967613E+03 -0.16363566175E+03  0.17368011029E+03  0.37011405225E+03  0.46999998093E+01 0. -1.
</event>
<event>
 5   0  0.1731337E-02  0.7982209E+03  0.7818609E-02  0.9562596E-01
        2   -1    0    0  501    0  0.00000000000E+00  0.00000000000E+00  0.12508418135E+04  0.12508418135E+04  0.25500000920E-02 0.  1.
       -2   -1    0    0    0  501  0.00000000000E+00  0.00000000000E+00 -0.12734556109E+03  0.12734556112E+03  0.25500000920E-02 0. -1.
    10030    2    1    2    0    0  0.00000000000E+00  0.00000000000E+00  0.11234962524E+04  0.13781873746E+04  0.79822090324E+03 0.  0.
        4    1    3    3  502    0 -0.14705133352E+03 -0.36088272193E+03  0.41295084976E+03  0.56779437378E+03  0.12699999809E+01 0. -1.
       -4    1    3    3    0  502  0.14705133352E+03  0.36088272193E+03  0.71054540261E+03  0.81039300081E+03  0.12699999809E+01 0.  1.
</event>
<event>
 5   0  0.1025900E-02  0.7985636E+03  0.7818609E-02  0.9562098E-01
        1   -1    0    0  501    0  0.00000000000E+00  0.00000000000E+00  0.10155000100E+04  0.10155000101E+04  0.50400001928E-02 0.  1.
       -1   -1    0    0    0  501  0.00000000000E+00  0.00000000000E+00 -0.15699258881E+03  0.15699258889E+03  0.50400001928E-02 0. -1.
    10030    2    1    2    0    0  0.00000000000E+00  0.00000000000E+00  0.85850742123E+03  0.11724925989E+04  0.79856364947E+03 0.  0.
        1    1    3    3  502    0  0.17451730205E+03 -0.34674143705E+03  0.56651808843E+03  0.68675225331E+03  0.50400001928E-02 0. -1.
       -1    1    3    3    0  502 -0.17451730205E+03  0.34674143705E+03  0.29198933280E+03  0.48574034563E+03  0.50400001928E-02 0.  1.
</event>
<event>
 5   0  0.1030323E-02  0.7758535E+03  0.7818609E-02  0.9595641E-01
        1   -1    0    0  501    0  0.00000000000E+00  0.00000000000E+00  0.23922670045E+03  0.23922670050E+03  0.50400001928E-02 0.  1.
       -1   -1    0    0    0  501  0.00000000000E+00  0.00000000000E+00 -0.62905673976E+03  0.62905673978E+03  0.50400001928E-02 0. -1.
    10030    2    1    2    0    0  0.00000000000E+00  0.00000000000E+00 -0.38983003931E+03  0.86828344028E+03  0.77585351266E+03 0.  0.
        3    1    3    3  502    0  0.99214563134E+01 -0.92036875589E+02 -0.61651485368E+03  0.62342585507E+03  0.10100000352E+00 0. -1.
       -3    1    3    3    0  502 -0.99214563134E+01  0.92036875589E+02  0.22668481437E+03  0.24485758520E+03  0.10100000352E+00 0.  1.
</event>
<event>
 5   0  0.1817089E-02  0.7938854E+03  0.7818609E-02  0.9568910E-01
        2   -1    0    0  501    0  0.00000000000E+00  0.00000000000E+00  0.14472197442E+03  0.14472197445E+03  0.25500000920E-02 0.  1.
       -2   -1    0    0    0  501  0.00000000000E+00  0.00000000000E+00 -0.10887324832E+04  0.10887324832E+04  0.25500000920E-02 0. -1.
    10030    2    1    2    0    0  0.00000000000E+00  0.00000000000E+00 -0.94401050878E+03  0.12334544577E+04  0.79388541895E+03 0.  0.
        2    1    3    3  502    0  0.12407607985E+03 -0.14678961060E+03  0.67601737077E+02  0.20374508150E+03  0.25500000920E-02 0.  1.
       -2    1    3    3    0  502 -0.12407607985E+03  0.14678961060E+03 -0.10116122459E+04  0.10297093762E+04  0.25500000920E-02 0. -1.
</event>
<event>
 5   0  0.1731337E-02  0.8140842E+03  0.7818609E-02  0.9539852E-01
        2   -1    0    0  501    0  0.00000000000E+00  0.00000000000E+00  0.63611504433E+03  0.63611504434E+03  0.25500000920E-02 0. -1.
       -2   -1    0    0    0  501  0.00000000000E+00  0.00000000000E+00 -0.26046119121E+03  0.26046119123E+03  0.25500000920E-02 0.  1.
    10030    2    1    2    0    0  0.00000000000E+00  0.00000000000E+00  0.37565385312E+03  0.89657623556E+03  0.81408422710E+03 0.  0.
        4    1    3    3  502    0  0.11963473720E+03  0.10903989099E+03  0.59914053234E+03  0.62062320176E+03  0.12699999809E+01 0. -1.
       -4    1    3    3    0  502 -0.11963473720E+03 -0.10903989099E+03 -0.22348667922E+03  0.27595303380E+03  0.12699999809E+01 0.  1.
</event>
<event>
 5   0  0.1049780E-02  0.7988651E+03  0.7818609E-02  0.9561661E-01
       -1   -1    0    0    0  501  0.00000000000E+00  0.00000000000E+00  0.21606445532E+03  0.21606445538E+03  0.50400001928E-02 0. -1.
        1   -1    0    0  501    0  0.00000000000E+00  0.00000000000E+00 -0.73842015097E+03  0.73842015098E+03  0.50400001928E-02 0.  1.
    10030    2    1    2    0    0  0.00000000000E+00  0.00000000000E+00 -0.52235569565E+03  0.95448460636E+03  0.79886506433E+03 0.  0.
        5    1    3    3  502    0 -0.14567218865E+03 -0.37109577740E+03 -0.23211211883E+03  0.46133565682E+03  0.46999998093E+01 0. -1.
       -5    1    3    3    0  502  0.14567218865E+03  0.37109577740E+03 -0.29024357682E+03  0.49314894954E+03  0.46999998093E+01 0.  1.
</event>
<event>
 5   0  0.1731337E-02  0.7918719E+03  0.7818609E-02  0.9571857E-01
        2   -1    0    0  501    0  0.00000000000E+00  0.00000000000E+00  0.26876947650E+03  0.26876947652E+03  0.25500000920E-02 0. -1.
       -2   -1    0    0    0  501  0.00000000000E+00  0.00000000000E+00 -0.58327042596E+03  0.58327042597E+03  0.25500000920E-02 0.  1.
    10030    2    1    2    0    0  0.00000000000E+00  0.00000000000E+00 -0.31450094946E+03  0.85203990249E+03  0.79187192665E+03 0.  0.
        4    1    3    3  502    0  0.85830940038E+02 -0.22439323616E+03  0.18137525102E+03  0.30102802076E+03  0.12699999809E+01 0. -1.
       -4    1    3    3    0  502 -0.85830940038E+02  0.22439323616E+03 -0.49587620048E+03  0.55101188172E+03  0.12699999809E+01 0.  1.
</event>
<event>
 5   0  0.1038912E-02  0.7979120E+03  0.7818609E-02  0.9563044E-01
       -1   -1    0    0    0  501  0.00000000000E+00  0.00000000000E+00  0.90126327242E+02  0.90126327383E+02  0.50400001928E-02 0.  1.
        1   -1    0    0  501    0  0.00000000000E+00  0.00000000000E+00 -0.17660312227E+04  0.17660312227E+04  0.50400001928E-02 0. -1.
    10030    2    1    2    0    0  0.00000000000E+00  0.00000000000E+00 -0.16759048954E+04  0.18561575501E+04  0.79791204536E+03 0.  0.
        2    1    3    3  502    0 -0.12329447462E+03 -0.10812438013E+03 -0.16840028492E+04  0.16919686774E+04  0.25500000920E-02 0. -1.
       -2    1    3    3    0  502  0.12329447462E+03  0.10812438013E+03  0.80979537884E+01  0.16418887268E+03  0.25500000920E-02 0.  1.
</event>
<event>
 5   0  0.1673727E-02  0.8040053E+03  0.7818609E-02  0.9554238E-01
       -2   -1    0    0    0  501  0.00000000000E+00  0.00000000000E+00  0.16630697516E+03  0.16630697518E+03  0.25500000920E-02 0. -1.
        2   -1    0    0  501    0  0.00000000000E+00  0.00000000000E+00 -0.97173395296E+03  0.97173395296E+03  0.25500000920E-02 0.  1.
    10030    2    1    2    0    0  0.00000000000E+00  0.00000000000E+00 -0.80542697780E+03  0.11380409281E+04  0.80400530942E+03 0.  0.
        5    1    3    3  502    0 -0.24328008717E+03 -0.25755265727E+03 -0.13390388773E+03  0.37877554465E+03  0.46999998093E+01 0. -1.
       -5    1    3    3    0  502  0.24328008717E+03  0.25755265727E+03 -0.67152309006E+03  0.75926538349E+03  0.46999998093E+01 0.  1.
</event>
<event>
 5   0  0.1038912E-02  0.7991721E+03  0.7818609E-02  0.9561216E-01
       -1   -1    0    0    0  501  0.00000000000E+00  0.00000000000E+00  0.11972547352E+03  0.11972547363E+03  0.50400001928E-02 0.  1.
        1   -1    0    0  501    0  0.00000000000E+00  0.00000000000E+00 -0.13336260213E+04  0.13336260214E+04  0.50400001928E-02 0. -1.
    10030    2    1    2    0    0  0.00000000000E+00  0.00000000000E+00 -0.12139005478E+04  0.14533514950E+04  0.79917208907E+03 0.  0.
        2    1    3    3  502    0 -0.32584667434E+03 -0.58520473254E+01 -0.18647586153E+03  0.37547776043E+03  0.25500000920E-02 0.  1.
       -2    1    3    3    0  502  0.32584667434E+03  0.58520473254E+01 -0.10274246863E+04  0.10778737346E+04  0.25500000920E-02 0. -1.
</event>
<event>
 5   0  0.1818665E-02  0.8024895E+03  0.7818609E-02  0.9556421E-01
        2   -1    0    0  501    0  0.00000000000E+00  0.00000000000E+00  0.13439019141E+03  0.13439019143E+03  0.25500000920E-02 0.  1.
       -2   -1    0    0    0  501  0.00000000000E+00  0.00000000000E+00 -0.11979845071E+04  0.11979845071E+04  0.25500000920E-02 0. -1.
    10030    2    1    2    0    0  0.00000000000E+00  0.00000000000E+00 -0.10635943157E+04  0.13323746986E+04  0.80248954444E+03 0.  0.
        3    1    3    3  502    0  0.12758894727E+03  0.22108683732E+03 -0.17802986351E+02  0.25588138976E+03  0.10100000352E+00 0.  1.
       -3    1    3    3    0  502 -0.12758894727E+03 -0.22108683732E+03 -0.10457913294E+04  0.10764933088E+04  0.10100000352E+00 0. -1.
</event>
<event>
 5   0  0.6872500E-03  0.8019454E+03  0.7818609E-02  0.9557205E-01
       -4   -1    0    0    0  501  0.00000000000E+00  0.00000000000E+00  0.41311974305E+03  0.41312169514E+03  0.12699999809E+01 0.  1.
        4   -1    0    0  501    0  0.00000000000E+00  0.00000000000E+00 -0.38917893511E+03  0.38918100729E+03  0.12699999809E+01 0. -1.
    10030    2    1    2    0    0  0.00000000000E+00  0.00000000000E+00  0.23940807936E+02  0.80230270243E+03  0.80194542460E+03 0.  0.
        4    1    3    3  502    0 -0.55721072020E+02 -0.26584799024E+03  0.30705521516E+03  0.40995671703E+03  0.12699999809E+01 0.  1.
       -4    1    3    3    0  502  0.55721072020E+02  0.26584799024E+03 -0.28311440722E+03  0.39234598540E+03  0.12699999809E+01 0. -1.
</event>
<event>
 5   0  0.1817089E-02  0.8050824E+03  0.7818609E-02  0.9552690E-01
       -2   -1    0    0    0  501  0.00000000000E+00  0.00000000000E+00  0.20815143139E+03  0.20815143140E+03  0.25500000920E-02 0.  1.
        2   -1    0    0  501    0  0.00000000000E+00  0.00000000000E+00 -0.77846882646E+03  0.77846882646E+03  0.25500000920E-02 0. -1.
    10030    2    1    2    0    0  0.00000000000E+00  0.00000000000E+00 -0.57031739507E+03  0.98662025787E+03  0.80508235735E+03 0.  0.
        2    1    3    3  502    0 -0.31651087883E+03 -0.24865000599E+03 -0.27807216283E+03  0.48921374638E+03  0.25500000920E-02 0.  1.
       -2    1    3    3    0  502  0.31651087883E+03  0.24865000599E+03 -0.29224523224E+03  0.49740651149E+03  0.25500000920E-02 0. -1.
</event>
<event>
 5   0  0.6872500E-03  0.7967232E+03  0.7818609E-02  0.9564772E-01
        3   -1    0    0  501    0  0.00000000000E+00  0.00000000000E+00  0.21658078773E+03  0.21658081128E+03  0.10100000352E+00 0.  1.
       -3   -1    0    0    0  501  0.00000000000E+00  0.00000000000E+00 -0.73271486622E+03  0.73271487318E+03  0.10100000352E+00 0. -1.
    10030    2    1    2    0    0  0.00000000000E+00  0.00000000000E+00 -0.51613407849E+03  0.94929568446E+03  0.79672323271E+03 0.  0.
        2    1    3    3  502    0  0.20783874693E+03 -0.32620075768E+03 -0.14447954110E+03  0.41289007840E+03  0.25500000920E-02 0.  1.
       -2    1    3    3    0  502 -0.20783874693E+03  0.32620075768E+03 -0.37165453739E+03  0.53640560606E+03  0.25500000920E-02 0. -1.
</event>
<event>
 5   0  0.1731337E-02  0.7925074E+03  0.7818609E-02  0.9570926E-01
       -2   -1    0    0    0  501  0.00000000000E+00  0.00000000000E+00  0.11390550844E+03  0.11390550847E+03  0.25500000920E-02 0.  1.
        2   -1    0    0  501    0  0.00000000000E+00  0.00000000000E+00 -0.13784845071E+04  0.13784845071E+04  0.25500000920E-02 0. -1.
    10030    2    1    2    0    0  0.00000000000E+00  0.00000000000E+00 -0.12645789987E+04  0.14923900156E+04  0.79250735942E+03 0.  0.
        4    1    3    3  502    0 -0.45737835930E+01 -0.88569396722E+02 -0.13595508803E+04  0.13624410690E+04  0.12699999809E+01 0. -1.
       -4    1    3    3    0  502  0.45737835930E+01  0.88569396722E+02  0.94971881585E+02  0.12994894661E+03  0.12699999809E+01 0.  1.
</event>
<event>
 5   0  0.1673727E-02  0.8058458E+03  0.7818609E-02  0.9551594E-01
        2   -1    0    0  501    0  0.00000000000E+00  0.00000000000E+00  0.19084017205E+04  0.19084017205E+04  0.25500000920E-02 0. -1.
       -2   -1    0    0    0  501  0.00000000000E+00  0.00000000000E+00 -0.85069540457E+02  0.85069540495E+02  0.25500000920E-02 0.  1.
    10030    2    1    2    0    0  0.00000000000E+00  0.00000000000E+00  0.18233321800E+04  0.19934712610E+04  0.80584578527E+03 0.  0.
        5    1    3    3  502    0 -0.11680275188E+03 -0.26447571250E+03  0.21753654899E+03  0.36184876053E+03  0.46999998093E+01 0.  1.
       -5    1    3    3    0  502  0.11680275188E+03  0.26447571250E+03  0.16057956310E+04  0.16316225005E+04  0.46999998093E+01 0. -1.
</event>
<event>
 5   0  0.1146083E-02  0.8035174E+03  0.7818609E-02  0.9554940E-01
       -1   -1    0    0    0  501  0.00000000000E+00  0.00000000000E+00  0.21726289326E+03  0.21726289332E+03  0.50400001928E-02 0.  1.
        1   -1    0    0  501    0  0.00000000000E+00  0.00000000000E+00 -0.74292501772E+03  0.74292501774E+03  0.50400001928E-02 0. -1.
    10030    2    1    2    0    0  0.00000000000E+00  0.00000000000E+00 -0.52566212446E+03  0.96018791106E+03  0.80351736474E+03 0.  0.
        4    1    3    3  502    0  0.25999718423E+03 -0.19102813194E+03 -0.54892392454E+03  0.63671765393E+03  0.12699999809E+01 0. -1.
       -4    1    3    3    0  502 -0.25999718423E+03  0.19102813194E+03  0.23261800074E+02  0.32347025712E+03  0.12699999809E+01 0.  1.
</event>
<event>
 5   0  0.6872500E-03  0.8066308E+03  0.7818609E-02  0.9550469E-01
        4   -1    0    0  501    0  0.00000000000E+00  0.00000000000E+00  0.15599897062E+03  0.15600414012E+03  0.12699999809E+01 0. -1.
       -4   -1    0    0    0  501  0.00000000000E+00  0.00000000000E+00 -0.10426974688E+04  0.10426982422E+04  0.12699999809E+01 0.  1.
    10030    2    1    2    0    0  0.00000000000E+00  0.00000000000E+00 -0.88669849815E+03  0.11987023823E+04  0.80663075489E+03 0.  0.
        1    1    3    3  502    0  0.36808082022E+03  0.18178293664E+02 -0.19984670394E+03  0.41922863175E+03  0.50400001928E-02 0. -1.
       -1    1    3    3    0  502 -0.36808082022E+03 -0.18178293664E+02 -0.68685179421E+03  0.77947375056E+03  0.50400001928E-02 0.  1.
</event>
<event>
 5   0  0.1673727E-02  0.8017612E+03  0.7818609E-02  0.9557471E-01
        2   -1    0    0  501    0  0.00000000000E+00  0.00000000000E+00  0.53581006540E+03  0.53581006541E+03  0.25500000920E-02 0. -1.
       -2   -1    0    0    0  501  0.00000000000E+00  0.00000000000E+00 -0.29992949268E+03  0.29992949269E+03  0.25500000920E-02 0.  1.
    10030    2    1    2    0    0  0.00000000000E+00  0.00000000000E+00  0.23588057272E+03  0.83573955810E+03  0.80176116418E+03 0.  0.
        5    1    3    3  502    0  0.85574965056E+02  0.20507257715E+03 -0.22982313013E+03  0.31971643324E+03  0.46999998093E+01 0.  1.
       -5    1    3    3    0  502 -0.85574965056E+02 -0.20507257715E+03  0.46570370285E+03  0.51602312486E+03  0.46999998093E+01 0. -1.
</event>
<event>
 5   0  0.1030323E-02  0.7987492E+03  0.7818609E-02  0.9561829E-01
       -1   -1    0    0    0  501  0.00000000000E+00  0.00000000000E+00  0.70042870800E+03  0.70042870802E+03  0.50400001928E-02 0. -1.
        1   -1    0    0  501    0  0.00000000000E+00  0.00000000000E+00 -0.22771780830E+03  0.22771780836E+03  0.50400001928E-02 0.  1.
    10030    2    1    2    0    0  0.00000000000E+00  0.00000000000E+00  0.47271089970E+03  0.92814651638E+03  0.79874924799E+03 0.  0.
        3    1    3    3  502    0 -0.45926959254E+01  0.31502186679E+03  0.52155531624E+03  0.60932735661E+03  0.10100000352E+00 0. -1.
       -3    1    3    3    0  502  0.45926959254E+01 -0.31502186679E+03 -0.48844416536E+02  0.31881915977E+03  0.10100000352E+00 0.  1.
</event>
<event>
 5   0  0.1747544E-02  0.8017176E+03  0.7818609E-02  0.9557534E-01
       -2   -1    0    0    0  501  0.00000000000E+00  0.00000000000E+00  0.57327677377E+03  0.57327677378E+03  0.25500000920E-02 0.  1.
        2   -1    0    0  501    0  0.00000000000E+00  0.00000000000E+00 -0.28029700011E+03  0.28029700012E+03  0.25500000920E-02 0. -1.
    10030    2    1    2    0    0  0.00000000000E+00  0.00000000000E+00  0.29297977366E+03  0.85357377390E+03  0.80171755607E+03 0.  0.
        1    1    3    3  502    0  0.35504958885E+03 -0.18415821472E+03  0.11805469386E+03  0.41702682091E+03  0.50400001928E-02 0. -1.
       -1    1    3    3    0  502 -0.35504958885E+03  0.18415821472E+03  0.17492507980E+03  0.43654695299E+03  0.50400001928E-02 0.  1.
</event>
<event>
 5   0  0.1025900E-02  0.8073291E+03  0.7818609E-02  0.9549469E-01
        1   -1    0    0  501    0  0.00000000000E+00  0.00000000000E+00  0.10345107794E+04  0.10345107794E+04  0.50400001928E-02 0. -1.
       -1   -1    0    0    0  501  0.00000000000E+00  0.00000000000E+00 -0.15750930350E+03  0.15750930358E+03  0.50400001928E-02 0.  1.
    10030    2    1    2    0    0  0.00000000000E+00  0.00000000000E+00  0.87700147591E+03  0.11920200830E+04  0.80732910855E+03 0.  0.
        1    1    3    3  502    0 -0.62639907302E+02 -0.12086551453E+03 -0.12259357653E+03  0.18319775004E+03  0.50400001928E-02 0.  1.
       -1    1    3    3    0  502  0.62639907302E+02  0.12086551453E+03  0.99959505244E+03  0.10088223330E+04  0.50400001928E-02 0. -1.
</event>
<event>
 5   0  0.1747544E-02  0.8041462E+03  0.7818609E-02  0.9554035E-01
       -2   -1    0    0    0  501  0.00000000000E+00  0.00000000000E+00  0.10214224685E+03  0.10214224688E+03  0.25500000920E-02 0.  1.
        2   -1    0    0  501    0  0.00000000000E+00  0.00000000000E+00 -0.15827218077E+04  0.15827218077E+04  0.25500000920E-02 0. -1.
    10030    2    1    2    0    0  0.00000000000E+00  0.00000000000E+00 -0.14805795609E+04  0.16848640546E+04  0.80414615987E+03 0.  0.
        1    1    3    3  502    0 -0.35076357097E+03  0.33961390284E+02 -0.11458885732E+04  0.11988532358E+04  0.50400001928E-02 0. -1.
       -1    1    3    3    0  502  0.35076357097E+03 -0.33961390284E+02 -0.33469098764E+03  0.48601081879E+03  0.50400001928E-02 0.  1.
</event>
<event>
 5   0  0.1747544E-02  0.8027216E+03  0.7818609E-02  0.9556086E-01
        2   -1    0    0  501    0  0.00000000000E+00  0.00000000000E+00  0.16300738204E+04  0.16300738204E+04  0.25500000920E-02 0.  1.
       -2   -1    0    0    0  501  0.00000000000E+00  0.00000000000E+00 -0.98824035705E+02  0.98824035738E+02  0.25500000920E-02 0. -1.
    10030    2    1    2    0    0  0.00000000000E+00  0.00000000000E+00  0.15312497847E+04  0.17288978562E+04  0.80272155437E+03 0.  0.
        1    1    3    3  502    0  0.25725624467E+03  0.27398731251E+03  0.10690016921E+04  0.11331436098E+04  0.50400001928E-02 0.  1.
       -1    1    3    3    0  502 -0.25725624467E+03 -0.27398731251E+03  0.46224809266E+03  0.59575424634E+03  0.50400001928E-02 0. -1.
</event>
<event>
 5   0  0.1673727E-02  0.8033137E+03  0.7818609E-02  0.9555233E-01
       -2   -1    0    0    0  501  0.00000000000E+00  0.00000000000E+00  0.32963107506E+03  0.32963107507E+03  0.25500000920E-02 0.  1.
        2   -1    0    0  501    0  0.00000000000E+00  0.00000000000E+00 -0.48942052350E+03  0.48942052351E+03  0.25500000920E-02 0. -1.
    10030    2    1    2    0    0  0.00000000000E+00  0.00000000000E+00 -0.15978944845E+03  0.81905159858E+03  0.80331367055E+03 0.  0.
        5    1    3    3  502    0  0.31570059803E+03 -0.16123476703E+03  0.11259645242E+03  0.37197253769E+03  0.46999998093E+01 0.  1.
       -5    1    3    3    0  502 -0.31570059803E+03  0.16123476703E+03 -0.27238590087E+03  0.44707906089E+03  0.46999998093E+01 0. -1.
</event>
<event>
 5   0  0.1818665E-02  0.7592112E+03  0.7818609E-02  0.9621009E-01
        2   -1    0    0  501    0  0.00000000000E+00  0.00000000000E+00  0.34085333281E+03  0.34085333282E+03  0.25500000920E-02 0.  1.
       -2   -1    0    0    0  501  0.00000000000E+00  0.00000000000E+00 -0.42276371870E+03  0.42276371871E+03  0.25500000920E-02 0. -1.
    10030    2    1    2    0    0  0.00000000000E+00  0.00000000000E+00 -0.81910385886E+02  0.76361705153E+03  0.75921122889E+03 0.  0.
        3    1    3    3  502    0  0.20911986572E+03  0.11808923804E+03 -0.33664118056E+03  0.41352567155E+03  0.10100000352E+00 0. -1.
       -3    1    3    3    0  502 -0.20911986572E+03 -0.11808923804E+03  0.25473079467E+03  0.35009137998E+03  0.10100000352E+00 0.  1.
</event>
<event>
 5   0  0.1038912E-02  0.8115683E+03  0.7818609E-02  0.9543422E-01
       -1   -1    0    0    0  501  0.00000000000E+00  0.00000000000E+00  0.43829009971E+03  0.43829009974E+03  0.50400001928E-02 0.  1.
        1   -1    0    0  501    0  0.00000000000E+00  0.00000000000E+00 -0.37568897259E+03  0.37568897263E+03  0.50400001928E-02 0. -1.
    10030    2    1    2    0    0  0.00000000000E+00  0.00000000000E+00  0.62601127120E+02  0.81397907237E+03  0.81156825291E+03 0.  0.
        2    1    3    3  502    0  0.14608860274E+02  0.16175807176E+03  0.40426763366E+03  0.43567351561E+03  0.25500000920E-02 0.  1.
       -2    1    3    3    0  502 -0.14608860274E+02 -0.16175807176E+03 -0.34166650654E+03  0.37830555676E+03  0.25500000920E-02 0. -1.
</event>
<event>
 5   0  0.1030323E-02  0.8067272E+03  0.7818609E-02  0.9550331E-01
       -1   -1    0    0    0  501  0.00000000000E+00  0.00000000000E+00  0.39247980288E+03  0.39247980291E+03  0.50400001928E-02 0.  1.
        1   -1    0    0  501    0  0.00000000000E+00  0.00000000000E+00 -0.41454918570E+03  0.41454918573E+03  0.50400001928E-02 0. -1.
    10030    2    1    2    0    0  0.00000000000E+00  0.00000000000E+00 -0.22069382817E+02  0.80702898864E+03  0.80672717250E+03 0.  0.
        3    1    3    3  502    0 -0.35568786161E+03 -0.11553772670E+02  0.17891743669E+03  0.39831997679E+03  0.10100000352E+00 0.  1.
       -3    1    3    3    0  502  0.35568786161E+03  0.11553772670E+02 -0.20098681950E+03  0.40870901185E+03  0.10100000352E+00 0. -1.
</event>
<event>
 5   0  0.6872500E-03  0.7284384E+03  0.7818609E-02  0.9669798E-01
       -3   -1    0    0    0  501  0.00000000000E+00  0.00000000000E+00  0.28777391303E+03  0.28777393075E+03  0.10100000352E+00 0. -1.
        3   -1    0    0  501    0  0.00000000000E+00  0.00000000000E+00 -0.46097170749E+03  0.46097171855E+03  0.10100000352E+00 0.  1.
    10030    2    1    2    0    0  0.00000000000E+00  0.00000000000E+00 -0.17319779446E+03  0.74874564931E+03  0.72843844719E+03 0.  0.
        4    1    3    3  502    0 -0.35882652291E+03 -0.12996948128E+02 -0.14936373786E+03  0.38889141581E+03  0.12699999809E+01 0. -1.
       -4    1    3    3    0  502  0.35882652291E+03  0.12996948128E+02 -0.23834056599E+02  0.35985423349E+03  0.12699999809E+01 0.  1.
</event>
<event>
 5   0  0.6872500E-03  0.7900336E+03  0.7818609E-02  0.9574556E-01
       -3   -1    0    0    0  501  0.00000000000E+00  0.00000000000E+00  0.78308266492E+03  0.78308267143E+03  0.10100000352E+00 0.  1.
        3   -1    0    0  501    0  0.00000000000E+00  0.00000000000E+00 -0.19926155077E+03  0.19926157637E+03  0.10100000352E+00 0. -1.
    10030    2    1    2    0    0  0.00000000000E+00  0.00000000000E+00  0.58382111414E+03  0.98234424780E+03  0.79003362452E+03 0.  0.
        5    1    3    3  502    0  0.19889019732E+03 -0.15775674324E+02  0.71578760311E+03  0.74308826209E+03  0.46999998093E+01 0.  1.
       -5    1    3    3    0  502 -0.19889019732E+03  0.15775674324E+02 -0.13196648897E+03  0.23925598571E+03  0.46999998093E+01 0. -1.
</event>
<event>
 5   0  0.1038912E-02  0.8089392E+03  0.7818609E-02  0.9547167E-01
        1   -1    0    0  501    0  0.00000000000E+00  0.00000000000E+00  0.12557905007E+04  0.12557905007E+04  0.50400001928E-02 0.  1.
       -1   -1    0    0    0  501  0.00000000000E+00  0.00000000000E+00 -0.13027304091E+03  0.13027304101E+03  0.50400001928E-02 0. -1.
    10030    2    1    2    0    0  0.00000000000E+00  0.00000000000E+00  0.11255174598E+04  0.13860635417E+04  0.80893917534E+03 0.  0.
        2    1    3    3  502    0 -0.13180149480E+03 -0.21463008035E+03  0.20495735133E+02  0.25270097069E+03  0.25500000920E-02 0. -1.
       -2    1    3    3    0  502  0.13180149480E+03  0.21463008035E+03  0.11050217247E+04  0.11333625711E+04  0.25500000920E-02 0.  1.
</event>
<event>
 5   0  0.1025900E-02  0.7923644E+03  0.7818609E-02  0.9571136E-01
        1   -1    0    0  501    0  0.00000000000E+00  0.00000000000E+00  0.65727696646E+03  0.65727696648E+03  0.50400001928E-02 0. -1.
       -1   -1    0    0    0  501  0.00000000000E+00  0.00000000000E+00 -0.23880393188E+03  0.23880393194E+03  0.50400001928E-02 0.  1.
    10030    2    1    2    0    0  0.00000000000E+00  0.00000000000E+00  0.41847303458E+03  0.89608089842E+03  0.79236437063E+03 0.  0.
        1    1    3    3  502    0 -0.25314930368E+03 -0.30226255015E+03  0.25322680270E+03  0.46858407229E+03  0.50400001928E-02 0. -1.
       -1    1    3    3    0  502  0.25314930368E+03  0.30226255015E+03  0.16524623188E+03  0.42749682613E+03  0.50400001928E-02 0.  1.
</event>
<event>
 5   0  0.1747544E-02  0.8004938E+03  0.7818609E-02  0.9559303E-01
       -2   -1    0    0    0  501  0.00000000000E+00  0.00000000000E+00  0.12217122550E+03  0.12217122552E+03  0.25500000920E-02 0.  1.
        2   -1    0    0  501    0  0.00000000000E+00  0.00000000000E+00 -0.13112545106E+04  0.13112545106E+04  0.25500000920E-02 0. -1.
    10030    2    1    2    0    0  0.00000000000E+00  0.00000000000E+00 -0.11890832851E+04  0.14334257362E+04  0.80049377392E+03 0.  0.
        1    1    3    3  502    0 -0.30012731317E+03  0.15360705217E+03 -0.98078878882E+03  0.10371201371E+04  0.50400001928E-02 0. -1.
       -1    1    3    3    0  502  0.30012731317E+03 -0.15360705217E+03 -0.20829449632E+03  0.39630559901E+03  0.50400001928E-02 0.  1.
</event>
<event>
 5   0  0.1030323E-02  0.7882006E+03  0.7818609E-02  0.9577255E-01
        1   -1    0    0  501    0  0.00000000000E+00  0.00000000000E+00  0.64620438085E+03  0.64620438087E+03  0.50400001928E-02 0.  1.
       -1   -1    0    0    0  501  0.00000000000E+00  0.00000000000E+00 -0.24034974248E+03  0.24034974253E+03  0.50400001928E-02 0. -1.
    10030    2    1    2    0    0  0.00000000000E+00  0.00000000000E+00  0.40585463837E+03  0.88655412340E+03  0.78820062563E+03 0.  0.
        3    1    3    3  502    0  0.74973495760E+00  0.35465717012E+03  0.96323219027E+01  0.35478875721E+03  0.10100000352E+00 0. -1.
       -3    1    3    3    0  502 -0.74973495760E+00 -0.35465717012E+03  0.39622231647E+03  0.53176536619E+03  0.10100000352E+00 0.  1.
</event>
<event>
 5   0  0.1817089E-02  0.8041008E+03  0.7818609E-02  0.9554100E-01
       -2   -1    0    0    0  501  0.00000000000E+00  0.00000000000E+00  0.37063355104E+03  0.37063355105E+03  0.25500000920E-02 0.  1.
        2   -1    0    0  501    0  0.00000000000E+00  0.00000000000E+00 -0.43613031052E+03  0.43613031053E+03  0.25500000920E-02 0. -1.
    10030    2    1    2    0    0  0.00000000000E+00  0.00000000000E+00 -0.65496759485E+02  0.80676386158E+03  0.80410080391E+03 0.  0.
        2    1    3    3  502    0  0.13012014915E+02  0.26666085491E+03 -0.33435533795E+03  0.42786775538E+03  0.25500000920E-02 0. -1.
       -2    1    3    3    0  502 -0.13012014915E+02 -0.26666085491E+03  0.26885857846E+03  0.37889610620E+03  0.25500000920E-02 0.  1.
</event>
<event>
 5   0  0.1049780E-02  0.8121045E+03  0.7818609E-02  0.9542660E-01
        1   -1    0    0  501    0  0.00000000000E+00  0.00000000000E+00  0.10825350468E+04  0.10825350468E+04  0.50400001928E-02 0.  1.
       -1   -1    0    0    0  501  0.00000000000E+00  0.00000000000E+00 -0.15230769301E+03  0.15230769309E+03  0.50400001928E-02 0. -1.
    10030    2    1    2    0    0  0.00000000000E+00  0.00000000000E+00  0.93022735375E+03  0.12348427399E+04  0.81210446527E+03 0.  0.
        5    1    3    3  502    0 -0.16458103595E+03  0.29415959410E+03  0.12092040914E+03  0.35813491807E+03  0.46999998093E+01 0. -1.
       -5    1    3    3    0  502  0.16458103595E+03 -0.29415959410E+03  0.80930694461E+03  0.87670782179E+03  0.46999998093E+01 0.  1.
</event>
<event>
 5   0  0.1731337E-02  0.8009225E+03  0.7818609E-02  0.9558683E-01
        2   -1    0    0  501    0  0.00000000000E+00  0.00000000000E+00  0.95928235624E+03  0.95928235625E+03  0.25500000920E-02 0.  1.
       -2   -1    0    0    0  501  0.00000000000E+00  0.00000000000E+00 -0.16717624614E+03  0.16717624616E+03  0.25500000920E-02 0. -1.
    10030    2    1    2    0    0  0.00000000000E+00  0.00000000000E+00  0.79210611010E+03  0.11264586024E+04  0.80092252639E+03 0.  0.
        4    1    3    3  502    0 -0.25342515638E+03  0.28786975224E+03  0.55809619287E+03  0.67717521922E+03  0.12699999809E+01 0.  1.
       -4    1    3    3    0  502  0.25342515638E+03 -0.28786975224E+03  0.23400991724E+03  0.44928338318E+03  0.12699999809E+01 0. -1.
</event>
<event>
 5   0  0.1747544E-02  0.8301683E+03  0.7818609E-02  0.9517348E-01
       -2   -1    0    0    0  501  0.00000000000E+00  0.00000000000E+00  0.10883623125E+03  0.10883623128E+03  0.25500000920E-02 0. -1.
        2   -1    0    0  501    0  0.00000000000E+00  0.00000000000E+00 -0.15830652791E+04  0.15830652791E+04  0.25500000920E-02 0.  1.
    10030    2    1    2    0    0  0.00000000000E+00  0.00000000000E+00 -0.14742290478E+04  0.16919015103E+04  0.83016831745E+03 0.  0.
        1    1    3    3  502    0 -0.17617747933E+03  0.55410532864E+02  0.20487260873E+02  0.18581861925E+03  0.50400001928E-02 0. -1.
       -1    1    3    3    0  502  0.17617747933E+03 -0.55410532864E+02 -0.14947163087E+04  0.15060828911E+04  0.50400001928E-02 0.  1.
</event>
<event>
 5   0  0.1747544E-02  0.7847203E+03  0.7818609E-02  0.9582401E-01
        2   -1    0    0  501    0  0.00000000000E+00  0.00000000000E+00  0.15212453407E+04  0.15212453407E+04  0.25500000920E-02 0. -1.
       -2   -1    0    0    0  501  0.00000000000E+00  0.00000000000E+00 -0.10119767645E+03  0.10119767648E+03  0.25500000920E-02 0.  1.
    10030    2    1    2    0    0  0.00000000000E+00  0.00000000000E+00  0.14200476643E+04  0.16224430172E+04  0.78472031659E+03 0.  0.
        1    1    3    3  502    0 -0.14657477754E+03  0.18427031619E+03  0.13589385361E+04  0.13791858685E+04  0.50400001928E-02 0. -1.
       -1    1    3    3    0  502  0.14657477754E+03 -0.18427031619E+03  0.61109128176E+02  0.24325714874E+03  0.50400001928E-02 0.  1.
</event>
<event>
 5   0  0.1146083E-02  0.7950205E+03  0.7818609E-02  0.9567253E-01
        1   -1    0    0  501    0  0.00000000000E+00  0.00000000000E+00  0.82176541521E+03  0.82176541523E+03  0.50400001928E-02 0. -1.
       -1   -1    0    0    0  501  0.00000000000E+00  0.00000000000E+00 -0.19228652808E+03  0.19228652815E+03  0.50400001928E-02 0.  1.
    10030    2    1    2    0    0  0.00000000000E+00  0.00000000000E+00  0.62947888713E+03  0.10140519434E+04  0.79502054975E+03 0.  0.
        4    1    3    3  502    0  0.20812386170E+03 -0.16387294846E+03 -0.63298359639E+02  0.27235671514E+03  0.12699999809E+01 0.  1.
       -4    1    3    3    0  502 -0.20812386170E+03  0.16387294846E+03  0.69277724677E+03  0.74169522824E+03  0.12699999809E+01 0. -1.
</event>
<event>
 5   0  0.1731337E-02  0.8038020E+03  0.7818609E-02  0.9554530E-01
        2   -1    0    0  501    0  0.00000000000E+00  0.00000000000E+00  0.62403530873E+03  0.62403530874E+03  0.25500000920E-02 0. -1.
       -2   -1    0    0    0  501  0.00000000000E+00  0.00000000000E+00 -0.25883857017E+03  0.25883857018E+03  0.25500000920E-02 0.  1.
    10030    2    1    2    0    0  0.00000000000E+00  0.00000000000E+00  0.36519673857E+03  0.88287387892E+03  0.80380198322E+03 0.  0.
        4    1    3    3  502    0 -0.37891193114E+03  0.83965746612E+02  0.67933892460E+02  0.39400650351E+03  0.12699999809E+01 0.  1.
       -4    1    3    3    0  502  0.37891193114E+03 -0.83965746612E+02  0.29726284611E+03  0.48886737541E+03  0.12699999809E+01 0. -1.
</event>
<event>
 5   0  0.1731337E-02  0.8038883E+03  0.7818609E-02  0.9554406E-01
       -2   -1    0    0    0  501  0.00000000000E+00  0.00000000000E+00  0.12465918857E+03  0.12465918859E+03  0.25500000920E-02 0.  1.
        2   -1    0    0  501    0  0.00000000000E+00  0.00000000000E+00 -0.12960062197E+04  0.12960062198E+04  0.25500000920E-02 0. -1.
    10030    2    1    2    0    0  0.00000000000E+00  0.00000000000E+00 -0.11713470312E+04  0.14206654083E+04  0.80388826027E+03 0.  0.
        4    1    3    3  502    0  0.23443114501E+03  0.11527665845E+03 -0.45837222658E+02  0.26523448798E+03  0.12699999809E+01 0.  1.
       -4    1    3    3    0  502 -0.23443114501E+03 -0.11527665845E+03 -0.11255098085E+04  0.11554309204E+04  0.12699999809E+01 0. -1.
</event>
<event>
 5   0  0.6872500E-03  0.7972156E+03  0.7818609E-02  0.9564056E-01
        4   -1    0    0  501    0  0.00000000000E+00  0.00000000000E+00  0.62414923234E+03  0.62415052441E+03  0.12699999809E+01 0.  1.
       -4   -1    0    0    0  501  0.00000000000E+00  0.00000000000E+00 -0.25456447615E+03  0.25456764409E+03  0.12699999809E+01 0. -1.
    10030    2    1    2    0    0  0.00000000000E+00  0.00000000000E+00  0.36958475618E+03  0.87871816850E+03  0.79721560927E+03 0.  0.
        3    1    3    3  502    0 -0.77403847823E+02 -0.40783925057E+02  0.61343741166E+03  0.61964518268E+03  0.10100000352E+00 0.  1.
       -3    1    3    3    0  502  0.77403847823E+02  0.40783925057E+02 -0.24385265547E+03  0.25907298582E+03  0.10100000352E+00 0. -1.
</event>
<event>
 5   0  0.1747544E-02  0.8021474E+03  0.7818609E-02  0.9556914E-01
       -2   -1    0    0    0  501  0.00000000000E+00  0.00000000000E+00  0.12564990781E+03  0.12564990784E+03  0.25500000920E-02 0. -1.
        2   -1    0    0  501    0  0.00000000000E+00  0.00000000000E+00 -0.12802245863E+04  0.12802245863E+04  0.25500000920E-02 0.  1.
    10030    2    1    2    0    0  0.00000000000E+00  0.00000000000E+00 -0.11545746784E+04  0.14058744941E+04  0.80214737116E+03 0.  0.
        1    1    3    3  502    0 -0.20023101372E+03 -0.65468084156E+02 -0.11754523415E+04  0.11941803616E+04  0.50400001928E-02 0.  1.
       -1    1    3    3    0  502  0.20023101372E+03  0.65468084156E+02  0.20877663036E+02  0.21169413251E+03  0.50400001928E-02 0. -1.
</event>
<event>
 5   0  0.1049780E-02  0.8048639E+03  0.7818609E-02  0.9553003E-01
       -1   -1    0    0    0  501  0.00000000000E+00  0.00000000000E+00  0.12852987994E+03  0.12852988004E+03  0.50400001928E-02 0.  1.
        1   -1    0    0  501    0  0.00000000000E+00  0.00000000000E+00 -0.12600298347E+04  0.12600298347E+04  0.50400001928E-02 0. -1.
    10030    2    1    2    0    0  0.00000000000E+00  0.00000000000E+00 -0.11314999547E+04  0.13885597147E+04  0.80486392253E+03 0.  0.
        5    1    3    3  502    0 -0.37443908903E+00 -0.13881919760E+03  0.85864766018E+02  0.16329653354E+03  0.46999998093E+01 0.  1.
       -5    1    3    3    0  502  0.37443908903E+00  0.13881919760E+03 -0.12173647208E+04  0.12252631812E+04  0.46999998093E+01 0. -1.
</event>
<event>
 5   0  0.1049780E-02  0.7976600E+03  0.7818609E-02  0.9563410E-01
       -1   -1    0    0    0  501  0.00000000000E+00  0.00000000000E+00  0.19043099611E+03  0.19043099618E+03  0.50400001928E-02 0.  1.
        1   -1    0    0  501    0  0.00000000000E+00  0.00000000000E+00 -0.83529145371E+03  0.83529145372E+03  0.50400001928E-02 0. -1.
    10030    2    1    2    0    0  0.00000000000E+00  0.00000000000E+00 -0.64486045760E+03  0.10257224499E+04  0.79766003689E+03 0.  0.
        5    1    3    3  502    0  0.56803989728E+02  0.12493627969E+03 -0.80393177979E+03  0.81557597058E+03  0.46999998093E+01 0. -1.
       -5    1    3    3    0  502 -0.56803989728E+02 -0.12493627969E+03  0.15907132219E+03  0.21014647932E+03  0.46999998093E+01 0.  1.
</event>
<event>
 5   0  0.1049780E-02  0.7965639E+03  0.7818609E-02  0.9565004E-01
       -1   -1    0    0    0  501  0.00000000000E+00  0.00000000000E+00  0.17697000896E+03  0.17697000903E+03  0.50400001928E-02 0.  1.
        1   -1    0    0  501    0  0.00000000000E+00  0.00000000000E+00 -0.89635818020E+03  0.89635818021E+03  0.50400001928E-02 0. -1.
    10030    2    1    2    0    0  0.00000000000E+00  0.00000000000E+00 -0.71938817124E+03  0.10733281892E+04  0.79656390887E+03 0.  0.
        5    1    3    3  502    0 -0.18086940855E+03  0.35002395971E+03 -0.28140389790E+03  0.48419082919E+03  0.46999998093E+01 0.  1.
       -5    1    3    3    0  502  0.18086940855E+03 -0.35002395971E+03 -0.43798427334E+03  0.58913736005E+03  0.46999998093E+01 0. -1.
</event>
<event>
 5   0  0.1038912E-02  0.7927850E+03  0.7818609E-02  0.9570520E-01
        1   -1    0    0  501    0  0.00000000000E+00  0.00000000000E+00  0.16018468160E+04  0.16018468160E+04  0.50400001928E-02 0. -1.
       -1   -1    0    0    0  501  0.00000000000E+00  0.00000000000E+00 -0.98091150069E+02  0.98091150199E+02  0.50400001928E-02 0.  1.
    10030    2    1    2    0    0  0.00000000000E+00  0.00000000000E+00  0.15037556659E+04  0.16999379662E+04  0.79278495579E+03 0.  0.
        2    1    3    3  502    0  0.22369177379E+03  0.15915227321E+03  0.13649998263E+04  0.13923332868E+04  0.25500000920E-02 0. -1.
       -2    1    3    3    0  502 -0.22369177379E+03 -0.15915227321E+03  0.13875583956E+03  0.30760467933E+03  0.25500000920E-02 0.  1.
</event>
<event>
 5   0  0.1818665E-02  0.8052457E+03  0.7818609E-02  0.9552455E-01
       -2   -1    0    0    0  501  0.00000000000E+00  0.00000000000E+00  0.17452301055E+03  0.17452301057E+03  0.25500000920E-02 0.  1.
        2   -1    0    0  501    0  0.00000000000E+00  0.00000000000E+00 -0.92884688392E+03  0.92884688392E+03  0.25500000920E-02 0. -1.
    10030    2    1    2    0    0  0.00000000000E+00  0.00000000000E+00 -0.75432387337E+03  0.11033698945E+04  0.80524568805E+03 0.  0.
        3    1    3    3  502    0  0.19527228390E+03  0.34154537765E+03 -0.25992429233E+03  0.47153489563E+03  0.10100000352E+00 0.  1.
       -3    1    3    3    0  502 -0.19527228390E+03 -0.34154537765E+03 -0.49439958104E+03  0.63183499886E+03  0.10100000352E+00 0. -1.
</event>
<event>
 5   0  0.1673727E-02  0.8273225E+03  0.7818609E-02  0.9521290E-01
       -2   -1    0    0    0  501  0.00000000000E+00  0.00000000000E+00  0.78939275852E+02  0.78939275893E+02  0.25500000920E-02 0. -1.
        2   -1    0    0  501    0  0.00000000000E+00  0.00000000000E+00 -0.21676865994E+04  0.21676865994E+04  0.25500000920E-02 0.  1.
    10030    2    1    2    0    0  0.00000000000E+00  0.00000000000E+00 -0.20887473236E+04  0.22466258753E+04  0.82732245341E+03 0.  0.
        5    1    3    3  502    0 -0.37166285862E+03  0.11089259251E+03 -0.65402436650E+03  0.76039490367E+03  0.46999998093E+01 0. -1.
       -5    1    3    3    0  502  0.37166285862E+03 -0.11089259251E+03 -0.14347229571E+04  0.14862309716E+04  0.46999998093E+01 0.  1.
</event>
<event>
 5   0  0.1817089E-02  0.8080443E+03  0.7818609E-02  0.9548446E-01
       -2   -1    0    0    0  501  0.00000000000E+00  0.00000000000E+00  0.72021217141E+02  0.72021217186E+02  0.25500000920E-02 0. -1.
        2   -1    0    0  501    0  0.00000000000E+00  0.00000000000E+00 -0.22664697691E+04  0.22664697691E+04  0.25500000920E-02 0.  1.
    10030    2    1    2    0    0  0.00000000000E+00  0.00000000000E+00 -0.21944485519E+04  0.23384909863E+04  0.80804433402E+03 0.  0.
        2    1    3    3  502    0  0.21309337744E+03  0.15354213996E+03 -0.20875780912E+03  0.33550528927E+03  0.25500000920E-02 0. -1.
       -2    1    3    3    0  502 -0.21309337744E+03 -0.15354213996E+03 -0.19856907428E+04  0.20029856970E+04  0.25500000920E-02 0.  1.
</event>
<event>
 5   0  0.1038912E-02  0.8006187E+03  0.7818609E-02  0.9559122E-01
       -1   -1    0    0    0  501  0.00000000000E+00  0.00000000000E+00  0.19207186833E+03  0.19207186840E+03  0.50400001928E-02 0. -1.
        1   -1    0    0  501    0  0.00000000000E+00  0.00000000000E+00 -0.83431045074E+03  0.83431045076E+03  0.50400001928E-02 0.  1.
    10030    2    1    2    0    0  0.00000000000E+00  0.00000000000E+00 -0.64223858241E+03  0.10263823192E+04  0.80061867849E+03 0.  0.
        2    1    3    3  502    0 -0.27261581600E+03 -0.90502542782E+02  0.36317008534E+02  0.28953241355E+03  0.25500000920E-02 0. -1.
       -2    1    3    3    0  502  0.27261581600E+03  0.90502542782E+02 -0.67855559094E+03  0.73684990560E+03  0.25500000920E-02 0.  1.
</event>
<event>
 5   0  0.1747544E-02  0.7956465E+03  0.7818609E-02  0.9566340E-01
       -2   -1    0    0    0  501  0.00000000000E+00  0.00000000000E+00  0.11013269223E+04  0.11013269223E+04  0.25500000920E-02 0. -1.
        2   -1    0    0  501    0  0.00000000000E+00  0.00000000000E+00 -0.14370243027E+03  0.14370243029E+03  0.25500000920E-02 0.  1.
    10030    2    1    2    0    0  0.00000000000E+00  0.00000000000E+00  0.95762449201E+03  0.12450293526E+04  0.79564654279E+03 0.  0.
        1    1    3    3  502    0 -0.10740137745E+03  0.24487304877E+03  0.17884426884E+02  0.26798828080E+03  0.50400001928E-02 0.  1.
       -1    1    3    3    0  502  0.10740137745E+03 -0.24487304877E+03  0.93974006513E+03  0.97704107177E+03  0.50400001928E-02 0. -1.
</event>
<event>
 5   0  0.6872500E-03  0.8089153E+03  0.7818609E-02  0.9547202E-01
        3   -1    0    0  501    0  0.00000000000E+00  0.00000000000E+00  0.47635340819E+03  0.47635341890E+03  0.10100000352E+00 0.  1.
       -3   -1    0    0    0  501  0.00000000000E+00  0.00000000000E+00 -0.34341301927E+03  0.34341303412E+03  0.10100000352E+00 0. -1.
    10030    2    1    2    0    0  0.00000000000E+00  0.00000000000E+00  0.13294038892E+03  0.81976645302E+03  0.80891525544E+03 0.  0.
        1    1    3    3  502    0 -0.26306877247E+03 -0.14861966870E+03  0.33895055325E+03  0.45407098845E+03  0.50400001928E-02 0.  1.
       -1    1    3    3    0  502  0.26306877247E+03  0.14861966870E+03 -0.20601016433E+03  0.36569546457E+03  0.50400001928E-02 0. -1.
</event>
<event>
 5   0  0.6872500E-03  0.9084043E+03  0.7818609E-02  0.9415136E-01
       -4   -1    0    0    0  501  0.00000000000E+00  0.00000000000E+00  0.37597212948E+03  0.37597427445E+03  0.12699999809E+01 0. -1.
        4   -1    0    0  501    0  0.00000000000E+00  0.00000000000E+00 -0.54870541545E+03  0.54870688518E+03  0.12699999809E+01 0.  1.
    10030    2    1    2    0    0  0.00000000000E+00  0.00000000000E+00 -0.17273328597E+03  0.92468115963E+03  0.90840434768E+03 0.  0.
        1    1    3    3  502    0  0.41407222691E+03  0.43244096010E+02 -0.27120708571E+03  0.49686934329E+03  0.50400001928E-02 0.  1.
       -1    1    3    3    0  502 -0.41407222691E+03 -0.43244096010E+02  0.98473799736E+02  0.42781181634E+03  0.50400001928E-02 0. -1.
</event>
<event>
 5   0  0.1025900E-02  0.8136648E+03  0.7818609E-02  0.9540446E-01
       -1   -1    0    0    0  501  0.00000000000E+00  0.00000000000E+00  0.17196049878E+03  0.17196049885E+03  0.50400001928E-02 0. -1.
        1   -1    0    0  501    0  0.00000000000E+00  0.00000000000E+00 -0.96250358926E+03  0.96250358928E+03  0.50400001928E-02 0.  1.
    10030    2    1    2    0    0  0.00000000000E+00  0.00000000000E+00 -0.79054309048E+03  0.11344640881E+04  0.81366478930E+03 0.  0.
        1    1    3    3  502    0  0.67882629444E+02  0.27920785239E+03 -0.79682830006E+03  0.84705396287E+03  0.50400001928E-02 0. -1.
       -1    1    3    3    0  502 -0.67882629444E+02 -0.27920785239E+03  0.62852095790E+01  0.28741012526E+03  0.50400001928E-02 0.  1.
</event>
<event>
 5   0  0.1030323E-02  0.8031234E+03  0.7818609E-02  0.9555507E-01
        1   -1    0    0  501    0  0.00000000000E+00  0.00000000000E+00  0.22961768920E+04  0.22961768921E+04  0.50400001928E-02 0. -1.
       -1   -1    0    0    0  501  0.00000000000E+00  0.00000000000E+00 -0.70226207134E+02  0.70226207315E+02  0.50400001928E-02 0.  1.
    10030    2    1    2    0    0  0.00000000000E+00  0.00000000000E+00  0.22259506849E+04  0.23664030994E+04  0.80312338842E+03 0.  0.
        3    1    3    3  502    0  0.33285116459E+03  0.21849638047E+03  0.12666803866E+04  0.13277837844E+04  0.10100000352E+00 0.  1.
       -3    1    3    3    0  502 -0.33285116459E+03 -0.21849638047E+03  0.95927029829E+03  0.10386193150E+04  0.10100000352E+00 0. -1.
</event>
<event>
 5   0  0.1038912E-02  0.7955691E+03  0.7818609E-02  0.9566453E-01
       -1   -1    0    0    0  501  0.00000000000E+00  0.00000000000E+00  0.14760465912E+03  0.14760465921E+03  0.50400001928E-02 0.  1.
        1   -1    0    0  501    0  0.00000000000E+00  0.00000000000E+00 -0.10720023221E+04  0.10720023221E+04  0.50400001928E-02 0. -1.
    10030    2    1    2    0    0  0.00000000000E+00  0.00000000000E+00 -0.92439766298E+03  0.12196069813E+04  0.79556907278E+03 0.  0.
        2    1    3    3  502    0 -0.37056402603E+03  0.10389446916E+03 -0.61642177451E+03  0.72669633425E+03  0.25500000920E-02 0. -1.
       -2    1    3    3    0  502  0.37056402603E+03 -0.10389446916E+03 -0.30797588847E+03  0.49291064707E+03  0.25500000920E-02 0.  1.
</event>
<event>
 5   0  0.1030323E-02  0.7840075E+03  0.7818609E-02  0.9583458E-01
       -1   -1    0    0    0  501  0.00000000000E+00  0.00000000000E+00  0.29336225305E+03  0.29336225310E+03  0.50400001928E-02 0.  1.
        1   -1    0    0  501    0  0.00000000000E+00  0.00000000000E+00 -0.52381290985E+03  0.52381290988E+03  0.50400001928E-02 0. -1.
    10030    2    1    2    0    0  0.00000000000E+00  0.00000000000E+00 -0.23045065680E+03  0.81717516298E+03  0.78400748834E+03 0.  0.
        3    1    3    3  502    0 -0.19965978178E+03  0.47061114241E+02 -0.46340545831E+03  0.50677747181E+03  0.10100000352E+00 0. -1.
       -3    1    3    3    0  502  0.19965978178E+03 -0.47061114241E+02  0.23295480151E+03  0.31039769117E+03  0.10100000352E+00 0.  1.
</event>
<event>
 5   0  0.1146083E-02  0.7998613E+03  0.7818609E-02  0.9560218E-01
        1   -1    0    0  501    0  0.00000000000E+00  0.00000000000E+00  0.34446384235E+03  0.34446384238E+03  0.50400001928E-02 0. -1.
       -1   -1    0    0    0  501  0.00000000000E+00  0.00000000000E+00 -0.46432891533E+03  0.46432891536E+03  0.50400001928E-02 0.  1.
    10030    2    1    2    0    0  0.00000000000E+00  0.00000000000E+00 -0.11986507298E+03  0.80879275774E+03  0.79986129376E+03 0.  0.
        4    1    3    3  502    0  0.14238320584E+03  0.70276553284E+02 -0.43108860157E+03  0.45940261922E+03  0.12699999809E+01 0.  1.
       -4    1    3    3    0  502 -0.14238320584E+03 -0.70276553284E+02  0.31122352859E+03  0.34939013852E+03  0.12699999809E+01 0. -1.
</event>
<event>
 5   0  0.1038912E-02  0.8001155E+03  0.7818609E-02  0.9559850E-01
        1   -1    0    0  501    0  0.00000000000E+00  0.00000000000E+00  0.12732960549E+03  0.12732960558E+03  0.50400001928E-02 0.  1.
       -1   -1    0    0    0  501  0.00000000000E+00  0.00000000000E+00 -0.12569441917E+04  0.12569441917E+04  0.50400001928E-02 0. -1.
    10030    2    1    2    0    0  0.00000000000E+00  0.00000000000E+00 -0.11296145862E+04  0.13842737973E+04  0.80011551196E+03 0.  0.
        2    1    3    3  502    0  0.48701538037E+02  0.12176555048E+03  0.89084157313E+02  0.15853919447E+03  0.25500000920E-02 0.  1.
       -2    1    3    3    0  502 -0.48701538037E+02 -0.12176555048E+03 -0.12186987435E+04  0.12257346028E+04  0.25500000920E-02 0. -1.
</event>
<event>
 5   0  0.1817089E-02  0.8026166E+03  0.7818609E-02  0.9556237E-01
        2   -1    0    0  501    0  0.00000000000E+00  0.00000000000E+00  0.17186698869E+04  0.17186698869E+04  0.25500000920E-02 0.  1.
       -2   -1    0    0    0  501  0.00000000000E+00  0.00000000000E+00 -0.93705226299E+02  0.93705226334E+02  0.25500000920E-02 0. -1.
    10030    2    1    2    0    0  0.00000000000E+00  0.00000000000E+00  0.16249646606E+04  0.18123751132E+04  0.80261659768E+03 0.  0.
        2    1    3    3  502    0  0.33704618312E+03 -0.47185299169E+02  0.33229165130E+03  0.47565147276E+03  0.25500000920E-02 0. -1.
       -2    1    3    3    0  502 -0.33704618312E+03  0.47185299169E+02  0.12926730093E+04  0.13367236405E+04  0.25500000920E-02 0.  1.
</event>
<event>
 5   0  0.1038912E-02  0.7943192E+03  0.7818609E-02  0.9568276E-01
       -1   -1    0    0    0  501  0.00000000000E+00  0.00000000000E+00  0.37453435105E+03  0.37453435108E+03  0.50400001928E-02 0.  1.
        1   -1    0    0  501    0  0.00000000000E+00  0.00000000000E+00 -0.42115156874E+03  0.42115156877E+03  0.50400001928E-02 0. -1.
    10030    2    1    2    0    0  0.00000000000E+00  0.00000000000E+00 -0.46617217693E+02  0.79568591985E+03  0.79431915378E+03 0.  0.
        2    1    3    3  502    0 -0.12292061501E+03  0.24665694366E+03  0.26316704934E+03  0.38105907851E+03  0.25500000920E-02 0.  1.
       -2    1    3    3    0  502  0.12292061501E+03 -0.24665694366E+03 -0.30978426703E+03  0.41462684134E+03  0.25500000920E-02 0. -1.
</event>
<event>
 5   0  0.1049780E-02  0.7851198E+03  0.7818609E-02  0.9581809E-01
        1   -1    0    0  501    0  0.00000000000E+00  0.00000000000E+00  0.64786011173E+03  0.64786011174E+03  0.50400001928E-02 0.  1.
       -1   -1    0    0    0  501  0.00000000000E+00  0.00000000000E+00 -0.23786503126E+03  0.23786503131E+03  0.50400001928E-02 0. -1.
    10030    2    1    2    0    0  0.00000000000E+00  0.00000000000E+00  0.40999508046E+03  0.88572514306E+03  0.78511977624E+03 0.  0.
        5    1    3    3  502    0  0.27828892590E+03  0.11573256114E+03  0.48870274891E+03  0.57418744220E+03  0.46999998093E+01 0.  1.
       -5    1    3    3    0  502 -0.27828892590E+03 -0.11573256114E+03 -0.78707668445E+02  0.31153770086E+03  0.46999998093E+01 0. -1.
</event>
<event>
 5   0  0.6872500E-03  0.8042927E+03  0.7818609E-02  0.9553824E-01
        3   -1    0    0  501    0  0.00000000000E+00  0.00000000000E+00  0.10534259989E+04  0.10534260037E+04  0.10100000352E+00 0.  1.
       -3   -1    0    0    0  501  0.00000000000E+00  0.00000000000E+00 -0.15351971867E+03  0.15351975190E+03  0.10100000352E+00 0. -1.
    10030    2    1    2    0    0  0.00000000000E+00  0.00000000000E+00  0.89990628020E+03  0.12069457556E+04  0.80429269787E+03 0.  0.
        4    1    3    3  502    0  0.35788738725E+03  0.18314247023E+03  0.43528631808E+03  0.59253720387E+03  0.12699999809E+01 0. -1.
       -4    1    3    3    0  502 -0.35788738725E+03 -0.18314247023E+03  0.46461996212E+03  0.61440855175E+03  0.12699999809E+01 0.  1.
</event>
<event>
 5   0  0.1818665E-02  0.8075691E+03  0.7818609E-02  0.9549125E-01
        2   -1    0    0  501    0  0.00000000000E+00  0.00000000000E+00  0.59611703995E+03  0.59611703996E+03  0.25500000920E-02 0.  1.
       -2   -1    0    0    0  501  0.00000000000E+00  0.00000000000E+00 -0.27350664085E+03  0.27350664086E+03  0.25500000920E-02 0. -1.
    10030    2    1    2    0    0  0.00000000000E+00  0.00000000000E+00  0.32261039911E+03  0.86962368082E+03  0.80756911570E+03 0.  0.
        3    1    3    3  502    0 -0.76603627771E+02  0.15632847299E+02  0.58788854152E+03  0.59306445616E+03  0.10100000352E+00 0.  1.
       -3    1    3    3    0  502  0.76603627771E+02 -0.15632847299E+02 -0.26527814241E+03  0.27655922466E+03  0.10100000352E+00 0. -1.
</event>
<event>
 5   0  0.1818665E-02  0.8043586E+03  0.7818609E-02  0.9553730E-01
        2   -1    0    0  501    0  0.00000000000E+00  0.00000000000E+00  0.85322232250E+03  0.85322232250E+03  0.25500000920E-02 0. -1.
       -2   -1    0    0    0  501  0.00000000000E+00  0.00000000000E+00 -0.18957330807E+03  0.18957330808E+03  0.25500000920E-02 0.  1.
    10030    2    1    2    0    0  0.00000000000E+00  0.00000000000E+00  0.66364901443E+03  0.10427956306E+04  0.80435857229E+03 0.  0.
        3    1    3    3  502    0 -0.14846663118E+02 -0.25059562330E+03  0.73917959875E+03  0.78064401569E+03  0.10100000352E+00 0. -1.
       -3    1    3    3    0  502  0.14846663118E+02  0.25059562330E+03 -0.75530584324E+02  0.26215161489E+03  0.10100000352E+00 0.  1.
</event>
<event>
 5   0  0.1731337E-02  0.7996648E+03  0.7818609E-02  0.9560502E-01
        2   -1    0    0  501    0  0.00000000000E+00  0.00000000000E+00  0.10932383059E+04  0.10932383059E+04  0.25500000920E-02 0. -1.
       -2   -1    0    0    0  501  0.00000000000E+00  0.00000000000E+00 -0.14623156791E+03  0.14623156794E+03  0.25500000920E-02 0.  1.
    10030    2    1    2    0    0  0.00000000000E+00  0.00000000000E+00  0.94700673798E+03  0.12394698738E+04  0.79966480876E+03 0.  0.
        4    1    3    3  502    0  0.87423723661E+02  0.35873956216E+03  0.23575662956E+03  0.43808650082E+03  0.12699999809E+01 0.  1.
       -4    1    3    3    0  502 -0.87423723661E+02 -0.35873956216E+03  0.71125010842E+03  0.80138337301E+03  0.12699999809E+01 0. -1.
</event>
<event>
 5   0  0.1818665E-02  0.7698521E+03  0.7818609E-02  0.9604710E-01
       -2   -1    0    0    0  501  0.00000000000E+00  0.00000000000E+00  0.34136296045E+03  0.34136296046E+03  0.25500000920E-02 0. -1.
        2   -1    0    0  501    0  0.00000000000E+00  0.00000000000E+00 -0.43404848820E+03  0.43404848821E+03  0.25500000920E-02 0.  1.
    10030    2    1    2    0    0  0.00000000000E+00  0.00000000000E+00 -0.92685527755E+02  0.77541144867E+03  0.76985213364E+03 0.  0.
        3    1    3    3  502    0 -0.34824980731E+03  0.12856183055E+03  0.56186198574E+02  0.37545035847E+03  0.10100000352E+00 0. -1.
       -3    1    3    3    0  502  0.34824980731E+03 -0.12856183055E+03 -0.14887172633E+03  0.39996109019E+03  0.10100000352E+00 0.  1.
</event>
<event>
 5   0  0.1747544E-02  0.7975509E+03  0.7818609E-02  0.9563569E-01
        2   -1    0    0  501    0  0.00000000000E+00  0.00000000000E+00  0.93062659953E+03  0.93062659954E+03  0.25500000920E-02 0.  1.
       -2   -1    0    0    0  501  0.00000000000E+00  0.00000000000E+00 -0.17087610242E+03  0.17087610244E+03  0.25500000920E-02 0. -1.
    10030    2    1    2    0    0  0.00000000000E+00  0.00000000000E+00  0.75975049711E+03  0.11015027020E+04  0.79755086647E+03 0.  0.
        1    1    3    3  502    0  0.32083988436E+03 -0.13303321190E+03  0.65046563095E+03  0.73738836710E+03  0.50400001928E-02 0.  1.
       -1    1    3    3    0  502 -0.32083988436E+03  0.13303321190E+03  0.10928486616E+03  0.36411433487E+03  0.50400001928E-02 0. -1.
</event>
<event>
 5   0  0.1673727E-02  0.8284969E+03  0.7818609E-02  0.9519661E-01
       -2   -1    0    0    0  501  0.00000000000E+00  0.00000000000E+00  0.10553884989E+03  0.10553884992E+03  0.25500000920E-02 0.  1.
        2   -1    0    0  501    0  0.00000000000E+00  0.00000000000E+00 -0.16259584130E+04  0.16259584130E+04  0.25500000920E-02 0. -1.
    10030    2    1    2    0    0  0.00000000000E+00  0.00000000000E+00 -0.15204195631E+04  0.17314972629E+04  0.82849690620E+03 0.  0.
        5    1    3    3  502    0  0.32357463534E+02  0.25559650474E+03 -0.14380779056E+04  0.14609814274E+04  0.46999998093E+01 0. -1.
       -5    1    3    3    0  502 -0.32357463534E+02 -0.25559650474E+03 -0.82341657466E+02  0.27051583545E+03  0.46999998093E+01 0.  1.
</event>
<event>
 5   0  0.1673727E-02  0.8256582E+03  0.7818609E-02  0.9523603E-01
       -2   -1    0    0    0  501  0.00000000000E+00  0.00000000000E+00  0.23593222559E+03  0.23593222561E+03  0.25500000920E-02 0. -1.
        2   -1    0    0  501    0  0.00000000000E+00  0.00000000000E+00 -0.72235938005E+03  0.72235938006E+03  0.25500000920E-02 0.  1.
    10030    2    1    2    0    0  0.00000000000E+00  0.00000000000E+00 -0.48642715446E+03  0.95829160566E+03  0.82565817678E+03 0.  0.
        5    1    3    3  502    0 -0.33906414394E+03  0.12129376445E+03 -0.47744749312E+03  0.59804253167E+03  0.46999998093E+01 0.  1.
       -5    1    3    3    0  502  0.33906414394E+03 -0.12129376445E+03 -0.89796613409E+01  0.36024907400E+03  0.46999998093E+01 0. -1.
</event>
<event>
 5   0  0.1030323E-02  0.7975149E+03  0.7818609E-02  0.9563621E-01
        1   -1    0    0  501    0  0.00000000000E+00  0.00000000000E+00  0.26667609060E+04  0.26667609060E+04  0.50400001928E-02 0.  1.
       -1   -1    0    0    0  501  0.00000000000E+00  0.00000000000E+00 -0.59625705154E+02  0.59625705367E+02  0.50400001928E-02 0. -1.
    10030    2    1    2    0    0  0.00000000000E+00  0.00000000000E+00  0.26071352008E+04  0.27263866113E+04  0.79751488962E+03 0.  0.
        3    1    3    3  502    0 -0.36397831466E+03 -0.12692049856E+03  0.95462783159E+03  0.10295160676E+04  0.10100000352E+00 0. -1.
       -3    1    3    3    0  502  0.36397831466E+03  0.12692049856E+03  0.16525073692E+04  0.16968705437E+04  0.10100000352E+00 0.  1.
</event>
<event>
 5   0  0.1025900E-02  0.7978496E+03  0.7818609E-02  0.9563135E-01
        1   -1    0    0  501    0  0.00000000000E+00  0.00000000000E+00  0.50196118399E+03  0.50196118401E+03  0.50400001928E-02 0.  1.
       -1   -1    0    0    0  501  0.00000000000E+00  0.00000000000E+00 -0.31703845861E+03  0.31703845865E+03  0.50400001928E-02 0. -1.
    10030    2    1    2    0    0  0.00000000000E+00  0.00000000000E+00  0.18492272537E+03  0.81899964266E+03  0.79784961009E+03 0.  0.
        1    1    3    3  502    0  0.26957123449E+03  0.18134032229E+02 -0.20882116617E+03  0.34147294630E+03  0.50400001928E-02 0. -1.
       -1    1    3    3    0  502 -0.26957123449E+03 -0.18134032229E+02  0.39374389154E+03  0.47752669636E+03  0.50400001928E-02 0.  1.
</event>
<event>
 5   0  0.1030323E-02  0.7811041E+03  0.7818609E-02  0.9587778E-01
        1   -1    0    0  501    0  0.00000000000E+00  0.00000000000E+00  0.10817533453E+04  0.10817533453E+04  0.50400001928E-02 0.  1.
       -1   -1    0    0    0  501  0.00000000000E+00  0.00000000000E+00 -0.14100339218E+03  0.14100339227E+03  0.50400001928E-02 0. -1.
    10030    2    1    2    0    0  0.00000000000E+00  0.00000000000E+00  0.94074995310E+03  0.12227567375E+04  0.78110406795E+03 0.  0.
        3    1    3    3  502    0 -0.28744371642E+02 -0.24111076373E+03  0.94922558181E+03  0.97979071982E+03  0.10100000352E+00 0.  1.
       -3    1    3    3    0  502  0.28744371642E+02  0.24111076373E+03 -0.84756287139E+01  0.24296601773E+03  0.10100000352E+00 0. -1.
</event>
<event>
 5   0  0.1025900E-02  0.7961899E+03  0.7818609E-02  0.9565548E-01
        1   -1    0    0  501    0  0.00000000000E+00  0.00000000000E+00  0.60458224240E+03  0.60458224242E+03  0.50400001928E-02 0. -1.
       -1   -1    0    0    0  501  0.00000000000E+00  0.00000000000E+00 -0.26213074917E+03  0.26213074921E+03  0.50400001928E-02 0.  1.
    10030    2    1    2    0    0  0.00000000000E+00  0.00000000000E+00  0.34245149324E+03  0.86671299164E+03  0.79618991745E+03 0.  0.
        1    1    3    3  502    0  0.24313386902E+03  0.12462338174E+03  0.48641405647E+03  0.55789219379E+03  0.50400001928E-02 0. -1.
       -1    1    3    3    0  502 -0.24313386902E+03 -0.12462338174E+03 -0.14396256323E+03  0.30882079784E+03  0.50400001928E-02 0.  1.
</event>
<event>
 5   0  0.1146083E-02  0.7999487E+03  0.7818609E-02  0.9560091E-01
        1   -1    0    0  501    0  0.00000000000E+00  0.00000000000E+00  0.43338397408E+03  0.43338397411E+03  0.50400001928E-02 0.  1.
       -1   -1    0    0    0  501  0.00000000000E+00  0.00000000000E+00 -0.36914028249E+03  0.36914028253E+03  0.50400001928E-02 0. -1.
    10030    2    1    2    0    0  0.00000000000E+00  0.00000000000E+00  0.64243691585E+02  0.80252425663E+03  0.79994870496E+03 0.  0.
        4    1    3    3  502    0 -0.11816049008E+03  0.33889137870E+03 -0.14499288706E+03  0.38708373535E+03  0.12699999809E+01 0. -1.
       -4    1    3    3    0  502  0.11816049008E+03 -0.33889137870E+03  0.20923657865E+03  0.41544052128E+03  0.12699999809E+01 0.  1.
</event>
<event>
 5   0  0.1731337E-02  0.7729202E+03  0.7818609E-02  0.9600063E-01
       -2   -1    0    0    0  501  0.00000000000E+00  0.00000000000E+00  0.73993358175E+02  0.73993358219E+02  0.25500000920E-02 0.  1.
        2   -1    0    0  501    0  0.00000000000E+00  0.00000000000E+00 -0.20184433586E+04  0.20184433586E+04  0.25500000920E-02 0. -1.
    10030    2    1    2    0    0  0.00000000000E+00  0.00000000000E+00 -0.19444500004E+04  0.20924367168E+04  0.77292018330E+03 0.  0.
        4    1    3    3  502    0 -0.19003413229E+03 -0.24959231627E+03 -0.36121367636E+03  0.47842055627E+03  0.12699999809E+01 0.  1.
       -4    1    3    3    0  502  0.19003413229E+03  0.24959231627E+03 -0.15832363241E+04  0.16140161606E+04  0.12699999809E+01 0. -1.
</event>
<event>
 5   0  0.1673727E-02  0.8039606E+03  0.7818609E-02  0.9554302E-01
       -2   -1    0    0    0  501  0.00000000000E+00  0.00000000000E+00  0.15713921045E+04  0.15713921045E+04  0.25500000920E-02 0. -1.
        2   -1    0    0  501    0  0.00000000000E+00  0.00000000000E+00 -0.10283122918E+03  0.10283122921E+03  0.25500000920E-02 0.  1.
    10030    2    1    2    0    0  0.00000000000E+00  0.00000000000E+00  0.14685608753E+04  0.16742233337E+04  0.80396064993E+03 0.  0.
        5    1    3    3  502    0 -0.41842934940E+02  0.32614644582E+03  0.25285715990E+03  0.41482667301E+03  0.46999998093E+01 0.  1.
       -5    1    3    3    0  502  0.41842934940E+02 -0.32614644582E+03  0.12157037154E+04  0.12593966607E+04  0.46999998093E+01 0. -1.
</event>
<event>
 5   0  0.1025900E-02  0.8022926E+03  0.7818609E-02  0.9556705E-01
        1   -1    0    0  501    0  0.00000000000E+00  0.00000000000E+00  0.97847358045E+03  0.97847358046E+03  0.50400001928E-02 0. -1.
       -1   -1    0    0    0  501  0.00000000000E+00  0.00000000000E+00 -0.16445856229E+03  0.16445856237E+03  0.50400001928E-02 0.  1.
    10030    2    1    2    0    0  0.00000000000E+00  0.00000000000E+00  0.81401501815E+03  0.11429321428E+04  0.80229261079E+03 0.  0.
        1    1    3    3  502    0 -0.44974104943E+02  0.78820820717E+02  0.96365845170E+03  0.96792200277E+03  0.50400001928E-02 0. -1.
       -1    1    3    3    0  502  0.44974104943E+02 -0.78820820717E+02 -0.14964343355E+03  0.17501014006E+03  0.50400001928E-02 0.  1.
</event>
<event>
 5   0  0.1818665E-02  0.8074870E+03  0.7818609E-02  0.9549243E-01
       -2   -1    0    0    0  501  0.00000000000E+00  0.00000000000E+00  0.27924380337E+03  0.27924380339E+03  0.25500000920E-02 0.  1.
        2   -1    0    0  501    0  0.00000000000E+00  0.00000000000E+00 -0.58375087816E+03  0.58375087817E+03  0.25500000920E-02 0. -1.
    10030    2    1    2    0    0  0.00000000000E+00  0.00000000000E+00 -0.30450707479E+03  0.86299468156E+03  0.80748700410E+03 0.  0.
        3    1    3    3  502    0 -0.12592820541E+03  0.74564028135E+02 -0.55440583354E+03  0.57339649953E+03  0.10100000352E+00 0. -1.
       -3    1    3    3    0  502  0.12592820541E+03 -0.74564028135E+02  0.24989875875E+03  0.28959818203E+03  0.10100000352E+00 0.  1.
</event>
<event>
 5   0  0.1747544E-02  0.7958761E+03  0.7818609E-02  0.9566005E-01
        2   -1    0    0  501    0  0.00000000000E+00  0.00000000000E+00  0.26529960048E+03  0.26529960050E+03  0.25500000920E-02 0.  1.
       -2   -1    0    0    0  501  0.00000000000E+00  0.00000000000E+00 -0.59689010000E+03  0.59689010000E+03  0.25500000920E-02 0. -1.
    10030    2    1    2    0    0  0.00000000000E+00  0.00000000000E+00 -0.33159049951E+03  0.86218970050E+03  0.79587613375E+03 0.  0.
        1    1    3    3  502    0  0.19521423018E+03 -0.21968130530E+03  0.12486261205E+03  0.31931041867E+03  0.50400001928E-02 0.  1.
       -1    1    3    3    0  502 -0.19521423018E+03  0.21968130530E+03 -0.45645311156E+03  0.54287928183E+03  0.50400001928E-02 0. -1.
</event>
<event>
 5   0  0.1817089E-02  0.7817846E+03  0.7818609E-02  0.9586764E-01
       -2   -1    0    0    0  501  0.00000000000E+00  0.00000000000E+00  0.15036908605E+04  0.15036908605E+04  0.25500000920E-02 0.  1.
        2   -1    0    0  501    0  0.00000000000E+00  0.00000000000E+00 -0.10161448821E+03  0.10161448824E+03  0.25500000920E-02 0. -1.
    10030    2    1    2    0    0  0.00000000000E+00  0.00000000000E+00  0.14020763723E+04  0.16053053487E+04  0.78178456686E+03 0.  0.
        2    1    3    3  502    0  0.29912869192E+03  0.19124845117E+03  0.36524315556E+03  0.50936873392E+03  0.25500000920E-02 0. -1.
       -2    1    3    3    0  502 -0.29912869192E+03 -0.19124845117E+03  0.10368332167E+04  0.10959366148E+04  0.25500000920E-02 0.  1.
</event>
<event>
 5   0  0.6872500E-03  0.7999078E+03  0.7818609E-02  0.9560151E-01
       -4   -1    0    0    0  501  0.00000000000E+00  0.00000000000E+00  0.54462825319E+03  0.54462973392E+03  0.12699999809E+01 0.  1.
        4   -1    0    0  501    0  0.00000000000E+00  0.00000000000E+00 -0.29370742759E+03  0.29371017333E+03  0.12699999809E+01 0. -1.
    10030    2    1    2    0    0  0.00000000000E+00  0.00000000000E+00  0.25092082560E+03  0.83833990725E+03  0.79990783180E+03 0.  0.
        3    1    3    3  502    0 -0.53651037457E+02  0.37800110711E+03  0.25034882050E+03  0.45654990190E+03  0.10100000352E+00 0. -1.
       -3    1    3    3    0  502  0.53651037457E+02 -0.37800110711E+03  0.57200510145E+00  0.38179000535E+03  0.10100000352E+00 0.  1.
</event>
<event>
 5   0  0.1146083E-02  0.7988273E+03  0.7818609E-02  0.9561716E-01
        1   -1    0    0  501    0  0.00000000000E+00  0.00000000000E+00  0.80775189819E+03  0.80775189820E+03  0.50400001928E-02 0. -1.
       -1   -1    0    0    0  501  0.00000000000E+00  0.00000000000E+00 -0.19750034722E+03  0.19750034728E+03  0.50400001928E-02 0.  1.
    10030    2    1    2    0    0  0.00000000000E+00  0.00000000000E+00  0.61025155097E+03  0.10052522455E+04  0.79882734154E+03 0.  0.
        4    1    3    3  502    0 -0.16724547873E+03  0.96050269225E+02  0.74526885570E+03  0.76982074833E+03  0.12699999809E+01 0. -1.
       -4    1    3    3    0  502  0.16724547873E+03 -0.96050269225E+02 -0.13501730474E+03  0.23543149716E+03  0.12699999809E+01 0.  1.
</event>
<event>
 5   0  0.1673727E-02  0.8022272E+03  0.7818609E-02  0.9556799E-01
       -2   -1    0    0    0  501  0.00000000000E+00  0.00000000000E+00  0.99366068514E+02  0.99366068546E+02  0.25500000920E-02 0.  1.
        2   -1    0    0  501    0  0.00000000000E+00  0.00000000000E+00 -0.16191856666E+04  0.16191856666E+04  0.25500000920E-02 0. -1.
    10030    2    1    2    0    0  0.00000000000E+00  0.00000000000E+00 -0.15198195981E+04  0.17185517351E+04  0.80222718456E+03 0.  0.
        5    1    3    3  502    0  0.28273737443E+03 -0.32036853333E+02 -0.15436338887E+03  0.32375442652E+03  0.46999998093E+01 0.  1.
       -5    1    3    3    0  502 -0.28273737443E+03  0.32036853333E+02 -0.13654562092E+04  0.13947973086E+04  0.46999998093E+01 0. -1.
</event>
<event>
 5   0  0.6872500E-03  0.8016065E+03  0.7818609E-02  0.9557695E-01
       -4   -1    0    0    0  501  0.00000000000E+00  0.00000000000E+00  0.11361683751E+04  0.11361690849E+04  0.12699999809E+01 0. -1.
        4   -1    0    0  501    0  0.00000000000E+00  0.00000000000E+00 -0.14138673729E+03  0.14139244103E+03  0.12699999809E+01 0.  1.
    10030    2    1    2    0    0  0.00000000000E+00  0.00000000000E+00  0.99478163782E+03  0.12775615259E+04  0.80160647803E+03 0.  0.
        4    1    3    3  502    0  0.49207400433E+02 -0.25673147186E+03  0.98161125594E+03  0.10158221732E+04  0.12699999809E+01 0. -1.
       -4    1    3    3    0  502 -0.49207400433E+02  0.25673147186E+03  0.13170381872E+02  0.26173935272E+03  0.12699999809E+01 0.  1.
</event>
<event>
 5   0  0.1049780E-02  0.8052634E+03  0.7818609E-02  0.9552430E-01
        1   -1    0    0  501    0  0.00000000000E+00  0.00000000000E+00  0.96323610388E+03  0.96323610390E+03  0.50400001928E-02 0.  1.
       -1   -1    0    0    0  501  0.00000000000E+00  0.00000000000E+00 -0.16829964713E+03  0.16829964720E+03  0.50400001928E-02 0. -1.
    10030    2    1    2    0    0  0.00000000000E+00  0.00000000000E+00  0.79493645676E+03  0.11315357511E+04  0.80526342630E+03 0.  0.
        5    1    3    3  502    0  0.33194013378E+03 -0.30728011698E+02  0.80254157375E+02  0.34291585396E+03  0.46999998093E+01 0. -1.
       -5    1    3    3    0  502 -0.33194013378E+03  0.30728011698E+02  0.71468229938E+03  0.78861989714E+03  0.46999998093E+01 0.  1.
</event>
<event>
 5   0  0.1146083E-02  0.8054304E+03  0.7818609E-02  0.9552190E-01
        1   -1    0    0  501    0  0.00000000000E+00  0.00000000000E+00  0.72822706054E+03  0.72822706056E+03  0.50400001928E-02 0. -1.
       -1   -1    0    0    0  501  0.00000000000E+00  0.00000000000E+00 -0.22270459965E+03  0.22270459971E+03  0.50400001928E-02 0.  1.
    10030    2    1    2    0    0  0.00000000000E+00  0.00000000000E+00  0.50552246089E+03  0.95093166027E+03  0.80543035953E+03 0.  0.
        4    1    3    3  502    0 -0.70371348091E+02 -0.39650750966E+03  0.24951256102E+03  0.47373881291E+03  0.12699999809E+01 0.  1.
       -4    1    3    3    0  502  0.70371348091E+02  0.39650750966E+03  0.25600989987E+03  0.47719284737E+03  0.12699999809E+01 0. -1.
</event>
<event>
 5   0  0.1030323E-02  0.8148209E+03  0.7818609E-02  0.9538809E-01
       -1   -1    0    0    0  501  0.00000000000E+00  0.00000000000E+00  0.41298461898E+03  0.41298461901E+03  0.50400001928E-02 0.  1.
        1   -1    0    0  501    0  0.00000000000E+00  0.00000000000E+00 -0.40191151449E+03  0.40191151452E+03  0.50400001928E-02 0. -1.
    10030    2    1    2    0    0  0.00000000000E+00  0.00000000000E+00  0.11073104490E+02  0.81489613353E+03  0.81482089737E+03 0.  0.
        3    1    3    3  502    0 -0.18418557703E+03 -0.34512954221E+03  0.11932111346E+03  0.40899421269E+03  0.10100000352E+00 0.  1.
       -3    1    3    3    0  502  0.18418557703E+03  0.34512954221E+03 -0.10824800897E+03  0.40590192084E+03  0.10100000352E+00 0. -1.
</event>
<event>
 5   0  0.6872500E-03  0.7997113E+03  0.7818609E-02  0.9560435E-01
        3   -1    0    0  501    0  0.00000000000E+00  0.00000000000E+00  0.13535878722E+04  0.13535878760E+04  0.10100000352E+00 0.  1.
       -3   -1    0    0    0  501  0.00000000000E+00  0.00000000000E+00 -0.11811905298E+03  0.11811909616E+03  0.10100000352E+00 0. -1.
    10030    2    1    2    0    0  0.00000000000E+00  0.00000000000E+00  0.12354688192E+04  0.14717069721E+04  0.79971132824E+03 0.  0.
        3    1    3    3  502    0 -0.37552120841E+00 -0.24742267076E+03  0.11957942398E+04  0.12211232506E+04  0.10100000352E+00 0.  1.
       -3    1    3    3    0  502  0.37552120841E+00  0.24742267076E+03  0.39674579380E+02  0.25058372148E+03  0.10100000352E+00 0. -1.
</event>
<event>
 5   0  0.1049780E-02  0.8159334E+03  0.7818609E-02  0.9537236E-01
       -1   -1    0    0    0  501  0.00000000000E+00  0.00000000000E+00  0.48994558060E+03  0.48994558063E+03  0.50400001928E-02 0.  1.
        1   -1    0    0  501    0  0.00000000000E+00  0.00000000000E+00 -0.33970468337E+03  0.33970468341E+03  0.50400001928E-02 0. -1.
    10030    2    1    2    0    0  0.00000000000E+00  0.00000000000E+00  0.15024089723E+03  0.82965026404E+03  0.81593335109E+03 0.  0.
        5    1    3    3  502    0  0.15013473093E+03 -0.37370154776E+03  0.90556099419E+01  0.40286148774E+03  0.46999998093E+01 0. -1.
       -5    1    3    3    0  502 -0.15013473093E+03  0.37370154776E+03  0.14118528729E+03  0.42678877630E+03  0.46999998093E+01 0.  1.
</event>
<event>
 5   0  0.1025900E-02  0.8013970E+03  0.7818609E-02  0.9557997E-01
        1   -1    0    0  501    0  0.00000000000E+00  0.00000000000E+00  0.12694772912E+04  0.12694772913E+04  0.50400001928E-02 0. -1.
       -1   -1    0    0    0  501  0.00000000000E+00  0.00000000000E+00 -0.12647668977E+03  0.12647668987E+03  0.50400001928E-02 0.  1.
    10030    2    1    2    0    0  0.00000000000E+00  0.00000000000E+00  0.11430006015E+04  0.13959539811E+04  0.80139699429E+03 0.  0.
        1    1    3    3  502    0  0.22605598087E+03  0.17337626911E+03  0.10623289986E+04  0.10998652365E+04  0.50400001928E-02 0. -1.
       -1    1    3    3    0  502 -0.22605598087E+03 -0.17337626911E+03  0.80671602919E+02  0.29608874467E+03  0.50400001928E-02 0.  1.
</event>
<event>
 5   0  0.6872500E-03  0.8003281E+03  0.7818609E-02  0.9559542E-01
        3   -1    0    0  501    0  0.00000000000E+00  0.00000000000E+00  0.41840287078E+03  0.41840288297E+03  0.10100000352E+00 0. -1.
       -3   -1    0    0    0  501  0.00000000000E+00  0.00000000000E+00 -0.38272030447E+03  0.38272031779E+03  0.10100000352E+00 0.  1.
    10030    2    1    2    0    0  0.00000000000E+00  0.00000000000E+00  0.35682566309E+02  0.80112320076E+03  0.80032814349E+03 0.  0.
        4    1    3    3  502    0  0.39121625908E+03 -0.84042306564E+02  0.13787475881E+02  0.40038104108E+03  0.12699999809E+01 0. -1.
       -4    1    3    3    0  502 -0.39121625908E+03  0.84042306564E+02  0.21895090428E+02  0.40074215968E+03  0.12699999809E+01 0.  1.
</event>
<event>
 5   0  0.1747544E-02  0.7408775E+03  0.7818609E-02  0.9649772E-01
        2   -1    0    0  501    0  0.00000000000E+00  0.00000000000E+00  0.25640224274E+04  0.25640224274E+04  0.25500000920E-02 0.  1.
       -2   -1    0    0    0  501  0.00000000000E+00  0.00000000000E+00 -0.53519363814E+02  0.53519363874E+02  0.25500000920E-02 0. -1.
    10030    2    1    2    0    0  0.00000000000E+00  0.00000000000E+00  0.25105030636E+04  0.26175417913E+04  0.74087745060E+03 0.  0.
        1    1    3    3  502    0  0.57671942308E+02  0.85544140611E+02  0.25122406045E+04  0.25143581105E+04  0.50400001928E-02 0.  1.
       -1    1    3    3    0  502 -0.57671942308E+02 -0.85544140611E+02 -0.17375408264E+01  0.10318368086E+03  0.50400001928E-02 0. -1.
</event>
<event>
 5   0  0.1025900E-02  0.7884844E+03  0.7818609E-02  0.9576837E-01
        1   -1    0    0  501    0  0.00000000000E+00  0.00000000000E+00  0.61660600498E+03  0.61660600500E+03  0.50400001928E-02 0. -1.
       -1   -1    0    0    0  501  0.00000000000E+00  0.00000000000E+00 -0.25206844444E+03  0.25206844449E+03  0.50400001928E-02 0.  1.
    10030    2    1    2    0    0  0.00000000000E+00  0.00000000000E+00  0.36453756054E+03  0.86867444949E+03  0.78848441084E+03 0.  0.
        1    1    3    3  502    0  0.19880073730E+03  0.28405796054E+03  0.38901403125E+03  0.52109747133E+03  0.50400001928E-02 0. -1.
       -1    1    3    3    0  502 -0.19880073730E+03 -0.28405796054E+03 -0.24476470704E+02  0.34757697815E+03  0.50400001928E-02 0.  1.
</event>
<event>
 5   0  0.1731337E-02  0.8137939E+03  0.7818609E-02  0.9540263E-01
       -2   -1    0    0    0  501  0.00000000000E+00  0.00000000000E+00  0.74965607908E+02  0.74965607951E+02  0.25500000920E-02 0. -1.
        2   -1    0    0  501    0  0.00000000000E+00  0.00000000000E+00 -0.22085478223E+04  0.22085478223E+04  0.25500000920E-02 0.  1.
    10030    2    1    2    0    0  0.00000000000E+00  0.00000000000E+00 -0.21335822144E+04  0.22835134303E+04  0.81379390547E+03 0.  0.
        4    1    3    3  502    0  0.97659392940E+02  0.10990034630E+03 -0.21314048462E+04  0.21364699096E+04  0.12699999809E+01 0.  1.
       -4    1    3    3    0  502 -0.97659392940E+02 -0.10990034630E+03 -0.21773681911E+01  0.14704352069E+03  0.12699999809E+01 0. -1.
</event>
<event>
 5   0  0.1673727E-02  0.8045184E+03  0.7818609E-02  0.9553500E-01
        2   -1    0    0  501    0  0.00000000000E+00  0.00000000000E+00  0.64937877206E+03  0.64937877206E+03  0.25500000920E-02 0.  1.
       -2   -1    0    0    0  501  0.00000000000E+00  0.00000000000E+00 -0.24918039932E+03  0.24918039933E+03  0.25500000920E-02 0. -1.
    10030    2    1    2    0    0  0.00000000000E+00  0.00000000000E+00  0.40019837274E+03  0.89855917139E+03  0.80451839442E+03 0.  0.
        5    1    3    3  502    0  0.53216066918E+02 -0.23651498275E+03  0.55858299664E+03  0.60894034271E+03  0.46999998093E+01 0.  1.
       -5    1    3    3    0  502 -0.53216066918E+02  0.23651498275E+03 -0.15838462390E+03  0.28961882869E+03  0.46999998093E+01 0. -1.
</event>
<event>
 5   0  0.1038912E-02  0.8014277E+03  0.7818609E-02  0.9557953E-01
        1   -1    0    0  501    0  0.00000000000E+00  0.00000000000E+00  0.22019438228E+03  0.22019438234E+03  0.50400001928E-02 0. -1.
       -1   -1    0    0    0  501  0.00000000000E+00  0.00000000000E+00 -0.72922654771E+03  0.72922654772E+03  0.50400001928E-02 0.  1.
    10030    2    1    2    0    0  0.00000000000E+00  0.00000000000E+00 -0.50903216542E+03  0.94942093007E+03  0.80142769918E+03 0.  0.
        2    1    3    3  502    0 -0.33702398065E+03 -0.35438974928E+02 -0.11797668506E+01  0.33888416359E+03  0.25500000920E-02 0. -1.
       -2    1    3    3    0  502  0.33702398065E+03  0.35438974928E+02 -0.50785239857E+03  0.61053676647E+03  0.25500000920E-02 0.  1.
</event>
<event>
 5   0  0.1025900E-02  0.8028101E+03  0.7818609E-02  0.9555958E-01
       -1   -1    0    0    0  501  0.00000000000E+00  0.00000000000E+00  0.10634738259E+03  0.10634738271E+03  0.50400001928E-02 0. -1.
        1   -1    0    0  501    0  0.00000000000E+00  0.00000000000E+00 -0.15150916643E+04  0.15150916644E+04  0.50400001928E-02 0.  1.
    10030    2    1    2    0    0  0.00000000000E+00  0.00000000000E+00 -0.14087442818E+04  0.16214390471E+04  0.80281014689E+03 0.  0.
        1    1    3    3  502    0  0.37573419671E+03  0.12380731321E+03 -0.56706796554E+03  0.69142643495E+03  0.50400001928E-02 0. -1.
       -1    1    3    3    0  502 -0.37573419671E+03 -0.12380731321E+03 -0.84167631622E+03  0.93001261211E+03  0.50400001928E-02 0.  1.
</event>
<event>
 5   0  0.1817089E-02  0.7967498E+03  0.7818609E-02  0.9564734E-01
        2   -1    0    0  501    0  0.00000000000E+00  0.00000000000E+00  0.62555827805E+03  0.62555827805E+03  0.25500000920E-02 0. -1.
       -2   -1    0    0    0  501  0.00000000000E+00  0.00000000000E+00 -0.25369751294E+03  0.25369751295E+03  0.25500000920E-02 0.  1.
    10030    2    1    2    0    0  0.00000000000E+00  0.00000000000E+00  0.37186076511E+03  0.87925579100E+03  0.79674984617E+03 0.  0.
        2    1    3    3  502    0  0.29558581890E+03  0.16232044461E+03  0.41998689071E+03  0.53861664609E+03  0.25500000920E-02 0. -1.
       -2    1    3    3    0  502 -0.29558581890E+03 -0.16232044461E+03 -0.48126125600E+02  0.34063914491E+03  0.25500000920E-02 0.  1.
</event>
<event>
 5   0  0.1030323E-02  0.8023432E+03  0.7818609E-02  0.9556632E-01
       -1   -1    0    0    0  501  0.00000000000E+00  0.00000000000E+00  0.22935565696E+03  0.22935565702E+03  0.50400001928E-02 0.  1.
        1   -1    0    0  501    0  0.00000000000E+00  0.00000000000E+00 -0.70169903385E+03  0.70169903387E+03  0.50400001928E-02 0. -1.
    10030    2    1    2    0    0  0.00000000000E+00  0.00000000000E+00 -0.47234337688E+03  0.93105469089E+03  0.80234317579E+03 0.  0.
        3    1    3    3  502    0 -0.94231081370E+02  0.14094705352E+03 -0.65808124644E+03  0.67957082464E+03  0.10100000352E+00 0. -1.
       -3    1    3    3    0  502  0.94231081370E+02 -0.14094705352E+03  0.18573786955E+03  0.25148386624E+03  0.10100000352E+00 0.  1.
</event>
<event>
 5   0  0.1030323E-02  0.7995213E+03  0.7818609E-02  0.9560710E-01
        1   -1    0    0  501    0  0.00000000000E+00  0.00000000000E+00  0.36027912412E+03  0.36027912416E+03  0.50400001928E-02 0.  1.
       -1   -1    0    0    0  501  0.00000000000E+00  0.00000000000E+00 -0.44356874850E+03  0.44356874853E+03  0.50400001928E-02 0. -1.
    10030    2    1    2    0    0  0.00000000000E+00  0.00000000000E+00 -0.83289624374E+02  0.80384787269E+03  0.79952125731E+03 0.  0.
        3    1    3    3  502    0  0.17342602350E+03 -0.20343136635E+03  0.25719698322E+03  0.37095984260E+03  0.10100000352E+00 0.  1.
       -3    1    3    3    0  502 -0.17342602350E+03  0.20343136635E+03 -0.34048660759E+03  0.43288803009E+03  0.10100000352E+00 0. -1.
</event>
<event>
 5   0  0.1817089E-02  0.8026851E+03  0.7818609E-02  0.9556139E-01
        2   -1    0    0  501    0  0.00000000000E+00  0.00000000000E+00  0.15450817874E+04  0.15450817874E+04  0.25500000920E-02 0. -1.
       -2   -1    0    0    0  501  0.00000000000E+00  0.00000000000E+00 -0.10425069026E+03  0.10425069029E+03  0.25500000920E-02 0.  1.
    10030    2    1    2    0    0  0.00000000000E+00  0.00000000000E+00  0.14408310971E+04  0.16493324777E+04  0.80268510107E+03 0.  0.
        2    1    3    3  502    0 -0.36831134433E+03 -0.75616870057E+02  0.43198067880E+03  0.57269404071E+03  0.25500000920E-02 0.  1.
       -2    1    3    3    0  502  0.36831134433E+03  0.75616870057E+02  0.10088504183E+04  0.10766384370E+04  0.25500000920E-02 0. -1.
</event>
<event>
 5   0  0.1049780E-02  0.7977279E+03  0.7818609E-02  0.9563312E-01
       -1   -1    0    0    0  501  0.00000000000E+00  0.00000000000E+00  0.56119159750E+03  0.56119159752E+03  0.50400001928E-02 0.  1.
        1   -1    0    0  501    0  0.00000000000E+00  0.00000000000E+00 -0.28349042995E+03  0.28349042999E+03  0.50400001928E-02 0. -1.
    10030    2    1    2    0    0  0.00000000000E+00  0.00000000000E+00  0.27770116755E+03  0.84468202751E+03  0.79772789167E+03 0.  0.
        5    1    3    3  502    0 -0.31354848706E+03  0.99756058100E+02  0.37752058035E+03  0.50080715196E+03  0.46999998093E+01 0.  1.
       -5    1    3    3    0  502  0.31354848706E+03 -0.99756058100E+02 -0.99819412799E+02  0.34387487555E+03  0.46999998093E+01 0. -1.
</event>
<event>
 5   0  0.1818665E-02  0.8002706E+03  0.7818609E-02  0.9559626E-01
       -2   -1    0    0    0  501  0.00000000000E+00  0.00000000000E+00  0.23627366415E+03  0.23627366416E+03  0.25500000920E-02 0. -1.
        2   -1    0    0  501    0  0.00000000000E+00  0.00000000000E+00 -0.67763897449E+03  0.67763897450E+03  0.25500000920E-02 0.  1.
    10030    2    1    2    0    0  0.00000000000E+00  0.00000000000E+00 -0.44136531035E+03  0.91391263866E+03  0.80027056295E+03 0.  0.
        3    1    3    3  502    0  0.32170298335E+03  0.23754594431E+03 -0.23631386223E+03  0.46450526029E+03  0.10100000352E+00 0.  1.
       -3    1    3    3    0  502 -0.32170298335E+03 -0.23754594431E+03 -0.20505144812E+03  0.44940737837E+03  0.10100000352E+00 0. -1.
</event>
<event>
 5   0  0.1818665E-02  0.8086407E+03  0.7818609E-02  0.9547594E-01
        2   -1    0    0  501    0  0.00000000000E+00  0.00000000000E+00  0.53497355962E+03  0.53497355963E+03  0.25500000920E-02 0. -1.
       -2   -1    0    0    0  501  0.00000000000E+00  0.00000000000E+00 -0.30557573675E+03  0.30557573676E+03  0.25500000920E-02 0.  1.
    10030    2    1    2    0    0  0.00000000000E+00  0.00000000000E+00  0.22939782287E+03  0.84054929639E+03  0.80864068567E+03 0.  0.
        3    1    3    3  502    0 -0.25491014930E+03  0.18273280525E+03 -0.15052519485E+03  0.34789122843E+03  0.10100000352E+00 0.  1.
       -3    1    3    3    0  502  0.25491014930E+03 -0.18273280525E+03  0.37992301772E+03  0.49265806796E+03  0.10100000352E+00 0. -1.
</event>
<event>
 5   0  0.1817089E-02  0.8120109E+03  0.7818609E-02  0.9542793E-01
        2   -1    0    0  501    0  0.00000000000E+00  0.00000000000E+00  0.10779374281E+04  0.10779374281E+04  0.25500000920E-02 0.  1.
       -2   -1    0    0    0  501  0.00000000000E+00  0.00000000000E+00 -0.15292206511E+03  0.15292206513E+03  0.25500000920E-02 0. -1.
    10030    2    1    2    0    0  0.00000000000E+00  0.00000000000E+00  0.92501536295E+03  0.12308594932E+04  0.81201088065E+03 0.  0.
        2    1    3    3  502    0 -0.71693573580E+02 -0.29398712398E+01 -0.14323468160E+03  0.16020232631E+03  0.25500000920E-02 0. -1.
       -2    1    3    3    0  502  0.71693573580E+02  0.29398712398E+01  0.10682500445E+04  0.10706571669E+04  0.25500000920E-02 0.  1.
</event>
<event>
 5   0  0.1146083E-02  0.7884866E+03  0.7818609E-02  0.9576833E-01
       -1   -1    0    0    0  501  0.00000000000E+00  0.00000000000E+00  0.16718000514E+03  0.16718000521E+03  0.50400001928E-02 0.  1.
        1   -1    0    0  501    0  0.00000000000E+00  0.00000000000E+00 -0.92970324302E+03  0.92970324303E+03  0.50400001928E-02 0. -1.
    10030    2    1    2    0    0  0.00000000000E+00  0.00000000000E+00 -0.76252323788E+03  0.10968832482E+04  0.78848663399E+03 0.  0.
        4    1    3    3  502    0  0.20140088290E+03  0.14315855413E+03  0.46086580698E+02  0.25136084236E+03  0.12699999809E+01 0.  1.
       -4    1    3    3    0  502 -0.20140088290E+03 -0.14315855413E+03 -0.80860981858E+03  0.84552240588E+03  0.12699999809E+01 0. -1.
</event>
<event>
 5   0  0.1747544E-02  0.8015072E+03  0.7818609E-02  0.9557838E-01
       -2   -1    0    0    0  501  0.00000000000E+00  0.00000000000E+00  0.65347706182E+03  0.65347706183E+03  0.25500000920E-02 0.  1.
        2   -1    0    0  501    0  0.00000000000E+00  0.00000000000E+00 -0.24576752737E+03  0.24576752738E+03  0.25500000920E-02 0. -1.
    10030    2    1    2    0    0  0.00000000000E+00  0.00000000000E+00  0.40770953446E+03  0.89924458921E+03  0.80150718445E+03 0.  0.
        1    1    3    3  502    0  0.36097317316E+03  0.60252902660E+02  0.38708338308E+03  0.53269652665E+03  0.50400001928E-02 0.  1.
       -1    1    3    3    0  502 -0.36097317316E+03 -0.60252902660E+02  0.20626151373E+02  0.36654806256E+03  0.50400001928E-02 0. -1.
</event>
<event>
 5   0  0.1817089E-02  0.7966949E+03  0.7818609E-02  0.9564813E-01
       -2   -1    0    0    0  501  0.00000000000E+00  0.00000000000E+00  0.41423902980E+03  0.41423902980E+03  0.25500000920E-02 0.  1.
        2   -1    0    0  501    0  0.00000000000E+00  0.00000000000E+00 -0.38306554284E+03  0.38306554285E+03  0.25500000920E-02 0. -1.
    10030    2    1    2    0    0  0.00000000000E+00  0.00000000000E+00  0.31173486956E+02  0.79730457265E+03  0.79669491983E+03 0.  0.
        2    1    3    3  502    0  0.42617587088E+02 -0.28840941641E+03 -0.25606977215E+03  0.38803089879E+03  0.25500000920E-02 0. -1.
       -2    1    3    3    0  502 -0.42617587088E+02  0.28840941641E+03  0.28724325911E+03  0.40927367386E+03  0.25500000920E-02 0.  1.
</event>
<event>
 5   0  0.1747544E-02  0.7957943E+03  0.7818609E-02  0.9566125E-01
        2   -1    0    0  501    0  0.00000000000E+00  0.00000000000E+00  0.13373548938E+04  0.13373548938E+04  0.25500000920E-02 0.  1.
       -2   -1    0    0    0  501  0.00000000000E+00  0.00000000000E+00 -0.11838453063E+03  0.11838453066E+03  0.25500000920E-02 0. -1.
    10030    2    1    2    0    0  0.00000000000E+00  0.00000000000E+00  0.12189703631E+04  0.14557394244E+04  0.79579427344E+03 0.  0.
        1    1    3    3  502    0 -0.84209342505E+02  0.27621858782E+03  0.10873294239E+03  0.30856243195E+03  0.50400001928E-02 0. -1.
       -1    1    3    3    0  502  0.84209342505E+02 -0.27621858782E+03  0.11102374207E+04  0.11471769925E+04  0.50400001928E-02 0.  1.
</event>
<event>
 5   0  0.1818665E-02  0.7973635E+03  0.7818609E-02  0.9563841E-01
        2   -1    0    0  501    0  0.00000000000E+00  0.00000000000E+00  0.11297863492E+04  0.11297863492E+04  0.25500000920E-02 0.  1.
       -2   -1    0    0    0  501  0.00000000000E+00  0.00000000000E+00 -0.14068777566E+03  0.14068777568E+03  0.25500000920E-02 0. -1.
    10030    2    1    2    0    0  0.00000000000E+00  0.00000000000E+00  0.98909857357E+03  0.12704741249E+04  0.79736347661E+03 0.  0.
        3    1    3    3  502    0 -0.37402499879E+03  0.96989396250E+02  0.65103378008E+03  0.75706448583E+03  0.10100000352E+00 0.  1.
       -3    1    3    3    0  502  0.37402499879E+03 -0.96989396250E+02  0.33806479349E+03  0.51340963908E+03  0.10100000352E+00 0. -1.
</event>
<event>
 5   0  0.6872500E-03  0.8165560E+03  0.7818609E-02  0.9536357E-01
        4   -1    0    0  501    0  0.00000000000E+00  0.00000000000E+00  0.67575400071E+03  0.67575519412E+03  0.12699999809E+01 0. -1.
       -4   -1    0    0    0  501  0.00000000000E+00  0.00000000000E+00 -0.24667092514E+03  0.24667419445E+03  0.12699999809E+01 0.  1.
    10030    2    1    2    0    0  0.00000000000E+00  0.00000000000E+00  0.42908307558E+03  0.92242938857E+03  0.81655599389E+03 0.  0.
        5    1    3    3  502    0 -0.37643671698E+03  0.43940150080E+02  0.43095650276E+02  0.38146384330E+03  0.46999998093E+01 0.  1.
       -5    1    3    3    0  502  0.37643671698E+03 -0.43940150080E+02  0.38598742530E+03  0.54096554527E+03  0.46999998093E+01 0. -1.
</event>
<event>
 5   0  0.1818665E-02  0.7978904E+03  0.7818609E-02  0.9563076E-01
       -2   -1    0    0    0  501  0.00000000000E+00  0.00000000000E+00  0.20213381566E+03  0.20213381567E+03  0.25500000920E-02 0.  1.
        2   -1    0    0  501    0  0.00000000000E+00  0.00000000000E+00 -0.78738560186E+03  0.78738560186E+03  0.25500000920E-02 0. -1.
    10030    2    1    2    0    0  0.00000000000E+00  0.00000000000E+00 -0.58525178620E+03  0.98951941754E+03  0.79789035865E+03 0.  0.
        3    1    3    3  502    0 -0.10385181764E+03 -0.17406893845E+03  0.13351641756E+03  0.24271761230E+03  0.10100000352E+00 0.  1.
       -3    1    3    3    0  502  0.10385181764E+03  0.17406893845E+03 -0.71876820377E+03  0.74680180524E+03  0.10100000352E+00 0. -1.
</event>
<event>
 5   0  0.1731337E-02  0.7966659E+03  0.7818609E-02  0.9564856E-01
        2   -1    0    0  501    0  0.00000000000E+00  0.00000000000E+00  0.11104597200E+04  0.11104597200E+04  0.25500000920E-02 0.  1.
       -2   -1    0    0    0  501  0.00000000000E+00  0.00000000000E+00 -0.14288600145E+03  0.14288600147E+03  0.25500000920E-02 0. -1.
    10030    2    1    2    0    0  0.00000000000E+00  0.00000000000E+00  0.96757371856E+03  0.12533457215E+04  0.79666592542E+03 0.  0.
        4    1    3    3  502    0 -0.17456939163E+03 -0.34945967220E+03  0.36120539540E+03  0.53204086831E+03  0.12699999809E+01 0. -1.
       -4    1    3    3    0  502  0.17456939163E+03  0.34945967220E+03  0.60636832317E+03  0.72130485319E+03  0.12699999809E+01 0.  1.
</event>
<event>
 5   0  0.1025900E-02  0.8039465E+03  0.7818609E-02  0.9554322E-01
       -1   -1    0    0    0  501  0.00000000000E+00  0.00000000000E+00  0.36844170877E+03  0.36844170880E+03  0.50400001928E-02 0. -1.
        1   -1    0    0  501    0  0.00000000000E+00  0.00000000000E+00 -0.43855650301E+03  0.43855650304E+03  0.50400001928E-02 0.  1.
    10030    2    1    2    0    0  0.00000000000E+00  0.00000000000E+00 -0.70114794246E+02  0.80699821185E+03  0.80394653401E+03 0.  0.
        1    1    3    3  502    0  0.72137794152E+02  0.14808725585E+03  0.33300706564E+03  0.37152039309E+03  0.50400001928E-02 0. -1.
       -1    1    3    3    0  502 -0.72137794152E+02 -0.14808725585E+03 -0.40312185988E+03  0.43547781876E+03  0.50400001928E-02 0.  1.
</event>
<event>
 5   0  0.1038912E-02  0.7782211E+03  0.7818609E-02  0.9592087E-01
       -1   -1    0    0    0  501  0.00000000000E+00  0.00000000000E+00  0.45218201255E+03  0.45218201258E+03  0.50400001928E-02 0.  1.
        1   -1    0    0  501    0  0.00000000000E+00  0.00000000000E+00 -0.33483647709E+03  0.33483647713E+03  0.50400001928E-02 0. -1.
    10030    2    1    2    0    0  0.00000000000E+00  0.00000000000E+00  0.11734553547E+03  0.78701848971E+03  0.77822113082E+03 0.  0.
        2    1    3    3  502    0  0.85620102850E+02  0.34011424108E+03  0.22909642087E+03  0.41891964511E+03  0.25500000920E-02 0.  1.
       -2    1    3    3    0  502 -0.85620102850E+02 -0.34011424108E+03 -0.11175088540E+03  0.36809884460E+03  0.25500000920E-02 0. -1.
</event>
<event>
 5   0  0.1049780E-02  0.7975893E+03  0.7818609E-02  0.9563513E-01
       -1   -1    0    0    0  501  0.00000000000E+00  0.00000000000E+00  0.24993794347E+03  0.24993794352E+03  0.50400001928E-02 0.  1.
        1   -1    0    0  501    0  0.00000000000E+00  0.00000000000E+00 -0.63630657475E+03  0.63630657477E+03  0.50400001928E-02 0. -1.
    10030    2    1    2    0    0  0.00000000000E+00  0.00000000000E+00 -0.38636863128E+03  0.88624451830E+03  0.79758925957E+03 0.  0.
        5    1    3    3  502    0 -0.30957654599E+02  0.17273515340E+03  0.20469457015E+03  0.26966231966E+03  0.46999998093E+01 0.  1.
       -5    1    3    3    0  502  0.30957654599E+02 -0.17273515340E+03 -0.59106320143E+03  0.61658219864E+03  0.46999998093E+01 0. -1.
</event>
<event>
 5   0  0.6872500E-03  0.8047997E+03  0.7818609E-02  0.9553096E-01
       -3   -1    0    0    0  501  0.00000000000E+00  0.00000000000E+00  0.45863080348E+03  0.45863081460E+03  0.10100000352E+00 0.  1.
        3   -1    0    0  501    0  0.00000000000E+00  0.00000000000E+00 -0.35306311193E+03  0.35306312638E+03  0.10100000352E+00 0. -1.
    10030    2    1    2    0    0  0.00000000000E+00  0.00000000000E+00  0.10556769155E+03  0.81169394098E+03  0.80479967465E+03 0.  0.
        2    1    3    3  502    0  0.35914409888E+03 -0.18141535034E+03  0.58272520901E+02  0.40656081931E+03  0.25500000920E-02 0. -1.
       -2    1    3    3    0  502 -0.35914409888E+03  0.18141535034E+03  0.47295170646E+02  0.40513312167E+03  0.25500000920E-02 0.  1.
</event>
<event>
 5   0  0.1030323E-02  0.8508081E+03  0.7818609E-02  0.9489253E-01
       -1   -1    0    0    0  501  0.00000000000E+00  0.00000000000E+00  0.17430884045E+03  0.17430884052E+03  0.50400001928E-02 0. -1.
        1   -1    0    0  501    0  0.00000000000E+00  0.00000000000E+00 -0.10382068022E+04  0.10382068022E+04  0.50400001928E-02 0.  1.
    10030    2    1    2    0    0  0.00000000000E+00  0.00000000000E+00 -0.86389796175E+03  0.12125156427E+04  0.85080814263E+03 0.  0.
        3    1    3    3  502    0  0.13665260629E+03 -0.20340051329E+03 -0.92752468604E+03  0.95934756842E+03  0.10100000352E+00 0.  1.
       -3    1    3    3    0  502 -0.13665260629E+03  0.20340051329E+03  0.63626724291E+02  0.25316807432E+03  0.10100000352E+00 0. -1.
</event>
<event>
 5   0  0.1731337E-02  0.8033164E+03  0.7818609E-02  0.9555229E-01
        2   -1    0    0  501    0  0.00000000000E+00  0.00000000000E+00  0.22244424639E+04  0.22244424640E+04  0.25500000920E-02 0.  1.
       -2   -1    0    0    0  501  0.00000000000E+00  0.00000000000E+00 -0.72525722124E+02  0.72525722169E+02  0.25500000920E-02 0. -1.
    10030    2    1    2    0    0  0.00000000000E+00  0.00000000000E+00  0.21519167418E+04  0.22969681861E+04  0.80331636626E+03 0.  0.
        4    1    3    3  502    0  0.16163252388E+03  0.32968215828E+02  0.21231066586E+04  0.21295059222E+04  0.12699999809E+01 0.  1.
       -4    1    3    3    0  502 -0.16163252388E+03 -0.32968215828E+02  0.28810083193E+02  0.16746226388E+03  0.12699999809E+01 0. -1.
</event>
<event>
 5   0  0.1025900E-02  0.8183407E+03  0.7818609E-02  0.9533843E-01
       -1   -1    0    0    0  501  0.00000000000E+00  0.00000000000E+00  0.56756226713E+03  0.56756226716E+03  0.50400001928E-02 0. -1.
        1   -1    0    0  501    0  0.00000000000E+00  0.00000000000E+00 -0.29498150590E+03  0.29498150594E+03  0.50400001928E-02 0.  1.
    10030    2    1    2    0    0  0.00000000000E+00  0.00000000000E+00  0.27258076124E+03  0.86254377310E+03  0.81834069257E+03 0.  0.
        1    1    3    3  502    0  0.73300694547E+02 -0.24827401269E+03 -0.19769683788E+03  0.32572537041E+03  0.50400001928E-02 0.  1.
       -1    1    3    3    0  502 -0.73300694547E+02  0.24827401269E+03  0.47027759912E+03  0.53681840268E+03  0.50400001928E-02 0. -1.
</event>
<event>
 5   0  0.1673727E-02  0.7991368E+03  0.7818609E-02  0.9561267E-01
       -2   -1    0    0    0  501  0.00000000000E+00  0.00000000000E+00  0.14376939696E+03  0.14376939699E+03  0.25500000920E-02 0. -1.
        2   -1    0    0  501    0  0.00000000000E+00  0.00000000000E+00 -0.11104930782E+04  0.11104930782E+04  0.25500000920E-02 0.  1.
    10030    2    1    2    0    0  0.00000000000E+00  0.00000000000E+00 -0.96672368122E+03  0.12542624752E+04  0.79913683484E+03 0.  0.
        5    1    3    3  502    0 -0.11683966772E+03 -0.20540358082E+02 -0.10821696179E+04  0.10886627513E+04  0.46999998093E+01 0.  1.
       -5    1    3    3    0  502  0.11683966772E+03  0.20540358082E+02  0.11544593663E+03  0.16559972387E+03  0.46999998093E+01 0. -1.
</event>
<event>
 5   0  0.1673727E-02  0.8473315E+03  0.7818609E-02  0.9493926E-01
       -2   -1    0    0    0  501  0.00000000000E+00  0.00000000000E+00  0.33297145586E+03  0.33297145587E+03  0.25500000920E-02 0.  1.
        2   -1    0    0  501    0  0.00000000000E+00  0.00000000000E+00 -0.53906320126E+03  0.53906320126E+03  0.25500000920E-02 0. -1.
    10030    2    1    2    0    0  0.00000000000E+00  0.00000000000E+00 -0.20609174540E+03  0.87203465713E+03  0.84733147924E+03 0.  0.
        5    1    3    3  502    0  0.10990518906E+03 -0.11595084352E+03  0.30075361691E+03  0.34058563795E+03  0.46999998093E+01 0.  1.
       -5    1    3    3    0  502 -0.10990518906E+03  0.11595084352E+03 -0.50684536231E+03  0.53144901918E+03  0.46999998093E+01 0. -1.
</event>
<event>
 5   0  0.1673727E-02  0.7865234E+03  0.7818609E-02  0.9579731E-01
       -2   -1    0    0    0  501  0.00000000000E+00  0.00000000000E+00  0.45163334170E+03  0.45163334171E+03  0.25500000920E-02 0.  1.
        2   -1    0    0  501    0  0.00000000000E+00  0.00000000000E+00 -0.34243437694E+03  0.34243437695E+03  0.25500000920E-02 0. -1.
    10030    2    1    2    0    0  0.00000000000E+00  0.00000000000E+00  0.10919896476E+03  0.79406771866E+03  0.78652344397E+03 0.  0.
        5    1    3    3  502    0 -0.10686538599E+03 -0.91179453648E+02  0.42540816386E+03  0.44802689581E+03  0.46999998093E+01 0.  1.
       -5    1    3    3    0  502  0.10686538599E+03  0.91179453648E+02 -0.31620919910E+03  0.34604082285E+03  0.46999998093E+01 0. -1.
</event>
<event>
 5   0  0.1817089E-02  0.8016407E+03  0.7818609E-02  0.9557645E-01
        2   -1    0    0  501    0  0.00000000000E+00  0.00000000000E+00  0.78448654933E+03  0.78448654934E+03  0.25500000920E-02 0.  1.
       -2   -1    0    0    0  501  0.00000000000E+00  0.00000000000E+00 -0.20479248696E+03  0.20479248698E+03  0.25500000920E-02 0. -1.
    10030    2    1    2    0    0  0.00000000000E+00  0.00000000000E+00  0.57969406237E+03  0.98927903632E+03  0.80164069617E+03 0.  0.
        2    1    3    3  502    0 -0.60843777443E+02 -0.30321819365E+03 -0.24812966542E+02  0.31025621916E+03  0.25500000920E-02 0. -1.
       -2    1    3    3    0  502  0.60843777443E+02  0.30321819365E+03  0.60450702891E+03  0.67902281716E+03  0.25500000920E-02 0.  1.
</event>
<event>
 5   0  0.1146083E-02  0.7984621E+03  0.7818609E-02  0.9562246E-01
        1   -1    0    0  501    0  0.00000000000E+00  0.00000000000E+00  0.66519060271E+03  0.66519060272E+03  0.50400001928E-02 0.  1.
       -1   -1    0    0    0  501  0.00000000000E+00  0.00000000000E+00 -0.23960867982E+03  0.23960867987E+03  0.50400001928E-02 0. -1.
    10030    2    1    2    0    0  0.00000000000E+00  0.00000000000E+00  0.42558192289E+03  0.90479928259E+03  0.79846212727E+03 0.  0.
        4    1    3    3  502    0  0.13233225360E+03 -0.34011879079E+03  0.39618099278E+03  0.53865908433E+03  0.12699999809E+01 0.  1.
       -4    1    3    3    0  502 -0.13233225360E+03  0.34011879079E+03  0.29400930107E+02  0.36614019826E+03  0.12699999809E+01 0. -1.
</event>
<event>
 5   0  0.1747544E-02  0.7975907E+03  0.7818609E-02  0.9563511E-01
       -2   -1    0    0    0  501  0.00000000000E+00  0.00000000000E+00  0.25880770926E+03  0.25880770927E+03  0.25500000920E-02 0.  1.
        2   -1    0    0  501    0  0.00000000000E+00  0.00000000000E+00 -0.61450145258E+03  0.61450145259E+03  0.25500000920E-02 0. -1.
    10030    2    1    2    0    0  0.00000000000E+00  0.00000000000E+00 -0.35569374332E+03  0.87330916186E+03  0.79759065513E+03 0.  0.
        1    1    3    3  502    0  0.30140983750E+03  0.24006485422E+03 -0.65336397191E+02  0.39082971893E+03  0.50400001928E-02 0. -1.
       -1    1    3    3    0  502 -0.30140983750E+03 -0.24006485422E+03 -0.29035734613E+03  0.48247944293E+03  0.50400001928E-02 0.  1.
</event>
<event>
 5   0  0.1673727E-02  0.7994903E+03  0.7818609E-02  0.9560755E-01
        2   -1    0    0  501    0  0.00000000000E+00  0.00000000000E+00  0.11518974097E+04  0.11518974097E+04  0.25500000920E-02 0. -1.
       -2   -1    0    0    0  501  0.00000000000E+00  0.00000000000E+00 -0.13872431086E+03  0.13872431088E+03  0.25500000920E-02 0.  1.
    10030    2    1    2    0    0  0.00000000000E+00  0.00000000000E+00  0.10131730988E+04  0.12906217205E+04  0.79949027349E+03 0.  0.
        5    1    3    3  502    0 -0.63456331637E+02 -0.33189584150E+03  0.16189342115E+03  0.37471739410E+03  0.46999998093E+01 0. -1.
       -5    1    3    3    0  502  0.63456331637E+02  0.33189584150E+03  0.85127967764E+03  0.91590432644E+03  0.46999998093E+01 0.  1.
</event>
<event>
 5   0  0.1731337E-02  0.8210413E+03  0.7818609E-02  0.9530050E-01
        2   -1    0    0  501    0  0.00000000000E+00  0.00000000000E+00  0.32335339039E+03  0.32335339040E+03  0.25500000920E-02 0. -1.
       -2   -1    0    0    0  501  0.00000000000E+00  0.00000000000E+00 -0.52118587233E+03  0.52118587234E+03  0.25500000920E-02 0.  1.
    10030    2    1    2    0    0  0.00000000000E+00  0.00000000000E+00 -0.19783248194E+03  0.84453926274E+03  0.82104133599E+03 0.  0.
        4    1    3    3  502    0 -0.31298077101E+03  0.11244907894E+03 -0.34647797910E+03  0.48026072219E+03  0.12699999809E+01 0.  1.
       -4    1    3    3    0  502  0.31298077101E+03 -0.11244907894E+03  0.14864549716E+03  0.36427854055E+03  0.12699999809E+01 0. -1.
</event>
<event>
 5   0  0.1673727E-02  0.8028202E+03  0.7818609E-02  0.9555944E-01
       -2   -1    0    0    0  501  0.00000000000E+00  0.00000000000E+00  0.10842404885E+03  0.10842404888E+03  0.25500000920E-02 0.  1.
        2   -1    0    0  501    0  0.00000000000E+00  0.00000000000E+00 -0.14861099508E+04  0.14861099508E+04  0.25500000920E-02 0. -1.
    10030    2    1    2    0    0  0.00000000000E+00  0.00000000000E+00 -0.13776859020E+04  0.15945339997E+04  0.80282017396E+03 0.  0.
        5    1    3    3  502    0 -0.69404790198E+02 -0.20671388448E+03 -0.19530664865E+02  0.21897760572E+03  0.46999998093E+01 0.  1.
       -5    1    3    3    0  502  0.69404790198E+02  0.20671388448E+03 -0.13581552371E+04  0.13755563940E+04  0.46999998093E+01 0. -1.
</event>
<event>
 5   0  0.1673727E-02  0.8021324E+03  0.7818609E-02  0.9556936E-01
       -2   -1    0    0    0  501  0.00000000000E+00  0.00000000000E+00  0.44236435528E+03  0.44236435529E+03  0.25500000920E-02 0.  1.
        2   -1    0    0  501    0  0.00000000000E+00  0.00000000000E+00 -0.36362351206E+03  0.36362351207E+03  0.25500000920E-02 0. -1.
    10030    2    1    2    0    0  0.00000000000E+00  0.00000000000E+00  0.78740843222E+02  0.80598786735E+03  0.80213235936E+03 0.  0.
        5    1    3    3  502    0  0.66910387274E+02 -0.39541594486E+03  0.40480772247E+02  0.40310240919E+03  0.46999998093E+01 0.  1.
       -5    1    3    3    0  502 -0.66910387274E+02  0.39541594486E+03  0.38260070975E+02  0.40288545817E+03  0.46999998093E+01 0. -1.
</event>
<event>
 5   0  0.1146083E-02  0.8021724E+03  0.7818609E-02  0.9556878E-01
        1   -1    0    0  501    0  0.00000000000E+00  0.00000000000E+00  0.92705167129E+03  0.92705167131E+03  0.50400001928E-02 0.  1.
       -1   -1    0    0    0  501  0.00000000000E+00  0.00000000000E+00 -0.17352876742E+03  0.17352876750E+03  0.50400001928E-02 0. -1.
    10030    2    1    2    0    0  0.00000000000E+00  0.00000000000E+00  0.75352290387E+03  0.11005804388E+04  0.80217238523E+03 0.  0.
        4    1    3    3  502    0  0.15490149128E+03 -0.26854087195E+03  0.27615511889E+02  0.31124411851E+03  0.12699999809E+01 0. -1.
       -4    1    3    3    0  502 -0.15490149128E+03  0.26854087195E+03  0.72590739198E+03  0.78933632030E+03  0.12699999809E+01 0.  1.
</event>
<event>
 5   0  0.1030323E-02  0.7969163E+03  0.7818609E-02  0.9564491E-01
       -1   -1    0    0    0  501  0.00000000000E+00  0.00000000000E+00  0.57891123870E+03  0.57891123873E+03  0.50400001928E-02 0. -1.
        1   -1    0    0  501    0  0.00000000000E+00  0.00000000000E+00 -0.27425429660E+03  0.27425429665E+03  0.50400001928E-02 0.  1.
    10030    2    1    2    0    0  0.00000000000E+00  0.00000000000E+00  0.30465694210E+03  0.85316553538E+03  0.79691629321E+03 0.  0.
        3    1    3    3  502    0 -0.10855043776E+03 -0.38270193995E+03  0.17685656801E+03  0.43534150759E+03  0.10100000352E+00 0. -1.
       -3    1    3    3    0  502  0.10855043776E+03  0.38270193995E+03  0.12780037409E+03  0.41782402779E+03  0.10100000352E+00 0.  1.
</event>
<event>
 5   0  0.1049780E-02  0.7628145E+03  0.7818609E-02  0.9615458E-01
        1   -1    0    0  501    0  0.00000000000E+00  0.00000000000E+00  0.18112743550E+03  0.18112743557E+03  0.50400001928E-02 0.  1.
       -1   -1    0    0    0  501  0.00000000000E+00  0.00000000000E+00 -0.80314434594E+03  0.80314434596E+03  0.50400001928E-02 0. -1.
    10030    2    1    2    0    0  0.00000000000E+00  0.00000000000E+00 -0.62201691044E+03  0.98427178152E+03  0.76281446173E+03 0.  0.
        5    1    3    3  502    0 -0.80975964255E+02  0.26876878485E+03  0.22122124159E+02  0.28161186919E+03  0.46999998093E+01 0.  1.
       -5    1    3    3    0  502  0.80975964255E+02 -0.26876878485E+03 -0.64413903460E+03  0.70265991233E+03  0.46999998093E+01 0. -1.
</event>
<event>
 5   0  0.1747544E-02  0.8013559E+03  0.7818609E-02  0.9558057E-01
       -2   -1    0    0    0  501  0.00000000000E+00  0.00000000000E+00  0.19830918588E+03  0.19830918590E+03  0.25500000920E-02 0.  1.
        2   -1    0    0  501    0  0.00000000000E+00  0.00000000000E+00 -0.80955820898E+03  0.80955820899E+03  0.25500000920E-02 0. -1.
    10030    2    1    2    0    0  0.00000000000E+00  0.00000000000E+00 -0.61124902310E+03  0.10078673949E+04  0.80135592431E+03 0.  0.
        1    1    3    3  502    0  0.21457276258E+03  0.99021156938E+02 -0.71257665452E+03  0.75074106625E+03  0.50400001928E-02 0. -1.
       -1    1    3    3    0  502 -0.21457276258E+03 -0.99021156938E+02  0.10132763142E+03  0.25712632863E+03  0.50400001928E-02 0.  1.
</event>
<event>
 5   0  0.1673727E-02  0.7904934E+03  0.7818609E-02  0.9573880E-01
       -2   -1    0    0    0  501  0.00000000000E+00  0.00000000000E+00  0.12487412164E+03  0.12487412167E+03  0.25500000920E-02 0.  1.
        2   -1    0    0  501    0  0.00000000000E+00  0.00000000000E+00 -0.12510194035E+04  0.12510194035E+04  0.25500000920E-02 0. -1.
    10030    2    1    2    0    0  0.00000000000E+00  0.00000000000E+00 -0.11261452819E+04  0.13758935252E+04  0.79049338819E+03 0.  0.
        5    1    3    3  502    0  0.23698439284E+03  0.22699585475E+03 -0.17972008181E+03  0.37417925962E+03  0.46999998093E+01 0.  1.
       -5    1    3    3    0  502 -0.23698439284E+03 -0.22699585475E+03 -0.94642520006E+03  0.10017142656E+04  0.46999998093E+01 0. -1.
</event>
<event>
 5   0  0.1049780E-02  0.7735284E+03  0.7818609E-02  0.9599144E-01
        1   -1    0    0  501    0  0.00000000000E+00  0.00000000000E+00  0.44485737690E+03  0.44485737693E+03  0.50400001928E-02 0.  1.
       -1   -1    0    0    0  501  0.00000000000E+00  0.00000000000E+00 -0.33625728095E+03  0.33625728099E+03  0.50400001928E-02 0. -1.
    10030    2    1    2    0    0  0.00000000000E+00  0.00000000000E+00  0.10860009595E+03  0.78111465792E+03  0.77352836275E+03 0.  0.
        5    1    3    3  502    0 -0.11591863492E+02  0.34286343493E+02  0.44311460179E+03  0.44461507506E+03  0.46999998093E+01 0.  1.
       -5    1    3    3    0  502  0.11591863492E+02 -0.34286343493E+02 -0.33451450584E+03  0.33649958286E+03  0.46999998093E+01 0. -1.
</event>
<event>
 5   0  0.1025900E-02  0.8616067E+03  0.7818609E-02  0.9474890E-01
       -1   -1    0    0    0  501  0.00000000000E+00  0.00000000000E+00  0.20896533292E+03  0.20896533298E+03  0.50400001928E-02 0. -1.
        1   -1    0    0  501    0  0.00000000000E+00  0.00000000000E+00 -0.88814495054E+03  0.88814495055E+03  0.50400001928E-02 0.  1.
    10030    2    1    2    0    0  0.00000000000E+00  0.00000000000E+00 -0.67917961762E+03  0.10971102835E+04  0.86160665112E+03 0.  0.
        1    1    3    3  502    0 -0.46673592261E+02 -0.24874435776E+03  0.10432502137E+03  0.27374420513E+03  0.50400001928E-02 0. -1.
       -1    1    3    3    0  502  0.46673592261E+02  0.24874435776E+03 -0.78350463898E+03  0.82336607840E+03  0.50400001928E-02 0.  1.
</event>
<event>
 5   0  0.1731337E-02  0.7997686E+03  0.7818609E-02  0.9560352E-01
        2   -1    0    0  501    0  0.00000000000E+00  0.00000000000E+00  0.95109274012E+03  0.95109274012E+03  0.25500000920E-02 0. -1.
       -2   -1    0    0    0  501  0.00000000000E+00  0.00000000000E+00 -0.16813025306E+03  0.16813025308E+03  0.25500000920E-02 0.  1.
    10030    2    1    2    0    0  0.00000000000E+00  0.00000000000E+00  0.78296248706E+03  0.11192229932E+04  0.79976862427E+03 0.  0.
        4    1    3    3  502    0 -0.38917185632E+03 -0.91928625645E+02  0.39078965036E+03  0.55912768639E+03  0.12699999809E+01 0.  1.
       -4    1    3    3    0  502  0.38917185632E+03  0.91928625645E+02  0.39217283670E+03  0.56009530681E+03  0.12699999809E+01 0. -1.
</event>
<event>
 5   0  0.1025900E-02  0.7999720E+03  0.7818609E-02  0.9560058E-01
        1   -1    0    0  501    0  0.00000000000E+00  0.00000000000E+00  0.50953058885E+03  0.50953058887E+03  0.50400001928E-02 0.  1.
       -1   -1    0    0    0  501  0.00000000000E+00  0.00000000000E+00 -0.31399250235E+03  0.31399250239E+03  0.50400001928E-02 0. -1.
    10030    2    1    2    0    0  0.00000000000E+00  0.00000000000E+00  0.19553808650E+03  0.82352309126E+03  0.79997196112E+03 0.  0.
        1    1    3    3  502    0  0.84060216626E+00  0.23858977486E+03  0.42825453605E+03  0.49023232752E+03  0.50400001928E-02 0.  1.
       -1    1    3    3    0  502 -0.84060216626E+00 -0.23858977486E+03 -0.23271644955E+03  0.33329076374E+03  0.50400001928E-02 0. -1.
</event>
<event>
 5   0  0.1731337E-02  0.7949786E+03  0.7818609E-02  0.9567314E-01
        2   -1    0    0  501    0  0.00000000000E+00  0.00000000000E+00  0.12711278555E+04  0.12711278555E+04  0.25500000920E-02 0.  1.
       -2   -1    0    0    0  501  0.00000000000E+00  0.00000000000E+00 -0.12429728272E+03  0.12429728275E+03  0.25500000920E-02 0. -1.
    10030    2    1    2    0    0  0.00000000000E+00  0.00000000000E+00  0.11468305728E+04  0.13954251382E+04  0.79497858700E+03 0.  0.
        4    1    3    3  502    0  0.37263907014E+03  0.71364011863E+02  0.78142693612E+03  0.86866700650E+03  0.12699999809E+01 0.  1.
       -4    1    3    3    0  502 -0.37263907014E+03 -0.71364011863E+02  0.36540363665E+03  0.52675813174E+03  0.12699999809E+01 0. -1.
</event>
<event>
 5   0  0.1747544E-02  0.7981770E+03  0.7818609E-02  0.9562660E-01
        2   -1    0    0  501    0  0.00000000000E+00  0.00000000000E+00  0.11666645982E+04  0.11666645982E+04  0.25500000920E-02 0. -1.
       -2   -1    0    0    0  501  0.00000000000E+00  0.00000000000E+00 -0.13651878828E+03  0.13651878830E+03  0.25500000920E-02 0.  1.
    10030    2    1    2    0    0  0.00000000000E+00  0.00000000000E+00  0.10301458099E+04  0.13031833865E+04  0.79817701618E+03 0.  0.
        1    1    3    3  502    0  0.79765286983E+02 -0.18850773710E+03  0.10744339431E+04  0.10937577273E+04  0.50400001928E-02 0. -1.
       -1    1    3    3    0  502 -0.79765286983E+02  0.18850773710E+03 -0.44288133189E+02  0.20942565918E+03  0.50400001928E-02 0.  1.
</event>
<event>
 5   0  0.6872500E-03  0.8030349E+03  0.7818609E-02  0.9555635E-01
        4   -1    0    0  501    0  0.00000000000E+00  0.00000000000E+00  0.75742326076E+03  0.75742432549E+03  0.12699999809E+01 0. -1.
       -4   -1    0    0    0  501  0.00000000000E+00  0.00000000000E+00 -0.21284519540E+03  0.21284898427E+03  0.12699999809E+01 0.  1.
    10030    2    1    2    0    0  0.00000000000E+00  0.00000000000E+00  0.54457806536E+03  0.97027330976E+03  0.80303488490E+03 0.  0.
        4    1    3    3  502    0  0.13630161847E+03  0.14574477383E+03  0.69326763812E+03  0.72141617757E+03  0.12699999809E+01 0. -1.
       -4    1    3    3    0  502 -0.13630161847E+03 -0.14574477383E+03 -0.14868957276E+03  0.24885713220E+03  0.12699999809E+01 0.  1.
</event>
<event>
 5   0  0.1025900E-02  0.7978751E+03  0.7818609E-02  0.9563098E-01
       -1   -1    0    0    0  501  0.00000000000E+00  0.00000000000E+00  0.54839975072E+03  0.54839975074E+03  0.50400001928E-02 0.  1.
        1   -1    0    0  501    0  0.00000000000E+00  0.00000000000E+00 -0.29021012327E+03  0.29021012332E+03  0.50400001928E-02 0. -1.
    10030    2    1    2    0    0  0.00000000000E+00  0.00000000000E+00  0.25818962744E+03  0.83860987406E+03  0.79787507615E+03 0.  0.
        1    1    3    3  502    0  0.39661501365E+03  0.10315036961E+02  0.85235619048E+02  0.40580165084E+03  0.50400001928E-02 0. -1.
       -1    1    3    3    0  502 -0.39661501365E+03 -0.10315036961E+02  0.17295400840E+03  0.43280822322E+03  0.50400001928E-02 0.  1.
</event>
<event>
 5   0  0.6872500E-03  0.8004109E+03  0.7818609E-02  0.9559422E-01
       -3   -1    0    0    0  501  0.00000000000E+00  0.00000000000E+00  0.22989841411E+03  0.22989843629E+03  0.10100000352E+00 0. -1.
        3   -1    0    0  501    0  0.00000000000E+00  0.00000000000E+00 -0.69667465966E+03  0.69667466698E+03  0.10100000352E+00 0.  1.
    10030    2    1    2    0    0  0.00000000000E+00  0.00000000000E+00 -0.46677624556E+03  0.92657310328E+03  0.80041092715E+03 0.  0.
        2    1    3    3  502    0 -0.21766458882E+03 -0.31229435182E+03 -0.90391245755E+02  0.39124955300E+03  0.25500000920E-02 0. -1.
       -2    1    3    3    0  502  0.21766458882E+03  0.31229435182E+03 -0.37638499980E+03  0.53532355028E+03  0.25500000920E-02 0.  1.
</event>
<event>
 5   0  0.1731337E-02  0.8099212E+03  0.7818609E-02  0.9545767E-01
        2   -1    0    0  501    0  0.00000000000E+00  0.00000000000E+00  0.95082282880E+03  0.95082282880E+03  0.25500000920E-02 0. -1.
       -2   -1    0    0    0  501  0.00000000000E+00  0.00000000000E+00 -0.17247490771E+03  0.17247490773E+03  0.25500000920E-02 0.  1.
    10030    2    1    2    0    0  0.00000000000E+00  0.00000000000E+00  0.77834792109E+03  0.11232977365E+04  0.80992118050E+03 0.  0.
        4    1    3    3  502    0 -0.16845970923E+03 -0.34506016218E+03  0.21077090825E+03  0.43803102381E+03  0.12699999809E+01 0.  1.
       -4    1    3    3    0  502  0.16845970923E+03  0.34506016218E+03  0.56757701283E+03  0.68526671271E+03  0.12699999809E+01 0. -1.
</event>
<event>
 5   0  0.1146083E-02  0.8132697E+03  0.7818609E-02  0.9541006E-01
        1   -1    0    0  501    0  0.00000000000E+00  0.00000000000E+00  0.37013632242E+03  0.37013632245E+03  0.50400001928E-02 0. -1.
       -1   -1    0    0    0  501  0.00000000000E+00  0.00000000000E+00 -0.44673244706E+03  0.44673244709E+03  0.50400001928E-02 0.  1.
    10030    2    1    2    0    0  0.00000000000E+00  0.00000000000E+00 -0.76596124641E+02  0.81686876954E+03  0.81326970947E+03 0.  0.
        4    1    3    3  502    0 -0.91234680207E+02 -0.12613665063E+03 -0.41561468019E+03  0.44381459732E+03  0.12699999809E+01 0.  1.
       -4    1    3    3    0  502  0.91234680207E+02  0.12613665063E+03  0.33901855555E+03  0.37305417222E+03  0.12699999809E+01 0. -1.
</event>
<event>
 5   0  0.1731337E-02  0.8180869E+03  0.7818609E-02  0.9534200E-01
       -2   -1    0    0    0  501  0.00000000000E+00  0.00000000000E+00  0.13743283686E+03  0.13743283688E+03  0.25500000920E-02 0.  1.
        2   -1    0    0  501    0  0.00000000000E+00  0.00000000000E+00 -0.12174423133E+04  0.12174423133E+04  0.25500000920E-02 0. -1.
    10030    2    1    2    0    0  0.00000000000E+00  0.00000000000E+00 -0.10800094764E+04  0.13548751501E+04  0.81808691676E+03 0.  0.
        4    1    3    3  502    0 -0.34257984056E+03  0.53663708850E+02 -0.89933292920E+03  0.96386828522E+03  0.12699999809E+01 0. -1.
       -4    1    3    3    0  502  0.34257984056E+03 -0.53663708850E+02 -0.18067654719E+03  0.39100686492E+03  0.12699999809E+01 0.  1.
</event>
<event>
 5   0  0.1038912E-02  0.7986032E+03  0.7818609E-02  0.9562041E-01
        1   -1    0    0  501    0  0.00000000000E+00  0.00000000000E+00  0.27004259661E+03  0.27004259665E+03  0.50400001928E-02 0. -1.
       -1   -1    0    0    0  501  0.00000000000E+00  0.00000000000E+00 -0.59043195312E+03  0.59043195314E+03  0.50400001928E-02 0.  1.
    10030    2    1    2    0    0  0.00000000000E+00  0.00000000000E+00 -0.32038935651E+03  0.86047454979E+03  0.79860322506E+03 0.  0.
        2    1    3    3  502    0  0.17390424397E+03  0.32138741511E+03  0.13239285013E+02  0.36566082008E+03  0.25500000920E-02 0. -1.
       -2    1    3    3    0  502 -0.17390424397E+03 -0.32138741511E+03 -0.33362864152E+03  0.49481372971E+03  0.25500000920E-02 0.  1.
</event>
<event>
 5   0  0.1747544E-02  0.8007554E+03  0.7818609E-02  0.9558924E-01
        2   -1    0    0  501    0  0.00000000000E+00  0.00000000000E+00  0.88969243917E+03  0.88969243918E+03  0.25500000920E-02 0.  1.
       -2   -1    0    0    0  501  0.00000000000E+00  0.00000000000E+00 -0.18017719221E+03  0.18017719223E+03  0.25500000920E-02 0. -1.
    10030    2    1    2    0    0  0.00000000000E+00  0.00000000000E+00  0.70951524696E+03  0.10698696314E+04  0.80075535748E+03 0.  0.
        1    1    3    3  502    0 -0.30299360259E+02 -0.27889434127E+03 -0.26906984781E+02  0.28182280014E+03  0.50400001928E-02 0. -1.
       -1    1    3    3    0  502  0.30299360259E+02  0.27889434127E+03  0.73642223174E+03  0.78804683126E+03  0.50400001928E-02 0.  1.
</event>
<event>
 5   0  0.1030323E-02  0.8005682E+03  0.7818609E-02  0.9559195E-01
       -1   -1    0    0    0  501  0.00000000000E+00  0.00000000000E+00  0.25913949971E+03  0.25913949976E+03  0.50400001928E-02 0.  1.
        1   -1    0    0  501    0  0.00000000000E+00  0.00000000000E+00 -0.61830549419E+03  0.61830549421E+03  0.50400001928E-02 0. -1.
    10030    2    1    2    0    0  0.00000000000E+00  0.00000000000E+00 -0.35916599448E+03  0.87744499397E+03  0.80056823935E+03 0.  0.
        3    1    3    3  502    0  0.34817610032E+02 -0.10894054425E+03  0.24085052479E+03  0.26662575578E+03  0.10100000352E+00 0.  1.
       -3    1    3    3    0  502 -0.34817610032E+02  0.10894054425E+03 -0.60001651927E+03  0.61081923820E+03  0.10100000352E+00 0. -1.
</event>
<event>
 5   0  0.1025900E-02  0.7952300E+03  0.7818609E-02  0.9566947E-01
       -1   -1    0    0    0  501  0.00000000000E+00  0.00000000000E+00  0.75917665642E+03  0.75917665643E+03  0.50400001928E-02 0. -1.
        1   -1    0    0  501    0  0.00000000000E+00  0.00000000000E+00 -0.20824887559E+03  0.20824887565E+03  0.50400001928E-02 0.  1.
    10030    2    1    2    0    0  0.00000000000E+00  0.00000000000E+00  0.55092778083E+03  0.96742553208E+03  0.79522999216E+03 0.  0.
        1    1    3    3  502    0  0.81704788436E+02 -0.19355246430E+03 -0.13521272859E+03  0.24984137145E+03  0.50400001928E-02 0.  1.
       -1    1    3    3    0  502 -0.81704788436E+02  0.19355246430E+03  0.68614050942E+03  0.71758416063E+03  0.50400001928E-02 0. -1.
</event>
<event>
 5   0  0.1030323E-02  0.7944391E+03  0.7818609E-02  0.9568101E-01
        1   -1    0    0  501    0  0.00000000000E+00  0.00000000000E+00  0.86106105920E+03  0.86106105922E+03  0.50400001928E-02 0. -1.
       -1   -1    0    0    0  501  0.00000000000E+00  0.00000000000E+00 -0.18324295900E+03  0.18324295907E+03  0.50400001928E-02 0.  1.
    10030    2    1    2    0    0  0.00000000000E+00  0.00000000000E+00  0.67781810020E+03  0.10443040183E+04  0.79443911388E+03 0.  0.
        3    1    3    3  502    0 -0.24327140403E+02 -0.69068369647E+02 -0.17429361193E+03  0.18905164058E+03  0.10100000352E+00 0.  1.
       -3    1    3    3    0  502  0.24327140403E+02  0.69068369647E+02  0.85211171212E+03  0.85525237771E+03  0.10100000352E+00 0. -1.
</event>
<event>
 5   0  0.1818665E-02  0.8017337E+03  0.7818609E-02  0.9557511E-01
        2   -1    0    0  501    0  0.00000000000E+00  0.00000000000E+00  0.66070024035E+03  0.66070024036E+03  0.25500000920E-02 0. -1.
       -2   -1    0    0    0  501  0.00000000000E+00  0.00000000000E+00 -0.24321807349E+03  0.24321807350E+03  0.25500000920E-02 0.  1.
    10030    2    1    2    0    0  0.00000000000E+00  0.00000000000E+00  0.41748216686E+03  0.90391831386E+03  0.80173372043E+03 0.  0.
        3    1    3    3  502    0  0.33472546475E+03 -0.26869190962E+02  0.45557674874E+03  0.56596225526E+03  0.10100000352E+00 0. -1.
       -3    1    3    3    0  502 -0.33472546475E+03  0.26869190962E+02 -0.38094581882E+02  0.33795605860E+03  0.10100000352E+00 0.  1.
</event>
<event>
 5   0  0.1817089E-02  0.7965924E+03  0.7818609E-02  0.9564963E-01
       -2   -1    0    0    0  501  0.00000000000E+00  0.00000000000E+00  0.34971156128E+03  0.34971156129E+03  0.25500000920E-02 0. -1.
        2   -1    0    0  501    0  0.00000000000E+00  0.00000000000E+00 -0.45363062429E+03  0.45363062430E+03  0.25500000920E-02 0.  1.
    10030    2    1    2    0    0  0.00000000000E+00  0.00000000000E+00 -0.10391906301E+03  0.80334218559E+03  0.79659242746E+03 0.  0.
        2    1    3    3  502    0 -0.18529864857E+03  0.34954736722E+03 -0.98403233224E+02  0.40767897592E+03  0.25500000920E-02 0.  1.
       -2    1    3    3    0  502  0.18529864857E+03 -0.34954736722E+03 -0.55158297909E+01  0.39566320966E+03  0.25500000920E-02 0. -1.
</event>
<event>
 5   0  0.1038912E-02  0.7939073E+03  0.7818609E-02  0.9568878E-01
        1   -1    0    0  501    0  0.00000000000E+00  0.00000000000E+00  0.38645758441E+03  0.38645758444E+03  0.50400001928E-02 0.  1.
       -1   -1    0    0    0  501  0.00000000000E+00  0.00000000000E+00 -0.40773480706E+03  0.40773480709E+03  0.50400001928E-02 0. -1.
    10030    2    1    2    0    0  0.00000000000E+00  0.00000000000E+00 -0.21277222650E+02  0.79419239153E+03  0.79390732114E+03 0.  0.
        2    1    3    3  502    0 -0.30014097102E+03 -0.23993853355E+03  0.88981815629E+02  0.39442726311E+03  0.25500000920E-02 0.  1.
       -2    1    3    3    0  502  0.30014097102E+03  0.23993853355E+03 -0.11025903828E+03  0.39976512842E+03  0.25500000920E-02 0. -1.
</event>
<event>
 5   0  0.1747544E-02  0.7163527E+03  0.7818609E-02  0.9689668E-01
       -2   -1    0    0    0  501  0.00000000000E+00  0.00000000000E+00  0.54861166963E+02  0.54861167022E+02  0.25500000920E-02 0. -1.
        2   -1    0    0  501    0  0.00000000000E+00  0.00000000000E+00 -0.23384536052E+04  0.23384536052E+04  0.25500000920E-02 0.  1.
    10030    2    1    2    0    0  0.00000000000E+00  0.00000000000E+00 -0.22835924382E+04  0.23933147722E+04  0.71635268895E+03 0.  0.
        1    1    3    3  502    0  0.51293384623E+02  0.14231662327E+03 -0.57110130430E+02  0.16169910200E+03  0.50400001928E-02 0. -1.
       -1    1    3    3    0  502 -0.51293384623E+02 -0.14231662327E+03 -0.22264823078E+04  0.22316156702E+04  0.50400001928E-02 0.  1.
</event>
<event>
 5   0  0.1673727E-02  0.7970657E+03  0.7818609E-02  0.9564274E-01
       -2   -1    0    0    0  501  0.00000000000E+00  0.00000000000E+00  0.38040835613E+03  0.38040835614E+03  0.25500000920E-02 0.  1.
        2   -1    0    0  501    0  0.00000000000E+00  0.00000000000E+00 -0.41752092748E+03  0.41752092749E+03  0.25500000920E-02 0. -1.
    10030    2    1    2    0    0  0.00000000000E+00  0.00000000000E+00 -0.37112571356E+02  0.79792928363E+03  0.79706574303E+03 0.  0.
        5    1    3    3  502    0  0.23836799665E+03  0.26844597782E+03 -0.19172871090E+03  0.40701908238E+03  0.46999998093E+01 0. -1.
       -5    1    3    3    0  502 -0.23836799665E+03 -0.26844597782E+03  0.15461613954E+03  0.39091020125E+03  0.46999998093E+01 0.  1.
</event>
<event>
 5   0  0.1146083E-02  0.8007056E+03  0.7818609E-02  0.9558996E-01
        1   -1    0    0  501    0  0.00000000000E+00  0.00000000000E+00  0.16697278722E+03  0.16697278730E+03  0.50400001928E-02 0.  1.
       -1   -1    0    0    0  501  0.00000000000E+00  0.00000000000E+00 -0.95993099419E+03  0.95993099421E+03  0.50400001928E-02 0. -1.
    10030    2    1    2    0    0  0.00000000000E+00  0.00000000000E+00 -0.79295820697E+03  0.11269037815E+04  0.80070557308E+03 0.  0.
        4    1    3    3  502    0 -0.22573596366E+03 -0.30921719515E+03 -0.23169596050E+03  0.44750042467E+03  0.12699999809E+01 0.  1.
       -4    1    3    3    0  502  0.22573596366E+03  0.30921719515E+03 -0.56126224647E+03  0.67940335683E+03  0.12699999809E+01 0. -1.
</event>
<event>
 5   0  0.1747544E-02  0.8133800E+03  0.7818609E-02  0.9540850E-01
        2   -1    0    0  501    0  0.00000000000E+00  0.00000000000E+00  0.30082424922E+04  0.30082424922E+04  0.25500000920E-02 0. -1.
       -2   -1    0    0    0  501  0.00000000000E+00  0.00000000000E+00 -0.54981190191E+02  0.54981190251E+02  0.25500000920E-02 0.  1.
    10030    2    1    2    0    0  0.00000000000E+00  0.00000000000E+00  0.29532613021E+04  0.30632236825E+04  0.81337999164E+03 0.  0.
        1    1    3    3  502    0  0.25821287093E+03 -0.22331430188E+03  0.64422798760E+03  0.72909043621E+03  0.50400001928E-02 0.  1.
       -1    1    3    3    0  502 -0.25821287093E+03  0.22331430188E+03  0.23090333145E+04  0.23341332463E+04  0.50400001928E-02 0. -1.
</event>
<event>
 5   0  0.1025900E-02  0.7922437E+03  0.7818609E-02  0.9571312E-01
       -1   -1    0    0    0  501  0.00000000000E+00  0.00000000000E+00  0.98409622339E+02  0.98409622468E+02  0.50400001928E-02 0.  1.
        1   -1    0    0  501    0  0.00000000000E+00  0.00000000000E+00 -0.15944833722E+04  0.15944833722E+04  0.50400001928E-02 0. -1.
    10030    2    1    2    0    0  0.00000000000E+00  0.00000000000E+00 -0.14960737499E+04  0.16928929947E+04  0.79224366605E+03 0.  0.
        1    1    3    3  502    0  0.28729251304E+02  0.28304029399E+03 -0.15904808928E+03  0.32593476745E+03  0.50400001928E-02 0.  1.
       -1    1    3    3    0  502 -0.28729251304E+02 -0.28304029399E+03 -0.13370256606E+04  0.13669582272E+04  0.50400001928E-02 0. -1.
</event>
<event>
 5   0  0.1747544E-02  0.7990014E+03  0.7818609E-02  0.9561464E-01
        2   -1    0    0  501    0  0.00000000000E+00  0.00000000000E+00  0.10558794210E+04  0.10558794210E+04  0.25500000920E-02 0.  1.
       -2   -1    0    0    0  501  0.00000000000E+00  0.00000000000E+00 -0.15115437901E+03  0.15115437903E+03  0.25500000920E-02 0. -1.
    10030    2    1    2    0    0  0.00000000000E+00  0.00000000000E+00  0.90472504201E+03  0.12070338000E+04  0.79900137223E+03 0.  0.
        1    1    3    3  502    0  0.20437972875E+02  0.27437499378E+03  0.14783350914E+02  0.27553202253E+03  0.50400001928E-02 0. -1.
       -1    1    3    3    0  502 -0.20437972875E+02 -0.27437499378E+03  0.88994169110E+03  0.93150177752E+03  0.50400001928E-02 0.  1.
</event>
<event>
 5   0  0.1146083E-02  0.8026747E+03  0.7818609E-02  0.9556154E-01
        1   -1    0    0  501    0  0.00000000000E+00  0.00000000000E+00  0.60691278385E+03  0.60691278387E+03  0.50400001928E-02 0.  1.
       -1   -1    0    0    0  501  0.00000000000E+00  0.00000000000E+00 -0.26539510271E+03  0.26539510276E+03  0.50400001928E-02 0. -1.
    10030    2    1    2    0    0  0.00000000000E+00  0.00000000000E+00  0.34151768114E+03  0.87230788663E+03  0.80267473023E+03 0.  0.
        4    1    3    3  502    0 -0.14329724823E+03 -0.22819677905E+03 -0.15246922817E+03  0.30960676633E+03  0.12699999809E+01 0. -1.
       -4    1    3    3    0  502  0.14329724823E+03  0.22819677905E+03  0.49398690931E+03  0.56270112030E+03  0.12699999809E+01 0.  1.
</event>
<event>
 5   0  0.1817089E-02  0.8015173E+03  0.7818609E-02  0.9557824E-01
       -2   -1    0    0    0  501  0.00000000000E+00  0.00000000000E+00  0.17957612224E+03  0.17957612225E+03  0.25500000920E-02 0.  1.
        2   -1    0    0  501    0  0.00000000000E+00  0.00000000000E+00 -0.89436992661E+03  0.89436992661E+03  0.25500000920E-02 0. -1.
    10030    2    1    2    0    0  0.00000000000E+00  0.00000000000E+00 -0.71479380437E+03  0.10739460489E+04  0.80151726937E+03 0.  0.
        2    1    3    3  502    0  0.35665797603E+03 -0.13647752126E+02 -0.11319711860E+03  0.37443926166E+03  0.25500000920E-02 0.  1.
       -2    1    3    3    0  502 -0.35665797603E+03  0.13647752126E+02 -0.60159668577E+03  0.69950678721E+03  0.25500000920E-02 0. -1.
</event>
<event>
 5   0  0.1817089E-02  0.7969924E+03  0.7818609E-02  0.9564381E-01
        2   -1    0    0  501    0  0.00000000000E+00  0.00000000000E+00  0.11021043188E+04  0.11021043188E+04  0.25500000920E-02 0. -1.
       -2   -1    0    0    0  501  0.00000000000E+00  0.00000000000E+00 -0.14408729685E+03  0.14408729688E+03  0.25500000920E-02 0.  1.
    10030    2    1    2    0    0  0.00000000000E+00  0.00000000000E+00  0.95801702191E+03  0.12461916156E+04  0.79699242696E+03 0.  0.
        2    1    3    3  502    0  0.29884424446E+03  0.16688738082E+03  0.79807833988E+03  0.86838258672E+03  0.25500000920E-02 0. -1.
       -2    1    3    3    0  502 -0.29884424446E+03 -0.16688738082E+03  0.15993868203E+03  0.37780902893E+03  0.25500000920E-02 0.  1.
</event>
<event>
 5   0  0.1146083E-02  0.7918878E+03  0.7818609E-02  0.9571834E-01
       -1   -1    0    0    0  501  0.00000000000E+00  0.00000000000E+00  0.66770980900E+03  0.66770980902E+03  0.50400001928E-02 0.  1.
        1   -1    0    0  501    0  0.00000000000E+00  0.00000000000E+00 -0.23478997180E+03  0.23478997186E+03  0.50400001928E-02 0. -1.
    10030    2    1    2    0    0  0.00000000000E+00  0.00000000000E+00  0.43291983719E+03  0.90249978087E+03  0.79188778816E+03 0.  0.
        4    1    3    3  502    0 -0.34633283189E+03 -0.74130012605E+02  0.41818116008E+03  0.54801348958E+03  0.12699999809E+01 0.  1.
       -4    1    3    3    0  502  0.34633283189E+03  0.74130012605E+02  0.14738677109E+02  0.35448629129E+03  0.12699999809E+01 0. -1.
</event>
<event>
 5   0  0.1049780E-02  0.8039951E+03  0.7818609E-02  0.9554252E-01
       -1   -1    0    0    0  501  0.00000000000E+00  0.00000000000E+00  0.24373048080E+03  0.24373048085E+03  0.50400001928E-02 0. -1.
        1   -1    0    0  501    0  0.00000000000E+00  0.00000000000E+00 -0.66303576870E+03  0.66303576872E+03  0.50400001928E-02 0.  1.
    10030    2    1    2    0    0  0.00000000000E+00  0.00000000000E+00 -0.41930528790E+03  0.90676624957E+03  0.80399509134E+03 0.  0.
        5    1    3    3  502    0  0.32440775676E+03  0.23283800071E+03 -0.15765010474E+03  0.42933620014E+03  0.46999998093E+01 0. -1.
       -5    1    3    3    0  502 -0.32440775676E+03 -0.23283800071E+03 -0.26165518316E+03  0.47743004943E+03  0.46999998093E+01 0.  1.
</event>
<event>
 5   0  0.6872500E-03  0.7812080E+03  0.7818609E-02  0.9587623E-01
       -4   -1    0    0    0  501  0.00000000000E+00  0.00000000000E+00  0.83640215516E+02  0.83649856853E+02  0.12699999809E+01 0.  1.
        4   -1    0    0  501    0  0.00000000000E+00  0.00000000000E+00 -0.18240251944E+04  0.18240256366E+04  0.12699999809E+01 0. -1.
    10030    2    1    2    0    0  0.00000000000E+00  0.00000000000E+00 -0.17403849789E+04  0.19076754934E+04  0.78120798340E+03 0.  0.
        5    1    3    3  502    0  0.34905590799E+03 -0.22393920442E+02 -0.44577047080E+03  0.56663472997E+03  0.46999998093E+01 0.  1.
       -5    1    3    3    0  502 -0.34905590799E+03  0.22393920442E+02 -0.12946145081E+04  0.13410407635E+04  0.46999998093E+01 0. -1.
</event>
<event>
 5   0  0.1818665E-02  0.8067145E+03  0.7818609E-02  0.9550349E-01
        2   -1    0    0  501    0  0.00000000000E+00  0.00000000000E+00  0.15860437964E+04  0.15860437964E+04  0.25500000920E-02 0.  1.
       -2   -1    0    0    0  501  0.00000000000E+00  0.00000000000E+00 -0.10258042968E+03  0.10258042971E+03  0.25500000920E-02 0. -1.
    10030    2    1    2    0    0  0.00000000000E+00  0.00000000000E+00  0.14834633667E+04  0.16886242261E+04  0.80671445793E+03 0.  0.
        3    1    3    3  502    0 -0.26035621063E+03  0.89815637243E+01  0.13863288378E+04  0.14105933793E+04  0.10100000352E+00 0.  1.
       -3    1    3    3    0  502  0.26035621063E+03 -0.89815637243E+01  0.97134528936E+02  0.27803084687E+03  0.10100000352E+00 0. -1.
</event>
<event>
 5   0  0.1038912E-02  0.7790187E+03  0.7818609E-02  0.9590893E-01
       -1   -1    0    0    0  501  0.00000000000E+00  0.00000000000E+00  0.15145003278E+03  0.15145003287E+03  0.50400001928E-02 0. -1.
        1   -1    0    0  501    0  0.00000000000E+00  0.00000000000E+00 -0.10017662451E+04  0.10017662451E+04  0.50400001928E-02 0.  1.
    10030    2    1    2    0    0  0.00000000000E+00  0.00000000000E+00 -0.85031621230E+03  0.11532162780E+04  0.77901869224E+03 0.  0.
        2    1    3    3  502    0  0.13712892820E+03  0.46794201084E+02  0.11007097607E+03  0.18196060009E+03  0.25500000920E-02 0. -1.
       -2    1    3    3    0  502 -0.13712892820E+03 -0.46794201084E+02 -0.96038718837E+03  0.97125567787E+03  0.25500000920E-02 0.  1.
</event>
<event>
 5   0  0.1025900E-02  0.8044338E+03  0.7818609E-02  0.9553621E-01
       -1   -1    0    0    0  501  0.00000000000E+00  0.00000000000E+00  0.13895950374E+03  0.13895950383E+03  0.50400001928E-02 0. -1.
        1   -1    0    0  501    0  0.00000000000E+00  0.00000000000E+00 -0.11642128921E+04  0.11642128921E+04  0.50400001928E-02 0.  1.
    10030    2    1    2    0    0  0.00000000000E+00  0.00000000000E+00 -0.10252533883E+04  0.13031723959E+04  0.80443382771E+03 0.  0.
        1    1    3    3  502    0 -0.22871278633E+02 -0.64492052319E+02 -0.11547142960E+04  0.11567399991E+04  0.50400001928E-02 0.  1.
       -1    1    3    3    0  502  0.22871278633E+02  0.64492052319E+02  0.12946090764E+03  0.14643239680E+03  0.50400001928E-02 0. -1.
</event>
<event>
 5   0  0.1747544E-02  0.8041394E+03  0.7818609E-02  0.9554045E-01
       -2   -1    0    0    0  501  0.00000000000E+00  0.00000000000E+00  0.90131745061E+02  0.90131745097E+02  0.25500000920E-02 0.  1.
        2   -1    0    0  501    0  0.00000000000E+00  0.00000000000E+00 -0.17935973672E+04  0.17935973672E+04  0.25500000920E-02 0. -1.
    10030    2    1    2    0    0  0.00000000000E+00  0.00000000000E+00 -0.17034656221E+04  0.18837291123E+04  0.80413944232E+03 0.  0.
        1    1    3    3  502    0  0.53106482139E+02 -0.34327849630E+03 -0.13260589811E+04  0.13708000751E+04  0.50400001928E-02 0. -1.
       -1    1    3    3    0  502 -0.53106482139E+02  0.34327849630E+03 -0.37740664096E+03  0.51292903713E+03  0.50400001928E-02 0.  1.
</event>
<event>
 5   0  0.1049780E-02  0.7935441E+03  0.7818609E-02  0.9569409E-01
        1   -1    0    0  501    0  0.00000000000E+00  0.00000000000E+00  0.49233441185E+03  0.49233441187E+03  0.50400001928E-02 0. -1.
       -1   -1    0    0    0  501  0.00000000000E+00  0.00000000000E+00 -0.31975836644E+03  0.31975836648E+03  0.50400001928E-02 0.  1.
    10030    2    1    2    0    0  0.00000000000E+00  0.00000000000E+00  0.17257604541E+03  0.81209277835E+03  0.79354406884E+03 0.  0.
        5    1    3    3  502    0  0.16523415997E+03 -0.24490310286E+02 -0.28199012123E+03  0.32778441297E+03  0.46999998093E+01 0.  1.
       -5    1    3    3    0  502 -0.16523415997E+03  0.24490310286E+02  0.45456616664E+03  0.48430836537E+03  0.46999998093E+01 0. -1.
</event>
<event>
 5   0  0.1049780E-02  0.8081071E+03  0.7818609E-02  0.9548356E-01
        1   -1    0    0  501    0  0.00000000000E+00  0.00000000000E+00  0.17297614664E+04  0.17297614664E+04  0.50400001928E-02 0.  1.
       -1   -1    0    0    0  501  0.00000000000E+00  0.00000000000E+00 -0.94382542551E+02  0.94382542686E+02  0.50400001928E-02 0. -1.
    10030    2    1    2    0    0  0.00000000000E+00  0.00000000000E+00  0.16353789238E+04  0.18241440091E+04  0.80810713481E+03 0.  0.
        5    1    3    3  502    0  0.34529502242E+03  0.18026466238E+02  0.12894801208E+04  0.13350410772E+04  0.46999998093E+01 0.  1.
       -5    1    3    3    0  502 -0.34529502242E+03 -0.18026466238E+02  0.34589880305E+03  0.48910293185E+03  0.46999998093E+01 0. -1.
</event>
<event>
 5   0  0.1817089E-02  0.8162062E+03  0.7818609E-02  0.9536851E-01
        2   -1    0    0  501    0  0.00000000000E+00  0.00000000000E+00  0.11351329042E+04  0.11351329042E+04  0.25500000920E-02 0. -1.
       -2   -1    0    0    0  501  0.00000000000E+00  0.00000000000E+00 -0.14672127340E+03  0.14672127342E+03  0.25500000920E-02 0.  1.
    10030    2    1    2    0    0  0.00000000000E+00  0.00000000000E+00  0.98841163079E+03  0.12818541776E+04  0.81620621217E+03 0.  0.
        2    1    3    3  502    0  0.17167973606E+03 -0.35594689358E+03  0.65418157346E+03  0.76428113537E+03  0.25500000920E-02 0. -1.
       -2    1    3    3    0  502 -0.17167973606E+03  0.35594689358E+03  0.33423005733E+03  0.51757304224E+03  0.25500000920E-02 0.  1.
</event>
<event>
 5   0  0.1817089E-02  0.7931516E+03  0.7818609E-02  0.9569983E-01
        2   -1    0    0  501    0  0.00000000000E+00  0.00000000000E+00  0.17518066010E+04  0.17518066010E+04  0.25500000920E-02 0.  1.
       -2   -1    0    0    0  501  0.00000000000E+00  0.00000000000E+00 -0.89777253201E+02  0.89777253237E+02  0.25500000920E-02 0. -1.
    10030    2    1    2    0    0  0.00000000000E+00  0.00000000000E+00  0.16620293478E+04  0.18415838543E+04  0.79315164960E+03 0.  0.
        2    1    3    3  502    0 -0.83678250706E+02  0.78254381086E+02 -0.50516040956E+02  0.12521049557E+03  0.25500000920E-02 0. -1.
       -2    1    3    3    0  502  0.83678250706E+02 -0.78254381086E+02  0.17125453888E+04  0.17163733587E+04  0.25500000920E-02 0.  1.
</event>
<event>
 5   0  0.1030323E-02  0.8523601E+03  0.7818609E-02  0.9487175E-01
        1   -1    0    0  501    0  0.00000000000E+00  0.00000000000E+00  0.14131256965E+04  0.14131256965E+04  0.50400001928E-02 0.  1.
       -1   -1    0    0    0  501  0.00000000000E+00  0.00000000000E+00 -0.12853026416E+03  0.12853026425E+03  0.50400001928E-02 0. -1.
    10030    2    1    2    0    0  0.00000000000E+00  0.00000000000E+00  0.12845954324E+04  0.15416559608E+04  0.85236006275E+03 0.  0.
        3    1    3    3  502    0  0.24245829059E+03 -0.31201057374E+03  0.93108165936E+03  0.10114591872E+04  0.10100000352E+00 0.  1.
       -3    1    3    3    0  502 -0.24245829059E+03  0.31201057374E+03  0.35351377301E+03  0.53019677358E+03  0.10100000352E+00 0. -1.
</event>
<event>
 5   0  0.1673727E-02  0.7927572E+03  0.7818609E-02  0.9570560E-01
        2   -1    0    0  501    0  0.00000000000E+00  0.00000000000E+00  0.30643653868E+03  0.30643653869E+03  0.25500000920E-02 0.  1.
       -2   -1    0    0    0  501  0.00000000000E+00  0.00000000000E+00 -0.51271951752E+03  0.51271951753E+03  0.25500000920E-02 0. -1.
    10030    2    1    2    0    0  0.00000000000E+00  0.00000000000E+00 -0.20628297884E+03  0.81915605622E+03  0.79275719933E+03 0.  0.
        5    1    3    3  502    0 -0.34933390133E+03  0.10277040443E+03  0.58588863087E+02  0.36885047854E+03  0.46999998093E+01 0.  1.
       -5    1    3    3    0  502  0.34933390133E+03 -0.10277040443E+03 -0.26487184193E+03  0.45030557768E+03  0.46999998093E+01 0. -1.
</event>
<event>
 5   0  0.1146083E-02  0.8528782E+03  0.7818609E-02  0.9486482E-01
       -1   -1    0    0    0  501  0.00000000000E+00  0.00000000000E+00  0.50157853526E+03  0.50157853528E+03  0.50400001928E-02 0. -1.
        1   -1    0    0  501    0  0.00000000000E+00  0.00000000000E+00 -0.36255600189E+03  0.36255600193E+03  0.50400001928E-02 0.  1.
    10030    2    1    2    0    0  0.00000000000E+00  0.00000000000E+00  0.13902253336E+03  0.86413453721E+03  0.85287820562E+03 0.  0.
        4    1    3    3  502    0 -0.22422073142E+03 -0.84658997479E+01  0.43692947092E+03  0.49117775124E+03  0.12699999809E+01 0. -1.
       -4    1    3    3    0  502  0.22422073142E+03  0.84658997479E+01 -0.29790693756E+03  0.37295678597E+03  0.12699999809E+01 0.  1.
</event>
<event>
 5   0  0.1817089E-02  0.7960647E+03  0.7818609E-02  0.9565731E-01
       -2   -1    0    0    0  501  0.00000000000E+00  0.00000000000E+00  0.18132434756E+03  0.18132434758E+03  0.25500000920E-02 0.  1.
        2   -1    0    0  501    0  0.00000000000E+00  0.00000000000E+00 -0.87373688926E+03  0.87373688927E+03  0.25500000920E-02 0. -1.
    10030    2    1    2    0    0  0.00000000000E+00  0.00000000000E+00 -0.69241254170E+03  0.10550612368E+04  0.79606474963E+03 0.  0.
        2    1    3    3  502    0  0.24213623824E+03  0.26420676021E+03 -0.57574227721E+03  0.67816984582E+03  0.25500000920E-02 0. -1.
       -2    1    3    3    0  502 -0.24213623824E+03 -0.26420676021E+03 -0.11667026449E+03  0.37689139103E+03  0.25500000920E-02 0.  1.
</event>
<event>
 5   0  0.1030323E-02  0.8016425E+03  0.7818609E-02  0.9557643E-01
       -1   -1    0    0    0  501  0.00000000000E+00  0.00000000000E+00  0.22615235314E+03  0.22615235320E+03  0.50400001928E-02 0. -1.
        1   -1    0    0  501    0  0.00000000000E+00  0.00000000000E+00 -0.71039577741E+03  0.71039577743E+03  0.50400001928E-02 0.  1.
    10030    2    1    2    0    0  0.00000000000E+00  0.00000000000E+00 -0.48424342427E+03  0.93654813063E+03  0.80164250575E+03 0.  0.
        3    1    3    3  502    0  0.30215199680E+03  0.22781700172E+03 -0.39650029271E+03  0.54809571040E+03  0.10100000352E+00 0.  1.
       -3    1    3    3    0  502 -0.30215199680E+03 -0.22781700172E+03 -0.87743131562E+02  0.38845242022E+03  0.10100000352E+00 0. -1.
</event>
<event>
 5   0  0.1049780E-02  0.8240657E+03  0.7818609E-02  0.9525822E-01
        1   -1    0    0  501    0  0.00000000000E+00  0.00000000000E+00  0.61737023616E+03  0.61737023618E+03  0.50400001928E-02 0. -1.
       -1   -1    0    0    0  501  0.00000000000E+00  0.00000000000E+00 -0.27499071724E+03  0.27499071729E+03  0.50400001928E-02 0.  1.
    10030    2    1    2    0    0  0.00000000000E+00  0.00000000000E+00  0.34237951892E+03  0.89236095347E+03  0.82406573543E+03 0.  0.
        5    1    3    3  502    0 -0.31024111415E+03 -0.24293167358E+03  0.40867779317E+02  0.39617876309E+03  0.46999998093E+01 0. -1.
       -5    1    3    3    0  502  0.31024111415E+03  0.24293167358E+03  0.30151173961E+03  0.49618219038E+03  0.46999998093E+01 0.  1.
</event>
<event>
 5   0  0.1038912E-02  0.7957627E+03  0.7818609E-02  0.9566171E-01
       -1   -1    0    0    0  501  0.00000000000E+00  0.00000000000E+00  0.11900932489E+03  0.11900932500E+03  0.50400001928E-02 0.  1.
        1   -1    0    0  501    0  0.00000000000E+00  0.00000000000E+00 -0.13302283128E+04  0.13302283128E+04  0.50400001928E-02 0. -1.
    10030    2    1    2    0    0  0.00000000000E+00  0.00000000000E+00 -0.12112189879E+04  0.14492376378E+04  0.79576271224E+03 0.  0.
        2    1    3    3  502    0 -0.35685107592E+03 -0.16389774544E+03 -0.72228548653E+03  0.82213227975E+03  0.25500000920E-02 0.  1.
       -2    1    3    3    0  502  0.35685107592E+03  0.16389774544E+03 -0.48893350140E+03  0.62710535809E+03  0.25500000920E-02 0. -1.
</event>
<event>
 5   0  0.1049780E-02  0.7972134E+03  0.7818609E-02  0.9564059E-01
        1   -1    0    0  501    0  0.00000000000E+00  0.00000000000E+00  0.19694311987E+03  0.19694311994E+03  0.50400001928E-02 0. -1.
       -1   -1    0    0    0  501  0.00000000000E+00  0.00000000000E+00 -0.80676755278E+03  0.80676755280E+03  0.50400001928E-02 0.  1.
    10030    2    1    2    0    0  0.00000000000E+00  0.00000000000E+00 -0.60982443291E+03  0.10037106727E+04  0.79721344419E+03 0.  0.
        5    1    3    3  502    0  0.22720810446E+03  0.29979753632E+03 -0.47081287270E+03  0.60265158808E+03  0.46999998093E+01 0.  1.
       -5    1    3    3    0  502 -0.22720810446E+03 -0.29979753632E+03 -0.13901156021E+03  0.40105908466E+03  0.46999998093E+01 0. -1.
</event>
<event>
 5   0  0.1817089E-02  0.8035039E+03  0.7818609E-02  0.9554959E-01
        2   -1    0    0  501    0  0.00000000000E+00  0.00000000000E+00  0.12835285352E+04  0.12835285352E+04  0.25500000920E-02 0.  1.
       -2   -1    0    0    0  501  0.00000000000E+00  0.00000000000E+00 -0.12575072395E+03  0.12575072397E+03  0.25500000920E-02 0. -1.
    10030    2    1    2    0    0  0.00000000000E+00  0.00000000000E+00  0.11577778112E+04  0.14092792591E+04  0.80350393285E+03 0.  0.
        2    1    3    3  502    0 -0.27175360550E+03  0.20531441862E+03  0.95260336130E+03  0.10116606133E+04  0.25500000920E-02 0.  1.
       -2    1    3    3    0  502  0.27175360550E+03 -0.20531441862E+03  0.20517444992E+03  0.39761864581E+03  0.25500000920E-02 0. -1.
</event>
<event>
 5   0  0.1817089E-02  0.8026528E+03  0.7818609E-02  0.9556185E-01
       -2   -1    0    0    0  501  0.00000000000E+00  0.00000000000E+00  0.13920325119E+03  0.13920325122E+03  0.25500000920E-02 0. -1.
        2   -1    0    0  501    0  0.00000000000E+00  0.00000000000E+00 -0.11570339710E+04  0.11570339710E+04  0.25500000920E-02 0.  1.
    10030    2    1    2    0    0  0.00000000000E+00  0.00000000000E+00 -0.10178307199E+04  0.12962372223E+04  0.80265282788E+03 0.  0.
        2    1    3    3  502    0 -0.13605238936E+03 -0.28140632365E+03 -0.91542890532E+03  0.96732096656E+03  0.25500000920E-02 0.  1.
       -2    1    3    3    0  502  0.13605238936E+03  0.28140632365E+03 -0.10240181453E+03  0.32891625571E+03  0.25500000920E-02 0. -1.
</event>
<event>
 5   0  0.1038912E-02  0.7890866E+03  0.7818609E-02  0.9575949E-01
        1   -1    0    0  501    0  0.00000000000E+00  0.00000000000E+00  0.99604772056E+03  0.99604772058E+03  0.50400001928E-02 0.  1.
       -1   -1    0    0    0  501  0.00000000000E+00  0.00000000000E+00 -0.15628209231E+03  0.15628209239E+03  0.50400001928E-02 0. -1.
    10030    2    1    2    0    0  0.00000000000E+00  0.00000000000E+00  0.83976562825E+03  0.11523298130E+04  0.78908661595E+03 0.  0.
        2    1    3    3  502    0 -0.12574353240E+03 -0.34804052374E+03  0.22007425508E+03  0.43055350406E+03  0.25500000920E-02 0. -1.
       -2    1    3    3    0  502  0.12574353240E+03  0.34804052374E+03  0.61969137317E+03  0.72177630891E+03  0.25500000920E-02 0.  1.
</event>
<event>
 5   0  0.1731337E-02  0.8473097E+03  0.7818609E-02  0.9493955E-01
        2   -1    0    0  501    0  0.00000000000E+00  0.00000000000E+00  0.99976529075E+03  0.99976529075E+03  0.25500000920E-02 0. -1.
       -2   -1    0    0    0  501  0.00000000000E+00  0.00000000000E+00 -0.17952558508E+03  0.17952558510E+03  0.25500000920E-02 0.  1.
    10030    2    1    2    0    0  0.00000000000E+00  0.00000000000E+00  0.82023970567E+03  0.11792908759E+04  0.84730973977E+03 0.  0.
        4    1    3    3  502    0  0.11686629381E+03  0.38885745483E+03  0.57837295083E+03  0.70667158848E+03  0.12699999809E+01 0. -1.
       -4    1    3    3    0  502 -0.11686629381E+03 -0.38885745483E+03  0.24186675483E+03  0.47261928737E+03  0.12699999809E+01 0.  1.
</event>
<event>
 5   0  0.6872500E-03  0.8083861E+03  0.7818609E-02  0.9547957E-01
        3   -1    0    0  501    0  0.00000000000E+00  0.00000000000E+00  0.48608175614E+03  0.48608176663E+03  0.10100000352E+00 0. -1.
       -3   -1    0    0    0  501  0.00000000000E+00  0.00000000000E+00 -0.33609982500E+03  0.33609984018E+03  0.10100000352E+00 0.  1.
    10030    2    1    2    0    0  0.00000000000E+00  0.00000000000E+00  0.14998193114E+03  0.82218160681E+03  0.80838605561E+03 0.  0.
        2    1    3    3  502    0  0.49121085988E+01  0.24426374215E+03  0.40248464943E+03  0.47083202692E+03  0.25500000920E-02 0. -1.
       -2    1    3    3    0  502 -0.49121085988E+01 -0.24426374215E+03 -0.25250271829E+03  0.35134957989E+03  0.25500000920E-02 0.  1.
</event>
<event>
 5   0  0.1049780E-02  0.8010991E+03  0.7818609E-02  0.9558428E-01
        1   -1    0    0  501    0  0.00000000000E+00  0.00000000000E+00  0.56064897605E+03  0.56064897608E+03  0.50400001928E-02 0.  1.
       -1   -1    0    0    0  501  0.00000000000E+00  0.00000000000E+00 -0.28616828834E+03  0.28616828839E+03  0.50400001928E-02 0. -1.
    10030    2    1    2    0    0  0.00000000000E+00  0.00000000000E+00  0.27448068771E+03  0.84681726446E+03  0.80109913960E+03 0.  0.
        5    1    3    3  502    0 -0.13701214676E+03 -0.10052042261E+03  0.52062463307E+03  0.54767580034E+03  0.46999998093E+01 0.  1.
       -5    1    3    3    0  502  0.13701214676E+03  0.10052042261E+03 -0.24614394536E+03  0.29914146412E+03  0.46999998093E+01 0. -1.
</event>
<event>
 5   0  0.1030323E-02  0.8013925E+03  0.7818609E-02  0.9558004E-01
       -1   -1    0    0    0  501  0.00000000000E+00  0.00000000000E+00  0.27570329822E+03  0.27570329826E+03  0.50400001928E-02 0. -1.
        1   -1    0    0  501    0  0.00000000000E+00  0.00000000000E+00 -0.58235603857E+03  0.58235603859E+03  0.50400001928E-02 0.  1.
    10030    2    1    2    0    0  0.00000000000E+00  0.00000000000E+00 -0.30665274036E+03  0.85805933685E+03  0.80139248960E+03 0.  0.
        3    1    3    3  502    0 -0.29703661949E+02  0.23276044363E+03 -0.50109758215E+03  0.55331593930E+03  0.10100000352E+00 0.  1.
       -3    1    3    3    0  502  0.29703661949E+02 -0.23276044363E+03  0.19444484179E+03  0.30474339755E+03  0.10100000352E+00 0. -1.
</event>
<event>
 5   0  0.1817089E-02  0.7998223E+03  0.7818609E-02  0.9560274E-01
       -2   -1    0    0    0  501  0.00000000000E+00  0.00000000000E+00  0.12919914906E+03  0.12919914909E+03  0.25500000920E-02 0. -1.
        2   -1    0    0  501    0  0.00000000000E+00  0.00000000000E+00 -0.12378480997E+04  0.12378480997E+04  0.25500000920E-02 0.  1.
    10030    2    1    2    0    0  0.00000000000E+00  0.00000000000E+00 -0.11086489506E+04  0.13670472487E+04  0.79982228316E+03 0.  0.
        2    1    3    3  502    0 -0.39446697093E+03  0.81985478960E+01 -0.44280054701E+03  0.59307986965E+03  0.25500000920E-02 0. -1.
       -2    1    3    3    0  502  0.39446697093E+03 -0.81985478960E+01 -0.66584840359E+03  0.77396737910E+03  0.25500000920E-02 0.  1.
</event>
<event>
 5   0  0.1025900E-02  0.7976937E+03  0.7818609E-02  0.9563361E-01
       -1   -1    0    0    0  501  0.00000000000E+00  0.00000000000E+00  0.47776980193E+03  0.47776980195E+03  0.50400001928E-02 0.  1.
        1   -1    0    0  501    0  0.00000000000E+00  0.00000000000E+00 -0.33296116994E+03  0.33296116998E+03  0.50400001928E-02 0. -1.
    10030    2    1    2    0    0  0.00000000000E+00  0.00000000000E+00  0.14480863199E+03  0.81073097193E+03  0.79769365608E+03 0.  0.
        1    1    3    3  502    0 -0.88548078681E+02 -0.13222690029E+03 -0.29929703564E+03  0.33897408598E+03  0.50400001928E-02 0. -1.
       -1    1    3    3    0  502  0.88548078681E+02  0.13222690029E+03  0.44410566763E+03  0.47175688595E+03  0.50400001928E-02 0.  1.
</event>
<event>
 5   0  0.1817089E-02  0.7980117E+03  0.7818609E-02  0.9562900E-01
       -2   -1    0    0    0  501  0.00000000000E+00  0.00000000000E+00  0.18930119812E+03  0.18930119814E+03  0.25500000920E-02 0.  1.
        2   -1    0    0  501    0  0.00000000000E+00  0.00000000000E+00 -0.84101781418E+03  0.84101781419E+03  0.25500000920E-02 0. -1.
    10030    2    1    2    0    0  0.00000000000E+00  0.00000000000E+00 -0.65171661606E+03  0.10303190123E+04  0.79801172894E+03 0.  0.
        2    1    3    3  502    0 -0.13810282475E+03 -0.25978876313E+03  0.22125942595E+02  0.29504601166E+03  0.25500000920E-02 0.  1.
       -2    1    3    3    0  502  0.13810282475E+03  0.25978876313E+03 -0.67384255865E+03  0.73527300067E+03  0.25500000920E-02 0. -1.
</event>
<event>
 5   0  0.1817089E-02  0.7338054E+03  0.7818609E-02  0.9661105E-01
       -2   -1    0    0    0  501  0.00000000000E+00  0.00000000000E+00  0.97068403740E+02  0.97068403773E+02  0.25500000920E-02 0.  1.
        2   -1    0    0  501    0  0.00000000000E+00  0.00000000000E+00 -0.13868324162E+04  0.13868324162E+04  0.25500000920E-02 0. -1.
    10030    2    1    2    0    0  0.00000000000E+00  0.00000000000E+00 -0.12897640125E+04  0.14839008200E+04  0.73380544813E+03 0.  0.
        2    1    3    3  502    0 -0.17022061662E+03  0.31333372223E+03 -0.47016903441E+03  0.59009490824E+03  0.25500000920E-02 0.  1.
       -2    1    3    3    0  502  0.17022061662E+03 -0.31333372223E+03 -0.81959497810E+03  0.89380591178E+03  0.25500000920E-02 0. -1.
</event>
<event>
 5   0  0.1030323E-02  0.7901525E+03  0.7818609E-02  0.9574381E-01
        1   -1    0    0  501    0  0.00000000000E+00  0.00000000000E+00  0.20709738458E+03  0.20709738464E+03  0.50400001928E-02 0. -1.
       -1   -1    0    0    0  501  0.00000000000E+00  0.00000000000E+00 -0.75368048879E+03  0.75368048880E+03  0.50400001928E-02 0.  1.
    10030    2    1    2    0    0  0.00000000000E+00  0.00000000000E+00 -0.54658310421E+03  0.96077787345E+03  0.79015253736E+03 0.  0.
        3    1    3    3  502    0  0.34501841540E+03  0.17676842059E+03 -0.36589848719E+03  0.53307269168E+03  0.10100000352E+00 0.  1.
       -3    1    3    3    0  502 -0.34501841540E+03 -0.17676842059E+03 -0.18068461702E+03  0.42770518177E+03  0.10100000352E+00 0. -1.
</event>
<event>
 5   0  0.1025900E-02  0.7864348E+03  0.7818609E-02  0.9579862E-01
        1   -1    0    0  501    0  0.00000000000E+00  0.00000000000E+00  0.16911236052E+03  0.16911236059E+03  0.50400001928E-02 0. -1.
       -1   -1    0    0    0  501  0.00000000000E+00  0.00000000000E+00 -0.91430291044E+03  0.91430291046E+03  0.50400001928E-02 0.  1.
    10030    2    1    2    0    0  0.00000000000E+00  0.00000000000E+00 -0.74519054993E+03  0.10834152710E+04  0.78643479949E+03 0.  0.
        1    1    3    3  502    0 -0.12561070289E+03 -0.16435590346E+03  0.88095455217E+02  0.22483709867E+03  0.50400001928E-02 0. -1.
       -1    1    3    3    0  502  0.12561070289E+03  0.16435590346E+03 -0.83328600514E+03  0.85857817238E+03  0.50400001928E-02 0.  1.
</event>
<event>
 5   0  0.1030323E-02  0.7895185E+03  0.7818609E-02  0.9575314E-01
        1   -1    0    0  501    0  0.00000000000E+00  0.00000000000E+00  0.44690260655E+03  0.44690260657E+03  0.50400001928E-02 0.  1.
       -1   -1    0    0    0  501  0.00000000000E+00  0.00000000000E+00 -0.34869981483E+03  0.34869981487E+03  0.50400001928E-02 0. -1.
    10030    2    1    2    0    0  0.00000000000E+00  0.00000000000E+00  0.98202791712E+02  0.79560242145E+03  0.78951847648E+03 0.  0.
        3    1    3    3  502    0 -0.36692559665E+03 -0.79707519201E+01  0.19560713782E+03  0.41588470629E+03  0.10100000352E+00 0.  1.
       -3    1    3    3    0  502  0.36692559665E+03  0.79707519201E+01 -0.97404346110E+02  0.37971771515E+03  0.10100000352E+00 0. -1.
</event>
<event>
 5   0  0.6872500E-03  0.7741351E+03  0.7818609E-02  0.9598229E-01
       -3   -1    0    0    0  501  0.00000000000E+00  0.00000000000E+00  0.66600908246E+03  0.66600909012E+03  0.10100000352E+00 0. -1.
        3   -1    0    0  501    0  0.00000000000E+00  0.00000000000E+00 -0.22495377442E+03  0.22495379709E+03  0.10100000352E+00 0.  1.
    10030    2    1    2    0    0  0.00000000000E+00  0.00000000000E+00  0.44105530804E+03  0.89096288721E+03  0.77413505388E+03 0.  0.
        2    1    3    3  502    0  0.26322109179E+03  0.21650082152E+03  0.93629328891E+01  0.34094810954E+03  0.25500000920E-02 0.  1.
       -2    1    3    3    0  502 -0.26322109179E+03 -0.21650082152E+03  0.43169237515E+03  0.55001477767E+03  0.25500000920E-02 0. -1.
</event>
<event>
 5   0  0.1146083E-02  0.7876843E+03  0.7818609E-02  0.9578017E-01
        1   -1    0    0  501    0  0.00000000000E+00  0.00000000000E+00  0.98951918518E+03  0.98951918519E+03  0.50400001928E-02 0. -1.
       -1   -1    0    0    0  501  0.00000000000E+00  0.00000000000E+00 -0.15675455988E+03  0.15675455996E+03  0.50400001928E-02 0.  1.
    10030    2    1    2    0    0  0.00000000000E+00  0.00000000000E+00  0.83276462530E+03  0.11462737452E+04  0.78768431347E+03 0.  0.
        4    1    3    3  502    0  0.53036777662E+02  0.38155947616E+02  0.98157458807E+03  0.98374745792E+03  0.12699999809E+01 0. -1.
       -4    1    3    3    0  502 -0.53036777662E+02 -0.38155947616E+02 -0.14880996277E+03  0.16252628724E+03  0.12699999809E+01 0.  1.
</event>
<event>
 5   0  0.1146083E-02  0.8011131E+03  0.7818609E-02  0.9558407E-01
        1   -1    0    0  501    0  0.00000000000E+00  0.00000000000E+00  0.20748884143E+03  0.20748884149E+03  0.50400001928E-02 0. -1.
       -1   -1    0    0    0  501  0.00000000000E+00  0.00000000000E+00 -0.77327309320E+03  0.77327309321E+03  0.50400001928E-02 0.  1.
    10030    2    1    2    0    0  0.00000000000E+00  0.00000000000E+00 -0.56578425176E+03  0.98076193470E+03  0.80111307131E+03 0.  0.
        4    1    3    3  502    0  0.31551203330E+03 -0.12467649168E+02 -0.58461585402E+03  0.66444006133E+03  0.12699999809E+01 0.  1.
       -4    1    3    3    0  502 -0.31551203330E+03  0.12467649168E+02  0.18831602251E+02  0.31632187338E+03  0.12699999809E+01 0. -1.
</event>
<event>
 5   0  0.1747544E-02  0.8013909E+03  0.7818609E-02  0.9558006E-01
        2   -1    0    0  501    0  0.00000000000E+00  0.00000000000E+00  0.10486335575E+04  0.10486335575E+04  0.25500000920E-02 0. -1.
       -2   -1    0    0    0  501  0.00000000000E+00  0.00000000000E+00 -0.15311054756E+03  0.15311054758E+03  0.25500000920E-02 0.  1.
    10030    2    1    2    0    0  0.00000000000E+00  0.00000000000E+00  0.89552300996E+03  0.12017441051E+04  0.80139093630E+03 0.  0.
        1    1    3    3  502    0  0.19701610253E+03  0.34889381309E+03  0.44202758446E+03  0.59659921465E+03  0.50400001928E-02 0.  1.
       -1    1    3    3    0  502 -0.19701610253E+03 -0.34889381309E+03  0.45349542550E+03  0.60514489046E+03  0.50400001928E-02 0. -1.
</event>
<event>
 5   0  0.1818665E-02  0.8057800E+03  0.7818609E-02  0.9551688E-01
       -2   -1    0    0    0  501  0.00000000000E+00  0.00000000000E+00  0.17919145015E+03  0.17919145017E+03  0.25500000920E-02 0. -1.
        2   -1    0    0  501    0  0.00000000000E+00  0.00000000000E+00 -0.90584866680E+03  0.90584866680E+03  0.25500000920E-02 0.  1.
    10030    2    1    2    0    0  0.00000000000E+00  0.00000000000E+00 -0.72665721664E+03  0.10850401170E+04  0.80577996062E+03 0.  0.
        3    1    3    3  502    0  0.33348029984E+03  0.13001327819E+03 -0.61238154747E+03  0.70931215468E+03  0.10100000352E+00 0.  1.
       -3    1    3    3    0  502 -0.33348029984E+03 -0.13001327819E+03 -0.11427566917E+03  0.37572796230E+03  0.10100000352E+00 0. -1.
</event>
<event>
 5   0  0.1049780E-02  0.7949721E+03  0.7818609E-02  0.9567323E-01
       -1   -1    0    0    0  501  0.00000000000E+00  0.00000000000E+00  0.18103436598E+03  0.18103436605E+03  0.50400001928E-02 0.  1.
        1   -1    0    0  501    0  0.00000000000E+00  0.00000000000E+00 -0.87273569238E+03  0.87273569240E+03  0.50400001928E-02 0. -1.
    10030    2    1    2    0    0  0.00000000000E+00  0.00000000000E+00 -0.69170132640E+03  0.10537700584E+04  0.79497208199E+03 0.  0.
        5    1    3    3  502    0  0.23446265228E+03  0.29332414937E+03 -0.51848340657E+03  0.64020225304E+03  0.46999998093E+01 0.  1.
       -5    1    3    3    0  502 -0.23446265228E+03 -0.29332414937E+03 -0.17321791983E+03  0.41356780541E+03  0.46999998093E+01 0. -1.
</event>
<event>
 5   0  0.1817089E-02  0.8036665E+03  0.7818609E-02  0.9554725E-01
       -2   -1    0    0    0  501  0.00000000000E+00  0.00000000000E+00  0.14858160338E+03  0.14858160340E+03  0.25500000920E-02 0. -1.
        2   -1    0    0  501    0  0.00000000000E+00  0.00000000000E+00 -0.10867425199E+04  0.10867425199E+04  0.25500000920E-02 0.  1.
    10030    2    1    2    0    0  0.00000000000E+00  0.00000000000E+00 -0.93816091653E+03  0.12353241233E+04  0.80366646335E+03 0.  0.
        2    1    3    3  502    0  0.21303382150E+03 -0.22007866767E+03 -0.69278303649E+02  0.31403425359E+03  0.25500000920E-02 0. -1.
       -2    1    3    3    0  502 -0.21303382150E+03  0.22007866767E+03 -0.86888261288E+03  0.92128986971E+03  0.25500000920E-02 0.  1.
</event>
<event>
 5   0  0.1731337E-02  0.7914477E+03  0.7818609E-02  0.9572479E-01
       -2   -1    0    0    0  501  0.00000000000E+00  0.00000000000E+00  0.36909296406E+03  0.36909296407E+03  0.25500000920E-02 0. -1.
        2   -1    0    0  501    0  0.00000000000E+00  0.00000000000E+00 -0.42427616652E+03  0.42427616653E+03  0.25500000920E-02 0.  1.
    10030    2    1    2    0    0  0.00000000000E+00  0.00000000000E+00 -0.55183202460E+02  0.79336913059E+03  0.79144765559E+03 0.  0.
        4    1    3    3  502    0  0.56546386003E+02 -0.22917064928E+03  0.29079413534E+03  0.37453907982E+03  0.12699999809E+01 0. -1.
       -4    1    3    3    0  502 -0.56546386003E+02  0.22917064928E+03 -0.34597733780E+03  0.41883005078E+03  0.12699999809E+01 0.  1.
</event>
<event>
 5   0  0.1146083E-02  0.7948037E+03  0.7818609E-02  0.9567569E-01
        1   -1    0    0  501    0  0.00000000000E+00  0.00000000000E+00  0.50978675888E+03  0.50978675890E+03  0.50400001928E-02 0. -1.
       -1   -1    0    0    0  501  0.00000000000E+00  0.00000000000E+00 -0.30979269069E+03  0.30979269073E+03  0.50400001928E-02 0.  1.
    10030    2    1    2    0    0  0.00000000000E+00  0.00000000000E+00  0.19999406818E+03  0.81957944964E+03  0.79480365308E+03 0.  0.
        4    1    3    3  502    0 -0.33467885240E+03  0.18966576703E+03 -0.28287869381E+01  0.38469813148E+03  0.12699999809E+01 0.  1.
       -4    1    3    3    0  502  0.33467885240E+03 -0.18966576703E+03  0.20282285512E+03  0.43488131816E+03  0.12699999809E+01 0. -1.
</event>
<event>
 5   0  0.1673727E-02  0.7958045E+03  0.7818609E-02  0.9566110E-01
       -2   -1    0    0    0  501  0.00000000000E+00  0.00000000000E+00  0.14751592546E+03  0.14751592548E+03  0.25500000920E-02 0.  1.
        2   -1    0    0  501    0  0.00000000000E+00  0.00000000000E+00 -0.10732821833E+04  0.10732821833E+04  0.25500000920E-02 0. -1.
    10030    2    1    2    0    0  0.00000000000E+00  0.00000000000E+00 -0.92576625781E+03  0.12207981088E+04  0.79580453520E+03 0.  0.
        5    1    3    3  502    0 -0.12405681443E+03  0.26969623100E+03 -0.56497957907E+02  0.30222551095E+03  0.46999998093E+01 0.  1.
       -5    1    3    3    0  502  0.12405681443E+03 -0.26969623100E+03 -0.86926829990E+03  0.91857259780E+03  0.46999998093E+01 0. -1.
</event>
<event>
 5   0  0.1818665E-02  0.7973788E+03  0.7818609E-02  0.9563819E-01
       -2   -1    0    0    0  501  0.00000000000E+00  0.00000000000E+00  0.14661676365E+03  0.14661676367E+03  0.25500000920E-02 0.  1.
        2   -1    0    0  501    0  0.00000000000E+00  0.00000000000E+00 -0.10841409658E+04  0.10841409658E+04  0.25500000920E-02 0. -1.
    10030    2    1    2    0    0  0.00000000000E+00  0.00000000000E+00 -0.93752420219E+03  0.12307577295E+04  0.79737880526E+03 0.  0.
        3    1    3    3  502    0 -0.28098716650E+03 -0.28264146798E+03 -0.48518736766E+03  0.62789073819E+03  0.10100000352E+00 0.  1.
       -3    1    3    3    0  502  0.28098716650E+03  0.28264146798E+03 -0.45233683453E+03  0.60286699133E+03  0.10100000352E+00 0. -1.
</event>
<event>
 5   0  0.1146083E-02  0.7997186E+03  0.7818609E-02  0.9560424E-01
        1   -1    0    0  501    0  0.00000000000E+00  0.00000000000E+00  0.23400646465E+03  0.23400646470E+03  0.50400001928E-02 0.  1.
       -1   -1    0    0    0  501  0.00000000000E+00  0.00000000000E+00 -0.68326092733E+03  0.68326092734E+03  0.50400001928E-02 0. -1.
    10030    2    1    2    0    0  0.00000000000E+00  0.00000000000E+00 -0.44925446267E+03  0.91726739205E+03  0.79971863570E+03 0.  0.
        4    1    3    3  502    0  0.22324958257E+03 -0.15564617933E+03 -0.56063735773E+03  0.62320299184E+03  0.12699999809E+01 0. -1.
       -4    1    3    3    0  502 -0.22324958257E+03  0.15564617933E+03  0.11138289506E+03  0.29406440021E+03  0.12699999809E+01 0.  1.
</event>
<event>
 5   0  0.6872500E-03  0.7917385E+03  0.7818609E-02  0.9572053E-01
        3   -1    0    0  501    0  0.00000000000E+00  0.00000000000E+00  0.23801152559E+03  0.23801154701E+03  0.10100000352E+00 0.  1.
       -3   -1    0    0    0  501  0.00000000000E+00  0.00000000000E+00 -0.65842370829E+03  0.65842371604E+03  0.10100000352E+00 0. -1.
    10030    2    1    2    0    0  0.00000000000E+00  0.00000000000E+00 -0.42041218270E+03  0.89643526305E+03  0.79173845269E+03 0.  0.
        3    1    3    3  502    0  0.21257552636E+03  0.25444334799E+03  0.34688763617E+02  0.33336630343E+03  0.10100000352E+00 0.  1.
       -3    1    3    3    0  502 -0.21257552636E+03 -0.25444334799E+03 -0.45510094632E+03  0.56306895962E+03  0.10100000352E+00 0. -1.
</event>
<event>
 5   0  0.1030323E-02  0.8005675E+03  0.7818609E-02  0.9559196E-01
        1   -1    0    0  501    0  0.00000000000E+00  0.00000000000E+00  0.70446086212E+03  0.70446086214E+03  0.50400001928E-02 0.  1.
       -1   -1    0    0    0  501  0.00000000000E+00  0.00000000000E+00 -0.22744638233E+03  0.22744638239E+03  0.50400001928E-02 0. -1.
    10030    2    1    2    0    0  0.00000000000E+00  0.00000000000E+00  0.47701447979E+03  0.93190724452E+03  0.80056748527E+03 0.  0.
        3    1    3    3  502    0  0.13727960998E+03 -0.35310931879E+03  0.38891502658E+03  0.54294271376E+03  0.10100000352E+00 0.  1.
       -3    1    3    3    0  502 -0.13727960998E+03  0.35310931879E+03  0.88099453212E+02  0.38896453076E+03  0.10100000352E+00 0. -1.
</event>
<event>
 5   0  0.1731337E-02  0.6799767E+03  0.7818609E-02  0.9752101E-01
        2   -1    0    0  501    0  0.00000000000E+00  0.00000000000E+00  0.49039283039E+03  0.49039283039E+03  0.25500000920E-02 0.  1.
       -2   -1    0    0    0  501  0.00000000000E+00  0.00000000000E+00 -0.23571322878E+03  0.23571322879E+03  0.25500000920E-02 0. -1.
    10030    2    1    2    0    0  0.00000000000E+00  0.00000000000E+00  0.25467960160E+03  0.72610605919E+03  0.67997669792E+03 0.  0.
        4    1    3    3  502    0  0.25371521242E+03 -0.52081565609E+02 -0.10784339955E+03  0.28056320182E+03  0.12699999809E+01 0. -1.
       -4    1    3    3    0  502 -0.25371521242E+03  0.52081565609E+02  0.36252300115E+03  0.44554285737E+03  0.12699999809E+01 0.  1.
</event>
<event>
 5   0  0.1818665E-02  0.7924417E+03  0.7818609E-02  0.9571022E-01
        2   -1    0    0  501    0  0.00000000000E+00  0.00000000000E+00  0.10503901238E+04  0.10503901238E+04  0.25500000920E-02 0.  1.
       -2   -1    0    0    0  501  0.00000000000E+00  0.00000000000E+00 -0.14945966651E+03  0.14945966654E+03  0.25500000920E-02 0. -1.
    10030    2    1    2    0    0  0.00000000000E+00  0.00000000000E+00  0.90093045727E+03  0.11998497903E+04  0.79244168902E+03 0.  0.
        3    1    3    3  502    0  0.73731063569E+02 -0.35571437878E+03  0.68997333331E+03  0.77976419505E+03  0.10100000352E+00 0.  1.
       -3    1    3    3    0  502 -0.73731063569E+02  0.35571437878E+03  0.21095712396E+03  0.42008559527E+03  0.10100000352E+00 0. -1.
</event>
<event>
 5   0  0.1817089E-02  0.7969460E+03  0.7818609E-02  0.9564448E-01
        2   -1    0    0  501    0  0.00000000000E+00  0.00000000000E+00  0.47773005042E+03  0.47773005042E+03  0.25500000920E-02 0.  1.
       -2   -1    0    0    0  501  0.00000000000E+00  0.00000000000E+00 -0.33236498328E+03  0.33236498329E+03  0.25500000920E-02 0. -1.
    10030    2    1    2    0    0  0.00000000000E+00  0.00000000000E+00  0.14536506714E+03  0.81009503371E+03  0.79694602132E+03 0.  0.
        2    1    3    3  502    0  0.20047719568E+02  0.10726462207E+03 -0.31688094758E+03  0.33514346951E+03  0.25500000920E-02 0. -1.
       -2    1    3    3    0  502 -0.20047719568E+02 -0.10726462207E+03  0.46224601472E+03  0.47495156420E+03  0.25500000920E-02 0.  1.
</event>
<event>
 5   0  0.1817089E-02  0.7947205E+03  0.7818609E-02  0.9567691E-01
       -2   -1    0    0    0  501  0.00000000000E+00  0.00000000000E+00  0.12005660249E+03  0.12005660251E+03  0.25500000920E-02 0. -1.
        2   -1    0    0  501    0  0.00000000000E+00  0.00000000000E+00 -0.13151727259E+04  0.13151727259E+04  0.25500000920E-02 0.  1.
    10030    2    1    2    0    0  0.00000000000E+00  0.00000000000E+00 -0.11951161234E+04  0.14352293284E+04  0.79472050226E+03 0.  0.
        2    1    3    3  502    0  0.22652886496E+03  0.24653880006E+03 -0.98404278577E+03  0.10394406721E+04  0.25500000920E-02 0.  1.
       -2    1    3    3    0  502 -0.22652886496E+03 -0.24653880006E+03 -0.21107333765E+03  0.39578865632E+03  0.25500000920E-02 0. -1.
</event>
<event>
 5   0  0.1731337E-02  0.8099405E+03  0.7818609E-02  0.9545739E-01
        2   -1    0    0  501    0  0.00000000000E+00  0.00000000000E+00  0.33449940190E+03  0.33449940191E+03  0.25500000920E-02 0. -1.
       -2   -1    0    0    0  501  0.00000000000E+00  0.00000000000E+00 -0.49028755959E+03  0.49028755960E+03  0.25500000920E-02 0.  1.
    10030    2    1    2    0    0  0.00000000000E+00  0.00000000000E+00 -0.15578815769E+03  0.82478696151E+03  0.80994048040E+03 0.  0.
        4    1    3    3  502    0 -0.24564095189E+03  0.27241127965E+02  0.24879436559E+03  0.35068761818E+03  0.12699999809E+01 0. -1.
       -4    1    3    3    0  502  0.24564095189E+03 -0.27241127965E+02 -0.40458252328E+03  0.47409934333E+03  0.12699999809E+01 0.  1.
</event>
<event>
 5   0  0.1673727E-02  0.7925333E+03  0.7818609E-02  0.9570888E-01
       -2   -1    0    0    0  501  0.00000000000E+00  0.00000000000E+00  0.29708608853E+03  0.29708608854E+03  0.25500000920E-02 0.  1.
        2   -1    0    0  501    0  0.00000000000E+00  0.00000000000E+00 -0.52855810815E+03  0.52855810816E+03  0.25500000920E-02 0. -1.
    10030    2    1    2    0    0  0.00000000000E+00  0.00000000000E+00 -0.23147201963E+03  0.82564419670E+03  0.79253330761E+03 0.  0.
        5    1    3    3  502    0 -0.10181384231E+03 -0.71950010623E+02 -0.50756429161E+03  0.52267242382E+03  0.46999998093E+01 0. -1.
       -5    1    3    3    0  502  0.10181384231E+03  0.71950010623E+02  0.27609227198E+03  0.30297177287E+03  0.46999998093E+01 0.  1.
</event>
<event>
 5   0  0.1673727E-02  0.8110393E+03  0.7818609E-02  0.9544174E-01
        2   -1    0    0  501    0  0.00000000000E+00  0.00000000000E+00  0.54265236355E+03  0.54265236356E+03  0.25500000920E-02 0. -1.
       -2   -1    0    0    0  501  0.00000000000E+00  0.00000000000E+00 -0.30304149196E+03  0.30304149197E+03  0.25500000920E-02 0.  1.
    10030    2    1    2    0    0  0.00000000000E+00  0.00000000000E+00  0.23961087159E+03  0.84569385552E+03  0.81103928850E+03 0.  0.
        5    1    3    3  502    0 -0.13153330886E+03 -0.28299718386E+03 -0.15017001433E+03  0.34635464572E+03  0.46999998093E+01 0.  1.
       -5    1    3    3    0  502  0.13153330886E+03  0.28299718386E+03  0.38978088593E+03  0.49933920980E+03  0.46999998093E+01 0. -1.
</event>
<event>
 5   0  0.1818665E-02  0.7970025E+03  0.7818609E-02  0.9564366E-01
        2   -1    0    0  501    0  0.00000000000E+00  0.00000000000E+00  0.30437472819E+03  0.30437472820E+03  0.25500000920E-02 0. -1.
       -2   -1    0    0    0  501  0.00000000000E+00  0.00000000000E+00 -0.52173597798E+03  0.52173597799E+03  0.25500000920E-02 0.  1.
    10030    2    1    2    0    0  0.00000000000E+00  0.00000000000E+00 -0.21736124979E+03  0.82611070619E+03  0.79700250061E+03 0.  0.
        3    1    3    3  502    0  0.35382419886E+03 -0.47524839697E+02 -0.29221547802E+03  0.46134593299E+03  0.10100000352E+00 0.  1.
       -3    1    3    3    0  502 -0.35382419886E+03  0.47524839697E+02  0.74854228236E+02  0.36476477320E+03  0.10100000352E+00 0. -1.
</event>
<event>
 5   0  0.1025900E-02  0.7896340E+03  0.7818609E-02  0.9575144E-01
        1   -1    0    0  501    0  0.00000000000E+00  0.00000000000E+00  0.59495256881E+03  0.59495256883E+03  0.50400001928E-02 0. -1.
       -1   -1    0    0    0  501  0.00000000000E+00  0.00000000000E+00 -0.26200484301E+03  0.26200484306E+03  0.50400001928E-02 0.  1.
    10030    2    1    2    0    0  0.00000000000E+00  0.00000000000E+00  0.33294772581E+03  0.85695741189E+03  0.78963397703E+03 0.  0.
        1    1    3    3  502    0 -0.12794415722E+03  0.35048103694E+03  0.30661013909E+03  0.48292488240E+03  0.50400001928E-02 0. -1.
       -1    1    3    3    0  502  0.12794415722E+03 -0.35048103694E+03  0.26337586718E+02  0.37403252949E+03  0.50400001928E-02 0.  1.
</event>
<event>
 5   0  0.1025900E-02  0.7968822E+03  0.7818609E-02  0.9564541E-01
        1   -1    0    0  501    0  0.00000000000E+00  0.00000000000E+00  0.16643226939E+03  0.16643226947E+03  0.50400001928E-02 0. -1.
       -1   -1    0    0    0  501  0.00000000000E+00  0.00000000000E+00 -0.95387342903E+03  0.95387342905E+03  0.50400001928E-02 0.  1.
    10030    2    1    2    0    0  0.00000000000E+00  0.00000000000E+00 -0.78744115964E+03  0.11203056985E+04  0.79688222356E+03 0.  0.
        1    1    3    3  502    0 -0.27334136443E+03  0.51600578405E+02  0.73250359886E+01  0.27826565971E+03  0.50400001928E-02 0.  1.
       -1    1    3    3    0  502  0.27334136443E+03 -0.51600578405E+02 -0.79476619563E+03  0.84204003880E+03  0.50400001928E-02 0. -1.
</event>
<event>
 5   0  0.1817089E-02  0.8010708E+03  0.7818609E-02  0.9558468E-01
       -2   -1    0    0    0  501  0.00000000000E+00  0.00000000000E+00  0.37138871562E+03  0.37138871563E+03  0.25500000920E-02 0.  1.
        2   -1    0    0  501    0  0.00000000000E+00  0.00000000000E+00 -0.43196950463E+03  0.43196950464E+03  0.25500000920E-02 0. -1.
    10030    2    1    2    0    0  0.00000000000E+00  0.00000000000E+00 -0.60580789008E+02  0.80335822027E+03  0.80107078219E+03 0.  0.
        2    1    3    3  502    0 -0.80669986925E+01  0.21560794972E+03  0.30812947498E+03  0.37615905919E+03  0.25500000920E-02 0.  1.
       -2    1    3    3    0  502  0.80669986925E+01 -0.21560794972E+03 -0.36871026399E+03  0.42719916108E+03  0.25500000920E-02 0. -1.
</event>
<event>
 5   0  0.1731337E-02  0.7994644E+03  0.7818609E-02  0.9560793E-01
        2   -1    0    0  501    0  0.00000000000E+00  0.00000000000E+00  0.29626070102E+03  0.29626070103E+03  0.25500000920E-02 0.  1.
       -2   -1    0    0    0  501  0.00000000000E+00  0.00000000000E+00 -0.53934192349E+03  0.53934192350E+03  0.25500000920E-02 0. -1.
    10030    2    1    2    0    0  0.00000000000E+00  0.00000000000E+00 -0.24308122247E+03  0.83560262453E+03  0.79946436156E+03 0.  0.
        4    1    3    3  502    0  0.65587170129E+02 -0.38922096255E+03 -0.18755880994E+03  0.43700635540E+03  0.12699999809E+01 0. -1.
       -4    1    3    3    0  502 -0.65587170129E+02  0.38922096255E+03 -0.55522412526E+02  0.39859626913E+03  0.12699999809E+01 0.  1.
</event>
<event>
 5   0  0.1049780E-02  0.7941407E+03  0.7818609E-02  0.9568537E-01
       -1   -1    0    0    0  501  0.00000000000E+00  0.00000000000E+00  0.12268945452E+03  0.12268945462E+03  0.50400001928E-02 0. -1.
        1   -1    0    0  501    0  0.00000000000E+00  0.00000000000E+00 -0.12850725139E+04  0.12850725139E+04  0.50400001928E-02 0.  1.
    10030    2    1    2    0    0  0.00000000000E+00  0.00000000000E+00 -0.11623830594E+04  0.14077619686E+04  0.79414065714E+03 0.  0.
        5    1    3    3  502    0 -0.34529799460E+03 -0.19592391455E+03 -0.59020794465E+03  0.71132579968E+03  0.46999998093E+01 0. -1.
       -5    1    3    3    0  502  0.34529799460E+03  0.19592391455E+03 -0.57217511476E+03  0.69643616888E+03  0.46999998093E+01 0.  1.
</event>
<event>
 5   0  0.6872500E-03  0.8130996E+03  0.7818609E-02  0.9541247E-01
       -3   -1    0    0    0  501  0.00000000000E+00  0.00000000000E+00  0.37303752536E+03  0.37303753903E+03  0.10100000352E+00 0.  1.
        3   -1    0    0  501    0  0.00000000000E+00  0.00000000000E+00 -0.44307266803E+03  0.44307267954E+03  0.10100000352E+00 0. -1.
    10030    2    1    2    0    0  0.00000000000E+00  0.00000000000E+00 -0.70035142671E+02  0.81611021857E+03  0.81309960500E+03 0.  0.
        1    1    3    3  502    0  0.28912446356E+03 -0.12424634739E+03  0.22333133798E+03  0.38588469368E+03  0.50400001928E-02 0.  1.
       -1    1    3    3    0  502 -0.28912446356E+03  0.12424634739E+03 -0.29336648065E+03  0.43022552489E+03  0.50400001928E-02 0. -1.
</event>
<event>
 5   0  0.1747544E-02  0.8043369E+03  0.7818609E-02  0.9553761E-01
        2   -1    0    0  501    0  0.00000000000E+00  0.00000000000E+00  0.92547840458E+03  0.92547840459E+03  0.25500000920E-02 0.  1.
       -2   -1    0    0    0  501  0.00000000000E+00  0.00000000000E+00 -0.17476308774E+03  0.17476308776E+03  0.25500000920E-02 0. -1.
    10030    2    1    2    0    0  0.00000000000E+00  0.00000000000E+00  0.75071531685E+03  0.11002414923E+04  0.80433690362E+03 0.  0.
        1    1    3    3  502    0 -0.34887265404E+02  0.11631438883E+03 -0.14908595601E+03  0.19228307424E+03  0.50400001928E-02 0. -1.
       -1    1    3    3    0  502  0.34887265404E+02 -0.11631438883E+03  0.89980127286E+03  0.90795841810E+03  0.50400001928E-02 0.  1.
</event>
<event>
 5   0  0.1049780E-02  0.8031448E+03  0.7818609E-02  0.9555476E-01
       -1   -1    0    0    0  501  0.00000000000E+00  0.00000000000E+00  0.84898238200E+03  0.84898238201E+03  0.50400001928E-02 0.  1.
        1   -1    0    0  501    0  0.00000000000E+00  0.00000000000E+00 -0.18994551236E+03  0.18994551243E+03  0.50400001928E-02 0. -1.
    10030    2    1    2    0    0  0.00000000000E+00  0.00000000000E+00  0.65903686963E+03  0.10389278944E+04  0.80314480283E+03 0.  0.
        5    1    3    3  502    0  0.20084117778E+03 -0.29456902357E+03  0.90538704289E+02  0.36786877458E+03  0.46999998093E+01 0. -1.
       -5    1    3    3    0  502 -0.20084117778E+03  0.29456902357E+03  0.56849816535E+03  0.67105911986E+03  0.46999998093E+01 0.  1.
</event>
<event>
 5   0  0.1146083E-02  0.8011258E+03  0.7818609E-02  0.9558389E-01
        1   -1    0    0  501    0  0.00000000000E+00  0.00000000000E+00  0.50546526452E+03  0.50546526455E+03  0.50400001928E-02 0. -1.
       -1   -1    0    0    0  501  0.00000000000E+00  0.00000000000E+00 -0.31743155256E+03  0.31743155260E+03  0.50400001928E-02 0.  1.
    10030    2    1    2    0    0  0.00000000000E+00  0.00000000000E+00  0.18803371196E+03  0.82289681715E+03  0.80112576718E+03 0.  0.
        4    1    3    3  502    0 -0.20901235957E+03 -0.18536715432E+03  0.38887504643E+03  0.47882414621E+03  0.12699999809E+01 0. -1.
       -4    1    3    3    0  502  0.20901235957E+03  0.18536715432E+03 -0.20084133447E+03  0.34407267094E+03  0.12699999809E+01 0.  1.
</event>
<event>
 5   0  0.1025900E-02  0.8006658E+03  0.7818609E-02  0.9559054E-01
       -1   -1    0    0    0  501  0.00000000000E+00  0.00000000000E+00  0.21378763905E+03  0.21378763911E+03  0.50400001928E-02 0.  1.
        1   -1    0    0  501    0  0.00000000000E+00  0.00000000000E+00 -0.74965253775E+03  0.74965253777E+03  0.50400001928E-02 0. -1.
    10030    2    1    2    0    0  0.00000000000E+00  0.00000000000E+00 -0.53586489870E+03  0.96344017688E+03  0.80066583838E+03 0.  0.
        1    1    3    3  502    0  0.14018923787E+03 -0.26466174336E+03  0.51718561823E+02  0.30393037109E+03  0.50400001928E-02 0.  1.
       -1    1    3    3    0  502 -0.14018923787E+03  0.26466174336E+03 -0.58758346053E+03  0.65950980578E+03  0.50400001928E-02 0. -1.
</event>
<event>
 5   0  0.1025900E-02  0.8173865E+03  0.7818609E-02  0.9535186E-01
        1   -1    0    0  501    0  0.00000000000E+00  0.00000000000E+00  0.60128285641E+03  0.60128285643E+03  0.50400001928E-02 0.  1.
       -1   -1    0    0    0  501  0.00000000000E+00  0.00000000000E+00 -0.27778967041E+03  0.27778967045E+03  0.50400001928E-02 0. -1.
    10030    2    1    2    0    0  0.00000000000E+00  0.00000000000E+00  0.32349318600E+03  0.87907252689E+03  0.81738648517E+03 0.  0.
        1    1    3    3  502    0  0.30182660606E+02 -0.41855072156E+02  0.59776517717E+03  0.59998837250E+03  0.50400001928E-02 0.  1.
       -1    1    3    3    0  502 -0.30182660606E+02  0.41855072156E+02 -0.27427199117E+03  0.27908415439E+03  0.50400001928E-02 0. -1.
</event>
<event>
 5   0  0.1025900E-02  0.8554510E+03  0.7818609E-02  0.9483050E-01
        1   -1    0    0  501    0  0.00000000000E+00  0.00000000000E+00  0.12702415162E+04  0.12702415162E+04  0.50400001928E-02 0. -1.
       -1   -1    0    0    0  501  0.00000000000E+00  0.00000000000E+00 -0.14402703723E+03  0.14402703732E+03  0.50400001928E-02 0.  1.
    10030    2    1    2    0    0  0.00000000000E+00  0.00000000000E+00  0.11262144789E+04  0.14142685535E+04  0.85545104410E+03 0.  0.
        1    1    3    3  502    0 -0.12833490617E+03 -0.91207063979E+02 -0.94377688029E+02  0.18356395257E+03  0.50400001928E-02 0.  1.
       -1    1    3    3    0  502  0.12833490617E+03  0.91207063979E+02  0.12205921670E+04  0.12307046009E+04  0.50400001928E-02 0. -1.
</event>
<event>
 5   0  0.6872500E-03  0.7578072E+03  0.7818609E-02  0.9623181E-01
        4   -1    0    0  501    0  0.00000000000E+00  0.00000000000E+00  0.58055045013E+03  0.58055183924E+03  0.12699999809E+01 0.  1.
       -4   -1    0    0    0  501  0.00000000000E+00  0.00000000000E+00 -0.24729292979E+03  0.24729619088E+03  0.12699999809E+01 0. -1.
    10030    2    1    2    0    0  0.00000000000E+00  0.00000000000E+00  0.33325752033E+03  0.82784803012E+03  0.75780722226E+03 0.  0.
        3    1    3    3  502    0 -0.77659221773E+02 -0.36781021019E+03  0.21847734369E+03  0.43479611930E+03  0.10100000352E+00 0.  1.
       -3    1    3    3    0  502  0.77659221773E+02  0.36781021019E+03  0.11478017664E+03  0.39305191082E+03  0.10100000352E+00 0. -1.
</event>
<event>
 5   0  0.1049780E-02  0.8023180E+03  0.7818609E-02  0.9556668E-01
       -1   -1    0    0    0  501  0.00000000000E+00  0.00000000000E+00  0.24130803969E+03  0.24130803974E+03  0.50400001928E-02 0.  1.
        1   -1    0    0  501    0  0.00000000000E+00  0.00000000000E+00 -0.66690090392E+03  0.66690090393E+03  0.50400001928E-02 0. -1.
    10030    2    1    2    0    0  0.00000000000E+00  0.00000000000E+00 -0.42559286422E+03  0.90820894368E+03  0.80231801631E+03 0.  0.
        5    1    3    3  502    0  0.13392068261E+03  0.36842059788E+03 -0.30910118668E+03  0.49923353231E+03  0.46999998093E+01 0.  1.
       -5    1    3    3    0  502 -0.13392068261E+03 -0.36842059788E+03 -0.11649167754E+03  0.40897541137E+03  0.46999998093E+01 0. -1.
</event>
<event>
 5   0  0.1818665E-02  0.7998482E+03  0.7818609E-02  0.9560237E-01
        2   -1    0    0  501    0  0.00000000000E+00  0.00000000000E+00  0.80472454512E+03  0.80472454513E+03  0.25500000920E-02 0. -1.
       -2   -1    0    0    0  501  0.00000000000E+00  0.00000000000E+00 -0.19875032756E+03  0.19875032757E+03  0.25500000920E-02 0.  1.
    10030    2    1    2    0    0  0.00000000000E+00  0.00000000000E+00  0.60597421757E+03  0.10034748727E+04  0.79984815296E+03 0.  0.
        3    1    3    3  502    0 -0.38552369096E+03  0.96176152475E+02  0.24603285491E+03  0.46734413925E+03  0.10100000352E+00 0.  1.
       -3    1    3    3    0  502  0.38552369096E+03 -0.96176152475E+02  0.35994136266E+03  0.53613073345E+03  0.10100000352E+00 0. -1.
</event>
<event>
 5   0  0.1030323E-02  0.8212911E+03  0.7818609E-02  0.9529700E-01
       -1   -1    0    0    0  501  0.00000000000E+00  0.00000000000E+00  0.42742141195E+03  0.42742141198E+03  0.50400001928E-02 0.  1.
        1   -1    0    0  501    0  0.00000000000E+00  0.00000000000E+00 -0.39452815825E+03  0.39452815829E+03  0.50400001928E-02 0. -1.
    10030    2    1    2    0    0  0.00000000000E+00  0.00000000000E+00  0.32893253701E+02  0.82194957027E+03  0.82129113591E+03 0.  0.
        3    1    3    3  502    0  0.14922993455E+03 -0.15295409122E+03 -0.33449850843E+03  0.39693045956E+03  0.10100000352E+00 0. -1.
       -3    1    3    3    0  502 -0.14922993455E+03  0.15295409122E+03  0.36739176213E+03  0.42501911071E+03  0.10100000352E+00 0.  1.
</event>
<event>
 5   0  0.1038912E-02  0.8000426E+03  0.7818609E-02  0.9559955E-01
       -1   -1    0    0    0  501  0.00000000000E+00  0.00000000000E+00  0.21657815119E+03  0.21657815125E+03  0.50400001928E-02 0. -1.
        1   -1    0    0  501    0  0.00000000000E+00  0.00000000000E+00 -0.73884198256E+03  0.73884198258E+03  0.50400001928E-02 0.  1.
    10030    2    1    2    0    0  0.00000000000E+00  0.00000000000E+00 -0.52226383137E+03  0.95542013383E+03  0.80004257547E+03 0.  0.
        2    1    3    3  502    0  0.55925132968E+01  0.14406720594E+03 -0.70673513194E+03  0.72129133002E+03  0.25500000920E-02 0.  1.
       -2    1    3    3    0  502 -0.55925132968E+01 -0.14406720594E+03  0.18447130057E+03  0.23412880381E+03  0.25500000920E-02 0. -1.
</event>
<event>
 5   0  0.1673727E-02  0.7971604E+03  0.7818609E-02  0.9564136E-01
        2   -1    0    0  501    0  0.00000000000E+00  0.00000000000E+00  0.35560390060E+03  0.35560390061E+03  0.25500000920E-02 0.  1.
       -2   -1    0    0    0  501  0.00000000000E+00  0.00000000000E+00 -0.44675034265E+03  0.44675034266E+03  0.25500000920E-02 0. -1.
    10030    2    1    2    0    0  0.00000000000E+00  0.00000000000E+00 -0.91146442052E+02  0.80235424327E+03  0.79716037144E+03 0.  0.
        5    1    3    3  502    0  0.26597676012E+03 -0.27422958630E+03 -0.15988507305E+03  0.41416280556E+03  0.46999998093E+01 0. -1.
       -5    1    3    3    0  502 -0.26597676012E+03  0.27422958630E+03  0.68738630998E+02  0.38819143771E+03  0.46999998093E+01 0.  1.
</event>
<event>
 5   0  0.1818665E-02  0.7938406E+03  0.7818609E-02  0.9568976E-01
        2   -1    0    0  501    0  0.00000000000E+00  0.00000000000E+00  0.16995099261E+03  0.16995099263E+03  0.25500000920E-02 0.  1.
       -2   -1    0    0    0  501  0.00000000000E+00  0.00000000000E+00 -0.92700687234E+03  0.92700687234E+03  0.25500000920E-02 0. -1.
    10030    2    1    2    0    0  0.00000000000E+00  0.00000000000E+00 -0.75705587973E+03  0.10969578650E+04  0.79384063419E+03 0.  0.
        3    1    3    3  502    0 -0.29753862955E+03 -0.21135467486E+03 -0.59413734131E+03  0.69727987581E+03  0.10100000352E+00 0. -1.
       -3    1    3    3    0  502  0.29753862955E+03  0.21135467486E+03 -0.16291853842E+03  0.39967798917E+03  0.10100000352E+00 0.  1.
</event>
<event>
 5   0  0.1025900E-02  0.8023857E+03  0.7818609E-02  0.9556570E-01
       -1   -1    0    0    0  501  0.00000000000E+00  0.00000000000E+00  0.82015828783E+02  0.82015828938E+02  0.50400001928E-02 0.  1.
        1   -1    0    0  501    0  0.00000000000E+00  0.00000000000E+00 -0.19624953947E+04  0.19624953947E+04  0.50400001928E-02 0. -1.
    10030    2    1    2    0    0  0.00000000000E+00  0.00000000000E+00 -0.18804795659E+04  0.20445112236E+04  0.80238565900E+03 0.  0.
        1    1    3    3  502    0 -0.37363885576E+03 -0.12799392094E+03 -0.11198223878E+04  0.11874302584E+04  0.50400001928E-02 0. -1.
       -1    1    3    3    0  502  0.37363885576E+03  0.12799392094E+03 -0.76065717814E+03  0.85708096526E+03  0.50400001928E-02 0.  1.
</event>
<event>
 5   0  0.1731337E-02  0.7978372E+03  0.7818609E-02  0.9563153E-01
        2   -1    0    0  501    0  0.00000000000E+00  0.00000000000E+00  0.81023210766E+03  0.81023210766E+03  0.25500000920E-02 0.  1.
       -2   -1    0    0    0  501  0.00000000000E+00  0.00000000000E+00 -0.19640796452E+03  0.19640796453E+03  0.25500000920E-02 0. -1.
    10030    2    1    2    0    0  0.00000000000E+00  0.00000000000E+00  0.61382414314E+03  0.10066400722E+04  0.79783717402E+03 0.  0.
        4    1    3    3  502    0  0.21932022648E+03 -0.88659560433E+02 -0.98355657196E+02  0.25619782904E+03  0.12699999809E+01 0. -1.
       -4    1    3    3    0  502 -0.21932022648E+03  0.88659560433E+02  0.71217980034E+03  0.75044224316E+03  0.12699999809E+01 0.  1.
</event>
<event>
 5   0  0.1747544E-02  0.8131055E+03  0.7818609E-02  0.9541239E-01
       -2   -1    0    0    0  501  0.00000000000E+00  0.00000000000E+00  0.13243307107E+03  0.13243307110E+03  0.25500000920E-02 0.  1.
        2   -1    0    0  501    0  0.00000000000E+00  0.00000000000E+00 -0.12480653274E+04  0.12480653274E+04  0.25500000920E-02 0. -1.
    10030    2    1    2    0    0  0.00000000000E+00  0.00000000000E+00 -0.11156322564E+04  0.13804983985E+04  0.81310546483E+03 0.  0.
        1    1    3    3  502    0  0.36636275761E+03  0.39895169403E+02 -0.26634699105E+03  0.45470211608E+03  0.50400001928E-02 0.  1.
       -1    1    3    3    0  502 -0.36636275761E+03 -0.39895169403E+02 -0.84928526532E+03  0.92579628246E+03  0.50400001928E-02 0. -1.
</event>
<event>
 5   0  0.1818665E-02  0.8010256E+03  0.7818609E-02  0.9558534E-01
       -2   -1    0    0    0  501  0.00000000000E+00  0.00000000000E+00  0.49976268282E+03  0.49976268283E+03  0.25500000920E-02 0. -1.
        2   -1    0    0  501    0  0.00000000000E+00  0.00000000000E+00 -0.32097336699E+03  0.32097336700E+03  0.25500000920E-02 0.  1.
    10030    2    1    2    0    0  0.00000000000E+00  0.00000000000E+00  0.17878931583E+03  0.82073604982E+03  0.80102562008E+03 0.  0.
        3    1    3    3  502    0  0.30465535943E+03 -0.18744858227E+03 -0.95201337098E+02  0.37015559405E+03  0.10100000352E+00 0.  1.
       -3    1    3    3    0  502 -0.30465535943E+03  0.18744858227E+03  0.27399065293E+03  0.45058045577E+03  0.10100000352E+00 0. -1.
</event>
<event>
 5   0  0.1049780E-02  0.8061059E+03  0.7818609E-02  0.9551221E-01
       -1   -1    0    0    0  501  0.00000000000E+00  0.00000000000E+00  0.31506001753E+03  0.31506001757E+03  0.50400001928E-02 0.  1.
        1   -1    0    0  501    0  0.00000000000E+00  0.00000000000E+00 -0.51562141250E+03  0.51562141252E+03  0.50400001928E-02 0. -1.
    10030    2    1    2    0    0  0.00000000000E+00  0.00000000000E+00 -0.20056139497E+03  0.83068143010E+03  0.80610592676E+03 0.  0.
        5    1    3    3  502    0 -0.48797173546E+02  0.11567593076E+03  0.29436680280E+03  0.32005622895E+03  0.46999998093E+01 0.  1.
       -5    1    3    3    0  502  0.48797173546E+02 -0.11567593076E+03 -0.49492819777E+03  0.51062520115E+03  0.46999998093E+01 0. -1.
</event>
<event>
 5   0  0.1038912E-02  0.7431261E+03  0.7818609E-02  0.9646197E-01
       -1   -1    0    0    0  501  0.00000000000E+00  0.00000000000E+00  0.96515976043E+02  0.96515976175E+02  0.50400001928E-02 0. -1.
        1   -1    0    0  501    0  0.00000000000E+00  0.00000000000E+00 -0.14304274991E+04  0.14304274991E+04  0.50400001928E-02 0.  1.
    10030    2    1    2    0    0  0.00000000000E+00  0.00000000000E+00 -0.13339115230E+04  0.15269434753E+04  0.74312611673E+03 0.  0.
        2    1    3    3  502    0  0.10120601291E+03  0.35732650412E+03 -0.69076069728E+03  0.78426731954E+03  0.25500000920E-02 0. -1.
       -2    1    3    3    0  502 -0.10120601291E+03 -0.35732650412E+03 -0.64315082576E+03  0.74267615572E+03  0.25500000920E-02 0.  1.
</event>
<event>
 5   0  0.1025900E-02  0.8010783E+03  0.7818609E-02  0.9558458E-01
        1   -1    0    0  501    0  0.00000000000E+00  0.00000000000E+00  0.17159429106E+03  0.17159429113E+03  0.50400001928E-02 0. -1.
       -1   -1    0    0    0  501  0.00000000000E+00  0.00000000000E+00 -0.93494716960E+03  0.93494716962E+03  0.50400001928E-02 0.  1.
    10030    2    1    2    0    0  0.00000000000E+00  0.00000000000E+00 -0.76335287855E+03  0.11065414607E+04  0.80107826532E+03 0.  0.
        1    1    3    3  502    0 -0.27661553245E+03  0.14901479479E+03 -0.38536999109E+02  0.31655435897E+03  0.50400001928E-02 0.  1.
       -1    1    3    3    0  502  0.27661553245E+03 -0.14901479479E+03 -0.72481587944E+03  0.78998710177E+03  0.50400001928E-02 0. -1.
</event>
<event>
 5   0  0.1817089E-02  0.8088483E+03  0.7818609E-02  0.9547297E-01
        2   -1    0    0  501    0  0.00000000000E+00  0.00000000000E+00  0.90297348321E+03  0.90297348321E+03  0.25500000920E-02 0.  1.
       -2   -1    0    0    0  501  0.00000000000E+00  0.00000000000E+00 -0.18113367519E+03  0.18113367521E+03  0.25500000920E-02 0. -1.
    10030    2    1    2    0    0  0.00000000000E+00  0.00000000000E+00  0.72183980802E+03  0.10841071584E+04  0.80884833096E+03 0.  0.
        2    1    3    3  502    0 -0.68345325541E+02 -0.14823411182E+03 -0.13502084491E+03  0.21183735269E+03  0.25500000920E-02 0. -1.
       -2    1    3    3    0  502  0.68345325541E+02  0.14823411182E+03  0.85686065293E+03  0.87226980573E+03  0.25500000920E-02 0.  1.
</event>
<event>
 5   0  0.1731337E-02  0.8201582E+03  0.7818609E-02  0.9531289E-01
       -2   -1    0    0    0  501  0.00000000000E+00  0.00000000000E+00  0.13597046827E+03  0.13597046829E+03  0.25500000920E-02 0.  1.
        2   -1    0    0  501    0  0.00000000000E+00  0.00000000000E+00 -0.12367748529E+04  0.12367748529E+04  0.25500000920E-02 0. -1.
    10030    2    1    2    0    0  0.00000000000E+00  0.00000000000E+00 -0.11008043846E+04  0.13727453212E+04  0.82015816990E+03 0.  0.
        4    1    3    3  502    0 -0.43091078513E+02  0.38211495172E+03 -0.31196047721E+03  0.49516626462E+03  0.12699999809E+01 0.  1.
       -4    1    3    3    0  502  0.43091078513E+02 -0.38211495172E+03 -0.78884390743E+03  0.87757905659E+03  0.12699999809E+01 0. -1.
</event>
<event>
 5   0  0.1038912E-02  0.7986268E+03  0.7818609E-02  0.9562007E-01
        1   -1    0    0  501    0  0.00000000000E+00  0.00000000000E+00  0.24672305937E+03  0.24672305942E+03  0.50400001928E-02 0.  1.
       -1   -1    0    0    0  501  0.00000000000E+00  0.00000000000E+00 -0.64627602205E+03  0.64627602207E+03  0.50400001928E-02 0. -1.
    10030    2    1    2    0    0  0.00000000000E+00  0.00000000000E+00 -0.39955296268E+03  0.89299908150E+03  0.79862681496E+03 0.  0.
        2    1    3    3  502    0  0.14702778449E+03  0.54218203666E+02  0.21090404276E+03  0.26274949720E+03  0.25500000920E-02 0.  1.
       -2    1    3    3    0  502 -0.14702778449E+03 -0.54218203666E+02 -0.61045700544E+03  0.63024958430E+03  0.25500000920E-02 0. -1.
</event>
<event>
 5   0  0.1049780E-02  0.7973772E+03  0.7818609E-02  0.9563821E-01
        1   -1    0    0  501    0  0.00000000000E+00  0.00000000000E+00  0.12800374562E+04  0.12800374562E+04  0.50400001928E-02 0.  1.
       -1   -1    0    0    0  501  0.00000000000E+00  0.00000000000E+00 -0.12417807701E+03  0.12417807712E+03  0.50400001928E-02 0. -1.
    10030    2    1    2    0    0  0.00000000000E+00  0.00000000000E+00  0.11558593792E+04  0.14042155333E+04  0.79737717523E+03 0.  0.
        5    1    3    3  502    0  0.10283668840E+03  0.26304813030E+03  0.10734084595E+04  0.11099538343E+04  0.46999998093E+01 0.  1.
       -5    1    3    3    0  502 -0.10283668840E+03 -0.26304813030E+03  0.82450919620E+02  0.29426169897E+03  0.46999998093E+01 0. -1.
</event>
<event>
 5   0  0.1038912E-02  0.8000382E+03  0.7818609E-02  0.9559962E-01
        1   -1    0    0  501    0  0.00000000000E+00  0.00000000000E+00  0.97669565769E+03  0.97669565770E+03  0.50400001928E-02 0.  1.
       -1   -1    0    0    0  501  0.00000000000E+00  0.00000000000E+00 -0.16383329844E+03  0.16383329852E+03  0.50400001928E-02 0. -1.
    10030    2    1    2    0    0  0.00000000000E+00  0.00000000000E+00  0.81286235925E+03  0.11405289562E+04  0.80003817715E+03 0.  0.
        2    1    3    3  502    0 -0.27967580908E+03 -0.10215930335E+03  0.25607800502E+02  0.29884919424E+03  0.25500000920E-02 0.  1.
       -2    1    3    3    0  502  0.27967580908E+03  0.10215930335E+03  0.78725455875E+03  0.84167976198E+03  0.25500000920E-02 0. -1.
</event>
<event>
 5   0  0.6872500E-03  0.7997712E+03  0.7818609E-02  0.9560348E-01
       -3   -1    0    0    0  501  0.00000000000E+00  0.00000000000E+00  0.38198310078E+03  0.38198311413E+03  0.10100000352E+00 0. -1.
        3   -1    0    0  501    0  0.00000000000E+00  0.00000000000E+00 -0.41862709016E+03  0.41862710235E+03  0.10100000352E+00 0.  1.
    10030    2    1    2    0    0  0.00000000000E+00  0.00000000000E+00 -0.36643989385E+02  0.80061021648E+03  0.79977117776E+03 0.  0.
        4    1    3    3  502    0 -0.31343359354E+03  0.20399770618E+02 -0.26606921523E+03  0.41164451702E+03  0.12699999809E+01 0.  1.
       -4    1    3    3    0  502  0.31343359354E+03 -0.20399770618E+02  0.22942522584E+03  0.38896569946E+03  0.12699999809E+01 0. -1.
</event>
<event>
 5   0  0.1817089E-02  0.7965111E+03  0.7818609E-02  0.9565081E-01
        2   -1    0    0  501    0  0.00000000000E+00  0.00000000000E+00  0.82443193006E+03  0.82443193006E+03  0.25500000920E-02 0. -1.
       -2   -1    0    0    0  501  0.00000000000E+00  0.00000000000E+00 -0.19238394100E+03  0.19238394102E+03  0.25500000920E-02 0.  1.
    10030    2    1    2    0    0  0.00000000000E+00  0.00000000000E+00  0.63204798906E+03  0.10168158711E+04  0.79651105153E+03 0.  0.
        2    1    3    3  502    0 -0.76364924389E+02 -0.12715481407E+03 -0.15580845617E+03  0.21511909129E+03  0.25500000920E-02 0.  1.
       -2    1    3    3    0  502  0.76364924389E+02  0.12715481407E+03  0.78785644523E+03  0.80169677978E+03  0.25500000920E-02 0. -1.
</event>
<event>
 5   0  0.1818665E-02  0.7970907E+03  0.7818609E-02  0.9564238E-01
        2   -1    0    0  501    0  0.00000000000E+00  0.00000000000E+00  0.28113468732E+03  0.28113468733E+03  0.25500000920E-02 0. -1.
       -2   -1    0    0    0  501  0.00000000000E+00  0.00000000000E+00 -0.56499043261E+03  0.56499043262E+03  0.25500000920E-02 0.  1.
    10030    2    1    2    0    0  0.00000000000E+00  0.00000000000E+00 -0.28385574529E+03  0.84612511995E+03  0.79709073165E+03 0.  0.
        3    1    3    3  502    0 -0.24432856825E+03  0.26257785050E+03  0.42528244884E+02  0.36118172524E+03  0.10100000352E+00 0. -1.
       -3    1    3    3    0  502  0.24432856825E+03 -0.26257785050E+03 -0.32638399018E+03  0.48494339471E+03  0.10100000352E+00 0.  1.
</event>
<event>
 5   0  0.1817089E-02  0.8145984E+03  0.7818609E-02  0.9539124E-01
       -2   -1    0    0    0  501  0.00000000000E+00  0.00000000000E+00  0.16530572437E+03  0.16530572439E+03  0.25500000920E-02 0.  1.
        2   -1    0    0  501    0  0.00000000000E+00  0.00000000000E+00 -0.10035503746E+04  0.10035503746E+04  0.25500000920E-02 0. -1.
    10030    2    1    2    0    0  0.00000000000E+00  0.00000000000E+00 -0.83824465020E+03  0.11688560990E+04  0.81459835902E+03 0.  0.
        2    1    3    3  502    0  0.35776896737E+03 -0.14598808283E+03 -0.23435337309E+03  0.45192107477E+03  0.25500000920E-02 0.  1.
       -2    1    3    3    0  502 -0.35776896737E+03  0.14598808283E+03 -0.60389127711E+03  0.71693502419E+03  0.25500000920E-02 0. -1.
</event>
<event>
 5   0  0.1030323E-02  0.7882066E+03  0.7818609E-02  0.9577246E-01
       -1   -1    0    0    0  501  0.00000000000E+00  0.00000000000E+00  0.18661135810E+03  0.18661135817E+03  0.50400001928E-02 0. -1.
        1   -1    0    0  501    0  0.00000000000E+00  0.00000000000E+00 -0.83230425223E+03  0.83230425225E+03  0.50400001928E-02 0.  1.
    10030    2    1    2    0    0  0.00000000000E+00  0.00000000000E+00 -0.64569289413E+03  0.10189156104E+04  0.78820664017E+03 0.  0.
        3    1    3    3  502    0 -0.37231770794E+03 -0.12554635270E+03 -0.36237551379E+03  0.53450761034E+03  0.10100000352E+00 0.  1.
       -3    1    3    3    0  502  0.37231770794E+03  0.12554635270E+03 -0.28331738035E+03  0.48440800007E+03  0.10100000352E+00 0. -1.
</event>
<event>
 5   0  0.1049780E-02  0.8244546E+03  0.7818609E-02  0.9525279E-01
       -1   -1    0    0    0  501  0.00000000000E+00  0.00000000000E+00  0.10429811180E+03  0.10429811192E+03  0.50400001928E-02 0. -1.
        1   -1    0    0  501    0  0.00000000000E+00  0.00000000000E+00 -0.16292848205E+04  0.16292848205E+04  0.50400001928E-02 0.  1.
    10030    2    1    2    0    0  0.00000000000E+00  0.00000000000E+00 -0.15249867087E+04  0.17335829324E+04  0.82445456024E+03 0.  0.
        5    1    3    3  502    0 -0.38988142523E+03  0.12293858959E+03 -0.65147108468E+03  0.76912813414E+03  0.46999998093E+01 0. -1.
       -5    1    3    3    0  502  0.38988142523E+03 -0.12293858959E+03 -0.87351562398E+03  0.96445479826E+03  0.46999998093E+01 0.  1.
</event>
<event>
 5   0  0.1673727E-02  0.8003203E+03  0.7818609E-02  0.9559554E-01
       -2   -1    0    0    0  501  0.00000000000E+00  0.00000000000E+00  0.13782432441E+03  0.13782432444E+03  0.25500000920E-02 0.  1.
        2   -1    0    0  501    0  0.00000000000E+00  0.00000000000E+00 -0.11618278940E+04  0.11618278940E+04  0.25500000920E-02 0. -1.
    10030    2    1    2    0    0  0.00000000000E+00  0.00000000000E+00 -0.10240035696E+04  0.12996522184E+04  0.80032029736E+03 0.  0.
        5    1    3    3  502    0  0.30567247000E+03 -0.38904076881E+02 -0.92651981217E+03  0.97642728272E+03  0.46999998093E+01 0. -1.
       -5    1    3    3    0  502 -0.30567247000E+03  0.38904076881E+02 -0.97483757433E+02  0.32322493573E+03  0.46999998093E+01 0.  1.
</event>
<event>
 5   0  0.1049780E-02  0.8054681E+03  0.7818609E-02  0.9552136E-01
        1   -1    0    0  501    0  0.00000000000E+00  0.00000000000E+00  0.48614428236E+03  0.48614428239E+03  0.50400001928E-02 0.  1.
       -1   -1    0    0    0  501  0.00000000000E+00  0.00000000000E+00 -0.33363494870E+03  0.33363494874E+03  0.50400001928E-02 0. -1.
    10030    2    1    2    0    0  0.00000000000E+00  0.00000000000E+00  0.15250933366E+03  0.81977923113E+03  0.80546811913E+03 0.  0.
        5    1    3    3  502    0 -0.35527914579E+02 -0.22072731347E+03  0.41715336725E+03  0.47330941406E+03  0.46999998093E+01 0.  1.
       -5    1    3    3    0  502  0.35527914579E+02  0.22072731347E+03 -0.26464403359E+03  0.34646981707E+03  0.46999998093E+01 0. -1.
</event>
<event>
 5   0  0.1038912E-02  0.7407349E+03  0.7818609E-02  0.9649999E-01
        1   -1    0    0  501    0  0.00000000000E+00  0.00000000000E+00  0.28901278004E+03  0.28901278009E+03  0.50400001928E-02 0.  1.
       -1   -1    0    0    0  501  0.00000000000E+00  0.00000000000E+00 -0.47462274902E+03  0.47462274904E+03  0.50400001928E-02 0. -1.
    10030    2    1    2    0    0  0.00000000000E+00  0.00000000000E+00 -0.18560996897E+03  0.76363552913E+03  0.74073487887E+03 0.  0.
        2    1    3    3  502    0  0.99432507549E+02 -0.14980055556E+03 -0.42661334882E+03  0.46295353914E+03  0.25500000920E-02 0. -1.
       -2    1    3    3    0  502 -0.99432507549E+02  0.14980055556E+03  0.24100337984E+03  0.30068198999E+03  0.25500000920E-02 0.  1.
</event>
<event>
 5   0  0.1673727E-02  0.7941918E+03  0.7818609E-02  0.9568463E-01
        2   -1    0    0  501    0  0.00000000000E+00  0.00000000000E+00  0.15089197734E+04  0.15089197734E+04  0.25500000920E-02 0.  1.
       -2   -1    0    0    0  501  0.00000000000E+00  0.00000000000E+00 -0.10450200226E+03  0.10450200229E+03  0.25500000920E-02 0. -1.
    10030    2    1    2    0    0  0.00000000000E+00  0.00000000000E+00  0.14044177711E+04  0.16134217757E+04  0.79419175919E+03 0.  0.
        5    1    3    3  502    0  0.19351126251E+03 -0.46040518744E+02  0.14003471409E+04  0.14144117304E+04  0.46999998093E+01 0.  1.
       -5    1    3    3    0  502 -0.19351126251E+03  0.46040518744E+02  0.40706302117E+01  0.19901004526E+03  0.46999998093E+01 0. -1.
</event>
<event>
 5   0  0.1025900E-02  0.8046022E+03  0.7818609E-02  0.9553379E-01
        1   -1    0    0  501    0  0.00000000000E+00  0.00000000000E+00  0.29127960764E+03  0.29127960768E+03  0.50400001928E-02 0. -1.
       -1   -1    0    0    0  501  0.00000000000E+00  0.00000000000E+00 -0.55563856678E+03  0.55563856680E+03  0.50400001928E-02 0.  1.
    10030    2    1    2    0    0  0.00000000000E+00  0.00000000000E+00 -0.26435895914E+03  0.84691817448E+03  0.80460222159E+03 0.  0.
        1    1    3    3  502    0  0.14269806683E+03  0.12903686682E+03  0.23971935010E+03  0.30737374337E+03  0.50400001928E-02 0. -1.
       -1    1    3    3    0  502 -0.14269806683E+03 -0.12903686682E+03 -0.50407830923E+03  0.53954443111E+03  0.50400001928E-02 0.  1.
</event>
<event>
 5   0  0.1818665E-02  0.7993874E+03  0.7818609E-02  0.9560904E-01
        2   -1    0    0  501    0  0.00000000000E+00  0.00000000000E+00  0.55259121303E+03  0.55259121303E+03  0.25500000920E-02 0.  1.
       -2   -1    0    0    0  501  0.00000000000E+00  0.00000000000E+00 -0.28910166004E+03  0.28910166005E+03  0.25500000920E-02 0. -1.
    10030    2    1    2    0    0  0.00000000000E+00  0.00000000000E+00  0.26348955299E+03  0.84169287308E+03  0.79938735796E+03 0.  0.
        3    1    3    3  502    0  0.38576682374E+03  0.48750463996E+02  0.34314588300E+02  0.39034619405E+03  0.10100000352E+00 0. -1.
       -3    1    3    3    0  502 -0.38576682374E+03 -0.48750463996E+02  0.22917496469E+03  0.45134667904E+03  0.10100000352E+00 0.  1.
</event>
<event>
 5   0  0.1747544E-02  0.7411487E+03  0.7818609E-02  0.9649340E-01
       -2   -1    0    0    0  501  0.00000000000E+00  0.00000000000E+00  0.33383010699E+03  0.33383010700E+03  0.25500000920E-02 0. -1.
        2   -1    0    0  501    0  0.00000000000E+00  0.00000000000E+00 -0.41136296609E+03  0.41136296610E+03  0.25500000920E-02 0.  1.
    10030    2    1    2    0    0  0.00000000000E+00  0.00000000000E+00 -0.77532859102E+02  0.74519307310E+03  0.74114868410E+03 0.  0.
        1    1    3    3  502    0  0.20208738110E+03  0.15172952521E+03 -0.31128826078E+03  0.40095079467E+03  0.50400001928E-02 0.  1.
       -1    1    3    3    0  502 -0.20208738110E+03 -0.15172952521E+03  0.23375540168E+03  0.34424227843E+03  0.50400001928E-02 0. -1.
</event>
<event>
 5   0  0.1818665E-02  0.8130818E+03  0.7818609E-02  0.9541272E-01
       -2   -1    0    0    0  501  0.00000000000E+00  0.00000000000E+00  0.23267900611E+03  0.23267900612E+03  0.25500000920E-02 0.  1.
        2   -1    0    0  501    0  0.00000000000E+00  0.00000000000E+00 -0.71031541217E+03  0.71031541218E+03  0.25500000920E-02 0. -1.
    10030    2    1    2    0    0  0.00000000000E+00  0.00000000000E+00 -0.47763640607E+03  0.94299441830E+03  0.81308175268E+03 0.  0.
        3    1    3    3  502    0  0.34680989767E+03  0.17453956177E+03 -0.98997294517E+02  0.40067647581E+03  0.10100000352E+00 0.  1.
       -3    1    3    3    0  502 -0.34680989767E+03 -0.17453956177E+03 -0.37863911155E+03  0.54231794249E+03  0.10100000352E+00 0. -1.
</event>
<event>
 5   0  0.6872500E-03  0.8038752E+03  0.7818609E-02  0.9554425E-01
       -4   -1    0    0    0  501  0.00000000000E+00  0.00000000000E+00  0.18145425427E+03  0.18145869859E+03  0.12699999809E+01 0.  1.
        4   -1    0    0  501    0  0.00000000000E+00  0.00000000000E+00 -0.89031239599E+03  0.89031330179E+03  0.12699999809E+01 0. -1.
    10030    2    1    2    0    0  0.00000000000E+00  0.00000000000E+00 -0.70885814172E+03  0.10717720004E+04  0.80387521154E+03 0.  0.
        3    1    3    3  502    0 -0.18696324361E+03 -0.18281281832E+03 -0.76140673390E+03  0.80505652325E+03  0.10100000352E+00 0.  1.
       -3    1    3    3    0  502  0.18696324361E+03  0.18281281832E+03  0.52548592181E+02  0.26671547713E+03  0.10100000352E+00 0. -1.
</event>
<event>
 5   0  0.1731337E-02  0.7903908E+03  0.7818609E-02  0.9574031E-01
        2   -1    0    0  501    0  0.00000000000E+00  0.00000000000E+00  0.31981575917E+04  0.31981575917E+04  0.25500000920E-02 0. -1.
       -2   -1    0    0    0  501  0.00000000000E+00  0.00000000000E+00 -0.48834177966E+02  0.48834178033E+02  0.25500000920E-02 0.  1.
    10030    2    1    2    0    0  0.00000000000E+00  0.00000000000E+00  0.31493234137E+04  0.32469917697E+04  0.79039078210E+03 0.  0.
        4    1    3    3  502    0 -0.23861128657E+03  0.13804571111E+03  0.27379520099E+04  0.27517948299E+04  0.12699999809E+01 0. -1.
       -4    1    3    3    0  502  0.23861128657E+03 -0.13804571111E+03  0.41137140385E+03  0.49519693986E+03  0.12699999809E+01 0.  1.
</event>
<event>
 5   0  0.1049780E-02  0.8348548E+03  0.7818609E-02  0.9510893E-01
       -1   -1    0    0    0  501  0.00000000000E+00  0.00000000000E+00  0.21681135829E+03  0.21681135835E+03  0.50400001928E-02 0. -1.
        1   -1    0    0  501    0  0.00000000000E+00  0.00000000000E+00 -0.80367383295E+03  0.80367383297E+03  0.50400001928E-02 0.  1.
    10030    2    1    2    0    0  0.00000000000E+00  0.00000000000E+00 -0.58686247466E+03  0.10204851913E+04  0.83485475476E+03 0.  0.
        5    1    3    3  502    0  0.29788875880E+03 -0.83320201692E+02 -0.63600260684E+03  0.70724916015E+03  0.46999998093E+01 0.  1.
       -5    1    3    3    0  502 -0.29788875880E+03  0.83320201692E+02  0.49140132187E+02  0.31323603116E+03  0.46999998093E+01 0. -1.
</event>
<event>
 5   0  0.6872500E-03  0.8070566E+03  0.7818609E-02  0.9549859E-01
        4   -1    0    0  501    0  0.00000000000E+00  0.00000000000E+00  0.21016967262E+03  0.21017350972E+03  0.12699999809E+01 0. -1.
       -4   -1    0    0    0  501  0.00000000000E+00  0.00000000000E+00 -0.77476784053E+03  0.77476888142E+03  0.12699999809E+01 0.  1.
    10030    2    1    2    0    0  0.00000000000E+00  0.00000000000E+00 -0.56459816792E+03  0.98494239114E+03  0.80705664154E+03 0.  0.
        1    1    3    3  502    0  0.26409427379E+02  0.13552436180E+03 -0.74504452742E+03  0.75773059748E+03  0.50400001928E-02 0.  1.
       -1    1    3    3    0  502 -0.26409427379E+02 -0.13552436180E+03  0.18044635951E+03  0.22721179366E+03  0.50400001928E-02 0. -1.
</event>
<event>
 5   0  0.6872500E-03  0.8071580E+03  0.7818609E-02  0.9549714E-01
        3   -1    0    0  501    0  0.00000000000E+00  0.00000000000E+00  0.43832214916E+03  0.43832216080E+03  0.10100000352E+00 0.  1.
       -3   -1    0    0    0  501  0.00000000000E+00  0.00000000000E+00 -0.37158974570E+03  0.37158975942E+03  0.10100000352E+00 0. -1.
    10030    2    1    2    0    0  0.00000000000E+00  0.00000000000E+00  0.66732403463E+02  0.80991192022E+03  0.80715804205E+03 0.  0.
        3    1    3    3  502    0 -0.35258088271E+03  0.19627581796E+03  0.27136926134E+02  0.40444270117E+03  0.10100000352E+00 0. -1.
       -3    1    3    3    0  502  0.35258088271E+03 -0.19627581796E+03  0.39595477329E+02  0.40546921905E+03  0.10100000352E+00 0.  1.
</event>
<event>
 5   0  0.6872500E-03  0.8082838E+03  0.7818609E-02  0.9548103E-01
        3   -1    0    0  501    0  0.00000000000E+00  0.00000000000E+00  0.10203425030E+04  0.10203425080E+04  0.10100000352E+00 0. -1.
       -3   -1    0    0    0  501  0.00000000000E+00  0.00000000000E+00 -0.16007435977E+03  0.16007439163E+03  0.10100000352E+00 0.  1.
    10030    2    1    2    0    0  0.00000000000E+00  0.00000000000E+00  0.86026814323E+03  0.11804168996E+04  0.80828384784E+03 0.  0.
        5    1    3    3  502    0 -0.30164286063E+03 -0.26524125658E+03  0.49490840669E+03  0.63741490457E+03  0.46999998093E+01 0. -1.
       -5    1    3    3    0  502  0.30164286063E+03  0.26524125658E+03  0.36535973654E+03  0.54300199506E+03  0.46999998093E+01 0.  1.
</event>
<event>
 5   0  0.6872500E-03  0.8575823E+03  0.7818609E-02  0.9480216E-01
        3   -1    0    0  501    0  0.00000000000E+00  0.00000000000E+00  0.57276209891E+03  0.57276210781E+03  0.10100000352E+00 0.  1.
       -3   -1    0    0    0  501  0.00000000000E+00  0.00000000000E+00 -0.32100905839E+03  0.32100907427E+03  0.10100000352E+00 0. -1.
    10030    2    1    2    0    0  0.00000000000E+00  0.00000000000E+00  0.25175304052E+03  0.89377118209E+03  0.85758225991E+03 0.  0.
        4    1    3    3  502    0 -0.41853195688E+03 -0.77540206651E+02  0.17981710496E+03  0.46207930782E+03  0.12699999809E+01 0.  1.
       -4    1    3    3    0  502  0.41853195688E+03  0.77540206651E+02  0.71935935557E+02  0.43169187426E+03  0.12699999809E+01 0. -1.
</event>
<event>
 5   0  0.1038912E-02  0.7987343E+03  0.7818609E-02  0.9561851E-01
       -1   -1    0    0    0  501  0.00000000000E+00  0.00000000000E+00  0.38004757966E+03  0.38004757969E+03  0.50400001928E-02 0. -1.
        1   -1    0    0  501    0  0.00000000000E+00  0.00000000000E+00 -0.41966882287E+03  0.41966882290E+03  0.50400001928E-02 0.  1.
    10030    2    1    2    0    0  0.00000000000E+00  0.00000000000E+00 -0.39621243210E+02  0.79971640259E+03  0.79873429978E+03 0.  0.
        2    1    3    3  502    0 -0.37019826699E+03 -0.14982056537E+03 -0.18731465342E+02  0.39980473545E+03  0.25500000920E-02 0.  1.
       -2    1    3    3    0  502  0.37019826699E+03  0.14982056537E+03 -0.20889777868E+02  0.39991166714E+03  0.25500000920E-02 0. -1.
</event>
<event>
 5   0  0.1030323E-02  0.7930445E+03  0.7818609E-02  0.9570140E-01
        1   -1    0    0  501    0  0.00000000000E+00  0.00000000000E+00  0.32835891749E+03  0.32835891753E+03  0.50400001928E-02 0.  1.
       -1   -1    0    0    0  501  0.00000000000E+00  0.00000000000E+00 -0.47883550806E+03  0.47883550809E+03  0.50400001928E-02 0. -1.
    10030    2    1    2    0    0  0.00000000000E+00  0.00000000000E+00 -0.15047659057E+03  0.80719442561E+03  0.79304453622E+03 0.  0.
        3    1    3    3  502    0  0.20343986943E+03  0.22667135182E+03 -0.33366250366E+03  0.45177246348E+03  0.10100000352E+00 0. -1.
       -3    1    3    3    0  502 -0.20343986943E+03 -0.22667135182E+03  0.18318591309E+03  0.35542196213E+03  0.10100000352E+00 0.  1.
</event>
<event>
 5   0  0.1049780E-02  0.8014296E+03  0.7818609E-02  0.9557950E-01
       -1   -1    0    0    0  501  0.00000000000E+00  0.00000000000E+00  0.29661699515E+03  0.29661699519E+03  0.50400001928E-02 0. -1.
        1   -1    0    0  501    0  0.00000000000E+00  0.00000000000E+00 -0.54134571475E+03  0.54134571477E+03  0.50400001928E-02 0.  1.
    10030    2    1    2    0    0  0.00000000000E+00  0.00000000000E+00 -0.24472871960E+03  0.83796270996E+03  0.80142957088E+03 0.  0.
        5    1    3    3  502    0  0.39734779296E+02  0.36241749144E+03 -0.29614850288E+03  0.46973536863E+03  0.46999998093E+01 0.  1.
       -5    1    3    3    0  502 -0.39734779296E+02 -0.36241749144E+03  0.51419783276E+02  0.36822734133E+03  0.46999998093E+01 0. -1.
</event>
<event>
 5   0  0.1673727E-02  0.7835755E+03  0.7818609E-02  0.9584100E-01
        2   -1    0    0  501    0  0.00000000000E+00  0.00000000000E+00  0.13794128189E+03  0.13794128191E+03  0.25500000920E-02 0.  1.
       -2   -1    0    0    0  501  0.00000000000E+00  0.00000000000E+00 -0.11127750897E+04  0.11127750897E+04  0.25500000920E-02 0. -1.
    10030    2    1    2    0    0  0.00000000000E+00  0.00000000000E+00 -0.97483380782E+03  0.12507163716E+04  0.78357545225E+03 0.  0.
        5    1    3    3  502    0 -0.15533422628E+03 -0.35295076197E+03 -0.37714771718E+03  0.53941213631E+03  0.46999998093E+01 0. -1.
       -5    1    3    3    0  502  0.15533422628E+03  0.35295076197E+03 -0.59768609064E+03  0.71130423531E+03  0.46999998093E+01 0.  1.
</event>
<event>
 5   0  0.1025900E-02  0.8025669E+03  0.7818609E-02  0.9556309E-01
       -1   -1    0    0    0  501  0.00000000000E+00  0.00000000000E+00  0.18053888261E+03  0.18053888268E+03  0.50400001928E-02 0. -1.
        1   -1    0    0  501    0  0.00000000000E+00  0.00000000000E+00 -0.89193206517E+03  0.89193206518E+03  0.50400001928E-02 0.  1.
    10030    2    1    2    0    0  0.00000000000E+00  0.00000000000E+00 -0.71139318256E+03  0.10724709479E+04  0.80256692795E+03 0.  0.
        1    1    3    3  502    0  0.17646539097E+03  0.12194653073E+03 -0.80889262737E+03  0.83685020954E+03  0.50400001928E-02 0.  1.
       -1    1    3    3    0  502 -0.17646539097E+03 -0.12194653073E+03  0.97499444813E+02  0.23562073833E+03  0.50400001928E-02 0. -1.
</event>
<event>
 5   0  0.1049780E-02  0.8005163E+03  0.7818609E-02  0.9559270E-01
        1   -1    0    0  501    0  0.00000000000E+00  0.00000000000E+00  0.66859677801E+03  0.66859677803E+03  0.50400001928E-02 0. -1.
       -1   -1    0    0    0  501  0.00000000000E+00  0.00000000000E+00 -0.23961613722E+03  0.23961613727E+03  0.50400001928E-02 0.  1.
    10030    2    1    2    0    0  0.00000000000E+00  0.00000000000E+00  0.42898064079E+03  0.90821291530E+03  0.80051627675E+03 0.  0.
        5    1    3    3  502    0  0.93561039100E+02  0.32581945775E+03 -0.26908279374E+02  0.34008547835E+03  0.46999998093E+01 0.  1.
       -5    1    3    3    0  502 -0.93561039100E+02 -0.32581945775E+03  0.45588892017E+03  0.56812743695E+03  0.46999998093E+01 0. -1.
</event>
<event>
 5   0  0.1146083E-02  0.8170078E+03  0.7818609E-02  0.9535720E-01
        1   -1    0    0  501    0  0.00000000000E+00  0.00000000000E+00  0.24049704041E+03  0.24049704047E+03  0.50400001928E-02 0.  1.
       -1   -1    0    0    0  501  0.00000000000E+00  0.00000000000E+00 -0.69387730719E+03  0.69387730721E+03  0.50400001928E-02 0. -1.
    10030    2    1    2    0    0  0.00000000000E+00  0.00000000000E+00 -0.45338026677E+03  0.93437434767E+03  0.81700780614E+03 0.  0.
        4    1    3    3  502    0 -0.87657426935E+02  0.37779610786E+03 -0.37341744688E+03  0.53838269488E+03  0.12699999809E+01 0. -1.
       -4    1    3    3    0  502  0.87657426935E+02 -0.37779610786E+03 -0.79962819892E+02  0.39599165279E+03  0.12699999809E+01 0.  1.
</event>
<event>
 5   0  0.1038912E-02  0.8001533E+03  0.7818609E-02  0.9559795E-01
       -1   -1    0    0    0  501  0.00000000000E+00  0.00000000000E+00  0.32680414386E+03  0.32680414390E+03  0.50400001928E-02 0.  1.
        1   -1    0    0  501    0  0.00000000000E+00  0.00000000000E+00 -0.48977747012E+03  0.48977747015E+03  0.50400001928E-02 0. -1.
    10030    2    1    2    0    0  0.00000000000E+00  0.00000000000E+00 -0.16297332626E+03  0.81658161405E+03  0.80015325240E+03 0.  0.
        2    1    3    3  502    0 -0.28822446197E+03 -0.41353632699E+02 -0.36148793672E+03  0.46417345014E+03  0.25500000920E-02 0. -1.
       -2    1    3    3    0  502  0.28822446197E+03  0.41353632699E+02  0.19851461046E+03  0.35240816391E+03  0.25500000920E-02 0.  1.
</event>
<event>
 5   0  0.1817089E-02  0.8050375E+03  0.7818609E-02  0.9552754E-01
       -2   -1    0    0    0  501  0.00000000000E+00  0.00000000000E+00  0.27769406268E+03  0.27769406270E+03  0.25500000920E-02 0.  1.
        2   -1    0    0  501    0  0.00000000000E+00  0.00000000000E+00 -0.58345274175E+03  0.58345274176E+03  0.25500000920E-02 0. -1.
    10030    2    1    2    0    0  0.00000000000E+00  0.00000000000E+00 -0.30575867907E+03  0.86114680445E+03  0.80503754509E+03 0.  0.
        2    1    3    3  502    0 -0.26378703032E+03  0.21144899497E+03 -0.38657116711E+03  0.51354799394E+03  0.25500000920E-02 0. -1.
       -2    1    3    3    0  502  0.26378703032E+03 -0.21144899497E+03  0.80812488042E+02  0.34759881051E+03  0.25500000920E-02 0.  1.
</event>
<event>
 5   0  0.1818665E-02  0.8020249E+03  0.7818609E-02  0.9557091E-01
        2   -1    0    0  501    0  0.00000000000E+00  0.00000000000E+00  0.52210206875E+03  0.52210206875E+03  0.25500000920E-02 0. -1.
       -2   -1    0    0    0  501  0.00000000000E+00  0.00000000000E+00 -0.30800681977E+03  0.30800681978E+03  0.25500000920E-02 0.  1.
    10030    2    1    2    0    0  0.00000000000E+00  0.00000000000E+00  0.21409524898E+03  0.83010888853E+03  0.80202493178E+03 0.  0.
        3    1    3    3  502    0 -0.20328004616E+03  0.34564662924E+03  0.11126690332E+03  0.41614264795E+03  0.10100000352E+00 0. -1.
       -3    1    3    3    0  502  0.20328004616E+03 -0.34564662924E+03  0.10282834565E+03  0.41396624058E+03  0.10100000352E+00 0.  1.
</event>
<event>
 5   0  0.1731337E-02  0.7982777E+03  0.7818609E-02  0.9562513E-01
       -2   -1    0    0    0  501  0.00000000000E+00  0.00000000000E+00  0.36680416533E+03  0.36680416534E+03  0.25500000920E-02 0.  1.
        2   -1    0    0  501    0  0.00000000000E+00  0.00000000000E+00 -0.43432391757E+03  0.43432391758E+03  0.25500000920E-02 0. -1.
    10030    2    1    2    0    0  0.00000000000E+00  0.00000000000E+00 -0.67519752239E+02  0.80112808291E+03  0.79827770124E+03 0.  0.
        4    1    3    3  502    0  0.17651638373E+03  0.20674777227E+03  0.25952930931E+03  0.37584538091E+03  0.12699999809E+01 0.  1.
       -4    1    3    3    0  502 -0.17651638373E+03 -0.20674777227E+03 -0.32704906155E+03  0.42528270200E+03  0.12699999809E+01 0. -1.
</event>
<event>
 5   0  0.1049780E-02  0.7855132E+03  0.7818609E-02  0.9581226E-01
       -1   -1    0    0    0  501  0.00000000000E+00  0.00000000000E+00  0.39016404779E+03  0.39016404782E+03  0.50400001928E-02 0. -1.
        1   -1    0    0  501    0  0.00000000000E+00  0.00000000000E+00 -0.39536637104E+03  0.39536637107E+03  0.50400001928E-02 0.  1.
    10030    2    1    2    0    0  0.00000000000E+00  0.00000000000E+00 -0.52023232495E+01  0.78553041889E+03  0.78551319201E+03 0.  0.
        5    1    3    3  502    0 -0.72918234885E+02  0.29970649292E+03 -0.24570030772E+03  0.39437517936E+03  0.46999998093E+01 0.  1.
       -5    1    3    3    0  502  0.72918234885E+02 -0.29970649292E+03  0.24049798447E+03  0.39115523953E+03  0.46999998093E+01 0. -1.
</event>
<event>
 5   0  0.1747544E-02  0.8066723E+03  0.7818609E-02  0.9550409E-01
       -2   -1    0    0    0  501  0.00000000000E+00  0.00000000000E+00  0.46600394326E+03  0.46600394326E+03  0.25500000920E-02 0.  1.
        2   -1    0    0  501    0  0.00000000000E+00  0.00000000000E+00 -0.34909590126E+03  0.34909590127E+03  0.25500000920E-02 0. -1.
    10030    2    1    2    0    0  0.00000000000E+00  0.00000000000E+00  0.11690804200E+03  0.81509984454E+03  0.80667234134E+03 0.  0.
        1    1    3    3  502    0 -0.81826276570E+01  0.90504320137E+02  0.45552517836E+03  0.46450099624E+03  0.50400001928E-02 0.  1.
       -1    1    3    3    0  502  0.81826276570E+01 -0.90504320137E+02 -0.33861713637E+03  0.35059884830E+03  0.50400001928E-02 0. -1.
</event>
<event>
 5   0  0.1673727E-02  0.7933064E+03  0.7818609E-02  0.9569757E-01
        2   -1    0    0  501    0  0.00000000000E+00  0.00000000000E+00  0.15369256230E+04  0.15369256230E+04  0.25500000920E-02 0.  1.
       -2   -1    0    0    0  501  0.00000000000E+00  0.00000000000E+00 -0.10236915593E+03  0.10236915596E+03  0.25500000920E-02 0. -1.
    10030    2    1    2    0    0  0.00000000000E+00  0.00000000000E+00  0.14345564671E+04  0.16392947790E+04  0.79330644465E+03 0.  0.
        5    1    3    3  502    0 -0.37657848485E+03 -0.21647209382E+01  0.46004863634E+03  0.59454426165E+03  0.46999998093E+01 0. -1.
       -5    1    3    3    0  502  0.37657848485E+03  0.21647209382E+01  0.97450783078E+03  0.10447505174E+04  0.46999998093E+01 0.  1.
</event>
<event>
 5   0  0.1146083E-02  0.7996496E+03  0.7818609E-02  0.9560524E-01
        1   -1    0    0  501    0  0.00000000000E+00  0.00000000000E+00  0.28149897823E+03  0.28149897828E+03  0.50400001928E-02 0. -1.
       -1   -1    0    0    0  501  0.00000000000E+00  0.00000000000E+00 -0.56788796969E+03  0.56788796971E+03  0.50400001928E-02 0.  1.
    10030    2    1    2    0    0  0.00000000000E+00  0.00000000000E+00 -0.28638899146E+03  0.84938694799E+03  0.79964963139E+03 0.  0.
        4    1    3    3  502    0 -0.27688919138E+02  0.91457819601E+02  0.26918917281E+03  0.28564949268E+03  0.12699999809E+01 0. -1.
       -4    1    3    3    0  502  0.27688919138E+02 -0.91457819601E+02 -0.55557816427E+03  0.56373745531E+03  0.12699999809E+01 0.  1.
</event>
<event>
 5   0  0.1038912E-02  0.8108977E+03  0.7818609E-02  0.9544376E-01
       -1   -1    0    0    0  501  0.00000000000E+00  0.00000000000E+00  0.12593275390E+03  0.12593275400E+03  0.50400001928E-02 0. -1.
        1   -1    0    0  501    0  0.00000000000E+00  0.00000000000E+00 -0.13053694169E+04  0.13053694169E+04  0.50400001928E-02 0.  1.
    10030    2    1    2    0    0  0.00000000000E+00  0.00000000000E+00 -0.11794366630E+04  0.14313021709E+04  0.81089768925E+03 0.  0.
        2    1    3    3  502    0 -0.59513512344E+02  0.39152115772E+03 -0.43626677032E+03  0.58920231668E+03  0.25500000920E-02 0.  1.
       -2    1    3    3    0  502  0.59513512344E+02 -0.39152115772E+03 -0.74316989266E+03  0.84209985421E+03  0.25500000920E-02 0. -1.
</event>
<event>
 5   0  0.1038912E-02  0.7959898E+03  0.7818609E-02  0.9565840E-01
        1   -1    0    0  501    0  0.00000000000E+00  0.00000000000E+00  0.22667799744E+03  0.22667799750E+03  0.50400001928E-02 0.  1.
       -1   -1    0    0    0  501  0.00000000000E+00  0.00000000000E+00 -0.69878828708E+03  0.69878828710E+03  0.50400001928E-02 0. -1.
    10030    2    1    2    0    0  0.00000000000E+00  0.00000000000E+00 -0.47211028964E+03  0.92546628459E+03  0.79598977276E+03 0.  0.
        2    1    3    3  502    0  0.24111353931E+03 -0.26175627910E+03 -0.28893088681E+02  0.35705307599E+03  0.25500000920E-02 0.  1.
       -2    1    3    3    0  502 -0.24111353931E+03  0.26175627910E+03 -0.44321720096E+03  0.56841320861E+03  0.25500000920E-02 0. -1.
</event>
<event>
 5   0  0.1030323E-02  0.7975011E+03  0.7818609E-02  0.9563641E-01
        1   -1    0    0  501    0  0.00000000000E+00  0.00000000000E+00  0.59216265832E+03  0.59216265834E+03  0.50400001928E-02 0. -1.
       -1   -1    0    0    0  501  0.00000000000E+00  0.00000000000E+00 -0.26851066103E+03  0.26851066108E+03  0.50400001928E-02 0.  1.
    10030    2    1    2    0    0  0.00000000000E+00  0.00000000000E+00  0.32365199729E+03  0.86067331941E+03  0.79750106420E+03 0.  0.
        3    1    3    3  502    0  0.36388054245E+03  0.48056148930E+02  0.33000160967E+03  0.49357827668E+03  0.10100000352E+00 0. -1.
       -3    1    3    3    0  502 -0.36388054245E+03 -0.48056148930E+02 -0.63496123853E+01  0.36709504273E+03  0.10100000352E+00 0.  1.
</event>
<event>
 5   0  0.1038912E-02  0.8030990E+03  0.7818609E-02  0.9555542E-01
       -1   -1    0    0    0  501  0.00000000000E+00  0.00000000000E+00  0.45312641492E+03  0.45312641495E+03  0.50400001928E-02 0.  1.
        1   -1    0    0  501    0  0.00000000000E+00  0.00000000000E+00 -0.35584326949E+03  0.35584326952E+03  0.50400001928E-02 0. -1.
    10030    2    1    2    0    0  0.00000000000E+00  0.00000000000E+00  0.97283145432E+02  0.80896968447E+03  0.80309896028E+03 0.  0.
        2    1    3    3  502    0 -0.22282501665E+03 -0.31915303747E+03  0.14801533261E+03  0.41643509466E+03  0.25500000920E-02 0. -1.
       -2    1    3    3    0  502  0.22282501665E+03  0.31915303747E+03 -0.50732187175E+02  0.39253458981E+03  0.25500000920E-02 0.  1.
</event>
<event>
 5   0  0.1817089E-02  0.8051710E+03  0.7818609E-02  0.9552562E-01
       -2   -1    0    0    0  501  0.00000000000E+00  0.00000000000E+00  0.66041863364E+02  0.66041863413E+02  0.25500000920E-02 0.  1.
        2   -1    0    0  501    0  0.00000000000E+00  0.00000000000E+00 -0.24541263152E+04  0.24541263152E+04  0.25500000920E-02 0. -1.
    10030    2    1    2    0    0  0.00000000000E+00  0.00000000000E+00 -0.23880844519E+04  0.25201681786E+04  0.80517097526E+03 0.  0.
        2    1    3    3  502    0  0.47273122396E+02  0.39802188745E+03 -0.13119433368E+04  0.13718059228E+04  0.25500000920E-02 0.  1.
       -2    1    3    3    0  502 -0.47273122396E+02 -0.39802188745E+03 -0.10761411151E+04  0.11483622558E+04  0.25500000920E-02 0. -1.
</event>
<event>
 5   0  0.1817089E-02  0.7978576E+03  0.7818609E-02  0.9563123E-01
        2   -1    0    0  501    0  0.00000000000E+00  0.00000000000E+00  0.10770305964E+04  0.10770305964E+04  0.25500000920E-02 0. -1.
       -2   -1    0    0    0  501  0.00000000000E+00  0.00000000000E+00 -0.14776200251E+03  0.14776200254E+03  0.25500000920E-02 0.  1.
    10030    2    1    2    0    0  0.00000000000E+00  0.00000000000E+00  0.92926859389E+03  0.12247925989E+04  0.79785762566E+03 0.  0.
        2    1    3    3  502    0  0.19280910054E+03  0.62120442732E+02 -0.62935958946E+02  0.21212079953E+03  0.25500000920E-02 0.  1.
       -2    1    3    3    0  502 -0.19280910054E+03 -0.62120442732E+02  0.99220455283E+03  0.10126717994E+04  0.25500000920E-02 0. -1.
</event>
<event>
 5   0  0.1818665E-02  0.8159355E+03  0.7818609E-02  0.9537233E-01
        2   -1    0    0  501    0  0.00000000000E+00  0.00000000000E+00  0.67503688186E+03  0.67503688187E+03  0.25500000920E-02 0.  1.
       -2   -1    0    0    0  501  0.00000000000E+00  0.00000000000E+00 -0.24656084610E+03  0.24656084611E+03  0.25500000920E-02 0. -1.
    10030    2    1    2    0    0  0.00000000000E+00  0.00000000000E+00  0.42847603577E+03  0.92159772798E+03  0.81593545026E+03 0.  0.
        3    1    3    3  502    0 -0.18221744039E+03  0.36387251421E+03  0.18167294602E+03  0.44565846979E+03  0.10100000352E+00 0. -1.
       -3    1    3    3    0  502  0.18221744039E+03 -0.36387251421E+03  0.24680308975E+03  0.47593925819E+03  0.10100000352E+00 0.  1.
</event>
<event>
 5   0  0.6872500E-03  0.8057094E+03  0.7818609E-02  0.9551790E-01
       -3   -1    0    0    0  501  0.00000000000E+00  0.00000000000E+00  0.55298108232E+03  0.55298109154E+03  0.10100000352E+00 0. -1.
        3   -1    0    0  501    0  0.00000000000E+00  0.00000000000E+00 -0.29348544052E+03  0.29348545790E+03  0.10100000352E+00 0.  1.
    10030    2    1    2    0    0  0.00000000000E+00  0.00000000000E+00  0.25949564180E+03  0.84646654944E+03  0.80570939625E+03 0.  0.
        5    1    3    3  502    0  0.37899564866E+03  0.12670262029E+03  0.76399571795E+02  0.40687865545E+03  0.46999998093E+01 0. -1.
       -5    1    3    3    0  502 -0.37899564866E+03 -0.12670262029E+03  0.18309607001E+03  0.43958789399E+03  0.46999998093E+01 0.  1.
</event>
<event>
 5   0  0.1025900E-02  0.7954542E+03  0.7818609E-02  0.9566620E-01
        1   -1    0    0  501    0  0.00000000000E+00  0.00000000000E+00  0.83629660491E+03  0.83629660493E+03  0.50400001928E-02 0. -1.
       -1   -1    0    0    0  501  0.00000000000E+00  0.00000000000E+00 -0.18915158285E+03  0.18915158292E+03  0.50400001928E-02 0.  1.
    10030    2    1    2    0    0  0.00000000000E+00  0.00000000000E+00  0.64714502206E+03  0.10254481878E+04  0.79545415103E+03 0.  0.
        1    1    3    3  502    0 -0.32962651713E+03  0.22640422368E+01  0.36676686557E+02  0.33166842787E+03  0.50400001928E-02 0.  1.
       -1    1    3    3    0  502  0.32962651713E+03 -0.22640422368E+01  0.61046833550E+03  0.69377975998E+03  0.50400001928E-02 0. -1.
</event>
<event>
 5   0  0.1038912E-02  0.8003961E+03  0.7818609E-02  0.9559444E-01
        1   -1    0    0  501    0  0.00000000000E+00  0.00000000000E+00  0.88769155175E+03  0.88769155176E+03  0.50400001928E-02 0.  1.
       -1   -1    0    0    0  501  0.00000000000E+00  0.00000000000E+00 -0.18042132969E+03  0.18042132976E+03  0.50400001928E-02 0. -1.
    10030    2    1    2    0    0  0.00000000000E+00  0.00000000000E+00  0.70727022205E+03  0.10681128815E+04  0.80039612735E+03 0.  0.
        2    1    3    3  502    0  0.24252448966E+03 -0.21612494442E+02 -0.70203196716E+02  0.25340425576E+03  0.25500000920E-02 0. -1.
       -2    1    3    3    0  502 -0.24252448966E+03  0.21612494442E+02  0.77747341877E+03  0.81470862577E+03  0.25500000920E-02 0.  1.
</event>
<event>
 5   0  0.1038912E-02  0.8073172E+03  0.7818609E-02  0.9549486E-01
       -1   -1    0    0    0  501  0.00000000000E+00  0.00000000000E+00  0.20854651634E+03  0.20854651640E+03  0.50400001928E-02 0.  1.
        1   -1    0    0  501    0  0.00000000000E+00  0.00000000000E+00 -0.78131376482E+03  0.78131376484E+03  0.50400001928E-02 0. -1.
    10030    2    1    2    0    0  0.00000000000E+00  0.00000000000E+00 -0.57276724848E+03  0.98986028124E+03  0.80731719630E+03 0.  0.
        2    1    3    3  502    0 -0.13837129638E+02  0.29446262552E+03 -0.62448921170E+03  0.69056967753E+03  0.25500000920E-02 0. -1.
       -2    1    3    3    0  502  0.13837129638E+02 -0.29446262552E+03  0.51721963222E+02  0.29929060371E+03  0.25500000920E-02 0.  1.
</event>
<event>
 5   0  0.1818665E-02  0.7773685E+03  0.7818609E-02  0.9593366E-01
       -2   -1    0    0    0  501  0.00000000000E+00  0.00000000000E+00  0.88029328467E+02  0.88029328504E+02  0.25500000920E-02 0.  1.
        2   -1    0    0  501    0  0.00000000000E+00  0.00000000000E+00 -0.17161943742E+04  0.17161943742E+04  0.25500000920E-02 0. -1.
    10030    2    1    2    0    0  0.00000000000E+00  0.00000000000E+00 -0.16281650458E+04  0.18042237028E+04  0.77736847973E+03 0.  0.
        3    1    3    3  502    0 -0.31925337987E+03  0.53711274057E+02 -0.31484995105E+03  0.45159508788E+03  0.10100000352E+00 0.  1.
       -3    1    3    3    0  502  0.31925337987E+03 -0.53711274057E+02 -0.13133150947E+04  0.13526286149E+04  0.10100000352E+00 0. -1.
</event>
<event>
 5   0  0.1817089E-02  0.7998816E+03  0.7818609E-02  0.9560188E-01
       -2   -1    0    0    0  501  0.00000000000E+00  0.00000000000E+00  0.22088014767E+03  0.22088014768E+03  0.25500000920E-02 0. -1.
        2   -1    0    0  501    0  0.00000000000E+00  0.00000000000E+00 -0.72416042853E+03  0.72416042854E+03  0.25500000920E-02 0.  1.
    10030    2    1    2    0    0  0.00000000000E+00  0.00000000000E+00 -0.50328028087E+03  0.94504057622E+03  0.79988164724E+03 0.  0.
        2    1    3    3  502    0  0.19135183327E+02  0.39921243086E+03 -0.26900188978E+03  0.48176626792E+03  0.25500000920E-02 0. -1.
       -2    1    3    3    0  502 -0.19135183327E+02 -0.39921243086E+03 -0.23427839109E+03  0.46327430830E+03  0.25500000920E-02 0.  1.
</event>
<event>
 5   0  0.1817089E-02  0.7976211E+03  0.7818609E-02  0.9563467E-01
        2   -1    0    0  501    0  0.00000000000E+00  0.00000000000E+00  0.45606673813E+03  0.45606673813E+03  0.25500000920E-02 0.  1.
       -2   -1    0    0    0  501  0.00000000000E+00  0.00000000000E+00 -0.34874247131E+03  0.34874247132E+03  0.25500000920E-02 0. -1.
    10030    2    1    2    0    0  0.00000000000E+00  0.00000000000E+00  0.10732426681E+03  0.80480920946E+03  0.79762106628E+03 0.  0.
        2    1    3    3  502    0 -0.30817445455E+03 -0.27098500113E+02  0.30761266495E+03  0.43626984171E+03  0.25500000920E-02 0.  1.
       -2    1    3    3    0  502  0.30817445455E+03  0.27098500113E+02 -0.20028839814E+03  0.36853936774E+03  0.25500000920E-02 0. -1.
</event>
<event>
 5   0  0.1146083E-02  0.7969631E+03  0.7818609E-02  0.9564423E-01
        1   -1    0    0  501    0  0.00000000000E+00  0.00000000000E+00  0.30332954241E+03  0.30332954246E+03  0.50400001928E-02 0. -1.
       -1   -1    0    0    0  501  0.00000000000E+00  0.00000000000E+00 -0.52348193700E+03  0.52348193702E+03  0.50400001928E-02 0.  1.
    10030    2    1    2    0    0  0.00000000000E+00  0.00000000000E+00 -0.22015239458E+03  0.82681147948E+03  0.79696307678E+03 0.  0.
        4    1    3    3  502    0  0.19870268530E+02  0.91160823641E+02  0.29183570256E+03  0.30638996969E+03  0.12699999809E+01 0. -1.
       -4    1    3    3    0  502 -0.19870268530E+02 -0.91160823641E+02 -0.51198809714E+03  0.52042150979E+03  0.12699999809E+01 0.  1.
</event>
<event>
 5   0  0.6872500E-03  0.7958728E+03  0.7818609E-02  0.9566010E-01
       -3   -1    0    0    0  501  0.00000000000E+00  0.00000000000E+00  0.49105274816E+03  0.49105275854E+03  0.10100000352E+00 0.  1.
        3   -1    0    0  501    0  0.00000000000E+00  0.00000000000E+00 -0.32247731317E+03  0.32247732899E+03  0.10100000352E+00 0. -1.
    10030    2    1    2    0    0  0.00000000000E+00  0.00000000000E+00  0.16857543498E+03  0.81353008753E+03  0.79587280770E+03 0.  0.
        2    1    3    3  502    0  0.17193370916E+03 -0.15458369073E+03  0.41534988079E+03  0.47536600769E+03  0.25500000920E-02 0.  1.
       -2    1    3    3    0  502 -0.17193370916E+03  0.15458369073E+03 -0.24677444581E+03  0.33816407984E+03  0.25500000920E-02 0. -1.
</event>
<event>
 5   0  0.1747544E-02  0.7974486E+03  0.7818609E-02  0.9563718E-01
        2   -1    0    0  501    0  0.00000000000E+00  0.00000000000E+00  0.11542251425E+04  0.11542251425E+04  0.25500000920E-02 0. -1.
       -2   -1    0    0    0  501  0.00000000000E+00  0.00000000000E+00 -0.13773833742E+03  0.13773833744E+03  0.25500000920E-02 0.  1.
    10030    2    1    2    0    0  0.00000000000E+00  0.00000000000E+00  0.10164868051E+04  0.12919634800E+04  0.79744856175E+03 0.  0.
        1    1    3    3  502    0  0.34688632708E+03  0.11636986998E+03  0.76496482329E+03  0.84796418052E+03  0.50400001928E-02 0. -1.
       -1    1    3    3    0  502 -0.34688632708E+03 -0.11636986998E+03  0.25152198182E+03  0.44399929945E+03  0.50400001928E-02 0.  1.
</event>
<event>
 5   0  0.1818665E-02  0.8003924E+03  0.7818609E-02  0.9559449E-01
        2   -1    0    0  501    0  0.00000000000E+00  0.00000000000E+00  0.17683857705E+03  0.17683857706E+03  0.25500000920E-02 0.  1.
       -2   -1    0    0    0  501  0.00000000000E+00  0.00000000000E+00 -0.90566784790E+03  0.90566784790E+03  0.25500000920E-02 0. -1.
    10030    2    1    2    0    0  0.00000000000E+00  0.00000000000E+00 -0.72882927086E+03  0.10825064250E+04  0.80039243752E+03 0.  0.
        3    1    3    3  502    0  0.14655244187E+03  0.16310174998E+03 -0.81719350474E+03  0.84609989567E+03  0.10100000352E+00 0. -1.
       -3    1    3    3    0  502 -0.14655244187E+03 -0.16310174998E+03  0.88364233885E+02  0.23640652930E+03  0.10100000352E+00 0.  1.
</event>
<event>
 5   0  0.6872500E-03  0.7999055E+03  0.7818609E-02  0.9560154E-01
        4   -1    0    0  501    0  0.00000000000E+00  0.00000000000E+00  0.23827303571E+03  0.23827642025E+03  0.12699999809E+01 0.  1.
       -4   -1    0    0    0  501  0.00000000000E+00  0.00000000000E+00 -0.67133121156E+03  0.67133241283E+03  0.12699999809E+01 0. -1.
    10030    2    1    2    0    0  0.00000000000E+00  0.00000000000E+00 -0.43305817585E+03  0.90960883308E+03  0.79990552289E+03 0.  0.
        3    1    3    3  502    0  0.16583193243E+03  0.19894316803E+03 -0.56309469681E+03  0.61980179227E+03  0.10100000352E+00 0. -1.
       -3    1    3    3    0  502 -0.16583193243E+03 -0.19894316803E+03  0.13003652096E+03  0.28980704081E+03  0.10100000352E+00 0.  1.
</event>
<event>
 5   0  0.1818665E-02  0.7906355E+03  0.7818609E-02  0.9573672E-01
       -2   -1    0    0    0  501  0.00000000000E+00  0.00000000000E+00  0.36613779378E+03  0.36613779379E+03  0.25500000920E-02 0. -1.
        2   -1    0    0  501    0  0.00000000000E+00  0.00000000000E+00 -0.42682322565E+03  0.42682322566E+03  0.25500000920E-02 0.  1.
    10030    2    1    2    0    0  0.00000000000E+00  0.00000000000E+00 -0.60685431871E+02  0.79296101944E+03  0.79063547651E+03 0.  0.
        3    1    3    3  502    0 -0.38751514346E+03 -0.76950062406E+02 -0.44050596938E+02  0.39752957602E+03  0.10100000352E+00 0. -1.
       -3    1    3    3    0  502  0.38751514346E+03  0.76950062406E+02 -0.16634834933E+02  0.39543144343E+03  0.10100000352E+00 0.  1.
</event>
<event>
 5   0  0.1817089E-02  0.7996650E+03  0.7818609E-02  0.9560502E-01
        2   -1    0    0  501    0  0.00000000000E+00  0.00000000000E+00  0.18637647626E+04  0.18637647626E+04  0.25500000920E-02 0. -1.
       -2   -1    0    0    0  501  0.00000000000E+00  0.00000000000E+00 -0.85775860997E+02  0.85775861035E+02  0.25500000920E-02 0.  1.
    10030    2    1    2    0    0  0.00000000000E+00  0.00000000000E+00  0.17779889016E+04  0.19495406236E+04  0.79966499798E+03 0.  0.
        2    1    3    3  502    0 -0.47273554043E+02 -0.39616490691E+03  0.95278321566E+03  0.10329459223E+04  0.25500000920E-02 0. -1.
       -2    1    3    3    0  502  0.47273554043E+02  0.39616490691E+03  0.82520568595E+03  0.91659470133E+03  0.25500000920E-02 0.  1.
</event>
<event>
 5   0  0.1673727E-02  0.7873861E+03  0.7818609E-02  0.9578457E-01
       -2   -1    0    0    0  501  0.00000000000E+00  0.00000000000E+00  0.37872668971E+03  0.37872668972E+03  0.25500000920E-02 0. -1.
        2   -1    0    0  501    0  0.00000000000E+00  0.00000000000E+00 -0.40925083743E+03  0.40925083743E+03  0.25500000920E-02 0.  1.
    10030    2    1    2    0    0  0.00000000000E+00  0.00000000000E+00 -0.30524147714E+02  0.78797752716E+03  0.78738609316E+03 0.  0.
        5    1    3    3  502    0 -0.76569205462E+02  0.32352138275E+03 -0.22623597615E+03  0.40216132984E+03  0.46999998093E+01 0.  1.
       -5    1    3    3    0  502  0.76569205462E+02 -0.32352138275E+03  0.19571182843E+03  0.38581619731E+03  0.46999998093E+01 0. -1.
</event>
<event>
 5   0  0.1030323E-02  0.8083782E+03  0.7818609E-02  0.9547969E-01
       -1   -1    0    0    0  501  0.00000000000E+00  0.00000000000E+00  0.19267106378E+03  0.19267106385E+03  0.50400001928E-02 0.  1.
        1   -1    0    0  501    0  0.00000000000E+00  0.00000000000E+00 -0.84791564321E+03  0.84791564322E+03  0.50400001928E-02 0. -1.
    10030    2    1    2    0    0  0.00000000000E+00  0.00000000000E+00 -0.65524457943E+03  0.10405867071E+04  0.80837815165E+03 0.  0.
        3    1    3    3  502    0  0.25641095727E+03 -0.31189948582E+03 -0.30385406916E+03  0.50532679902E+03  0.10100000352E+00 0. -1.
       -3    1    3    3    0  502 -0.25641095727E+03  0.31189948582E+03 -0.35139051026E+03  0.53525990805E+03  0.10100000352E+00 0.  1.
</event>
<event>
 5   0  0.1049780E-02  0.7897510E+03  0.7818609E-02  0.9574972E-01
       -1   -1    0    0    0  501  0.00000000000E+00  0.00000000000E+00  0.42006570668E+03  0.42006570671E+03  0.50400001928E-02 0. -1.
        1   -1    0    0  501    0  0.00000000000E+00  0.00000000000E+00 -0.37119587447E+03  0.37119587450E+03  0.50400001928E-02 0.  1.
    10030    2    1    2    0    0  0.00000000000E+00  0.00000000000E+00  0.48869832214E+02  0.79126158121E+03  0.78975099202E+03 0.  0.
        5    1    3    3  502    0  0.30925397295E+03 -0.15360110483E+03  0.21630381716E+03  0.40748098177E+03  0.46999998093E+01 0. -1.
       -5    1    3    3    0  502 -0.30925397295E+03  0.15360110483E+03 -0.16743398494E+03  0.38378059944E+03  0.46999998093E+01 0.  1.
</event>
<event>
 5   0  0.1747544E-02  0.7966053E+03  0.7818609E-02  0.9564944E-01
        2   -1    0    0  501    0  0.00000000000E+00  0.00000000000E+00  0.12897215236E+04  0.12897215236E+04  0.25500000920E-02 0.  1.
       -2   -1    0    0    0  501  0.00000000000E+00  0.00000000000E+00 -0.12300717993E+03  0.12300717995E+03  0.25500000920E-02 0. -1.
    10030    2    1    2    0    0  0.00000000000E+00  0.00000000000E+00  0.11667143437E+04  0.14127287036E+04  0.79660531641E+03 0.  0.
        1    1    3    3  502    0  0.63551532814E+02  0.10594175430E+03  0.12548845538E+04  0.12609511077E+04  0.50400001928E-02 0.  1.
       -1    1    3    3    0  502 -0.63551532814E+02 -0.10594175430E+03 -0.88170210121E+02  0.15177759586E+03  0.50400001928E-02 0. -1.
</event>
<event>
 5   0  0.1038912E-02  0.8011042E+03  0.7818609E-02  0.9558420E-01
       -1   -1    0    0    0  501  0.00000000000E+00  0.00000000000E+00  0.15992061003E+03  0.15992061011E+03  0.50400001928E-02 0.  1.
        1   -1    0    0  501    0  0.00000000000E+00  0.00000000000E+00 -0.10032601482E+04  0.10032601482E+04  0.50400001928E-02 0. -1.
    10030    2    1    2    0    0  0.00000000000E+00  0.00000000000E+00 -0.84333953815E+03  0.11631807583E+04  0.80110417544E+03 0.  0.
        2    1    3    3  502    0  0.25667694070E+03  0.21893897886E+03 -0.10814923478E+03  0.35427896543E+03  0.25500000920E-02 0.  1.
       -2    1    3    3    0  502 -0.25667694070E+03 -0.21893897886E+03 -0.73519030337E+03  0.80890179288E+03  0.25500000920E-02 0. -1.
</event>
<event>
 5   0  0.1817089E-02  0.8054762E+03  0.7818609E-02  0.9552124E-01
       -2   -1    0    0    0  501  0.00000000000E+00  0.00000000000E+00  0.10991530624E+04  0.10991530624E+04  0.25500000920E-02 0. -1.
        2   -1    0    0  501    0  0.00000000000E+00  0.00000000000E+00 -0.14756633969E+03  0.14756633971E+03  0.25500000920E-02 0.  1.
    10030    2    1    2    0    0  0.00000000000E+00  0.00000000000E+00  0.95158672269E+03  0.12467194021E+04  0.80547624221E+03 0.  0.
        2    1    3    3  502    0 -0.84598242813E+02 -0.25534745142E+03  0.11868144279E+02  0.26925830812E+03  0.25500000920E-02 0.  1.
       -2    1    3    3    0  502  0.84598242813E+02  0.25534745142E+03  0.93971857841E+03  0.97746109398E+03  0.25500000920E-02 0. -1.
</event>
<event>
 5   0  0.1025900E-02  0.7929540E+03  0.7818609E-02  0.9570272E-01
        1   -1    0    0  501    0  0.00000000000E+00  0.00000000000E+00  0.49883317696E+03  0.49883317698E+03  0.50400001928E-02 0. -1.
       -1   -1    0    0    0  501  0.00000000000E+00  0.00000000000E+00 -0.31512338767E+03  0.31512338771E+03  0.50400001928E-02 0.  1.
    10030    2    1    2    0    0  0.00000000000E+00  0.00000000000E+00  0.18370978929E+03  0.81395656469E+03  0.79295397251E+03 0.  0.
        1    1    3    3  502    0 -0.36914315335E+01  0.59542815650E+02 -0.31048988574E+03  0.31616916791E+03  0.50400001928E-02 0.  1.
       -1    1    3    3    0  502  0.36914315335E+01 -0.59542815650E+02  0.49419967504E+03  0.49778739678E+03  0.50400001928E-02 0. -1.
</event>
<event>
 5   0  0.1731337E-02  0.7990516E+03  0.7818609E-02  0.9561391E-01
        2   -1    0    0  501    0  0.00000000000E+00  0.00000000000E+00  0.10405756112E+04  0.10405756112E+04  0.25500000920E-02 0. -1.
       -2   -1    0    0    0  501  0.00000000000E+00  0.00000000000E+00 -0.15339668451E+03  0.15339668453E+03  0.25500000920E-02 0.  1.
    10030    2    1    2    0    0  0.00000000000E+00  0.00000000000E+00  0.88717892671E+03  0.11939722958E+04  0.79905155968E+03 0.  0.
        4    1    3    3  502    0  0.19098357323E+02  0.39755843251E+03  0.39178917526E+03  0.55849603872E+03  0.12699999809E+01 0.  1.
       -4    1    3    3    0  502 -0.19098357323E+02 -0.39755843251E+03  0.49538975145E+03  0.63547625704E+03  0.12699999809E+01 0. -1.
</event>
<event>
 5   0  0.1146083E-02  0.8039317E+03  0.7818609E-02  0.9554343E-01
       -1   -1    0    0    0  501  0.00000000000E+00  0.00000000000E+00  0.36208572000E+03  0.36208572003E+03  0.50400001928E-02 0.  1.
        1   -1    0    0  501    0  0.00000000000E+00  0.00000000000E+00 -0.44623841980E+03  0.44623841983E+03  0.50400001928E-02 0. -1.
    10030    2    1    2    0    0  0.00000000000E+00  0.00000000000E+00 -0.84152699807E+02  0.80832413986E+03  0.80393173727E+03 0.  0.
        4    1    3    3  502    0  0.13273939821E+03  0.28994359712E+03  0.20398077829E+03  0.37854564872E+03  0.12699999809E+01 0.  1.
       -4    1    3    3    0  502 -0.13273939821E+03 -0.28994359712E+03 -0.28813347810E+03  0.42977849114E+03  0.12699999809E+01 0. -1.
</event>
<event>
 5   0  0.6872500E-03  0.8023937E+03  0.7818609E-02  0.9556559E-01
       -4   -1    0    0    0  501  0.00000000000E+00  0.00000000000E+00  0.97884126000E+03  0.97884208389E+03  0.12699999809E+01 0. -1.
        4   -1    0    0  501    0  0.00000000000E+00  0.00000000000E+00 -0.16443485917E+03  0.16443976347E+03  0.12699999809E+01 0.  1.
    10030    2    1    2    0    0  0.00000000000E+00  0.00000000000E+00  0.81440640083E+03  0.11432818474E+04  0.80239366696E+03 0.  0.
        2    1    3    3  502    0  0.63349897814E+02 -0.19136543931E+03 -0.87043382674E+02  0.21956887619E+03  0.25500000920E-02 0.  1.
       -2    1    3    3    0  502 -0.63349897814E+02  0.19136543931E+03  0.90144978351E+03  0.92371297117E+03  0.25500000920E-02 0. -1.
</event>
<event>
 5   0  0.1038912E-02  0.8020332E+03  0.7818609E-02  0.9557079E-01
        1   -1    0    0  501    0  0.00000000000E+00  0.00000000000E+00  0.24765172236E+03  0.24765172241E+03  0.50400001928E-02 0.  1.
       -1   -1    0    0    0  501  0.00000000000E+00  0.00000000000E+00 -0.64935669861E+03  0.64935669863E+03  0.50400001928E-02 0. -1.
    10030    2    1    2    0    0  0.00000000000E+00  0.00000000000E+00 -0.40170497625E+03  0.89700842104E+03  0.80203317853E+03 0.  0.
        2    1    3    3  502    0 -0.39484175614E+03 -0.67526206678E+02 -0.22191036982E+03  0.45793450757E+03  0.25500000920E-02 0. -1.
       -2    1    3    3    0  502  0.39484175614E+03  0.67526206678E+02 -0.17979460643E+03  0.43907391347E+03  0.25500000920E-02 0.  1.
</event>
<event>
 5   0  0.1049780E-02  0.7472928E+03  0.7818609E-02  0.9639607E-01
       -1   -1    0    0    0  501  0.00000000000E+00  0.00000000000E+00  0.26430242446E+03  0.26430242451E+03  0.50400001928E-02 0.  1.
        1   -1    0    0  501    0  0.00000000000E+00  0.00000000000E+00 -0.52822677798E+03  0.52822677800E+03  0.50400001928E-02 0. -1.
    10030    2    1    2    0    0  0.00000000000E+00  0.00000000000E+00 -0.26392435352E+03  0.79252920252E+03  0.74729276222E+03 0.  0.
        5    1    3    3  502    0 -0.92918125609E+02  0.76587152668E+02  0.24312832638E+03  0.27135372323E+03  0.46999998093E+01 0.  1.
       -5    1    3    3    0  502  0.92918125609E+02 -0.76587152668E+02 -0.50705267990E+03  0.52117547929E+03  0.46999998093E+01 0. -1.
</event>
<event>
 5   0  0.1747544E-02  0.7928210E+03  0.7818609E-02  0.9570467E-01
        2   -1    0    0  501    0  0.00000000000E+00  0.00000000000E+00  0.42745140045E+03  0.42745140046E+03  0.25500000920E-02 0. -1.
       -2   -1    0    0    0  501  0.00000000000E+00  0.00000000000E+00 -0.36762373495E+03  0.36762373496E+03  0.25500000920E-02 0.  1.
    10030    2    1    2    0    0  0.00000000000E+00  0.00000000000E+00  0.59827665499E+02  0.79507513542E+03  0.79282098951E+03 0.  0.
        1    1    3    3  502    0  0.10269847945E+03 -0.16379565832E+03 -0.31714132944E+03  0.37142242560E+03  0.50400001928E-02 0.  1.
       -1    1    3    3    0  502 -0.10269847945E+03  0.16379565832E+03  0.37696899494E+03  0.42365270983E+03  0.50400001928E-02 0. -1.
</event>
<event>
 5   0  0.1030323E-02  0.8019136E+03  0.7818609E-02  0.9557251E-01
       -1   -1    0    0    0  501  0.00000000000E+00  0.00000000000E+00  0.16095148889E+03  0.16095148896E+03  0.50400001928E-02 0.  1.
        1   -1    0    0  501    0  0.00000000000E+00  0.00000000000E+00 -0.99884966565E+03  0.99884966567E+03  0.50400001928E-02 0. -1.
    10030    2    1    2    0    0  0.00000000000E+00  0.00000000000E+00 -0.83789817677E+03  0.11598011546E+04  0.80191356370E+03 0.  0.
        3    1    3    3  502    0  0.63436416953E+02 -0.38055778784E+03 -0.57683967701E+03  0.69396861028E+03  0.10100000352E+00 0.  1.
       -3    1    3    3    0  502 -0.63436416953E+02  0.38055778784E+03 -0.26105849975E+03  0.46583254435E+03  0.10100000352E+00 0. -1.
</event>
<event>
 5   0  0.1747544E-02  0.7873493E+03  0.7818609E-02  0.9578511E-01
       -2   -1    0    0    0  501  0.00000000000E+00  0.00000000000E+00  0.19124026382E+03  0.19124026384E+03  0.25500000920E-02 0.  1.
        2   -1    0    0  501    0  0.00000000000E+00  0.00000000000E+00 -0.81039274541E+03  0.81039274541E+03  0.25500000920E-02 0. -1.
    10030    2    1    2    0    0  0.00000000000E+00  0.00000000000E+00 -0.61915248159E+03  0.10016330093E+04  0.78734928067E+03 0.  0.
        1    1    3    3  502    0 -0.28456447837E+02 -0.24614274090E+03  0.79595510599E+02  0.26025269192E+03  0.50400001928E-02 0.  1.
       -1    1    3    3    0  502  0.28456447837E+02  0.24614274090E+03 -0.69874799218E+03  0.74138031733E+03  0.50400001928E-02 0. -1.
</event>
<event>
 5   0  0.1030323E-02  0.8446991E+03  0.7818609E-02  0.9497479E-01
       -1   -1    0    0    0  501  0.00000000000E+00  0.00000000000E+00  0.64249770249E+02  0.64249770447E+02  0.50400001928E-02 0.  1.
        1   -1    0    0  501    0  0.00000000000E+00  0.00000000000E+00 -0.27763390504E+04  0.27763390504E+04  0.50400001928E-02 0. -1.
    10030    2    1    2    0    0  0.00000000000E+00  0.00000000000E+00 -0.27120892801E+04  0.28405888208E+04  0.84469910952E+03 0.  0.
        3    1    3    3  502    0 -0.11455678284E+03  0.17853150686E+03 -0.12788288403E+03  0.24769093174E+03  0.10100000352E+00 0.  1.
       -3    1    3    3    0  502  0.11455678284E+03 -0.17853150686E+03 -0.25842063961E+04  0.25928978891E+04  0.10100000352E+00 0. -1.
</event>
<event>
 5   0  0.1049780E-02  0.7979195E+03  0.7818609E-02  0.9563033E-01
       -1   -1    0    0    0  501  0.00000000000E+00  0.00000000000E+00  0.10841452964E+03  0.10841452975E+03  0.50400001928E-02 0.  1.
        1   -1    0    0  501    0  0.00000000000E+00  0.00000000000E+00 -0.14681509880E+04  0.14681509880E+04  0.50400001928E-02 0. -1.
    10030    2    1    2    0    0  0.00000000000E+00  0.00000000000E+00 -0.13597364584E+04  0.15765655178E+04  0.79791954206E+03 0.  0.
        5    1    3    3  502    0 -0.26660498753E+03 -0.27593164575E+03 -0.46405458276E+03  0.60215051132E+03  0.46999998093E+01 0.  1.
       -5    1    3    3    0  502  0.26660498753E+03  0.27593164575E+03 -0.89568187562E+03  0.97441500646E+03  0.46999998093E+01 0. -1.
</event>
<event>
 5   0  0.1731337E-02  0.7841216E+03  0.7818609E-02  0.9583289E-01
        2   -1    0    0  501    0  0.00000000000E+00  0.00000000000E+00  0.17977537932E+03  0.17977537933E+03  0.25500000920E-02 0.  1.
       -2   -1    0    0    0  501  0.00000000000E+00  0.00000000000E+00 -0.85502062463E+03  0.85502062464E+03  0.25500000920E-02 0. -1.
    10030    2    1    2    0    0  0.00000000000E+00  0.00000000000E+00 -0.67524524532E+03  0.10347960040E+04  0.78412156488E+03 0.  0.
        4    1    3    3  502    0  0.34467224003E+03  0.16252296532E+03 -0.21597215397E+03  0.43801626853E+03  0.12699999809E+01 0. -1.
       -4    1    3    3    0  502 -0.34467224003E+03 -0.16252296532E+03 -0.45927309134E+03  0.59677973544E+03  0.12699999809E+01 0.  1.
</event>
<event>
 5   0  0.1817089E-02  0.8020071E+03  0.7818609E-02  0.9557117E-01
       -2   -1    0    0    0  501  0.00000000000E+00  0.00000000000E+00  0.20769738571E+03  0.20769738572E+03  0.25500000920E-02 0.  1.
        2   -1    0    0  501    0  0.00000000000E+00  0.00000000000E+00 -0.77422173591E+03  0.77422173592E+03  0.25500000920E-02 0. -1.
    10030    2    1    2    0    0  0.00000000000E+00  0.00000000000E+00 -0.56652435021E+03  0.98191912164E+03  0.80200705861E+03 0.  0.
        2    1    3    3  502    0  0.15731771419E+03  0.36135173133E+03 -0.37389459769E+03  0.54325050127E+03  0.25500000920E-02 0. -1.
       -2    1    3    3    0  502 -0.15731771419E+03 -0.36135173133E+03 -0.19262975252E+03  0.43866862037E+03  0.25500000920E-02 0.  1.
</event>
<event>
 5   0  0.1146083E-02  0.7946229E+03  0.7818609E-02  0.9567833E-01
       -1   -1    0    0    0  501  0.00000000000E+00  0.00000000000E+00  0.13020402447E+03  0.13020402457E+03  0.50400001928E-02 0.  1.
        1   -1    0    0  501    0  0.00000000000E+00  0.00000000000E+00 -0.12123771044E+04  0.12123771045E+04  0.50400001928E-02 0. -1.
    10030    2    1    2    0    0  0.00000000000E+00  0.00000000000E+00 -0.10821730800E+04  0.13425811290E+04  0.79462287470E+03 0.  0.
        4    1    3    3  502    0 -0.18780597949E+00 -0.39688307089E+03 -0.57217477671E+03  0.69634890338E+03  0.12699999809E+01 0.  1.
       -4    1    3    3    0  502  0.18780597949E+00  0.39688307089E+03 -0.50999830326E+03  0.64623222564E+03  0.12699999809E+01 0. -1.
</event>
<event>
 5   0  0.6872500E-03  0.7999442E+03  0.7818609E-02  0.9560098E-01
       -3   -1    0    0    0  501  0.00000000000E+00  0.00000000000E+00  0.43476745763E+03  0.43476746936E+03  0.10100000352E+00 0. -1.
        3   -1    0    0  501    0  0.00000000000E+00  0.00000000000E+00 -0.36796149635E+03  0.36796151021E+03  0.10100000352E+00 0.  1.
    10030    2    1    2    0    0  0.00000000000E+00  0.00000000000E+00  0.66805961281E+02  0.80272897957E+03  0.79994423442E+03 0.  0.
        3    1    3    3  502    0 -0.18441031803E+03 -0.23820248067E+03  0.29743506233E+03  0.42333817888E+03  0.10100000352E+00 0. -1.
       -3    1    3    3    0  502  0.18441031803E+03  0.23820248067E+03 -0.23062910105E+03  0.37939080069E+03  0.10100000352E+00 0.  1.
</event>
<event>
 5   0  0.1673727E-02  0.7804067E+03  0.7818609E-02  0.9588819E-01
       -2   -1    0    0    0  501  0.00000000000E+00  0.00000000000E+00  0.11799769171E+04  0.11799769171E+04  0.25500000920E-02 0. -1.
        2   -1    0    0  501    0  0.00000000000E+00  0.00000000000E+00 -0.12903528737E+03  0.12903528740E+03  0.25500000920E-02 0.  1.
    10030    2    1    2    0    0  0.00000000000E+00  0.00000000000E+00  0.10509416297E+04  0.13090122045E+04  0.78040671603E+03 0.  0.
        5    1    3    3  502    0 -0.37275844217E+03  0.11074308479E+03  0.47180403166E+03  0.61141967692E+03  0.46999998093E+01 0. -1.
       -5    1    3    3    0  502  0.37275844217E+03 -0.11074308479E+03  0.57913759805E+03  0.69759252756E+03  0.46999998093E+01 0.  1.
</event>
<event>
 5   0  0.1025900E-02  0.7985444E+03  0.7818609E-02  0.9562126E-01
       -1   -1    0    0    0  501  0.00000000000E+00  0.00000000000E+00  0.23233082343E+03  0.23233082348E+03  0.50400001928E-02 0. -1.
        1   -1    0    0  501    0  0.00000000000E+00  0.00000000000E+00 -0.68616929616E+03  0.68616929618E+03  0.50400001928E-02 0.  1.
    10030    2    1    2    0    0  0.00000000000E+00  0.00000000000E+00 -0.45383847273E+03  0.91850011966E+03  0.79854436976E+03 0.  0.
        1    1    3    3  502    0 -0.21533981346E+03 -0.33143078281E+03 -0.29199229105E+03  0.49140319201E+03  0.50400001928E-02 0. -1.
       -1    1    3    3    0  502  0.21533981346E+03  0.33143078281E+03 -0.16184618169E+03  0.42709692765E+03  0.50400001928E-02 0.  1.
</event>
<event>
 5   0  0.1731337E-02  0.7923280E+03  0.7818609E-02  0.9571189E-01
        2   -1    0    0  501    0  0.00000000000E+00  0.00000000000E+00  0.72502210765E+03  0.72502210765E+03  0.25500000920E-02 0.  1.
       -2   -1    0    0    0  501  0.00000000000E+00  0.00000000000E+00 -0.21647053645E+03  0.21647053647E+03  0.25500000920E-02 0. -1.
    10030    2    1    2    0    0  0.00000000000E+00  0.00000000000E+00  0.50855157120E+03  0.94149264412E+03  0.79232802447E+03 0.  0.
        4    1    3    3  502    0  0.11019140302E+03 -0.25731042044E+03  0.58739928298E+03  0.65068450751E+03  0.12699999809E+01 0.  1.
       -4    1    3    3    0  502 -0.11019140302E+03  0.25731042044E+03 -0.78847711778E+02  0.29080813661E+03  0.12699999809E+01 0. -1.
</event>
<event>
 5   0  0.1038912E-02  0.8075780E+03  0.7818609E-02  0.9549113E-01
       -1   -1    0    0    0  501  0.00000000000E+00  0.00000000000E+00  0.70302451085E+02  0.70302451266E+02  0.50400001928E-02 0.  1.
        1   -1    0    0  501    0  0.00000000000E+00  0.00000000000E+00 -0.23192015746E+04  0.23192015746E+04  0.50400001928E-02 0. -1.
    10030    2    1    2    0    0  0.00000000000E+00  0.00000000000E+00 -0.22488991235E+04  0.23895040259E+04  0.80757799742E+03 0.  0.
        2    1    3    3  502    0  0.24494596754E+03  0.17848018155E+03 -0.33497446015E+03  0.45173176906E+03  0.25500000920E-02 0.  1.
       -2    1    3    3    0  502 -0.24494596754E+03 -0.17848018155E+03 -0.19139246634E+04  0.19377722568E+04  0.25500000920E-02 0. -1.
</event>
<event>
 5   0  0.1038912E-02  0.8067112E+03  0.7818609E-02  0.9550353E-01
        1   -1    0    0  501    0  0.00000000000E+00  0.00000000000E+00  0.63018369797E+03  0.63018369799E+03  0.50400001928E-02 0. -1.
       -1   -1    0    0    0  501  0.00000000000E+00  0.00000000000E+00 -0.25817192984E+03  0.25817192989E+03  0.50400001928E-02 0.  1.
    10030    2    1    2    0    0  0.00000000000E+00  0.00000000000E+00  0.37201176813E+03  0.88835562787E+03  0.80671120356E+03 0.  0.
        2    1    3    3  502    0  0.69462462642E+01  0.46496781041E+02  0.62715633164E+03  0.62891594455E+03  0.25500000920E-02 0. -1.
       -2    1    3    3    0  502 -0.69462462642E+01 -0.46496781041E+02 -0.25514456351E+03  0.25943968332E+03  0.25500000920E-02 0.  1.
</event>
<event>
 5   0  0.1817089E-02  0.8032241E+03  0.7818609E-02  0.9555362E-01
       -2   -1    0    0    0  501  0.00000000000E+00  0.00000000000E+00  0.34706620638E+03  0.34706620639E+03  0.25500000920E-02 0.  1.
        2   -1    0    0  501    0  0.00000000000E+00  0.00000000000E+00 -0.46473050106E+03  0.46473050107E+03  0.25500000920E-02 0. -1.
    10030    2    1    2    0    0  0.00000000000E+00  0.00000000000E+00 -0.11766429468E+03  0.81179670747E+03  0.80322413311E+03 0.  0.
        2    1    3    3  502    0  0.38023684615E+03 -0.75540134000E+02 -0.16486072682E+03  0.42126645994E+03  0.25500000920E-02 0. -1.
       -2    1    3    3    0  502 -0.38023684615E+03  0.75540134000E+02  0.47196432142E+02  0.39053024752E+03  0.25500000920E-02 0.  1.
</event>
<event>
 5   0  0.1049780E-02  0.9244412E+03  0.7818609E-02  0.9395534E-01
        1   -1    0    0  501    0  0.00000000000E+00  0.00000000000E+00  0.95438842924E+03  0.95438842926E+03  0.50400001928E-02 0.  1.
       -1   -1    0    0    0  501  0.00000000000E+00  0.00000000000E+00 -0.22385841109E+03  0.22385841115E+03  0.50400001928E-02 0. -1.
    10030    2    1    2    0    0  0.00000000000E+00  0.00000000000E+00  0.73053001815E+03  0.11782468404E+04  0.92444118769E+03 0.  0.
        5    1    3    3  502    0 -0.15980288307E+03  0.15883477879E+03 -0.14909200223E+03  0.27021466193E+03  0.46999998093E+01 0. -1.
       -5    1    3    3    0  502  0.15980288307E+03 -0.15883477879E+03  0.87962202039E+03  0.90803217847E+03  0.46999998093E+01 0.  1.
</event>
<event>
 5   0  0.1146083E-02  0.8144576E+03  0.7818609E-02  0.9539323E-01
       -1   -1    0    0    0  501  0.00000000000E+00  0.00000000000E+00  0.25941665669E+03  0.25941665674E+03  0.50400001928E-02 0. -1.
        1   -1    0    0  501    0  0.00000000000E+00  0.00000000000E+00 -0.63926227127E+03  0.63926227129E+03  0.50400001928E-02 0.  1.
    10030    2    1    2    0    0  0.00000000000E+00  0.00000000000E+00 -0.37984561458E+03  0.89867892803E+03  0.81445756474E+03 0.  0.
        4    1    3    3  502    0 -0.42952284041E+02 -0.39225201081E+03 -0.78882851245E+02  0.40240608321E+03  0.12699999809E+01 0. -1.
       -4    1    3    3    0  502  0.42952284041E+02  0.39225201081E+03 -0.30096276334E+03  0.49627284482E+03  0.12699999809E+01 0.  1.
</event>
<event>
 5   0  0.1049780E-02  0.7994309E+03  0.7818609E-02  0.9560841E-01
        1   -1    0    0  501    0  0.00000000000E+00  0.00000000000E+00  0.74188297166E+03  0.74188297168E+03  0.50400001928E-02 0. -1.
       -1   -1    0    0    0  501  0.00000000000E+00  0.00000000000E+00 -0.21536073208E+03  0.21536073214E+03  0.50400001928E-02 0.  1.
    10030    2    1    2    0    0  0.00000000000E+00  0.00000000000E+00  0.52652223959E+03  0.95724370382E+03  0.79943094743E+03 0.  0.
        5    1    3    3  502    0  0.51283448096E+02 -0.34640424536E+03  0.32548297396E+02  0.35172059211E+03  0.46999998093E+01 0.  1.
       -5    1    3    3    0  502 -0.51283448096E+02  0.34640424536E+03  0.49397394219E+03  0.60552311171E+03  0.46999998093E+01 0. -1.
</event>
<event>
 5   0  0.1817089E-02  0.8075663E+03  0.7818609E-02  0.9549129E-01
       -2   -1    0    0    0  501  0.00000000000E+00  0.00000000000E+00  0.11859851733E+03  0.11859851735E+03  0.25500000920E-02 0.  1.
        2   -1    0    0  501    0  0.00000000000E+00  0.00000000000E+00 -0.13747292249E+04  0.13747292249E+04  0.25500000920E-02 0. -1.
    10030    2    1    2    0    0  0.00000000000E+00  0.00000000000E+00 -0.12561307076E+04  0.14933277422E+04  0.80756633862E+03 0.  0.
        2    1    3    3  502    0 -0.18871119614E+03 -0.32260892103E+03 -0.91064627557E+03  0.98436023421E+03  0.25500000920E-02 0. -1.
       -2    1    3    3    0  502  0.18871119614E+03  0.32260892103E+03 -0.34548443198E+03  0.50896750802E+03  0.25500000920E-02 0.  1.
</event>
<event>
 5   0  0.1817089E-02  0.8112969E+03  0.7818609E-02  0.9543808E-01
       -2   -1    0    0    0  501  0.00000000000E+00  0.00000000000E+00  0.15276589091E+03  0.15276589093E+03  0.25500000920E-02 0. -1.
        2   -1    0    0  501    0  0.00000000000E+00  0.00000000000E+00 -0.10771426583E+04  0.10771426583E+04  0.25500000920E-02 0.  1.
    10030    2    1    2    0    0  0.00000000000E+00  0.00000000000E+00 -0.92437676743E+03  0.12299085493E+04  0.81129688242E+03 0.  0.
        2    1    3    3  502    0 -0.25143034511E+03 -0.19184012041E+03 -0.84729108364E+03  0.90439041938E+03  0.25500000920E-02 0. -1.
       -2    1    3    3    0  502  0.25143034511E+03  0.19184012041E+03 -0.77085683789E+02  0.32551812990E+03  0.25500000920E-02 0.  1.
</event>
<event>
 5   0  0.1025900E-02  0.7924417E+03  0.7818609E-02  0.9571022E-01
        1   -1    0    0  501    0  0.00000000000E+00  0.00000000000E+00  0.42189799735E+03  0.42189799738E+03  0.50400001928E-02 0. -1.
       -1   -1    0    0    0  501  0.00000000000E+00  0.00000000000E+00 -0.37210639721E+03  0.37210639725E+03  0.50400001928E-02 0.  1.
    10030    2    1    2    0    0  0.00000000000E+00  0.00000000000E+00  0.49791600143E+02  0.79400439463E+03  0.79244165416E+03 0.  0.
        1    1    3    3  502    0  0.15330000440E+03  0.28037845423E+03 -0.20982666008E+03  0.38228287465E+03  0.50400001928E-02 0.  1.
       -1    1    3    3    0  502 -0.15330000440E+03 -0.28037845423E+03  0.25961826022E+03  0.41172151998E+03  0.50400001928E-02 0. -1.
</event>
<event>
 5   0  0.1818665E-02  0.7937536E+03  0.7818609E-02  0.9569103E-01
        2   -1    0    0  501    0  0.00000000000E+00  0.00000000000E+00  0.57080304179E+03  0.57080304180E+03  0.25500000920E-02 0. -1.
       -2   -1    0    0    0  501  0.00000000000E+00  0.00000000000E+00 -0.27594664426E+03  0.27594664427E+03  0.25500000920E-02 0.  1.
    10030    2    1    2    0    0  0.00000000000E+00  0.00000000000E+00  0.29485639753E+03  0.84674968607E+03  0.79375357366E+03 0.  0.
        3    1    3    3  502    0 -0.66771717916E+02 -0.23224067548E+03 -0.18842027681E+03  0.30642520225E+03  0.10100000352E+00 0.  1.
       -3    1    3    3    0  502  0.66771717916E+02  0.23224067548E+03  0.48327667434E+03  0.54032448382E+03  0.10100000352E+00 0. -1.
</event>
<event>
 5   0  0.1818665E-02  0.7952682E+03  0.7818609E-02  0.9566892E-01
        2   -1    0    0  501    0  0.00000000000E+00  0.00000000000E+00  0.54864783752E+03  0.54864783753E+03  0.25500000920E-02 0. -1.
       -2   -1    0    0    0  501  0.00000000000E+00  0.00000000000E+00 -0.28818643855E+03  0.28818643856E+03  0.25500000920E-02 0.  1.
    10030    2    1    2    0    0  0.00000000000E+00  0.00000000000E+00  0.26046139898E+03  0.83683427609E+03  0.79526817193E+03 0.  0.
        3    1    3    3  502    0 -0.16588922309E+03  0.36089435059E+03  0.14988555268E+03  0.42453463431E+03  0.10100000352E+00 0.  1.
       -3    1    3    3    0  502  0.16588922309E+03 -0.36089435059E+03  0.11057584629E+03  0.41229964178E+03  0.10100000352E+00 0. -1.
</event>
<event>
 5   0  0.1731337E-02  0.7957803E+03  0.7818609E-02  0.9566145E-01
        2   -1    0    0  501    0  0.00000000000E+00  0.00000000000E+00  0.11178736721E+04  0.11178736721E+04  0.25500000920E-02 0.  1.
       -2   -1    0    0    0  501  0.00000000000E+00  0.00000000000E+00 -0.14162294545E+03  0.14162294547E+03  0.25500000920E-02 0. -1.
    10030    2    1    2    0    0  0.00000000000E+00  0.00000000000E+00  0.97625072664E+03  0.12594966176E+04  0.79578027646E+03 0.  0.
        4    1    3    3  502    0 -0.27592633401E+03  0.19376905009E+03  0.82249949016E+03  0.88892564975E+03  0.12699999809E+01 0.  1.
       -4    1    3    3    0  502  0.27592633401E+03 -0.19376905009E+03  0.15375123647E+03  0.37057096781E+03  0.12699999809E+01 0. -1.
</event>
<event>
 5   0  0.1146083E-02  0.7954285E+03  0.7818609E-02  0.9566658E-01
        1   -1    0    0  501    0  0.00000000000E+00  0.00000000000E+00  0.20371652731E+04  0.20371652731E+04  0.50400001928E-02 0. -1.
       -1   -1    0    0    0  501  0.00000000000E+00  0.00000000000E+00 -0.77645462426E+02  0.77645462590E+02  0.50400001928E-02 0.  1.
    10030    2    1    2    0    0  0.00000000000E+00  0.00000000000E+00  0.19595198107E+04  0.21148107357E+04  0.79542853820E+03 0.  0.
        4    1    3    3  502    0  0.12131143648E+03  0.18936014242E+03  0.18518856256E+04  0.18654907428E+04  0.12699999809E+01 0. -1.
       -4    1    3    3    0  502 -0.12131143648E+03 -0.18936014242E+03  0.10763418501E+03  0.24931999286E+03  0.12699999809E+01 0.  1.
</event>
<event>
 5   0  0.1146083E-02  0.8076134E+03  0.7818609E-02  0.9549062E-01
       -1   -1    0    0    0  501  0.00000000000E+00  0.00000000000E+00  0.61411689039E+03  0.61411689041E+03  0.50400001928E-02 0.  1.
        1   -1    0    0  501    0  0.00000000000E+00  0.00000000000E+00 -0.26551926097E+03  0.26551926102E+03  0.50400001928E-02 0. -1.
    10030    2    1    2    0    0  0.00000000000E+00  0.00000000000E+00  0.34859762942E+03  0.87963615143E+03  0.80761342959E+03 0.  0.
        4    1    3    3  502    0 -0.30973052479E+03 -0.15045946761E+03 -0.55430849038E+02  0.34877677863E+03  0.12699999809E+01 0. -1.
       -4    1    3    3    0  502  0.30973052479E+03  0.15045946761E+03  0.40402847846E+03  0.53085937280E+03  0.12699999809E+01 0.  1.
</event>
<event>
 5   0  0.1673727E-02  0.7928079E+03  0.7818609E-02  0.9570486E-01
        2   -1    0    0  501    0  0.00000000000E+00  0.00000000000E+00  0.64229779799E+03  0.64229779800E+03  0.25500000920E-02 0.  1.
       -2   -1    0    0    0  501  0.00000000000E+00  0.00000000000E+00 -0.24464676889E+03  0.24464676891E+03  0.25500000920E-02 0. -1.
    10030    2    1    2    0    0  0.00000000000E+00  0.00000000000E+00  0.39765102910E+03  0.88694456690E+03  0.79280787320E+03 0.  0.
        5    1    3    3  502    0  0.17129574661E+03 -0.94860276389E+02  0.58438190830E+03  0.61633189889E+03  0.46999998093E+01 0.  1.
       -5    1    3    3    0  502 -0.17129574661E+03  0.94860276389E+02 -0.18673087920E+03  0.27061266801E+03  0.46999998093E+01 0. -1.
</event>
<event>
 5   0  0.1146083E-02  0.7980212E+03  0.7818609E-02  0.9562886E-01
        1   -1    0    0  501    0  0.00000000000E+00  0.00000000000E+00  0.29480318642E+03  0.29480318646E+03  0.50400001928E-02 0.  1.
       -1   -1    0    0    0  501  0.00000000000E+00  0.00000000000E+00 -0.54005334848E+03  0.54005334850E+03  0.50400001928E-02 0. -1.
    10030    2    1    2    0    0  0.00000000000E+00  0.00000000000E+00 -0.24525016206E+03  0.83485653496E+03  0.79802117264E+03 0.  0.
        4    1    3    3  502    0 -0.23770566978E+03  0.31454716050E+03 -0.58442318483E+02  0.39857373109E+03  0.12699999809E+01 0. -1.
       -4    1    3    3    0  502  0.23770566978E+03 -0.31454716050E+03 -0.18680784358E+03  0.43628280387E+03  0.12699999809E+01 0.  1.
</event>
<event>
 5   0  0.1818665E-02  0.8050466E+03  0.7818609E-02  0.9552741E-01
       -2   -1    0    0    0  501  0.00000000000E+00  0.00000000000E+00  0.42311315316E+03  0.42311315317E+03  0.25500000920E-02 0.  1.
        2   -1    0    0  501    0  0.00000000000E+00  0.00000000000E+00 -0.38293543846E+03  0.38293543847E+03  0.25500000920E-02 0. -1.
    10030    2    1    2    0    0  0.00000000000E+00  0.00000000000E+00  0.40177714701E+02  0.80604859163E+03  0.80504663425E+03 0.  0.
        3    1    3    3  502    0  0.30437354011E+03 -0.86324863547E+02 -0.22907780897E+03  0.39060451451E+03  0.10100000352E+00 0. -1.
       -3    1    3    3    0  502 -0.30437354011E+03  0.86324863547E+02  0.26925552368E+03  0.41544407713E+03  0.10100000352E+00 0.  1.
</event>
<event>
 5   0  0.1673727E-02  0.8031922E+03  0.7818609E-02  0.9555408E-01
        2   -1    0    0  501    0  0.00000000000E+00  0.00000000000E+00  0.96099937904E+03  0.96099937904E+03  0.25500000920E-02 0.  1.
       -2   -1    0    0    0  501  0.00000000000E+00  0.00000000000E+00 -0.16782469568E+03  0.16782469570E+03  0.25500000920E-02 0. -1.
    10030    2    1    2    0    0  0.00000000000E+00  0.00000000000E+00  0.79317468336E+03  0.11288240747E+04  0.80319220202E+03 0.  0.
        5    1    3    3  502    0  0.10572941561E+03  0.28614205007E+03  0.29555886821E+02  0.30651528933E+03  0.46999998093E+01 0. -1.
       -5    1    3    3    0  502 -0.10572941561E+03 -0.28614205007E+03  0.76361879654E+03  0.82230878542E+03  0.46999998093E+01 0.  1.
</event>
<event>
 5   0  0.1146083E-02  0.7974538E+03  0.7818609E-02  0.9563710E-01
       -1   -1    0    0    0  501  0.00000000000E+00  0.00000000000E+00  0.90059601235E+02  0.90059601376E+02  0.50400001928E-02 0.  1.
        1   -1    0    0  501    0  0.00000000000E+00  0.00000000000E+00 -0.17653104226E+04  0.17653104226E+04  0.50400001928E-02 0. -1.
    10030    2    1    2    0    0  0.00000000000E+00  0.00000000000E+00 -0.16752508214E+04  0.18553700240E+04  0.79745383027E+03 0.  0.
        4    1    3    3  502    0 -0.37975856393E+03  0.73119108664E+01 -0.11198231945E+04  0.11824870531E+04  0.12699999809E+01 0. -1.
       -4    1    3    3    0  502  0.37975856393E+03 -0.73119108664E+01 -0.55542762689E+03  0.67288297090E+03  0.12699999809E+01 0.  1.
</event>
<event>
 5   0  0.1030323E-02  0.8432233E+03  0.7818609E-02  0.9499478E-01
       -1   -1    0    0    0  501  0.00000000000E+00  0.00000000000E+00  0.17152543960E+03  0.17152543968E+03  0.50400001928E-02 0. -1.
        1   -1    0    0  501    0  0.00000000000E+00  0.00000000000E+00 -0.10363265657E+04  0.10363265658E+04  0.50400001928E-02 0.  1.
    10030    2    1    2    0    0  0.00000000000E+00  0.00000000000E+00 -0.86480112614E+03  0.12078520054E+04  0.84322326774E+03 0.  0.
        3    1    3    3  502    0  0.11446965945E+03 -0.40343352350E+03 -0.49474713489E+03  0.64856506883E+03  0.10100000352E+00 0.  1.
       -3    1    3    3    0  502 -0.11446965945E+03  0.40343352350E+03 -0.37005399125E+03  0.55928693660E+03  0.10100000352E+00 0. -1.
</event>
<event>
 5   0  0.1146083E-02  0.8049516E+03  0.7818609E-02  0.9552877E-01
       -1   -1    0    0    0  501  0.00000000000E+00  0.00000000000E+00  0.13015499792E+03  0.13015499802E+03  0.50400001928E-02 0.  1.
        1   -1    0    0  501    0  0.00000000000E+00  0.00000000000E+00 -0.12445681037E+04  0.12445681037E+04  0.50400001928E-02 0. -1.
    10030    2    1    2    0    0  0.00000000000E+00  0.00000000000E+00 -0.11144131057E+04  0.13747231017E+04  0.80495157374E+03 0.  0.
        4    1    3    3  502    0  0.13308311496E+03  0.27805851315E+03 -0.11528511264E+03  0.32911992088E+03  0.12699999809E+01 0.  1.
       -4    1    3    3    0  502 -0.13308311496E+03 -0.27805851315E+03 -0.99912799309E+03  0.10456031808E+04  0.12699999809E+01 0. -1.
</event>
<event>
 5   0  0.1673727E-02  0.9522527E+03  0.7818609E-02  0.9362521E-01
       -2   -1    0    0    0  501  0.00000000000E+00  0.00000000000E+00  0.18035676972E+03  0.18035676974E+03  0.25500000920E-02 0.  1.
        2   -1    0    0  501    0  0.00000000000E+00  0.00000000000E+00 -0.12569325457E+04  0.12569325457E+04  0.25500000920E-02 0. -1.
    10030    2    1    2    0    0  0.00000000000E+00  0.00000000000E+00 -0.10765757760E+04  0.14372893155E+04  0.95225268436E+03 0.  0.
        5    1    3    3  502    0  0.26458826452E+03  0.23172671239E+03 -0.53951257855E+02  0.35586099418E+03  0.46999998093E+01 0.  1.
       -5    1    3    3    0  502 -0.26458826452E+03 -0.23172671239E+03 -0.10226245182E+04  0.10814283213E+04  0.46999998093E+01 0. -1.
</event>
<event>
 5   0  0.1146083E-02  0.8021157E+03  0.7818609E-02  0.9556960E-01
        1   -1    0    0  501    0  0.00000000000E+00  0.00000000000E+00  0.36731397483E+03  0.36731397486E+03  0.50400001928E-02 0. -1.
       -1   -1    0    0    0  501  0.00000000000E+00  0.00000000000E+00 -0.43790170581E+03  0.43790170584E+03  0.50400001928E-02 0.  1.
    10030    2    1    2    0    0  0.00000000000E+00  0.00000000000E+00 -0.70587730981E+02  0.80521568070E+03  0.80211574270E+03 0.  0.
        4    1    3    3  502    0 -0.17495773893E+03 -0.10798448110E+03 -0.38097179260E+03  0.43291105117E+03  0.12699999809E+01 0.  1.
       -4    1    3    3    0  502  0.17495773893E+03  0.10798448110E+03  0.31038406161E+03  0.37230462954E+03  0.12699999809E+01 0. -1.
</event>
<event>
 5   0  0.6872500E-03  0.7871736E+03  0.7818609E-02  0.9578771E-01
        3   -1    0    0  501    0  0.00000000000E+00  0.00000000000E+00  0.82254795866E+03  0.82254796486E+03  0.10100000352E+00 0. -1.
       -3   -1    0    0    0  501  0.00000000000E+00  0.00000000000E+00 -0.18833011678E+03  0.18833014387E+03  0.10100000352E+00 0.  1.
    10030    2    1    2    0    0  0.00000000000E+00  0.00000000000E+00  0.63421784188E+03  0.10108781087E+04  0.78717360204E+03 0.  0.
        1    1    3    3  502    0  0.61022299261E+02 -0.37378131947E+03  0.17954872899E+03  0.41913475386E+03  0.50400001928E-02 0.  1.
       -1    1    3    3    0  502 -0.61022299261E+02  0.37378131947E+03  0.45466911289E+03  0.59174335487E+03  0.50400001928E-02 0. -1.
</event>
<event>
 5   0  0.1038912E-02  0.7890307E+03  0.7818609E-02  0.9576032E-01
        1   -1    0    0  501    0  0.00000000000E+00  0.00000000000E+00  0.13688897116E+04  0.13688897116E+04  0.50400001928E-02 0. -1.
       -1   -1    0    0    0  501  0.00000000000E+00  0.00000000000E+00 -0.11369970245E+03  0.11369970256E+03  0.50400001928E-02 0.  1.
    10030    2    1    2    0    0  0.00000000000E+00  0.00000000000E+00  0.12551900091E+04  0.14825894142E+04  0.78903067870E+03 0.  0.
        2    1    3    3  502    0  0.26964113686E+03  0.26908380526E+03  0.43478060713E+03  0.57805416120E+03  0.25500000920E-02 0.  1.
       -2    1    3    3    0  502 -0.26964113686E+03 -0.26908380526E+03  0.82040940200E+03  0.90453525295E+03  0.25500000920E-02 0. -1.
</event>
<event>
 5   0  0.1049780E-02  0.8058787E+03  0.7818609E-02  0.9551547E-01
        1   -1    0    0  501    0  0.00000000000E+00  0.00000000000E+00  0.56176185408E+03  0.56176185410E+03  0.50400001928E-02 0.  1.
       -1   -1    0    0    0  501  0.00000000000E+00  0.00000000000E+00 -0.28901946640E+03  0.28901946644E+03  0.50400001928E-02 0. -1.
    10030    2    1    2    0    0  0.00000000000E+00  0.00000000000E+00  0.27274238768E+03  0.85078132054E+03  0.80587867905E+03 0.  0.
        5    1    3    3  502    0  0.17703917748E+02 -0.12590204195E+03  0.54000009837E+03  0.55478549829E+03  0.46999998093E+01 0.  1.
       -5    1    3    3    0  502 -0.17703917748E+02  0.12590204195E+03 -0.26725771069E+03  0.29599582225E+03  0.46999998093E+01 0. -1.
</event>
<event>
 5   0  0.1817089E-02  0.8226730E+03  0.7818609E-02  0.9527767E-01
       -2   -1    0    0    0  501  0.00000000000E+00  0.00000000000E+00  0.30907257309E+03  0.30907257310E+03  0.25500000920E-02 0.  1.
        2   -1    0    0  501    0  0.00000000000E+00  0.00000000000E+00 -0.54743684453E+03  0.54743684453E+03  0.25500000920E-02 0. -1.
    10030    2    1    2    0    0  0.00000000000E+00  0.00000000000E+00 -0.23836427143E+03  0.85650941764E+03  0.82267299494E+03 0.  0.
        2    1    3    3  502    0  0.37020701233E+03  0.43207282745E+02  0.61979284694E+02  0.37783797189E+03  0.25500000920E-02 0.  1.
       -2    1    3    3    0  502 -0.37020701233E+03 -0.43207282745E+02 -0.30034355613E+03  0.47867144575E+03  0.25500000920E-02 0. -1.
</event>
<event>
 5   0  0.1731337E-02  0.7726041E+03  0.7818609E-02  0.9600541E-01
       -2   -1    0    0    0  501  0.00000000000E+00  0.00000000000E+00  0.26539277545E+03  0.26539277546E+03  0.25500000920E-02 0. -1.
        2   -1    0    0  501    0  0.00000000000E+00  0.00000000000E+00 -0.56229590826E+03  0.56229590826E+03  0.25500000920E-02 0.  1.
    10030    2    1    2    0    0  0.00000000000E+00  0.00000000000E+00 -0.29690313281E+03  0.82768868372E+03  0.77260409454E+03 0.  0.
        4    1    3    3  502    0  0.17285469489E+03  0.33105318656E+03 -0.25424835029E+03  0.45179508010E+03  0.12699999809E+01 0.  1.
       -4    1    3    3    0  502 -0.17285469489E+03 -0.33105318656E+03 -0.42654782519E+02  0.37589360363E+03  0.12699999809E+01 0. -1.
</event>
<event>
 5   0  0.1818665E-02  0.8052178E+03  0.7818609E-02  0.9552495E-01
       -2   -1    0    0    0  501  0.00000000000E+00  0.00000000000E+00  0.28646568828E+03  0.28646568829E+03  0.25500000920E-02 0.  1.
        2   -1    0    0  501    0  0.00000000000E+00  0.00000000000E+00 -0.56584061758E+03  0.56584061759E+03  0.25500000920E-02 0. -1.
    10030    2    1    2    0    0  0.00000000000E+00  0.00000000000E+00 -0.27937492930E+03  0.85230630588E+03  0.80521778912E+03 0.  0.
        3    1    3    3  502    0 -0.14413161558E+02  0.21523926278E+03  0.22013045283E+03  0.30820951629E+03  0.10100000352E+00 0.  1.
       -3    1    3    3    0  502  0.14413161558E+02 -0.21523926278E+03 -0.49950538213E+03  0.54409678959E+03  0.10100000352E+00 0. -1.
</event>
<event>
 5   0  0.1146083E-02  0.7931874E+03  0.7818609E-02  0.9569931E-01
       -1   -1    0    0    0  501  0.00000000000E+00  0.00000000000E+00  0.12585329083E+03  0.12585329093E+03  0.50400001928E-02 0. -1.
        1   -1    0    0  501    0  0.00000000000E+00  0.00000000000E+00 -0.12497612810E+04  0.12497612810E+04  0.50400001928E-02 0.  1.
    10030    2    1    2    0    0  0.00000000000E+00  0.00000000000E+00 -0.11239079901E+04  0.13756145719E+04  0.79318741805E+03 0.  0.
        4    1    3    3  502    0  0.12462168234E+03 -0.37518586544E+02 -0.12116678526E+04  0.12186380947E+04  0.12699999809E+01 0.  1.
       -4    1    3    3    0  502 -0.12462168234E+03  0.37518586544E+02  0.87759862416E+02  0.15697647721E+03  0.12699999809E+01 0. -1.
</event>
<event>
 5   0  0.1030323E-02  0.8006850E+03  0.7818609E-02  0.9559026E-01
       -1   -1    0    0    0  501  0.00000000000E+00  0.00000000000E+00  0.18492672843E+03  0.18492672850E+03  0.50400001928E-02 0. -1.
        1   -1    0    0  501    0  0.00000000000E+00  0.00000000000E+00 -0.86668974680E+03  0.86668974681E+03  0.50400001928E-02 0.  1.
    10030    2    1    2    0    0  0.00000000000E+00  0.00000000000E+00 -0.68176301837E+03  0.10516164753E+04  0.80068495547E+03 0.  0.
        3    1    3    3  502    0  0.31571541439E+03  0.16279833675E+03 -0.98366675017E+02  0.36858585742E+03  0.10100000352E+00 0. -1.
       -3    1    3    3    0  502 -0.31571541439E+03 -0.16279833675E+03 -0.58339634335E+03  0.68303061789E+03  0.10100000352E+00 0.  1.
</event>
<event>
 5   0  0.1049780E-02  0.8005261E+03  0.7818609E-02  0.9559256E-01
       -1   -1    0    0    0  501  0.00000000000E+00  0.00000000000E+00  0.18500049018E+03  0.18500049025E+03  0.50400001928E-02 0.  1.
        1   -1    0    0  501    0  0.00000000000E+00  0.00000000000E+00 -0.86600045783E+03  0.86600045784E+03  0.50400001928E-02 0. -1.
    10030    2    1    2    0    0  0.00000000000E+00  0.00000000000E+00 -0.68099996765E+03  0.10510009481E+04  0.80052610010E+03 0.  0.
        5    1    3    3  502    0 -0.14963022859E+03  0.14768498165E+03 -0.78763101977E+03  0.81522068940E+03  0.46999998093E+01 0. -1.
       -5    1    3    3    0  502  0.14963022859E+03 -0.14768498165E+03  0.10663105212E+03  0.23578025869E+03  0.46999998093E+01 0.  1.
</event>
<event>
 5   0  0.1049780E-02  0.7906334E+03  0.7818609E-02  0.9573675E-01
        1   -1    0    0  501    0  0.00000000000E+00  0.00000000000E+00  0.80893107802E+03  0.80893107804E+03  0.50400001928E-02 0. -1.
       -1   -1    0    0    0  501  0.00000000000E+00  0.00000000000E+00 -0.19318738338E+03  0.19318738345E+03  0.50400001928E-02 0.  1.
    10030    2    1    2    0    0  0.00000000000E+00  0.00000000000E+00  0.61574369464E+03  0.10021184615E+04  0.79063336216E+03 0.  0.
        5    1    3    3  502    0 -0.32487577916E+03  0.62068949143E+01  0.59318451482E+03  0.67636732331E+03  0.46999998093E+01 0. -1.
       -5    1    3    3    0  502  0.32487577916E+03 -0.62068949143E+01  0.22559179819E+02  0.32575113817E+03  0.46999998093E+01 0.  1.
</event>
<event>
 5   0  0.1817089E-02  0.8037384E+03  0.7818609E-02  0.9554622E-01
        2   -1    0    0  501    0  0.00000000000E+00  0.00000000000E+00  0.80449338661E+03  0.80449338662E+03  0.25500000920E-02 0. -1.
       -2   -1    0    0    0  501  0.00000000000E+00  0.00000000000E+00 -0.20074602573E+03  0.20074602575E+03  0.25500000920E-02 0.  1.
    10030    2    1    2    0    0  0.00000000000E+00  0.00000000000E+00  0.60374736088E+03  0.10052394124E+04  0.80373839052E+03 0.  0.
        2    1    3    3  502    0  0.33561569537E+03  0.52741984135E+02  0.33396461729E+02  0.34137213644E+03  0.25500000920E-02 0.  1.
       -2    1    3    3    0  502 -0.33561569537E+03 -0.52741984135E+02  0.57035089915E+03  0.66386727593E+03  0.25500000920E-02 0. -1.
</event>
<event>
 5   0  0.1817089E-02  0.7852176E+03  0.7818609E-02  0.9581664E-01
        2   -1    0    0  501    0  0.00000000000E+00  0.00000000000E+00  0.10117997954E+04  0.10117997954E+04  0.25500000920E-02 0. -1.
       -2   -1    0    0    0  501  0.00000000000E+00  0.00000000000E+00 -0.15234405241E+03  0.15234405243E+03  0.25500000920E-02 0.  1.
    10030    2    1    2    0    0  0.00000000000E+00  0.00000000000E+00  0.85945574299E+03  0.11641438478E+04  0.78521762862E+03 0.  0.
        2    1    3    3  502    0  0.36070363164E+03  0.15423440621E+03  0.40645951647E+03  0.56489353021E+03  0.25500000920E-02 0. -1.
       -2    1    3    3    0  502 -0.36070363164E+03 -0.15423440621E+03  0.45299622652E+03  0.59925031763E+03  0.25500000920E-02 0.  1.
</event>
<event>
 5   0  0.1030323E-02  0.7963026E+03  0.7818609E-02  0.9565384E-01
        1   -1    0    0  501    0  0.00000000000E+00  0.00000000000E+00  0.13162001774E+04  0.13162001774E+04  0.50400001928E-02 0. -1.
       -1   -1    0    0    0  501  0.00000000000E+00  0.00000000000E+00 -0.12044098994E+03  0.12044099005E+03  0.50400001928E-02 0.  1.
    10030    2    1    2    0    0  0.00000000000E+00  0.00000000000E+00  0.11957591874E+04  0.14366411674E+04  0.79630258672E+03 0.  0.
        3    1    3    3  502    0  0.12062414024E+03 -0.28976476495E+03  0.15591822508E+03  0.35046298710E+03  0.10100000352E+00 0.  1.
       -3    1    3    3    0  502 -0.12062414024E+03  0.28976476495E+03  0.10398409623E+04  0.10861781803E+04  0.10100000352E+00 0. -1.
</event>
<event>
 5   0  0.1025900E-02  0.7838031E+03  0.7818609E-02  0.9583762E-01
        1   -1    0    0  501    0  0.00000000000E+00  0.00000000000E+00  0.15456831869E+04  0.15456831869E+04  0.50400001928E-02 0.  1.
       -1   -1    0    0    0  501  0.00000000000E+00  0.00000000000E+00 -0.99364998371E+02  0.99364998499E+02  0.50400001928E-02 0. -1.
    10030    2    1    2    0    0  0.00000000000E+00  0.00000000000E+00  0.14463181885E+04  0.16450481854E+04  0.78380305551E+03 0.  0.
        1    1    3    3  502    0 -0.14508172830E+03  0.22790967659E+03  0.13189947279E+04  0.13463798205E+04  0.50400001928E-02 0.  1.
       -1    1    3    3    0  502  0.14508172830E+03 -0.22790967659E+03  0.12732346055E+03  0.29866836491E+03  0.50400001928E-02 0. -1.
</event>
<event>
 5   0  0.1818665E-02  0.7961908E+03  0.7818609E-02  0.9565547E-01
        2   -1    0    0  501    0  0.00000000000E+00  0.00000000000E+00  0.20426783710E+03  0.20426783712E+03  0.25500000920E-02 0.  1.
       -2   -1    0    0    0  501  0.00000000000E+00  0.00000000000E+00 -0.77584379312E+03  0.77584379313E+03  0.25500000920E-02 0. -1.
    10030    2    1    2    0    0  0.00000000000E+00  0.00000000000E+00 -0.57157595602E+03  0.98011163024E+03  0.79619076498E+03 0.  0.
        3    1    3    3  502    0 -0.28145152254E+03 -0.27966391160E+03 -0.32573505816E+03  0.51335192734E+03  0.10100000352E+00 0. -1.
       -3    1    3    3    0  502  0.28145152254E+03  0.27966391160E+03 -0.24584089786E+03  0.46675970290E+03  0.10100000352E+00 0.  1.
</event>
<event>
 5   0  0.1673727E-02  0.8070207E+03  0.7818609E-02  0.9549910E-01
       -2   -1    0    0    0  501  0.00000000000E+00  0.00000000000E+00  0.15038390411E+03  0.15038390413E+03  0.25500000920E-02 0.  1.
        2   -1    0    0  501    0  0.00000000000E+00  0.00000000000E+00 -0.10826997242E+04  0.10826997242E+04  0.25500000920E-02 0. -1.
    10030    2    1    2    0    0  0.00000000000E+00  0.00000000000E+00 -0.93231582007E+03  0.12330836283E+04  0.80702072219E+03 0.  0.
        5    1    3    3  502    0  0.23351143698E+03  0.28253125462E+03 -0.72386492346E+03  0.81139017645E+03  0.46999998093E+01 0. -1.
       -5    1    3    3    0  502 -0.23351143698E+03 -0.28253125462E+03 -0.20845089661E+03  0.42169345185E+03  0.46999998093E+01 0.  1.
</event>
<event>
 5   0  0.1038912E-02  0.7912599E+03  0.7818609E-02  0.9572755E-01
        1   -1    0    0  501    0  0.00000000000E+00  0.00000000000E+00  0.11658532682E+04  0.11658532682E+04  0.50400001928E-02 0. -1.
       -1   -1    0    0    0  501  0.00000000000E+00  0.00000000000E+00 -0.13425622234E+03  0.13425622243E+03  0.50400001928E-02 0.  1.
    10030    2    1    2    0    0  0.00000000000E+00  0.00000000000E+00  0.10315970459E+04  0.13001094907E+04  0.79125989576E+03 0.  0.
        2    1    3    3  502    0 -0.20203349923E+03  0.13691688221E+03  0.41691337496E+01  0.24409250118E+03  0.25500000920E-02 0. -1.
       -2    1    3    3    0  502  0.20203349923E+03 -0.13691688221E+03  0.10274279121E+04  0.10560169895E+04  0.25500000920E-02 0.  1.
</event>
<event>
 5   0  0.1038912E-02  0.7979083E+03  0.7818609E-02  0.9563050E-01
       -1   -1    0    0    0  501  0.00000000000E+00  0.00000000000E+00  0.21629697103E+03  0.21629697109E+03  0.50400001928E-02 0. -1.
        1   -1    0    0  501    0  0.00000000000E+00  0.00000000000E+00 -0.73586055602E+03  0.73586055603E+03  0.50400001928E-02 0.  1.
    10030    2    1    2    0    0  0.00000000000E+00  0.00000000000E+00 -0.51956358499E+03  0.95215752712E+03  0.79790828898E+03 0.  0.
        2    1    3    3  502    0  0.26205364448E+03  0.28136947121E+03 -0.13279852274E+03  0.40678783114E+03  0.25500000920E-02 0.  1.
       -2    1    3    3    0  502 -0.26205364448E+03 -0.28136947121E+03 -0.38676506225E+03  0.54536969598E+03  0.25500000920E-02 0. -1.
</event>
<event>
 5   0  0.1030323E-02  0.8007283E+03  0.7818609E-02  0.9558963E-01
        1   -1    0    0  501    0  0.00000000000E+00  0.00000000000E+00  0.19381668095E+03  0.19381668101E+03  0.50400001928E-02 0. -1.
       -1   -1    0    0    0  501  0.00000000000E+00  0.00000000000E+00 -0.82702614454E+03  0.82702614456E+03  0.50400001928E-02 0.  1.
    10030    2    1    2    0    0  0.00000000000E+00  0.00000000000E+00 -0.63320946360E+03  0.10208428256E+04  0.80072832455E+03 0.  0.
        3    1    3    3  502    0 -0.51288284348E+02  0.57212557789E+02 -0.81753816761E+03  0.82114093223E+03  0.10100000352E+00 0.  1.
       -3    1    3    3    0  502  0.51288284348E+02 -0.57212557789E+02  0.18432870402E+03  0.19970189334E+03  0.10100000352E+00 0. -1.
</event>
<event>
 5   0  0.1818665E-02  0.7359712E+03  0.7818609E-02  0.9657620E-01
       -2   -1    0    0    0  501  0.00000000000E+00  0.00000000000E+00  0.96574875171E+02  0.96574875205E+02  0.25500000920E-02 0. -1.
        2   -1    0    0  501    0  0.00000000000E+00  0.00000000000E+00 -0.14021595872E+04  0.14021595872E+04  0.25500000920E-02 0.  1.
    10030    2    1    2    0    0  0.00000000000E+00  0.00000000000E+00 -0.13055847120E+04  0.14987344624E+04  0.73597116012E+03 0.  0.
        3    1    3    3  502    0 -0.15311810702E+03  0.30884049830E+03 -0.39053257056E+03  0.52090623624E+03  0.10100000352E+00 0. -1.
       -3    1    3    3    0  502  0.15311810702E+03 -0.30884049830E+03 -0.91505214149E+03  0.97782822619E+03  0.10100000352E+00 0.  1.
</event>
<event>
 5   0  0.1049780E-02  0.8118116E+03  0.7818609E-02  0.9543076E-01
        1   -1    0    0  501    0  0.00000000000E+00  0.00000000000E+00  0.77082479276E+03  0.77082479277E+03  0.50400001928E-02 0. -1.
       -1   -1    0    0    0  501  0.00000000000E+00  0.00000000000E+00 -0.21374443712E+03  0.21374443718E+03  0.50400001928E-02 0.  1.
    10030    2    1    2    0    0  0.00000000000E+00  0.00000000000E+00  0.55708035564E+03  0.98456922995E+03  0.81181158278E+03 0.  0.
        5    1    3    3  502    0  0.31972838030E+02 -0.13672990088E+03  0.74039459930E+03  0.75360704670E+03  0.46999998093E+01 0. -1.
       -5    1    3    3    0  502 -0.31972838030E+02  0.13672990088E+03 -0.18331424366E+03  0.23096218325E+03  0.46999998093E+01 0.  1.
</event>
<event>
 5   0  0.1038912E-02  0.7976339E+03  0.7818609E-02  0.9563448E-01
        1   -1    0    0  501    0  0.00000000000E+00  0.00000000000E+00  0.68649956349E+03  0.68649956351E+03  0.50400001928E-02 0. -1.
       -1   -1    0    0    0  501  0.00000000000E+00  0.00000000000E+00 -0.23168980476E+03  0.23168980482E+03  0.50400001928E-02 0.  1.
    10030    2    1    2    0    0  0.00000000000E+00  0.00000000000E+00  0.45480975873E+03  0.91818936833E+03  0.79763387558E+03 0.  0.
        2    1    3    3  502    0  0.11277061200E+03  0.60628052601E+02  0.66219812657E+03  0.67446225286E+03  0.25500000920E-02 0. -1.
       -2    1    3    3    0  502 -0.11277061200E+03 -0.60628052601E+02 -0.20738836784E+03  0.24372711547E+03  0.25500000920E-02 0.  1.
</event>
<event>
 5   0  0.1818665E-02  0.7984166E+03  0.7818609E-02  0.9562312E-01
        2   -1    0    0  501    0  0.00000000000E+00  0.00000000000E+00  0.34439338132E+04  0.34439338132E+04  0.25500000920E-02 0. -1.
       -2   -1    0    0    0  501  0.00000000000E+00  0.00000000000E+00 -0.46274778469E+02  0.46274778540E+02  0.25500000920E-02 0.  1.
    10030    2    1    2    0    0  0.00000000000E+00  0.00000000000E+00  0.33976590347E+04  0.34902085917E+04  0.79841661905E+03 0.  0.
        3    1    3    3  502    0 -0.26987144164E+03  0.29387299586E+03  0.17567126149E+04  0.18014525123E+04  0.10100000352E+00 0. -1.
       -3    1    3    3    0  502  0.26987144164E+03 -0.29387299586E+03  0.16409464198E+04  0.16887560794E+04  0.10100000352E+00 0.  1.
</event>
<event>
 5   0  0.1673727E-02  0.8039176E+03  0.7818609E-02  0.9554364E-01
       -2   -1    0    0    0  501  0.00000000000E+00  0.00000000000E+00  0.38751026920E+03  0.38751026921E+03  0.25500000920E-02 0. -1.
        2   -1    0    0  501    0  0.00000000000E+00  0.00000000000E+00 -0.41694606452E+03  0.41694606453E+03  0.25500000920E-02 0.  1.
    10030    2    1    2    0    0  0.00000000000E+00  0.00000000000E+00 -0.29435795323E+02  0.80445633373E+03  0.80391761197E+03 0.  0.
        5    1    3    3  502    0 -0.32765579914E+02 -0.30192385916E+03  0.24874011539E+03  0.39258799645E+03  0.46999998093E+01 0. -1.
       -5    1    3    3    0  502  0.32765579914E+02  0.30192385916E+03 -0.27817591071E+03  0.41186833728E+03  0.46999998093E+01 0.  1.
</event>
<event>
 5   0  0.1673727E-02  0.8053949E+03  0.7818609E-02  0.9552241E-01
       -2   -1    0    0    0  501  0.00000000000E+00  0.00000000000E+00  0.12766973251E+03  0.12766973253E+03  0.25500000920E-02 0. -1.
        2   -1    0    0  501    0  0.00000000000E+00  0.00000000000E+00 -0.12701931555E+04  0.12701931556E+04  0.25500000920E-02 0.  1.
    10030    2    1    2    0    0  0.00000000000E+00  0.00000000000E+00 -0.11425234230E+04  0.13978628881E+04  0.80539486073E+03 0.  0.
        5    1    3    3  502    0 -0.31190248339E+03 -0.25397773776E+03 -0.60397627274E+03  0.72567022707E+03  0.46999998093E+01 0. -1.
       -5    1    3    3    0  502  0.31190248339E+03  0.25397773776E+03 -0.53854715030E+03  0.67219266101E+03  0.46999998093E+01 0.  1.
</event>
<event>
 5   0  0.1673727E-02  0.7725164E+03  0.7818609E-02  0.9600673E-01
       -2   -1    0    0    0  501  0.00000000000E+00  0.00000000000E+00  0.18975147301E+03  0.18975147303E+03  0.25500000920E-02 0.  1.
        2   -1    0    0  501    0  0.00000000000E+00  0.00000000000E+00 -0.78626736572E+03  0.78626736573E+03  0.25500000920E-02 0. -1.
    10030    2    1    2    0    0  0.00000000000E+00  0.00000000000E+00 -0.59651589271E+03  0.97601883876E+03  0.77251638388E+03 0.  0.
        5    1    3    3  502    0  0.60551794913E+02 -0.38118449581E+03 -0.28016130230E+03  0.47694924784E+03  0.46999998093E+01 0.  1.
       -5    1    3    3    0  502 -0.60551794913E+02  0.38118449581E+03 -0.31635459041E+03  0.49906959092E+03  0.46999998093E+01 0. -1.
</event>
<event>
 5   0  0.1817089E-02  0.8351186E+03  0.7818609E-02  0.9510531E-01
       -2   -1    0    0    0  501  0.00000000000E+00  0.00000000000E+00  0.59704263285E+03  0.59704263286E+03  0.25500000920E-02 0. -1.
        2   -1    0    0  501    0  0.00000000000E+00  0.00000000000E+00 -0.29203237146E+03  0.29203237147E+03  0.25500000920E-02 0.  1.
    10030    2    1    2    0    0  0.00000000000E+00  0.00000000000E+00  0.30501026139E+03  0.88907500433E+03  0.83511861659E+03 0.  0.
        2    1    3    3  502    0  0.27021856516E+03 -0.19133102508E+03  0.42336428284E+03  0.53745971952E+03  0.25500000920E-02 0. -1.
       -2    1    3    3    0  502 -0.27021856516E+03  0.19133102508E+03 -0.11835402145E+03  0.35161528482E+03  0.25500000920E-02 0.  1.
</event>
<event>
 5   0  0.1731337E-02  0.8117442E+03  0.7818609E-02  0.9543172E-01
        2   -1    0    0  501    0  0.00000000000E+00  0.00000000000E+00  0.14397008879E+04  0.14397008879E+04  0.25500000920E-02 0.  1.
       -2   -1    0    0    0  501  0.00000000000E+00  0.00000000000E+00 -0.11442111402E+03  0.11442111405E+03  0.25500000920E-02 0. -1.
    10030    2    1    2    0    0  0.00000000000E+00  0.00000000000E+00  0.13252797739E+04  0.15541220019E+04  0.81174424413E+03 0.  0.
        4    1    3    3  502    0  0.23990671335E+03  0.75260648489E+01  0.12892516237E+04  0.13114050613E+04  0.12699999809E+01 0.  1.
       -4    1    3    3    0  502 -0.23990671335E+03 -0.75260648489E+01  0.36028150182E+02  0.24271694063E+03  0.12699999809E+01 0. -1.
</event>
<event>
 5   0  0.1673727E-02  0.7965203E+03  0.7818609E-02  0.9565068E-01
       -2   -1    0    0    0  501  0.00000000000E+00  0.00000000000E+00  0.45976493184E+03  0.45976493184E+03  0.25500000920E-02 0. -1.
        2   -1    0    0  501    0  0.00000000000E+00  0.00000000000E+00 -0.34498313315E+03  0.34498313316E+03  0.25500000920E-02 0.  1.
    10030    2    1    2    0    0  0.00000000000E+00  0.00000000000E+00  0.11478179869E+03  0.80474806501E+03  0.79652029906E+03 0.  0.
        5    1    3    3  502    0 -0.28489179478E+03  0.89819790030E+02 -0.20868881902E+03  0.36442288978E+03  0.46999998093E+01 0.  1.
       -5    1    3    3    0  502  0.28489179478E+03 -0.89819790030E+02  0.32347061771E+03  0.44032517522E+03  0.46999998093E+01 0. -1.
</event>
<event>
 5   0  0.1673727E-02  0.7525211E+03  0.7818609E-02  0.9631403E-01
       -2   -1    0    0    0  501  0.00000000000E+00  0.00000000000E+00  0.11456982990E+03  0.11456982993E+03  0.25500000920E-02 0. -1.
        2   -1    0    0  501    0  0.00000000000E+00  0.00000000000E+00 -0.12356831207E+04  0.12356831207E+04  0.25500000920E-02 0.  1.
    10030    2    1    2    0    0  0.00000000000E+00  0.00000000000E+00 -0.11211132908E+04  0.13502529507E+04  0.75252110927E+03 0.  0.
        5    1    3    3  502    0  0.28405963835E+03 -0.96470150621E+02 -0.96796105283E+03  0.10133938316E+04  0.46999998093E+01 0.  1.
       -5    1    3    3    0  502 -0.28405963835E+03  0.96470150621E+02 -0.15315223799E+03  0.33685911907E+03  0.46999998093E+01 0. -1.
</event>
<event>
 5   0  0.1747544E-02  0.8010521E+03  0.7818609E-02  0.9558495E-01
       -2   -1    0    0    0  501  0.00000000000E+00  0.00000000000E+00  0.39220038970E+03  0.39220038971E+03  0.25500000920E-02 0. -1.
        2   -1    0    0  501    0  0.00000000000E+00  0.00000000000E+00 -0.40902847676E+03  0.40902847677E+03  0.25500000920E-02 0.  1.
    10030    2    1    2    0    0  0.00000000000E+00  0.00000000000E+00 -0.16828087063E+02  0.80122886648E+03  0.80105212812E+03 0.  0.
        1    1    3    3  502    0 -0.28147182738E+03  0.26334134929E+03  0.10044963246E+03  0.39832798614E+03  0.50400001928E-02 0.  1.
       -1    1    3    3    0  502  0.28147182738E+03 -0.26334134929E+03 -0.11727771952E+03  0.40290088034E+03  0.50400001928E-02 0. -1.
</event>
<event>
 5   0  0.6872500E-03  0.8027841E+03  0.7818609E-02  0.9555996E-01
       -3   -1    0    0    0  501  0.00000000000E+00  0.00000000000E+00  0.21071099366E+03  0.21071101786E+03  0.10100000352E+00 0. -1.
        3   -1    0    0  501    0  0.00000000000E+00  0.00000000000E+00 -0.76462821465E+03  0.76462822132E+03  0.10100000352E+00 0.  1.
    10030    2    1    2    0    0  0.00000000000E+00  0.00000000000E+00 -0.55391722099E+03  0.97533923918E+03  0.80278412028E+03 0.  0.
        4    1    3    3  502    0  0.35445463471E+02 -0.13887856864E+03  0.17855752361E+03  0.22897170097E+03  0.12699999809E+01 0. -1.
       -4    1    3    3    0  502 -0.35445463471E+02  0.13887856864E+03 -0.73247474460E+03  0.74636753821E+03  0.12699999809E+01 0.  1.
</event>
<event>
 5   0  0.1747544E-02  0.8007559E+03  0.7818609E-02  0.9558924E-01
        2   -1    0    0  501    0  0.00000000000E+00  0.00000000000E+00  0.13212290144E+04  0.13212290144E+04  0.25500000920E-02 0.  1.
       -2   -1    0    0    0  501  0.00000000000E+00  0.00000000000E+00 -0.12132831170E+03  0.12132831173E+03  0.25500000920E-02 0. -1.
    10030    2    1    2    0    0  0.00000000000E+00  0.00000000000E+00  0.11999007027E+04  0.14425573261E+04  0.80075585720E+03 0.  0.
        1    1    3    3  502    0 -0.30691653180E+03 -0.22476652205E+03  0.37505383928E+03  0.53421262556E+03  0.50400001928E-02 0. -1.
       -1    1    3    3    0  502  0.30691653180E+03  0.22476652205E+03  0.82484686342E+03  0.90834470056E+03  0.50400001928E-02 0.  1.
</event>
<event>
 5   0  0.1038912E-02  0.8101083E+03  0.7818609E-02  0.9545500E-01
        1   -1    0    0  501    0  0.00000000000E+00  0.00000000000E+00  0.60911151965E+03  0.60911151967E+03  0.50400001928E-02 0. -1.
       -1   -1    0    0    0  501  0.00000000000E+00  0.00000000000E+00 -0.26935765206E+03  0.26935765211E+03  0.50400001928E-02 0.  1.
    10030    2    1    2    0    0  0.00000000000E+00  0.00000000000E+00  0.33975386759E+03  0.87846917178E+03  0.81010826143E+03 0.  0.
        2    1    3    3  502    0  0.32016076382E+03  0.20406763323E+03  0.16819796753E+02  0.38003870749E+03  0.25500000920E-02 0.  1.
       -2    1    3    3    0  502 -0.32016076382E+03 -0.20406763323E+03  0.32293407084E+03  0.49843046429E+03  0.25500000920E-02 0. -1.
</event>
<event>
 5   0  0.1818665E-02  0.8092703E+03  0.7818609E-02  0.9546695E-01
        2   -1    0    0  501    0  0.00000000000E+00  0.00000000000E+00  0.11987560976E+04  0.11987560976E+04  0.25500000920E-02 0. -1.
       -2   -1    0    0    0  501  0.00000000000E+00  0.00000000000E+00 -0.13658293048E+03  0.13658293050E+03  0.25500000920E-02 0.  1.
    10030    2    1    2    0    0  0.00000000000E+00  0.00000000000E+00  0.10621731671E+04  0.13353390281E+04  0.80927033989E+03 0.  0.
        3    1    3    3  502    0  0.15172511793E+03  0.23635793758E+03  0.10117140093E+04  0.10499765869E+04  0.10100000352E+00 0. -1.
       -3    1    3    3    0  502 -0.15172511793E+03 -0.23635793758E+03  0.50459157790E+02  0.28536244124E+03  0.10100000352E+00 0.  1.
</event>
<event>
 5   0  0.1146083E-02  0.7910364E+03  0.7818609E-02  0.9573083E-01
        1   -1    0    0  501    0  0.00000000000E+00  0.00000000000E+00  0.33187988673E+03  0.33187988677E+03  0.50400001928E-02 0.  1.
       -1   -1    0    0    0  501  0.00000000000E+00  0.00000000000E+00 -0.47135926394E+03  0.47135926396E+03  0.50400001928E-02 0. -1.
    10030    2    1    2    0    0  0.00000000000E+00  0.00000000000E+00 -0.13947937720E+03  0.80323915074E+03  0.79103643191E+03 0.  0.
        4    1    3    3  502    0  0.65403277727E+02 -0.16692566275E+01 -0.46582448549E+03  0.47039817106E+03  0.12699999809E+01 0. -1.
       -4    1    3    3    0  502 -0.65403277727E+02  0.16692566275E+01  0.32634510828E+03  0.33284097968E+03  0.12699999809E+01 0.  1.
</event>
<event>
 5   0  0.1025900E-02  0.7659127E+03  0.7818609E-02  0.9610711E-01
       -1   -1    0    0    0  501  0.00000000000E+00  0.00000000000E+00  0.20825383283E+03  0.20825383289E+03  0.50400001928E-02 0. -1.
        1   -1    0    0  501    0  0.00000000000E+00  0.00000000000E+00 -0.70421544862E+03  0.70421544864E+03  0.50400001928E-02 0.  1.
    10030    2    1    2    0    0  0.00000000000E+00  0.00000000000E+00 -0.49596161578E+03  0.91246928153E+03  0.76591270090E+03 0.  0.
        1    1    3    3  502    0 -0.30912936224E+03 -0.19386892422E+03 -0.10951016191E+03  0.38097059987E+03  0.50400001928E-02 0. -1.
       -1    1    3    3    0  502  0.30912936224E+03  0.19386892422E+03 -0.38645145387E+03  0.53149868166E+03  0.50400001928E-02 0.  1.
</event>
<event>
 5   0  0.1049780E-02  0.8000345E+03  0.7818609E-02  0.9559967E-01
        1   -1    0    0  501    0  0.00000000000E+00  0.00000000000E+00  0.10420614610E+04  0.10420614610E+04  0.50400001928E-02 0. -1.
       -1   -1    0    0    0  501  0.00000000000E+00  0.00000000000E+00 -0.15355506256E+03  0.15355506264E+03  0.50400001928E-02 0.  1.
    10030    2    1    2    0    0  0.00000000000E+00  0.00000000000E+00  0.88850639842E+03  0.11956165236E+04  0.80003453146E+03 0.  0.
        5    1    3    3  502    0 -0.16948497323E+03  0.12001642826E+03 -0.66629260338E+02  0.21815280776E+03  0.46999998093E+01 0.  1.
       -5    1    3    3    0  502  0.16948497323E+03 -0.12001642826E+03  0.95513565876E+03  0.97746371586E+03  0.46999998093E+01 0. -1.
</event>
<event>
 5   0  0.1731337E-02  0.8018717E+03  0.7818609E-02  0.9557312E-01
        2   -1    0    0  501    0  0.00000000000E+00  0.00000000000E+00  0.15777264483E+04  0.15777264483E+04  0.25500000920E-02 0. -1.
       -2   -1    0    0    0  501  0.00000000000E+00  0.00000000000E+00 -0.10188682350E+03  0.10188682354E+03  0.25500000920E-02 0.  1.
    10030    2    1    2    0    0  0.00000000000E+00  0.00000000000E+00  0.14758396248E+04  0.16796132719E+04  0.80187165110E+03 0.  0.
        4    1    3    3  502    0 -0.11128651821E+03 -0.37019933400E+03  0.51510456524E+03  0.64402372787E+03  0.12699999809E+01 0.  1.
       -4    1    3    3    0  502  0.11128651821E+03  0.37019933400E+03  0.96073505960E+03  0.10355895440E+04  0.12699999809E+01 0. -1.
</event>
<event>
 5   0  0.1038912E-02  0.8019419E+03  0.7818609E-02  0.9557211E-01
        1   -1    0    0  501    0  0.00000000000E+00  0.00000000000E+00  0.43915196967E+03  0.43915196969E+03  0.50400001928E-02 0.  1.
       -1   -1    0    0    0  501  0.00000000000E+00  0.00000000000E+00 -0.36610945983E+03  0.36610945987E+03  0.50400001928E-02 0. -1.
    10030    2    1    2    0    0  0.00000000000E+00  0.00000000000E+00  0.73042509832E+02  0.80526142956E+03  0.80194186928E+03 0.  0.
        2    1    3    3  502    0  0.14053372103E+03 -0.23418600532E+03  0.33130908227E+03  0.42936991026E+03  0.25500000920E-02 0.  1.
       -2    1    3    3    0  502 -0.14053372103E+03  0.23418600532E+03 -0.25826657244E+03  0.37589151930E+03  0.25500000920E-02 0. -1.
</event>
<event>
 5   0  0.1817089E-02  0.7489504E+03  0.7818609E-02  0.9636998E-01
        2   -1    0    0  501    0  0.00000000000E+00  0.00000000000E+00  0.83008033492E+03  0.83008033492E+03  0.25500000920E-02 0.  1.
       -2   -1    0    0    0  501  0.00000000000E+00  0.00000000000E+00 -0.16893748097E+03  0.16893748099E+03  0.25500000920E-02 0. -1.
    10030    2    1    2    0    0  0.00000000000E+00  0.00000000000E+00  0.66114285395E+03  0.99901781591E+03  0.74895041437E+03 0.  0.
        2    1    3    3  502    0  0.18098760457E+03  0.31778189349E+03  0.43802899993E+03  0.57062356210E+03  0.25500000920E-02 0.  1.
       -2    1    3    3    0  502 -0.18098760457E+03 -0.31778189349E+03  0.22311385402E+03  0.42839425381E+03  0.25500000920E-02 0. -1.
</event>
<event>
 5   0  0.1747544E-02  0.7997636E+03  0.7818609E-02  0.9560359E-01
        2   -1    0    0  501    0  0.00000000000E+00  0.00000000000E+00  0.23284631688E+04  0.23284631688E+04  0.25500000920E-02 0. -1.
       -2   -1    0    0    0  501  0.00000000000E+00  0.00000000000E+00 -0.68674247197E+02  0.68674247244E+02  0.25500000920E-02 0.  1.
    10030    2    1    2    0    0  0.00000000000E+00  0.00000000000E+00  0.22597889216E+04  0.23971374160E+04  0.79976360332E+03 0.  0.
        1    1    3    3  502    0  0.29215861666E+03 -0.69556719741E+02  0.19212668512E+04  0.19445979296E+04  0.50400001928E-02 0. -1.
       -1    1    3    3    0  502 -0.29215861666E+03  0.69556719741E+02  0.33852207041E+03  0.45253948637E+03  0.50400001928E-02 0.  1.
</event>
<event>
 5   0  0.1673727E-02  0.6882888E+03  0.7818609E-02  0.9737472E-01
       -2   -1    0    0    0  501  0.00000000000E+00  0.00000000000E+00  0.32839055912E+03  0.32839055913E+03  0.25500000920E-02 0. -1.
        2   -1    0    0  501    0  0.00000000000E+00  0.00000000000E+00 -0.36065397423E+03  0.36065397423E+03  0.25500000920E-02 0.  1.
    10030    2    1    2    0    0  0.00000000000E+00  0.00000000000E+00 -0.32263415105E+02  0.68904453337E+03  0.68828877734E+03 0.  0.
        5    1    3    3  502    0 -0.22508785405E+03  0.71531216292E+02  0.23440697497E+03  0.33279119108E+03  0.46999998093E+01 0. -1.
       -5    1    3    3    0  502  0.22508785405E+03 -0.71531216292E+02 -0.26667039008E+03  0.35625334228E+03  0.46999998093E+01 0.  1.
</event>
<event>
 5   0  0.1038912E-02  0.8001236E+03  0.7818609E-02  0.9559838E-01
       -1   -1    0    0    0  501  0.00000000000E+00  0.00000000000E+00  0.40341890336E+03  0.40341890339E+03  0.50400001928E-02 0. -1.
        1   -1    0    0  501    0  0.00000000000E+00  0.00000000000E+00 -0.39673267401E+03  0.39673267405E+03  0.50400001928E-02 0.  1.
    10030    2    1    2    0    0  0.00000000000E+00  0.00000000000E+00  0.66862293415E+01  0.80015157743E+03  0.80012364120E+03 0.  0.
        2    1    3    3  502    0 -0.31823294812E+03  0.19067273793E+03  0.15308530554E+03  0.40132706492E+03  0.25500000920E-02 0.  1.
       -2    1    3    3    0  502  0.31823294812E+03 -0.19067273793E+03 -0.14639907620E+03  0.39882451251E+03  0.25500000920E-02 0. -1.
</event>
<event>
 5   0  0.1146083E-02  0.8981970E+03  0.7818609E-02  0.9427838E-01
        1   -1    0    0  501    0  0.00000000000E+00  0.00000000000E+00  0.96628832116E+03  0.96628832117E+03  0.50400001928E-02 0. -1.
       -1   -1    0    0    0  501  0.00000000000E+00  0.00000000000E+00 -0.20872598043E+03  0.20872598049E+03  0.50400001928E-02 0.  1.
    10030    2    1    2    0    0  0.00000000000E+00  0.00000000000E+00  0.75756234073E+03  0.11750143017E+04  0.89819703240E+03 0.  0.
        4    1    3    3  502    0 -0.18309816100E+03 -0.31701460607E+03  0.38488564679E+02  0.36811164004E+03  0.12699999809E+01 0.  1.
       -4    1    3    3    0  502  0.18309816100E+03  0.31701460607E+03  0.71907377605E+03  0.80690266162E+03  0.12699999809E+01 0. -1.
</event>
<event>
 5   0  0.1731337E-02  0.8695459E+03  0.7818609E-02  0.9464472E-01
       -2   -1    0    0    0  501  0.00000000000E+00  0.00000000000E+00  0.28578070341E+03  0.28578070342E+03  0.25500000920E-02 0. -1.
        2   -1    0    0  501    0  0.00000000000E+00  0.00000000000E+00 -0.66144251951E+03  0.66144251952E+03  0.25500000920E-02 0.  1.
    10030    2    1    2    0    0  0.00000000000E+00  0.00000000000E+00 -0.37566181610E+03  0.94722322294E+03  0.86954587803E+03 0.  0.
        4    1    3    3  502    0 -0.30116998469E+03  0.71237458293E+02 -0.52047440792E+03  0.60553559543E+03  0.12699999809E+01 0.  1.
       -4    1    3    3    0  502  0.30116998469E+03 -0.71237458293E+02  0.14481259182E+03  0.34168762750E+03  0.12699999809E+01 0. -1.
</event>
<event>
 5   0  0.1818665E-02  0.7896644E+03  0.7818609E-02  0.9575099E-01
       -2   -1    0    0    0  501  0.00000000000E+00  0.00000000000E+00  0.73101263743E+03  0.73101263744E+03  0.25500000920E-02 0.  1.
        2   -1    0    0  501    0  0.00000000000E+00  0.00000000000E+00 -0.21325549978E+03  0.21325549979E+03  0.25500000920E-02 0. -1.
    10030    2    1    2    0    0  0.00000000000E+00  0.00000000000E+00  0.51775713765E+03  0.94426813723E+03  0.78966439796E+03 0.  0.
        3    1    3    3  502    0 -0.24726735221E+03 -0.30781488756E+03  0.25751166910E+03  0.47138457590E+03  0.10100000352E+00 0. -1.
       -3    1    3    3    0  502  0.24726735221E+03  0.30781488756E+03  0.26024546856E+03  0.47288356133E+03  0.10100000352E+00 0.  1.
</event>
<event>
 5   0  0.1025900E-02  0.8027421E+03  0.7818609E-02  0.9556057E-01
        1   -1    0    0  501    0  0.00000000000E+00  0.00000000000E+00  0.11353626116E+04  0.11353626116E+04  0.50400001928E-02 0.  1.
       -1   -1    0    0    0  501  0.00000000000E+00  0.00000000000E+00 -0.14189185938E+03  0.14189185946E+03  0.50400001928E-02 0. -1.
    10030    2    1    2    0    0  0.00000000000E+00  0.00000000000E+00  0.99347075223E+03  0.12772544711E+04  0.80274208085E+03 0.  0.
        1    1    3    3  502    0 -0.36079455753E+03 -0.10555674534E+03  0.27293750031E+03  0.46455335358E+03  0.50400001928E-02 0. -1.
       -1    1    3    3    0  502  0.36079455753E+03  0.10555674534E+03  0.72053325193E+03  0.81270111750E+03  0.50400001928E-02 0.  1.
</event>
<event>
 5   0  0.1025900E-02  0.8396642E+03  0.7818609E-02  0.9504315E-01
       -1   -1    0    0    0  501  0.00000000000E+00  0.00000000000E+00  0.19505848011E+03  0.19505848017E+03  0.50400001928E-02 0.  1.
        1   -1    0    0  501    0  0.00000000000E+00  0.00000000000E+00 -0.90362127512E+03  0.90362127513E+03  0.50400001928E-02 0. -1.
    10030    2    1    2    0    0  0.00000000000E+00  0.00000000000E+00 -0.70856279501E+03  0.10986797553E+04  0.83966420088E+03 0.  0.
        1    1    3    3  502    0  0.17247484208E+03 -0.38257418780E+03 -0.37022183762E+03  0.55962021890E+03  0.50400001928E-02 0.  1.
       -1    1    3    3    0  502 -0.17247484208E+03  0.38257418780E+03 -0.33834095738E+03  0.53905953640E+03  0.50400001928E-02 0. -1.
</event>
<event>
 5   0  0.1038912E-02  0.8099003E+03  0.7818609E-02  0.9545796E-01
        1   -1    0    0  501    0  0.00000000000E+00  0.00000000000E+00  0.26576513342E+03  0.26576513347E+03  0.50400001928E-02 0. -1.
       -1   -1    0    0    0  501  0.00000000000E+00  0.00000000000E+00 -0.61702837951E+03  0.61702837953E+03  0.50400001928E-02 0.  1.
    10030    2    1    2    0    0  0.00000000000E+00  0.00000000000E+00 -0.35126324609E+03  0.88279351299E+03  0.80990031395E+03 0.  0.
        2    1    3    3  502    0  0.30886289541E+03 -0.26098591351E+03 -0.15188320807E+03  0.43194727005E+03  0.25500000920E-02 0.  1.
       -2    1    3    3    0  502 -0.30886289541E+03  0.26098591351E+03 -0.19938003801E+03  0.45084624294E+03  0.25500000920E-02 0. -1.
</event>
<event>
 5   0  0.1038912E-02  0.7982885E+03  0.7818609E-02  0.9562498E-01
       -1   -1    0    0    0  501  0.00000000000E+00  0.00000000000E+00  0.28839814185E+03  0.28839814189E+03  0.50400001928E-02 0.  1.
        1   -1    0    0  501    0  0.00000000000E+00  0.00000000000E+00 -0.55241732927E+03  0.55241732930E+03  0.50400001928E-02 0. -1.
    10030    2    1    2    0    0  0.00000000000E+00  0.00000000000E+00 -0.26401918742E+03  0.84081547119E+03  0.79828849751E+03 0.  0.
        2    1    3    3  502    0  0.12643974643E+03  0.30652165036E+03 -0.36604858541E+03  0.49389685007E+03  0.25500000920E-02 0. -1.
       -2    1    3    3    0  502 -0.12643974643E+03 -0.30652165036E+03  0.10202939799E+03  0.34691862112E+03  0.25500000920E-02 0.  1.
</event>
<event>
 5   0  0.1673727E-02  0.7979591E+03  0.7818609E-02  0.9562976E-01
        2   -1    0    0  501    0  0.00000000000E+00  0.00000000000E+00  0.44601860212E+03  0.44601860212E+03  0.25500000920E-02 0. -1.
       -2   -1    0    0    0  501  0.00000000000E+00  0.00000000000E+00 -0.35690145594E+03  0.35690145595E+03  0.25500000920E-02 0.  1.
    10030    2    1    2    0    0  0.00000000000E+00  0.00000000000E+00  0.89117146179E+02  0.80292005807E+03  0.79795911794E+03 0.  0.
        5    1    3    3  502    0 -0.22067084338E+03 -0.27088759974E+02 -0.28876086513E+03  0.36446446914E+03  0.46999998093E+01 0.  1.
       -5    1    3    3    0  502  0.22067084338E+03  0.27088759974E+02  0.37787801131E+03  0.43845558893E+03  0.46999998093E+01 0. -1.
</event>
<event>
 5   0  0.1049780E-02  0.8033781E+03  0.7818609E-02  0.9555140E-01
       -1   -1    0    0    0  501  0.00000000000E+00  0.00000000000E+00  0.37779235759E+03  0.37779235762E+03  0.50400001928E-02 0.  1.
        1   -1    0    0  501    0  0.00000000000E+00  0.00000000000E+00 -0.42709729419E+03  0.42709729422E+03  0.50400001928E-02 0. -1.
    10030    2    1    2    0    0  0.00000000000E+00  0.00000000000E+00 -0.49304936602E+02  0.80488965184E+03  0.80337810206E+03 0.  0.
        5    1    3    3  502    0  0.20420787607E+03 -0.31395446335E+03 -0.17005906760E+03  0.41135196387E+03  0.46999998093E+01 0. -1.
       -5    1    3    3    0  502 -0.20420787607E+03  0.31395446335E+03  0.12075413100E+03  0.39353768798E+03  0.46999998093E+01 0.  1.
</event>
<event>
 5   0  0.1030323E-02  0.7986893E+03  0.7818609E-02  0.9561916E-01
        1   -1    0    0  501    0  0.00000000000E+00  0.00000000000E+00  0.74223297338E+03  0.74223297340E+03  0.50400001928E-02 0. -1.
       -1   -1    0    0    0  501  0.00000000000E+00  0.00000000000E+00 -0.21485997419E+03  0.21485997425E+03  0.50400001928E-02 0.  1.
    10030    2    1    2    0    0  0.00000000000E+00  0.00000000000E+00  0.52737299919E+03  0.95709294765E+03  0.79868932018E+03 0.  0.
        3    1    3    3  502    0 -0.30470031923E+03  0.17457981188E+03  0.49154484469E+03  0.60409994190E+03  0.10100000352E+00 0. -1.
       -3    1    3    3    0  502  0.30470031923E+03 -0.17457981188E+03  0.35828154501E+02  0.35299300575E+03  0.10100000352E+00 0.  1.
</event>
<event>
 5   0  0.1049780E-02  0.7886775E+03  0.7818609E-02  0.9576552E-01
        1   -1    0    0  501    0  0.00000000000E+00  0.00000000000E+00  0.45528550397E+03  0.45528550400E+03  0.50400001928E-02 0.  1.
       -1   -1    0    0    0  501  0.00000000000E+00  0.00000000000E+00 -0.34155058790E+03  0.34155058793E+03  0.50400001928E-02 0. -1.
    10030    2    1    2    0    0  0.00000000000E+00  0.00000000000E+00  0.11373491608E+03  0.79683609193E+03  0.78867745389E+03 0.  0.
        5    1    3    3  502    0  0.33987871322E+03 -0.12171972677E+03  0.21708821997E+03  0.42128685813E+03  0.46999998093E+01 0.  1.
       -5    1    3    3    0  502 -0.33987871322E+03  0.12171972677E+03 -0.10335330389E+03  0.37554923380E+03  0.46999998093E+01 0. -1.
</event>
<event>
 5   0  0.1146083E-02  0.8043123E+03  0.7818609E-02  0.9553796E-01
       -1   -1    0    0    0  501  0.00000000000E+00  0.00000000000E+00  0.25645560750E+03  0.25645560755E+03  0.50400001928E-02 0. -1.
        1   -1    0    0  501    0  0.00000000000E+00  0.00000000000E+00 -0.63063383766E+03  0.63063383768E+03  0.50400001928E-02 0.  1.
    10030    2    1    2    0    0  0.00000000000E+00  0.00000000000E+00 -0.37417823017E+03  0.88708944523E+03  0.80431233729E+03 0.  0.
        4    1    3    3  502    0  0.35760888813E+03  0.17605549036E+02  0.14879880935E+02  0.35835331166E+03  0.12699999809E+01 0. -1.
       -4    1    3    3    0  502 -0.35760888813E+03 -0.17605549036E+02 -0.38905811110E+03  0.52873613357E+03  0.12699999809E+01 0.  1.
</event>
<event>
 5   0  0.1817089E-02  0.7794944E+03  0.7818609E-02  0.9590182E-01
        2   -1    0    0  501    0  0.00000000000E+00  0.00000000000E+00  0.37712598577E+03  0.37712598578E+03  0.25500000920E-02 0. -1.
       -2   -1    0    0    0  501  0.00000000000E+00  0.00000000000E+00 -0.40279085360E+03  0.40279085360E+03  0.25500000920E-02 0.  1.
    10030    2    1    2    0    0  0.00000000000E+00  0.00000000000E+00 -0.25664867822E+02  0.77991683939E+03  0.77949444572E+03 0.  0.
        2    1    3    3  502    0  0.98625495182E+02  0.23276731254E+03  0.28396830652E+03  0.38019154278E+03  0.25500000920E-02 0. -1.
       -2    1    3    3    0  502 -0.98625495182E+02 -0.23276731254E+03 -0.30963317434E+03  0.39972529661E+03  0.25500000920E-02 0.  1.
</event>
<event>
 5   0  0.1747544E-02  0.8005069E+03  0.7818609E-02  0.9559284E-01
       -2   -1    0    0    0  501  0.00000000000E+00  0.00000000000E+00  0.24934464587E+03  0.24934464589E+03  0.25500000920E-02 0.  1.
        2   -1    0    0  501    0  0.00000000000E+00  0.00000000000E+00 -0.64249556951E+03  0.64249556952E+03  0.25500000920E-02 0. -1.
    10030    2    1    2    0    0  0.00000000000E+00  0.00000000000E+00 -0.39315092364E+03  0.89184021541E+03  0.80050691506E+03 0.  0.
        1    1    3    3  502    0 -0.30760081719E+03 -0.23796419423E+03 -0.91132393887E+02  0.39943752166E+03  0.50400001928E-02 0.  1.
       -1    1    3    3    0  502  0.30760081719E+03  0.23796419423E+03 -0.30201852975E+03  0.49240269375E+03  0.50400001928E-02 0. -1.
</event>
<event>
 5   0  0.1049780E-02  0.8017628E+03  0.7818609E-02  0.9557469E-01
        1   -1    0    0  501    0  0.00000000000E+00  0.00000000000E+00  0.14107434845E+04  0.14107434845E+04  0.50400001928E-02 0. -1.
       -1   -1    0    0    0  501  0.00000000000E+00  0.00000000000E+00 -0.11391575375E+03  0.11391575387E+03  0.50400001928E-02 0.  1.
    10030    2    1    2    0    0  0.00000000000E+00  0.00000000000E+00  0.12968277307E+04  0.15246592384E+04  0.80176282648E+03 0.  0.
        5    1    3    3  502    0  0.39194521416E+01  0.31792520952E+03  0.18419700064E+03  0.36748119135E+03  0.46999998093E+01 0. -1.
       -5    1    3    3    0  502 -0.39194521416E+01 -0.31792520952E+03  0.11126307301E+04  0.11571780470E+04  0.46999998093E+01 0.  1.
</event>
<event>
 5   0  0.1038912E-02  0.7820301E+03  0.7818609E-02  0.9586398E-01
        1   -1    0    0  501    0  0.00000000000E+00  0.00000000000E+00  0.82081646665E+03  0.82081646667E+03  0.50400001928E-02 0.  1.
       -1   -1    0    0    0  501  0.00000000000E+00  0.00000000000E+00 -0.18626913560E+03  0.18626913567E+03  0.50400001928E-02 0. -1.
    10030    2    1    2    0    0  0.00000000000E+00  0.00000000000E+00  0.63454733105E+03  0.10070856023E+04  0.78203011137E+03 0.  0.
        2    1    3    3  502    0  0.16527808209E+03  0.48138411895E+02  0.76939142514E+03  0.78841443176E+03  0.25500000920E-02 0.  1.
       -2    1    3    3    0  502 -0.16527808209E+03 -0.48138411895E+02 -0.13484409409E+03  0.21867117057E+03  0.25500000920E-02 0. -1.
</event>
<event>
 5   0  0.1030323E-02  0.7933103E+03  0.7818609E-02  0.9569751E-01
        1   -1    0    0  501    0  0.00000000000E+00  0.00000000000E+00  0.17205569724E+03  0.17205569731E+03  0.50400001928E-02 0. -1.
       -1   -1    0    0    0  501  0.00000000000E+00  0.00000000000E+00 -0.91444396027E+03  0.91444396028E+03  0.50400001928E-02 0.  1.
    10030    2    1    2    0    0  0.00000000000E+00  0.00000000000E+00 -0.74238826303E+03  0.10864996576E+04  0.79331026267E+03 0.  0.
        3    1    3    3  502    0  0.15540266609E+03 -0.34669691168E+03 -0.21511913018E+03  0.43660621567E+03  0.10100000352E+00 0. -1.
       -3    1    3    3    0  502 -0.15540266609E+03  0.34669691168E+03 -0.52726913286E+03  0.64989344193E+03  0.10100000352E+00 0.  1.
</event>
<event>
 5   0  0.1817089E-02  0.8024680E+03  0.7818609E-02  0.9556452E-01
       -2   -1    0    0    0  501  0.00000000000E+00  0.00000000000E+00  0.10253831178E+03  0.10253831181E+03  0.25500000920E-02 0. -1.
        2   -1    0    0  501    0  0.00000000000E+00  0.00000000000E+00 -0.15700349482E+04  0.15700349482E+04  0.25500000920E-02 0.  1.
    10030    2    1    2    0    0  0.00000000000E+00  0.00000000000E+00 -0.14674966364E+04  0.16725732600E+04  0.80246802565E+03 0.  0.
        2    1    3    3  502    0  0.22764948364E+03 -0.27361226090E+03 -0.11197679455E+04  0.11749758332E+04  0.25500000920E-02 0.  1.
       -2    1    3    3    0  502 -0.22764948364E+03  0.27361226090E+03 -0.34772869090E+03  0.49759742684E+03  0.25500000920E-02 0. -1.
</event>
<event>
 5   0  0.1747544E-02  0.8007327E+03  0.7818609E-02  0.9558957E-01
       -2   -1    0    0    0  501  0.00000000000E+00  0.00000000000E+00  0.22934420889E+03  0.22934420890E+03  0.25500000920E-02 0.  1.
        2   -1    0    0  501    0  0.00000000000E+00  0.00000000000E+00 -0.69891976966E+03  0.69891976967E+03  0.25500000920E-02 0. -1.
    10030    2    1    2    0    0  0.00000000000E+00  0.00000000000E+00 -0.46957556078E+03  0.92826397857E+03  0.80073266864E+03 0.  0.
        1    1    3    3  502    0  0.35481890109E+03  0.18401275408E+03 -0.26162816823E+03  0.47770958193E+03  0.50400001928E-02 0. -1.
       -1    1    3    3    0  502 -0.35481890109E+03 -0.18401275408E+03 -0.20794739254E+03  0.45055439663E+03  0.50400001928E-02 0.  1.
</event>
<event>
 5   0  0.1025900E-02  0.7843229E+03  0.7818609E-02  0.9582990E-01
       -1   -1    0    0    0  501  0.00000000000E+00  0.00000000000E+00  0.55170670447E+03  0.55170670450E+03  0.50400001928E-02 0.  1.
        1   -1    0    0  501    0  0.00000000000E+00  0.00000000000E+00 -0.27875430180E+03  0.27875430185E+03  0.50400001928E-02 0. -1.
    10030    2    1    2    0    0  0.00000000000E+00  0.00000000000E+00  0.27295240267E+03  0.83046100634E+03  0.78432293664E+03 0.  0.
        1    1    3    3  502    0  0.38422052943E+03  0.68953751785E+01  0.21929269670E+03  0.44245027775E+03  0.50400001928E-02 0.  1.
       -1    1    3    3    0  502 -0.38422052943E+03 -0.68953751785E+01  0.53659705968E+02  0.38801072859E+03  0.50400001928E-02 0. -1.
</event>
<event>
 5   0  0.1817089E-02  0.7910615E+03  0.7818609E-02  0.9573046E-01
        2   -1    0    0  501    0  0.00000000000E+00  0.00000000000E+00  0.67319968431E+03  0.67319968431E+03  0.25500000920E-02 0.  1.
       -2   -1    0    0    0  501  0.00000000000E+00  0.00000000000E+00 -0.23238953827E+03  0.23238953828E+03  0.25500000920E-02 0. -1.
    10030    2    1    2    0    0  0.00000000000E+00  0.00000000000E+00  0.44081014603E+03  0.90558922259E+03  0.79106147374E+03 0.  0.
        2    1    3    3  502    0  0.23468674401E+03  0.22269323249E+03  0.48088762216E+03  0.57958868930E+03  0.25500000920E-02 0.  1.
       -2    1    3    3    0  502 -0.23468674401E+03 -0.22269323249E+03 -0.40077476128E+02  0.32600053329E+03  0.25500000920E-02 0. -1.
</event>
<event>
 5   0  0.1146083E-02  0.7940734E+03  0.7818609E-02  0.9568636E-01
       -1   -1    0    0    0  501  0.00000000000E+00  0.00000000000E+00  0.21433665249E+03  0.21433665254E+03  0.50400001928E-02 0.  1.
        1   -1    0    0  501    0  0.00000000000E+00  0.00000000000E+00 -0.73546974956E+03  0.73546974958E+03  0.50400001928E-02 0. -1.
    10030    2    1    2    0    0  0.00000000000E+00  0.00000000000E+00 -0.52113309708E+03  0.94980640212E+03  0.79407335722E+03 0.  0.
        4    1    3    3  502    0  0.34404310072E+02 -0.53045139699E+02  0.20827414489E+03  0.21766298658E+03  0.12699999809E+01 0.  1.
       -4    1    3    3    0  502 -0.34404310072E+02  0.53045139699E+02 -0.72940724196E+03  0.73214341555E+03  0.12699999809E+01 0. -1.
</event>
<event>
 5   0  0.6872500E-03  0.7967642E+03  0.7818609E-02  0.9564713E-01
       -3   -1    0    0    0  501  0.00000000000E+00  0.00000000000E+00  0.89109014935E+03  0.89109015508E+03  0.10100000352E+00 0.  1.
        3   -1    0    0  501    0  0.00000000000E+00  0.00000000000E+00 -0.17810575458E+03  0.17810578321E+03  0.10100000352E+00 0. -1.
    10030    2    1    2    0    0  0.00000000000E+00  0.00000000000E+00  0.71298439478E+03  0.10691959383E+04  0.79676421058E+03 0.  0.
        1    1    3    3  502    0  0.35997618829E+03  0.25836269892E+02  0.13011683576E+03  0.38364144712E+03  0.50400001928E-02 0. -1.
       -1    1    3    3    0  502 -0.35997618829E+03 -0.25836269892E+02  0.58286755902E+03  0.68555449117E+03  0.50400001928E-02 0.  1.
</event>
<event>
 5   0  0.1030323E-02  0.8048005E+03  0.7818609E-02  0.9553095E-01
        1   -1    0    0  501    0  0.00000000000E+00  0.00000000000E+00  0.40207114866E+03  0.40207114869E+03  0.50400001928E-02 0. -1.
       -1   -1    0    0    0  501  0.00000000000E+00  0.00000000000E+00 -0.40272959288E+03  0.40272959291E+03  0.50400001928E-02 0.  1.
    10030    2    1    2    0    0  0.00000000000E+00  0.00000000000E+00 -0.65844421445E+00  0.80480074160E+03  0.80480047225E+03 0.  0.
        3    1    3    3  502    0  0.20206651371E+03  0.34791394130E+03 -0.74673839962E+01  0.40240621086E+03  0.10100000352E+00 0.  1.
       -3    1    3    3    0  502 -0.20206651371E+03 -0.34791394130E+03  0.68089397817E+01  0.40239453075E+03  0.10100000352E+00 0. -1.
</event>
<event>
 5   0  0.1673727E-02  0.8050051E+03  0.7818609E-02  0.9552801E-01
       -2   -1    0    0    0  501  0.00000000000E+00  0.00000000000E+00  0.11023462603E+03  0.11023462606E+03  0.25500000920E-02 0.  1.
        2   -1    0    0  501    0  0.00000000000E+00  0.00000000000E+00 -0.14696678274E+04  0.14696678274E+04  0.25500000920E-02 0. -1.
    10030    2    1    2    0    0  0.00000000000E+00  0.00000000000E+00 -0.13594332013E+04  0.15799024534E+04  0.80500505182E+03 0.  0.
        5    1    3    3  502    0  0.15873246476E+02 -0.13090504008E+03 -0.14260157847E+04  0.14321072577E+04  0.46999998093E+01 0. -1.
       -5    1    3    3    0  502 -0.15873246476E+02  0.13090504008E+03  0.66582583337E+02  0.14779519571E+03  0.46999998093E+01 0.  1.
</event>
<event>
 5   0  0.1817089E-02  0.8044482E+03  0.7818609E-02  0.9553601E-01
        2   -1    0    0  501    0  0.00000000000E+00  0.00000000000E+00  0.38169833702E+03  0.38169833703E+03  0.25500000920E-02 0. -1.
       -2   -1    0    0    0  501  0.00000000000E+00  0.00000000000E+00 -0.42385362423E+03  0.42385362424E+03  0.25500000920E-02 0.  1.
    10030    2    1    2    0    0  0.00000000000E+00  0.00000000000E+00 -0.42155287205E+02  0.80555196127E+03  0.80444819228E+03 0.  0.
        2    1    3    3  502    0  0.24680094628E+03 -0.17061477285E+03  0.24717817336E+03  0.38873790295E+03  0.25500000920E-02 0. -1.
       -2    1    3    3    0  502 -0.24680094628E+03  0.17061477285E+03 -0.28933346057E+03  0.41681405832E+03  0.25500000920E-02 0.  1.
</event>
<event>
 5   0  0.6872500E-03  0.8024853E+03  0.7818609E-02  0.9556427E-01
       -3   -1    0    0    0  501  0.00000000000E+00  0.00000000000E+00  0.87812726945E+02  0.87812785029E+02  0.10100000352E+00 0. -1.
        3   -1    0    0  501    0  0.00000000000E+00  0.00000000000E+00 -0.18333971441E+04  0.18333971469E+04  0.10100000352E+00 0.  1.
    10030    2    1    2    0    0  0.00000000000E+00  0.00000000000E+00 -0.17455844172E+04  0.19212099319E+04  0.80248529274E+03 0.  0.
        2    1    3    3  502    0 -0.31561761638E+03  0.13746558226E+03 -0.13662527845E+04  0.14089563291E+04  0.25500000920E-02 0.  1.
       -2    1    3    3    0  502  0.31561761638E+03 -0.13746558226E+03 -0.37933163263E+03  0.51225360282E+03  0.25500000920E-02 0. -1.
</event>
<event>
 5   0  0.1049780E-02  0.7904705E+03  0.7818609E-02  0.9573914E-01
        1   -1    0    0  501    0  0.00000000000E+00  0.00000000000E+00  0.26901357491E+03  0.26901357495E+03  0.50400001928E-02 0.  1.
       -1   -1    0    0    0  501  0.00000000000E+00  0.00000000000E+00 -0.58068041743E+03  0.58068041745E+03  0.50400001928E-02 0. -1.
    10030    2    1    2    0    0  0.00000000000E+00  0.00000000000E+00 -0.31166684253E+03  0.84969399241E+03  0.79047053076E+03 0.  0.
        5    1    3    3  502    0  0.18745902158E+03  0.39295670718E+02 -0.52742657527E+03  0.56114696543E+03  0.46999998093E+01 0. -1.
       -5    1    3    3    0  502 -0.18745902158E+03 -0.39295670718E+02  0.21575973274E+03  0.28854702698E+03  0.46999998093E+01 0.  1.
</event>
<event>
 5   0  0.1038912E-02  0.7996486E+03  0.7818609E-02  0.9560526E-01
        1   -1    0    0  501    0  0.00000000000E+00  0.00000000000E+00  0.39423800966E+03  0.39423800970E+03  0.50400001928E-02 0. -1.
       -1   -1    0    0    0  501  0.00000000000E+00  0.00000000000E+00 -0.40548975146E+03  0.40548975149E+03  0.50400001928E-02 0.  1.
    10030    2    1    2    0    0  0.00000000000E+00  0.00000000000E+00 -0.11251741795E+02  0.79972776119E+03  0.79964860427E+03 0.  0.
        2    1    3    3  502    0 -0.19988649258E+03 -0.14405975854E+03 -0.32054058883E+03  0.40429456221E+03  0.25500000920E-02 0.  1.
       -2    1    3    3    0  502  0.19988649258E+03  0.14405975854E+03  0.30928884703E+03  0.39543319897E+03  0.25500000920E-02 0. -1.
</event>
<event>
 5   0  0.1025900E-02  0.7899314E+03  0.7818609E-02  0.9574706E-01
       -1   -1    0    0    0  501  0.00000000000E+00  0.00000000000E+00  0.46180479386E+03  0.46180479389E+03  0.50400001928E-02 0. -1.
        1   -1    0    0  501    0  0.00000000000E+00  0.00000000000E+00 -0.33780051212E+03  0.33780051216E+03  0.50400001928E-02 0.  1.
    10030    2    1    2    0    0  0.00000000000E+00  0.00000000000E+00  0.12400428174E+03  0.79960530605E+03  0.78993137903E+03 0.  0.
        1    1    3    3  502    0  0.25773731922E+03  0.13388456733E+03  0.33294462069E+03  0.44182091797E+03  0.50400001928E-02 0. -1.
       -1    1    3    3    0  502 -0.25773731922E+03 -0.13388456733E+03 -0.20894033895E+03  0.35778438808E+03  0.50400001928E-02 0.  1.
</event>
<event>
 5   0  0.1817089E-02  0.8025894E+03  0.7818609E-02  0.9556277E-01
       -2   -1    0    0    0  501  0.00000000000E+00  0.00000000000E+00  0.80447588198E+03  0.80447588198E+03  0.25500000920E-02 0.  1.
        2   -1    0    0  501    0  0.00000000000E+00  0.00000000000E+00 -0.20017682311E+03  0.20017682313E+03  0.25500000920E-02 0. -1.
    10030    2    1    2    0    0  0.00000000000E+00  0.00000000000E+00  0.60429905887E+03  0.10046527051E+04  0.80258937529E+03 0.  0.
        2    1    3    3  502    0  0.32410001138E+03  0.34272923057E+02  0.90602770575E+01  0.32603303400E+03  0.25500000920E-02 0. -1.
       -2    1    3    3    0  502 -0.32410001138E+03 -0.34272923057E+02  0.59523878181E+03  0.67861967110E+03  0.25500000920E-02 0.  1.
</event>
<event>
 5   0  0.1025900E-02  0.8132179E+03  0.7818609E-02  0.9541079E-01
        1   -1    0    0  501    0  0.00000000000E+00  0.00000000000E+00  0.94322813602E+03  0.94322813604E+03  0.50400001928E-02 0.  1.
       -1   -1    0    0    0  501  0.00000000000E+00  0.00000000000E+00 -0.17528190117E+03  0.17528190125E+03  0.50400001928E-02 0. -1.
    10030    2    1    2    0    0  0.00000000000E+00  0.00000000000E+00  0.76794623485E+03  0.11185100373E+04  0.81321785758E+03 0.  0.
        1    1    3    3  502    0 -0.62032348408E+02 -0.52915325008E+02  0.93186879608E+03  0.93542904434E+03  0.50400001928E-02 0.  1.
       -1    1    3    3    0  502  0.62032348408E+02  0.52915325008E+02 -0.16392256123E+03  0.18308099294E+03  0.50400001928E-02 0. -1.
</event>
<event>
 5   0  0.6872500E-03  0.7968329E+03  0.7818609E-02  0.9564613E-01
        3   -1    0    0  501    0  0.00000000000E+00  0.00000000000E+00  0.10791336489E+04  0.10791336537E+04  0.10100000352E+00 0. -1.
       -3   -1    0    0    0  501  0.00000000000E+00  0.00000000000E+00 -0.14709545525E+03  0.14709548992E+03  0.10100000352E+00 0.  1.
    10030    2    1    2    0    0  0.00000000000E+00  0.00000000000E+00  0.93203819368E+03  0.12262291436E+04  0.79683292984E+03 0.  0.
        5    1    3    3  502    0 -0.16265410385E+03  0.47487870109E+02  0.10208742213E+04  0.10348515454E+04  0.46999998093E+01 0. -1.
       -5    1    3    3    0  502  0.16265410385E+03 -0.47487870109E+02 -0.88836027573E+02  0.19137759822E+03  0.46999998093E+01 0.  1.
</event>
<event>
 5   0  0.1673727E-02  0.8162100E+03  0.7818609E-02  0.9536846E-01
        2   -1    0    0  501    0  0.00000000000E+00  0.00000000000E+00  0.74487220250E+03  0.74487220251E+03  0.25500000920E-02 0. -1.
       -2   -1    0    0    0  501  0.00000000000E+00  0.00000000000E+00 -0.22359499905E+03  0.22359499907E+03  0.25500000920E-02 0.  1.
    10030    2    1    2    0    0  0.00000000000E+00  0.00000000000E+00  0.52127720345E+03  0.96846720157E+03  0.81621002058E+03 0.  0.
        5    1    3    3  502    0  0.11757237391E+03 -0.36846339890E+03  0.10620998678E+03  0.40111244149E+03  0.46999998093E+01 0.  1.
       -5    1    3    3    0  502 -0.11757237391E+03  0.36846339890E+03  0.41506721667E+03  0.56735476008E+03  0.46999998093E+01 0. -1.
</event>
<event>
 5   0  0.1030323E-02  0.8050964E+03  0.7818609E-02  0.9552669E-01
       -1   -1    0    0    0  501  0.00000000000E+00  0.00000000000E+00  0.66537399877E+03  0.66537399879E+03  0.50400001928E-02 0. -1.
        1   -1    0    0  501    0  0.00000000000E+00  0.00000000000E+00 -0.24353981412E+03  0.24353981418E+03  0.50400001928E-02 0.  1.
    10030    2    1    2    0    0  0.00000000000E+00  0.00000000000E+00  0.42183418465E+03  0.90891381297E+03  0.80509641663E+03 0.  0.
        3    1    3    3  502    0  0.18291811107E+03  0.33880650711E+03  0.78313892853E+02  0.39291469892E+03  0.10100000352E+00 0.  1.
       -3    1    3    3    0  502 -0.18291811107E+03 -0.33880650711E+03  0.34352029179E+03  0.51599911404E+03  0.10100000352E+00 0. -1.
</event>
<event>
 5   0  0.6872500E-03  0.8016433E+03  0.7818609E-02  0.9557642E-01
        3   -1    0    0  501    0  0.00000000000E+00  0.00000000000E+00  0.15784147233E+04  0.15784147265E+04  0.10100000352E+00 0.  1.
       -3   -1    0    0    0  501  0.00000000000E+00  0.00000000000E+00 -0.10178435922E+03  0.10178440933E+03  0.10100000352E+00 0. -1.
    10030    2    1    2    0    0  0.00000000000E+00  0.00000000000E+00  0.14766303640E+04  0.16801991358E+04  0.80164325232E+03 0.  0.
        2    1    3    3  502    0  0.34265310132E+03 -0.20777586846E+03  0.75658919473E+03  0.85615954643E+03  0.25500000920E-02 0. -1.
       -2    1    3    3    0  502 -0.34265310132E+03  0.20777586846E+03  0.72004116931E+03  0.82403958938E+03  0.25500000920E-02 0.  1.
</event>
<event>
 5   0  0.1049780E-02  0.8260604E+03  0.7818609E-02  0.9523043E-01
       -1   -1    0    0    0  501  0.00000000000E+00  0.00000000000E+00  0.41077609676E+03  0.41077609679E+03  0.50400001928E-02 0.  1.
        1   -1    0    0  501    0  0.00000000000E+00  0.00000000000E+00 -0.41529663668E+03  0.41529663671E+03  0.50400001928E-02 0. -1.
    10030    2    1    2    0    0  0.00000000000E+00  0.00000000000E+00 -0.45205399115E+01  0.82607273350E+03  0.82606036447E+03 0.  0.
        5    1    3    3  502    0 -0.18588889582E+03  0.35249243136E+03  0.10621368107E+03  0.41244276185E+03  0.46999998093E+01 0.  1.
       -5    1    3    3    0  502  0.18588889582E+03 -0.35249243136E+03 -0.11073422098E+03  0.41362997165E+03  0.46999998093E+01 0. -1.
</event>
<event>
 5   0  0.1817089E-02  0.8036142E+03  0.7818609E-02  0.9554800E-01
       -2   -1    0    0    0  501  0.00000000000E+00  0.00000000000E+00  0.36441282685E+03  0.36441282686E+03  0.25500000920E-02 0.  1.
        2   -1    0    0  501    0  0.00000000000E+00  0.00000000000E+00 -0.44303856028E+03  0.44303856029E+03  0.25500000920E-02 0. -1.
    10030    2    1    2    0    0  0.00000000000E+00  0.00000000000E+00 -0.78625733437E+02  0.80745138715E+03  0.80361417151E+03 0.  0.
        2    1    3    3  502    0  0.38170093875E+03  0.12541588750E+03 -0.44253936019E+02  0.40420683114E+03  0.25500000920E-02 0.  1.
       -2    1    3    3    0  502 -0.38170093875E+03 -0.12541588750E+03 -0.34371797418E+02  0.40324455600E+03  0.25500000920E-02 0. -1.
</event>
<event>
 5   0  0.6872500E-03  0.8020175E+03  0.7818609E-02  0.9557101E-01
       -3   -1    0    0    0  501  0.00000000000E+00  0.00000000000E+00  0.52022553833E+03  0.52022554813E+03  0.10100000352E+00 0.  1.
        3   -1    0    0  501    0  0.00000000000E+00  0.00000000000E+00 -0.30911206996E+03  0.30911208646E+03  0.10100000352E+00 0. -1.
    10030    2    1    2    0    0  0.00000000000E+00  0.00000000000E+00  0.21111346837E+03  0.82933763460E+03  0.80201746591E+03 0.  0.
        2    1    3    3  502    0 -0.43522645390E+02  0.20818354716E+03  0.45709813663E+03  0.50415604379E+03  0.25500000920E-02 0.  1.
       -2    1    3    3    0  502  0.43522645390E+02 -0.20818354716E+03 -0.24598466827E+03  0.32518159081E+03  0.25500000920E-02 0. -1.
</event>
<event>
 5   0  0.1025900E-02  0.7991834E+03  0.7818609E-02  0.9561200E-01
       -1   -1    0    0    0  501  0.00000000000E+00  0.00000000000E+00  0.49816487546E+03  0.49816487549E+03  0.50400001928E-02 0.  1.
        1   -1    0    0  501    0  0.00000000000E+00  0.00000000000E+00 -0.32052341477E+03  0.32052341481E+03  0.50400001928E-02 0. -1.
    10030    2    1    2    0    0  0.00000000000E+00  0.00000000000E+00  0.17764146069E+03  0.81868829030E+03  0.79918335075E+03 0.  0.
        1    1    3    3  502    0  0.68240324958E+02 -0.24723627858E+03  0.40271551836E+03  0.47745398537E+03  0.50400001928E-02 0.  1.
       -1    1    3    3    0  502 -0.68240324958E+02  0.24723627858E+03 -0.22507405767E+03  0.34123430493E+03  0.50400001928E-02 0. -1.
</event>
<event>
 5   0  0.1817089E-02  0.8222841E+03  0.7818609E-02  0.9528310E-01
       -2   -1    0    0    0  501  0.00000000000E+00  0.00000000000E+00  0.25055424019E+03  0.25055424020E+03  0.25500000920E-02 0.  1.
        2   -1    0    0  501    0  0.00000000000E+00  0.00000000000E+00 -0.67465545706E+03  0.67465545707E+03  0.25500000920E-02 0. -1.
    10030    2    1    2    0    0  0.00000000000E+00  0.00000000000E+00 -0.42410121687E+03  0.92520969727E+03  0.82228410040E+03 0.  0.
        2    1    3    3  502    0  0.16330442173E+03  0.26099310473E+03 -0.51865086154E+03  0.60314546426E+03  0.25500000920E-02 0. -1.
       -2    1    3    3    0  502 -0.16330442173E+03 -0.26099310473E+03  0.94549644670E+02  0.32206423301E+03  0.25500000920E-02 0.  1.
</event>
<event>
 5   0  0.6872500E-03  0.8049808E+03  0.7818609E-02  0.9552836E-01
       -4   -1    0    0    0  501  0.00000000000E+00  0.00000000000E+00  0.15654913649E+03  0.15655428783E+03  0.12699999809E+01 0. -1.
        4   -1    0    0  501    0  0.00000000000E+00  0.00000000000E+00 -0.10347867483E+04  0.10347875276E+04  0.12699999809E+01 0.  1.
    10030    2    1    2    0    0  0.00000000000E+00  0.00000000000E+00 -0.87823761181E+03  0.11913418155E+04  0.80498075659E+03 0.  0.
        5    1    3    3  502    0 -0.35123338026E+03 -0.89306207340E+01 -0.72962832912E+03  0.80982975498E+03  0.46999998093E+01 0.  1.
       -5    1    3    3    0  502  0.35123338026E+03  0.89306207340E+01 -0.14860928269E+03  0.38151206049E+03  0.46999998093E+01 0. -1.
</event>
<event>
 5   0  0.1038912E-02  0.8086930E+03  0.7818609E-02  0.9547519E-01
       -1   -1    0    0    0  501  0.00000000000E+00  0.00000000000E+00  0.13213181535E+03  0.13213181544E+03  0.50400001928E-02 0.  1.
        1   -1    0    0  501    0  0.00000000000E+00  0.00000000000E+00 -0.12373710247E+04  0.12373710247E+04  0.50400001928E-02 0. -1.
    10030    2    1    2    0    0  0.00000000000E+00  0.00000000000E+00 -0.11052392093E+04  0.13695028401E+04  0.80869296972E+03 0.  0.
        2    1    3    3  502    0 -0.29798958617E+03 -0.17662688379E+02 -0.90743181052E+02  0.31200014253E+03  0.25500000920E-02 0.  1.
       -2    1    3    3    0  502  0.29798958617E+03  0.17662688379E+02 -0.10144960283E+04  0.10575026976E+04  0.25500000920E-02 0. -1.
</event>
<event>
 5   0  0.1146083E-02  0.8137826E+03  0.7818609E-02  0.9540279E-01
        1   -1    0    0  501    0  0.00000000000E+00  0.00000000000E+00  0.44635069726E+03  0.44635069729E+03  0.50400001928E-02 0. -1.
       -1   -1    0    0    0  501  0.00000000000E+00  0.00000000000E+00 -0.37092026836E+03  0.37092026840E+03  0.50400001928E-02 0.  1.
    10030    2    1    2    0    0  0.00000000000E+00  0.00000000000E+00  0.75430428901E+02  0.81727096569E+03  0.81378257646E+03 0.  0.
        4    1    3    3  502    0  0.31861009179E+03  0.20950755776E+03 -0.10485493845E+03  0.39547689991E+03  0.12699999809E+01 0. -1.
       -4    1    3    3    0  502 -0.31861009179E+03 -0.20950755776E+03  0.18028536735E+03  0.42179406578E+03  0.12699999809E+01 0.  1.
</event>
<event>
 5   0  0.1146083E-02  0.7984475E+03  0.7818609E-02  0.9562267E-01
        1   -1    0    0  501    0  0.00000000000E+00  0.00000000000E+00  0.12830204734E+03  0.12830204744E+03  0.50400001928E-02 0. -1.
       -1   -1    0    0    0  501  0.00000000000E+00  0.00000000000E+00 -0.12422217271E+04  0.12422217271E+04  0.50400001928E-02 0.  1.
    10030    2    1    2    0    0  0.00000000000E+00  0.00000000000E+00 -0.11139196797E+04  0.13705237745E+04  0.79844747080E+03 0.  0.
        4    1    3    3  502    0 -0.12217955242E+03 -0.32382072063E+03 -0.21542541241E+03  0.40767318203E+03  0.12699999809E+01 0. -1.
       -4    1    3    3    0  502  0.12217955242E+03  0.32382072063E+03 -0.89849426732E+03  0.96285059248E+03  0.12699999809E+01 0.  1.
</event>
<event>
 5   0  0.1049780E-02  0.7981974E+03  0.7818609E-02  0.9562630E-01
       -1   -1    0    0    0  501  0.00000000000E+00  0.00000000000E+00  0.11266128804E+03  0.11266128815E+03  0.50400001928E-02 0.  1.
        1   -1    0    0  501    0  0.00000000000E+00  0.00000000000E+00 -0.14137934001E+04  0.14137934001E+04  0.50400001928E-02 0. -1.
    10030    2    1    2    0    0  0.00000000000E+00  0.00000000000E+00 -0.13011321120E+04  0.15264546882E+04  0.79819743314E+03 0.  0.
        5    1    3    3  502    0  0.26209125941E+03  0.17173772489E+03 -0.17796494660E+03  0.36038768933E+03  0.46999998093E+01 0.  1.
       -5    1    3    3    0  502 -0.26209125941E+03 -0.17173772489E+03 -0.11231671654E+04  0.11660669989E+04  0.46999998093E+01 0. -1.
</event>
<event>
 5   0  0.1030323E-02  0.7977640E+03  0.7818609E-02  0.9563259E-01
        1   -1    0    0  501    0  0.00000000000E+00  0.00000000000E+00  0.93416970872E+03  0.93416970874E+03  0.50400001928E-02 0. -1.
       -1   -1    0    0    0  501  0.00000000000E+00  0.00000000000E+00 -0.17031899120E+03  0.17031899127E+03  0.50400001928E-02 0.  1.
    10030    2    1    2    0    0  0.00000000000E+00  0.00000000000E+00  0.76385071752E+03  0.11044887000E+04  0.79776398126E+03 0.  0.
        3    1    3    3  502    0  0.86998420835E+01  0.30570040862E+03  0.73646702229E+03  0.79744097725E+03  0.10100000352E+00 0. -1.
       -3    1    3    3    0  502 -0.86998420835E+01 -0.30570040862E+03  0.27383695234E+02  0.30704772276E+03  0.10100000352E+00 0.  1.
</event>
<event>
 5   0  0.1673727E-02  0.8163702E+03  0.7818609E-02  0.9536620E-01
       -2   -1    0    0    0  501  0.00000000000E+00  0.00000000000E+00  0.62651518796E+03  0.62651518796E+03  0.25500000920E-02 0. -1.
        2   -1    0    0  501    0  0.00000000000E+00  0.00000000000E+00 -0.26593940547E+03  0.26593940548E+03  0.25500000920E-02 0.  1.
    10030    2    1    2    0    0  0.00000000000E+00  0.00000000000E+00  0.36057578249E+03  0.89245459344E+03  0.81637020183E+03 0.  0.
        5    1    3    3  502    0 -0.30284618773E+03  0.27155246241E+03  0.14343505053E+03  0.43133775279E+03  0.46999998093E+01 0.  1.
       -5    1    3    3    0  502  0.30284618773E+03 -0.27155246241E+03  0.21714073196E+03  0.46111684066E+03  0.46999998093E+01 0. -1.
</event>
<event>
 5   0  0.1049780E-02  0.7903848E+03  0.7818609E-02  0.9574040E-01
        1   -1    0    0  501    0  0.00000000000E+00  0.00000000000E+00  0.11790064586E+04  0.11790064586E+04  0.50400001928E-02 0.  1.
       -1   -1    0    0    0  501  0.00000000000E+00  0.00000000000E+00 -0.13246494065E+03  0.13246494074E+03  0.50400001928E-02 0. -1.
    10030    2    1    2    0    0  0.00000000000E+00  0.00000000000E+00  0.10465415180E+04  0.13114713994E+04  0.79038476865E+03 0.  0.
        5    1    3    3  502    0 -0.30928410176E+02 -0.34528656352E+03  0.20855100618E+03  0.40459237471E+03  0.46999998093E+01 0. -1.
       -5    1    3    3    0  502  0.30928410176E+02  0.34528656352E+03  0.83799051178E+03  0.90687902464E+03  0.46999998093E+01 0.  1.
</event>
<event>
 5   0  0.1747544E-02  0.8056169E+03  0.7818609E-02  0.9551922E-01
        2   -1    0    0  501    0  0.00000000000E+00  0.00000000000E+00  0.33204467936E+03  0.33204467937E+03  0.25500000920E-02 0.  1.
       -2   -1    0    0    0  501  0.00000000000E+00  0.00000000000E+00 -0.48865300379E+03  0.48865300379E+03  0.25500000920E-02 0. -1.
    10030    2    1    2    0    0  0.00000000000E+00  0.00000000000E+00 -0.15660832442E+03  0.82069768316E+03  0.80561685675E+03 0.  0.
        1    1    3    3  502    0 -0.61872339270E+02  0.48789200310E+02  0.32411723346E+03  0.33355742157E+03  0.50400001928E-02 0.  1.
       -1    1    3    3    0  502  0.61872339270E+02 -0.48789200310E+02 -0.48072555789E+03  0.48714026159E+03  0.50400001928E-02 0. -1.
</event>
<event>
 5   0  0.1030323E-02  0.7946787E+03  0.7818609E-02  0.9567751E-01
       -1   -1    0    0    0  501  0.00000000000E+00  0.00000000000E+00  0.16215997452E+03  0.16215997460E+03  0.50400001928E-02 0.  1.
        1   -1    0    0  501    0  0.00000000000E+00  0.00000000000E+00 -0.97359770147E+03  0.97359770148E+03  0.50400001928E-02 0. -1.
    10030    2    1    2    0    0  0.00000000000E+00  0.00000000000E+00 -0.81143772695E+03  0.11357576761E+04  0.79467874897E+03 0.  0.
        3    1    3    3  502    0 -0.76765664249E+00  0.72697269480E+02  0.15257327112E+03  0.16900915817E+03  0.10100000352E+00 0.  1.
       -3    1    3    3    0  502  0.76765664249E+00 -0.72697269480E+02 -0.96401099806E+03  0.96674851791E+03  0.10100000352E+00 0. -1.
</event>
<event>
 5   0  0.1038912E-02  0.7950858E+03  0.7818609E-02  0.9567158E-01
       -1   -1    0    0    0  501  0.00000000000E+00  0.00000000000E+00  0.68429056805E+03  0.68429056807E+03  0.50400001928E-02 0.  1.
        1   -1    0    0  501    0  0.00000000000E+00  0.00000000000E+00 -0.23095501426E+03  0.23095501432E+03  0.50400001928E-02 0. -1.
    10030    2    1    2    0    0  0.00000000000E+00  0.00000000000E+00  0.45333555379E+03  0.91524558238E+03  0.79508575119E+03 0.  0.
        2    1    3    3  502    0  0.29589746059E+02  0.62540050768E+02 -0.22397136354E+03  0.23441412653E+03  0.25500000920E-02 0. -1.
       -2    1    3    3    0  502 -0.29589746059E+02 -0.62540050768E+02  0.67730691733E+03  0.68083145586E+03  0.25500000920E-02 0.  1.
</event>
<event>
 5   0  0.6872500E-03  0.8142252E+03  0.7818609E-02  0.9539652E-01
        3   -1    0    0  501    0  0.00000000000E+00  0.00000000000E+00  0.37270972238E+03  0.37270973607E+03  0.10100000352E+00 0. -1.
       -3   -1    0    0    0  501  0.00000000000E+00  0.00000000000E+00 -0.44469100195E+03  0.44469101342E+03  0.10100000352E+00 0.  1.
    10030    2    1    2    0    0  0.00000000000E+00  0.00000000000E+00 -0.71981279566E+02  0.81740074949E+03  0.81422520267E+03 0.  0.
        1    1    3    3  502    0  0.20893645367E+03 -0.27130818232E+03  0.18504549616E+03  0.38923567043E+03  0.50400001928E-02 0. -1.
       -1    1    3    3    0  502 -0.20893645367E+03  0.27130818232E+03 -0.25702677572E+03  0.42816507906E+03  0.50400001928E-02 0.  1.
</event>
<event>
 5   0  0.1747544E-02  0.7596553E+03  0.7818609E-02  0.9620323E-01
       -2   -1    0    0    0  501  0.00000000000E+00  0.00000000000E+00  0.29243404328E+03  0.29243404329E+03  0.25500000920E-02 0. -1.
        2   -1    0    0  501    0  0.00000000000E+00  0.00000000000E+00 -0.49333872015E+03  0.49333872016E+03  0.25500000920E-02 0.  1.
    10030    2    1    2    0    0  0.00000000000E+00  0.00000000000E+00 -0.20090467687E+03  0.78577276345E+03  0.75965528142E+03 0.  0.
        1    1    3    3  502    0 -0.17282651350E+03  0.11425863343E+03 -0.42974463262E+03  0.47707912171E+03  0.50400001928E-02 0.  1.
       -1    1    3    3    0  502  0.17282651350E+03 -0.11425863343E+03  0.22883995574E+03  0.30869364174E+03  0.50400001928E-02 0. -1.
</event>
<event>
 5   0  0.1818665E-02  0.7929894E+03  0.7818609E-02  0.9570220E-01
       -2   -1    0    0    0  501  0.00000000000E+00  0.00000000000E+00  0.11356501475E+03  0.11356501478E+03  0.25500000920E-02 0.  1.
        2   -1    0    0  501    0  0.00000000000E+00  0.00000000000E+00 -0.13842999446E+04  0.13842999446E+04  0.25500000920E-02 0. -1.
    10030    2    1    2    0    0  0.00000000000E+00  0.00000000000E+00 -0.12707349298E+04  0.14978649593E+04  0.79298939122E+03 0.  0.
        3    1    3    3  502    0 -0.46923043695E+01  0.32152702566E+02 -0.13817807567E+04  0.13821627559E+04  0.10100000352E+00 0. -1.
       -3    1    3    3    0  502  0.46923043695E+01 -0.32152702566E+02  0.11104582691E+03  0.11570220343E+03  0.10100000352E+00 0.  1.
</event>
<event>
 5   0  0.1747544E-02  0.7726783E+03  0.7818609E-02  0.9600428E-01
       -2   -1    0    0    0  501  0.00000000000E+00  0.00000000000E+00  0.95379023157E+03  0.95379023158E+03  0.25500000920E-02 0. -1.
        2   -1    0    0  501    0  0.00000000000E+00  0.00000000000E+00 -0.15648928060E+03  0.15648928062E+03  0.25500000920E-02 0.  1.
    10030    2    1    2    0    0  0.00000000000E+00  0.00000000000E+00  0.79730095097E+03  0.11102795122E+04  0.77267832167E+03 0.  0.
        1    1    3    3  502    0  0.27565087749E+03  0.23977290631E+03  0.21812638024E+03  0.42550390203E+03  0.50400001928E-02 0.  1.
       -1    1    3    3    0  502 -0.27565087749E+03 -0.23977290631E+03  0.57917457074E+03  0.68477561016E+03  0.50400001928E-02 0. -1.
</event>
<event>
 5   0  0.1818665E-02  0.7985812E+03  0.7818609E-02  0.9562073E-01
        2   -1    0    0  501    0  0.00000000000E+00  0.00000000000E+00  0.38922975778E+03  0.38922975779E+03  0.25500000920E-02 0.  1.
       -2   -1    0    0    0  501  0.00000000000E+00  0.00000000000E+00 -0.40961146705E+03  0.40961146706E+03  0.25500000920E-02 0. -1.
    10030    2    1    2    0    0  0.00000000000E+00  0.00000000000E+00 -0.20381709272E+02  0.79884122485E+03  0.79858117211E+03 0.  0.
        3    1    3    3  502    0 -0.29794972658E+01  0.25065115960E+03  0.30071267382E+03  0.39148819090E+03  0.10100000352E+00 0.  1.
       -3    1    3    3    0  502  0.29794972658E+01 -0.25065115960E+03 -0.32109438310E+03  0.40735303395E+03  0.10100000352E+00 0. -1.
</event>
<event>
 5   0  0.1817089E-02  0.8017615E+03  0.7818609E-02  0.9557471E-01
        2   -1    0    0  501    0  0.00000000000E+00  0.00000000000E+00  0.61487152698E+03  0.61487152698E+03  0.25500000920E-02 0.  1.
       -2   -1    0    0    0  501  0.00000000000E+00  0.00000000000E+00 -0.26136418534E+03  0.26136418535E+03  0.25500000920E-02 0. -1.
    10030    2    1    2    0    0  0.00000000000E+00  0.00000000000E+00  0.35350734164E+03  0.87623571233E+03  0.80176154995E+03 0.  0.
        2    1    3    3  502    0 -0.23853851026E+03 -0.22198054672E+02  0.52803183443E+03  0.57983703977E+03  0.25500000920E-02 0.  1.
       -2    1    3    3    0  502  0.23853851026E+03  0.22198054672E+02 -0.17452449279E+03  0.29639867256E+03  0.25500000920E-02 0. -1.
</event>
<event>
 5   0  0.1747544E-02  0.8001112E+03  0.7818609E-02  0.9559856E-01
       -2   -1    0    0    0  501  0.00000000000E+00  0.00000000000E+00  0.40479790827E+03  0.40479790827E+03  0.25500000920E-02 0.  1.
        2   -1    0    0  501    0  0.00000000000E+00  0.00000000000E+00 -0.39536880819E+03  0.39536880820E+03  0.25500000920E-02 0. -1.
    10030    2    1    2    0    0  0.00000000000E+00  0.00000000000E+00  0.94291000754E+01  0.80016671647E+03  0.80011115867E+03 0.  0.
        1    1    3    3  502    0  0.24469423782E+03  0.31619402528E+03  0.18518946064E+02  0.40024602813E+03  0.50400001928E-02 0.  1.
       -1    1    3    3    0  502 -0.24469423782E+03 -0.31619402528E+03 -0.90898459888E+01  0.39992068835E+03  0.50400001928E-02 0. -1.
</event>
<event>
 5   0  0.1049780E-02  0.8006607E+03  0.7818609E-02  0.9559061E-01
       -1   -1    0    0    0  501  0.00000000000E+00  0.00000000000E+00  0.27912758787E+03  0.27912758792E+03  0.50400001928E-02 0.  1.
        1   -1    0    0  501    0  0.00000000000E+00  0.00000000000E+00 -0.57416170717E+03  0.57416170719E+03  0.50400001928E-02 0. -1.
    10030    2    1    2    0    0  0.00000000000E+00  0.00000000000E+00 -0.29503411930E+03  0.85328929510E+03  0.80066065820E+03 0.  0.
        5    1    3    3  502    0 -0.15508185824E+03 -0.62160959486E+01  0.24572669121E+03  0.29067631375E+03  0.46999998093E+01 0.  1.
       -5    1    3    3    0  502  0.15508185824E+03  0.62160959486E+01 -0.54076081051E+03  0.56261298135E+03  0.46999998093E+01 0. -1.
</event>
<event>
 5   0  0.1049780E-02  0.7982705E+03  0.7818609E-02  0.9562524E-01
        1   -1    0    0  501    0  0.00000000000E+00  0.00000000000E+00  0.28206900741E+04  0.28206900742E+04  0.50400001928E-02 0.  1.
       -1   -1    0    0    0  501  0.00000000000E+00  0.00000000000E+00 -0.56478710108E+02  0.56478710332E+02  0.50400001928E-02 0. -1.
    10030    2    1    2    0    0  0.00000000000E+00  0.00000000000E+00  0.27642113640E+04  0.28771687845E+04  0.79827047379E+03 0.  0.
        5    1    3    3  502    0  0.30770840572E+03  0.20565248628E+03  0.19204493400E+04  0.19557927205E+04  0.46999998093E+01 0.  1.
       -5    1    3    3    0  502 -0.30770840572E+03 -0.20565248628E+03  0.84376202399E+03  0.92137606394E+03  0.46999998093E+01 0. -1.
</event>
<event>
 5   0  0.1817089E-02  0.8012967E+03  0.7818609E-02  0.9558142E-01
       -2   -1    0    0    0  501  0.00000000000E+00  0.00000000000E+00  0.29950501046E+03  0.29950501047E+03  0.25500000920E-02 0. -1.
        2   -1    0    0  501    0  0.00000000000E+00  0.00000000000E+00 -0.53594798789E+03  0.53594798789E+03  0.25500000920E-02 0.  1.
    10030    2    1    2    0    0  0.00000000000E+00  0.00000000000E+00 -0.23644297742E+03  0.83545299837E+03  0.80129671839E+03 0.  0.
        2    1    3    3  502    0 -0.27359971616E+03 -0.12052459051E+03  0.15986107801E+03  0.33902587788E+03  0.25500000920E-02 0. -1.
       -2    1    3    3    0  502  0.27359971616E+03  0.12052459051E+03 -0.39630405543E+03  0.49642712049E+03  0.25500000920E-02 0.  1.
</event>
<event>
 5   0  0.1030323E-02  0.8132312E+03  0.7818609E-02  0.9541060E-01
       -1   -1    0    0    0  501  0.00000000000E+00  0.00000000000E+00  0.44623949879E+03  0.44623949882E+03  0.50400001928E-02 0.  1.
        1   -1    0    0  501    0  0.00000000000E+00  0.00000000000E+00 -0.37051012726E+03  0.37051012729E+03  0.50400001928E-02 0. -1.
    10030    2    1    2    0    0  0.00000000000E+00  0.00000000000E+00  0.75729371530E+02  0.81674962611E+03  0.81323121806E+03 0.  0.
        3    1    3    3  502    0  0.34139967354E+03 -0.32032723302E+02 -0.18161318707E+03  0.38802473165E+03  0.10100000352E+00 0. -1.
       -3    1    3    3    0  502 -0.34139967354E+03  0.32032723302E+02  0.25734255860E+03  0.42872489445E+03  0.10100000352E+00 0.  1.
</event>
<event>
 5   0  0.1049780E-02  0.8136754E+03  0.7818609E-02  0.9540431E-01
        1   -1    0    0  501    0  0.00000000000E+00  0.00000000000E+00  0.10801952953E+04  0.10801952953E+04  0.50400001928E-02 0. -1.
       -1   -1    0    0    0  501  0.00000000000E+00  0.00000000000E+00 -0.15322868962E+03  0.15322868970E+03  0.50400001928E-02 0.  1.
    10030    2    1    2    0    0  0.00000000000E+00  0.00000000000E+00  0.92696660564E+03  0.12334239850E+04  0.81367538903E+03 0.  0.
        5    1    3    3  502    0 -0.30469066875E+03 -0.11403480617E+03  0.83372279181E+03  0.89496152108E+03  0.46999998093E+01 0. -1.
       -5    1    3    3    0  502  0.30469066875E+03  0.11403480617E+03  0.93243813837E+02  0.33846246389E+03  0.46999998093E+01 0.  1.
</event>
<event>
 5   0  0.6872500E-03  0.7116744E+03  0.7818609E-02  0.9697473E-01
       -4   -1    0    0    0  501  0.00000000000E+00  0.00000000000E+00  0.50805846680E+03  0.50806005411E+03  0.12699999809E+01 0. -1.
        4   -1    0    0  501    0  0.00000000000E+00  0.00000000000E+00 -0.24921994293E+03  0.24922317881E+03  0.12699999809E+01 0.  1.
    10030    2    1    2    0    0  0.00000000000E+00  0.00000000000E+00  0.25883852386E+03  0.75728323292E+03  0.71167444343E+03 0.  0.
        2    1    3    3  502    0 -0.35571667144E+02  0.34582714099E+03  0.48672171494E+02  0.35104235533E+03  0.25500000920E-02 0.  1.
       -2    1    3    3    0  502  0.35571667144E+02 -0.34582714099E+03  0.21016635237E+03  0.40624087759E+03  0.25500000920E-02 0. -1.
</event>
<event>
 5   0  0.1818665E-02  0.7940284E+03  0.7818609E-02  0.9568701E-01
        2   -1    0    0  501    0  0.00000000000E+00  0.00000000000E+00  0.83031944617E+03  0.83031944618E+03  0.25500000920E-02 0.  1.
       -2   -1    0    0    0  501  0.00000000000E+00  0.00000000000E+00 -0.18983087362E+03  0.18983087363E+03  0.25500000920E-02 0. -1.
    10030    2    1    2    0    0  0.00000000000E+00  0.00000000000E+00  0.64048857256E+03  0.10201503198E+04  0.79402837697E+03 0.  0.
        3    1    3    3  502    0 -0.31895532490E+02  0.30885731383E+03  0.63810705125E+03  0.70964130682E+03  0.10100000352E+00 0.  1.
       -3    1    3    3    0  502  0.31895532490E+02 -0.30885731383E+03  0.23815213092E+01  0.31050901299E+03  0.10100000352E+00 0. -1.
</event>
<event>
 5   0  0.1049780E-02  0.8050683E+03  0.7818609E-02  0.9552710E-01
       -1   -1    0    0    0  501  0.00000000000E+00  0.00000000000E+00  0.18743248914E+03  0.18743248920E+03  0.50400001928E-02 0.  1.
        1   -1    0    0  501    0  0.00000000000E+00  0.00000000000E+00 -0.86449113597E+03  0.86449113598E+03  0.50400001928E-02 0. -1.
    10030    2    1    2    0    0  0.00000000000E+00  0.00000000000E+00 -0.67705864683E+03  0.10519236252E+04  0.80506825920E+03 0.  0.
        5    1    3    3  502    0  0.34419901345E+03  0.19412929095E+03 -0.43848833596E+03  0.59029929124E+03  0.46999998093E+01 0. -1.
       -5    1    3    3    0  502 -0.34419901345E+03 -0.19412929095E+03 -0.23857031087E+03  0.46162433395E+03  0.46999998093E+01 0.  1.
</event>
<event>
 5   0  0.1817089E-02  0.8147759E+03  0.7818609E-02  0.9538873E-01
       -2   -1    0    0    0  501  0.00000000000E+00  0.00000000000E+00  0.46495216976E+03  0.46495216976E+03  0.25500000920E-02 0. -1.
        2   -1    0    0  501    0  0.00000000000E+00  0.00000000000E+00 -0.35695052924E+03  0.35695052925E+03  0.25500000920E-02 0.  1.
    10030    2    1    2    0    0  0.00000000000E+00  0.00000000000E+00  0.10800164051E+03  0.82190269901E+03  0.81477585402E+03 0.  0.
        2    1    3    3  502    0 -0.73358634216E+02  0.35896987176E+02  0.45660947886E+03  0.46385590337E+03  0.25500000920E-02 0. -1.
       -2    1    3    3    0  502  0.73358634216E+02 -0.35896987176E+02 -0.34860783835E+03  0.35804679564E+03  0.25500000920E-02 0.  1.
</event>
<event>
 5   0  0.1025900E-02  0.8731310E+03  0.7818609E-02  0.9459807E-01
        1   -1    0    0  501    0  0.00000000000E+00  0.00000000000E+00  0.77206645977E+03  0.77206645979E+03  0.50400001928E-02 0. -1.
       -1   -1    0    0    0  501  0.00000000000E+00  0.00000000000E+00 -0.24685623111E+03  0.24685623117E+03  0.50400001928E-02 0.  1.
    10030    2    1    2    0    0  0.00000000000E+00  0.00000000000E+00  0.52521022866E+03  0.10189226910E+04  0.87313095573E+03 0.  0.
        1    1    3    3  502    0  0.39546876299E+03  0.18310182067E+03  0.23245290754E+03  0.49391919732E+03  0.50400001928E-02 0.  1.
       -1    1    3    3    0  502 -0.39546876299E+03 -0.18310182067E+03  0.29275732112E+03  0.52500349363E+03  0.50400001928E-02 0. -1.
</event>
<event>
 5   0  0.6872500E-03  0.7987805E+03  0.7818609E-02  0.9561784E-01
       -3   -1    0    0    0  501  0.00000000000E+00  0.00000000000E+00  0.92355559213E+02  0.92355614439E+02  0.10100000352E+00 0.  1.
        3   -1    0    0  501    0  0.00000000000E+00  0.00000000000E+00 -0.17271564709E+04  0.17271564738E+04  0.10100000352E+00 0. -1.
    10030    2    1    2    0    0  0.00000000000E+00  0.00000000000E+00 -0.16348009117E+04  0.18195120883E+04  0.79878045706E+03 0.  0.
        4    1    3    3  502    0 -0.15018416981E+03 -0.30948821682E+03 -0.12796028503E+04  0.13250370971E+04  0.12699999809E+01 0. -1.
       -4    1    3    3    0  502  0.15018416981E+03  0.30948821682E+03 -0.35519806132E+03  0.49447499116E+03  0.12699999809E+01 0.  1.
</event>
<event>
 5   0  0.1818665E-02  0.8039213E+03  0.7818609E-02  0.9554358E-01
        2   -1    0    0  501    0  0.00000000000E+00  0.00000000000E+00  0.11585766855E+04  0.11585766855E+04  0.25500000920E-02 0. -1.
       -2   -1    0    0    0  501  0.00000000000E+00  0.00000000000E+00 -0.13945762939E+03  0.13945762941E+03  0.25500000920E-02 0.  1.
    10030    2    1    2    0    0  0.00000000000E+00  0.00000000000E+00  0.10191190561E+04  0.12980343149E+04  0.80392128479E+03 0.  0.
        3    1    3    3  502    0  0.23474888885E+02 -0.27288418035E+02 -0.13684997652E+03  0.14150496260E+03  0.10100000352E+00 0.  1.
       -3    1    3    3    0  502 -0.23474888885E+02  0.27288418035E+02  0.11559690326E+04  0.11565293523E+04  0.10100000352E+00 0. -1.
</event>
<event>
 5   0  0.1038912E-02  0.8072365E+03  0.7818609E-02  0.9549601E-01
        1   -1    0    0  501    0  0.00000000000E+00  0.00000000000E+00  0.46665063766E+03  0.46665063769E+03  0.50400001928E-02 0. -1.
       -1   -1    0    0    0  501  0.00000000000E+00  0.00000000000E+00 -0.34909986072E+03  0.34909986076E+03  0.50400001928E-02 0.  1.
    10030    2    1    2    0    0  0.00000000000E+00  0.00000000000E+00  0.11755077694E+03  0.81575049845E+03  0.80723645269E+03 0.  0.
        2    1    3    3  502    0  0.29822455397E+03  0.26960678249E+03  0.22593130748E+02  0.40266133576E+03  0.25500000920E-02 0.  1.
       -2    1    3    3    0  502 -0.29822455397E+03 -0.26960678249E+03  0.94957646196E+02  0.41308916269E+03  0.25500000920E-02 0. -1.
</event>
<event>
 5   0  0.1030323E-02  0.7524206E+03  0.7818609E-02  0.9631560E-01
       -1   -1    0    0    0  501  0.00000000000E+00  0.00000000000E+00  0.22629285725E+03  0.22629285730E+03  0.50400001928E-02 0.  1.
        1   -1    0    0  501    0  0.00000000000E+00  0.00000000000E+00 -0.62544703634E+03  0.62544703636E+03  0.50400001928E-02 0. -1.
    10030    2    1    2    0    0  0.00000000000E+00  0.00000000000E+00 -0.39915417910E+03  0.85173989367E+03  0.75242061892E+03 0.  0.
        3    1    3    3  502    0 -0.20302607409E+03  0.21038072807E+03 -0.46758754279E+03  0.55146872793E+03  0.10100000352E+00 0. -1.
       -3    1    3    3    0  502  0.20302607409E+03 -0.21038072807E+03  0.68433363695E+02  0.30027116574E+03  0.10100000352E+00 0.  1.
</event>
<event>
 5   0  0.1049780E-02  0.7986720E+03  0.7818609E-02  0.9561941E-01
       -1   -1    0    0    0  501  0.00000000000E+00  0.00000000000E+00  0.16768164089E+03  0.16768164097E+03  0.50400001928E-02 0. -1.
        1   -1    0    0  501    0  0.00000000000E+00  0.00000000000E+00 -0.95102396098E+03  0.95102396100E+03  0.50400001928E-02 0.  1.
    10030    2    1    2    0    0  0.00000000000E+00  0.00000000000E+00 -0.78334232009E+03  0.11187056020E+04  0.79867204373E+03 0.  0.
        5    1    3    3  502    0 -0.45711638722E+02 -0.18590153897E+03 -0.88251504792E+03  0.90305251006E+03  0.46999998093E+01 0.  1.
       -5    1    3    3    0  502  0.45711638722E+02  0.18590153897E+03  0.99172727834E+02  0.21565309191E+03  0.46999998093E+01 0. -1.
</event>
<event>
 5   0  0.1038912E-02  0.7103633E+03  0.7818609E-02  0.9699672E-01
        1   -1    0    0  501    0  0.00000000000E+00  0.00000000000E+00  0.22357997511E+03  0.22357997517E+03  0.50400001928E-02 0.  1.
       -1   -1    0    0    0  501  0.00000000000E+00  0.00000000000E+00 -0.56424552280E+03  0.56424552282E+03  0.50400001928E-02 0. -1.
    10030    2    1    2    0    0  0.00000000000E+00  0.00000000000E+00 -0.34066554769E+03  0.78782549799E+03  0.71036328727E+03 0.  0.
        2    1    3    3  502    0 -0.12750559570E+03  0.27701980157E+03  0.31612130389E+02  0.30658925975E+03  0.25500000920E-02 0. -1.
       -2    1    3    3    0  502  0.12750559570E+03 -0.27701980157E+03 -0.37227767808E+03  0.48123623825E+03  0.25500000920E-02 0.  1.
</event>
<event>
 5   0  0.1731337E-02  0.7991776E+03  0.7818609E-02  0.9561208E-01
        2   -1    0    0  501    0  0.00000000000E+00  0.00000000000E+00  0.11690390223E+04  0.11690390223E+04  0.25500000920E-02 0.  1.
       -2   -1    0    0    0  501  0.00000000000E+00  0.00000000000E+00 -0.13658328552E+03  0.13658328554E+03  0.25500000920E-02 0. -1.
    10030    2    1    2    0    0  0.00000000000E+00  0.00000000000E+00  0.10324557367E+04  0.13056223078E+04  0.79917755368E+03 0.  0.
        4    1    3    3  502    0  0.21932996202E+03 -0.64918198626E+02 -0.19044031490E+02  0.22953059227E+03  0.12699999809E+01 0. -1.
       -4    1    3    3    0  502 -0.21932996202E+03  0.64918198626E+02  0.10514997682E+04  0.10760917155E+04  0.12699999809E+01 0.  1.
</event>
<event>
 5   0  0.1146083E-02  0.7934392E+03  0.7818609E-02  0.9569562E-01
        1   -1    0    0  501    0  0.00000000000E+00  0.00000000000E+00  0.78223458981E+03  0.78223458982E+03  0.50400001928E-02 0. -1.
       -1   -1    0    0    0  501  0.00000000000E+00  0.00000000000E+00 -0.20120106161E+03  0.20120106167E+03  0.50400001928E-02 0.  1.
    10030    2    1    2    0    0  0.00000000000E+00  0.00000000000E+00  0.58103352820E+03  0.98343565150E+03  0.79343917205E+03 0.  0.
        4    1    3    3  502    0 -0.24902181137E+02 -0.31611934515E+03  0.58600050394E+03  0.66629555193E+03  0.12699999809E+01 0. -1.
       -4    1    3    3    0  502  0.24902181137E+02  0.31611934515E+03 -0.49669757443E+01  0.31714009957E+03  0.12699999809E+01 0.  1.
</event>
<event>
 5   0  0.1030323E-02  0.8080661E+03  0.7818609E-02  0.9548415E-01
       -1   -1    0    0    0  501  0.00000000000E+00  0.00000000000E+00  0.35780499327E+03  0.35780499331E+03  0.50400001928E-02 0.  1.
        1   -1    0    0  501    0  0.00000000000E+00  0.00000000000E+00 -0.45623377664E+03  0.45623377666E+03  0.50400001928E-02 0. -1.
    10030    2    1    2    0    0  0.00000000000E+00  0.00000000000E+00 -0.98428783363E+02  0.81403876997E+03  0.80806614434E+03 0.  0.
        3    1    3    3  502    0  0.41649464060E+02  0.40021604334E+03 -0.12404557660E+02  0.40256855621E+03  0.10100000352E+00 0.  1.
       -3    1    3    3    0  502 -0.41649464060E+02 -0.40021604334E+03 -0.86024225703E+02  0.41147021376E+03  0.10100000352E+00 0. -1.
</event>
<event>
 5   0  0.6872500E-03  0.7986547E+03  0.7818609E-02  0.9561966E-01
       -4   -1    0    0    0  501  0.00000000000E+00  0.00000000000E+00  0.14019165225E+03  0.14019740462E+03  0.12699999809E+01 0.  1.
        4   -1    0    0  501    0  0.00000000000E+00  0.00000000000E+00 -0.11374300369E+04  0.11374307459E+04  0.12699999809E+01 0. -1.
    10030    2    1    2    0    0  0.00000000000E+00  0.00000000000E+00 -0.99723838464E+03  0.12776281505E+04  0.79865467832E+03 0.  0.
        1    1    3    3  502    0 -0.61507822866E+02  0.39088902198E+03 -0.41269615723E+03  0.57174780979E+03  0.50400001928E-02 0. -1.
       -1    1    3    3    0  502  0.61507822866E+02 -0.39088902198E+03 -0.58454222741E+03  0.70588034073E+03  0.50400001928E-02 0.  1.
</event>
<event>
 5   0  0.1747544E-02  0.7991395E+03  0.7818609E-02  0.9561264E-01
        2   -1    0    0  501    0  0.00000000000E+00  0.00000000000E+00  0.47492561212E+03  0.47492561212E+03  0.25500000920E-02 0.  1.
       -2   -1    0    0    0  501  0.00000000000E+00  0.00000000000E+00 -0.33617048982E+03  0.33617048983E+03  0.25500000920E-02 0. -1.
    10030    2    1    2    0    0  0.00000000000E+00  0.00000000000E+00  0.13875512230E+03  0.81109610195E+03  0.79913947633E+03 0.  0.
        1    1    3    3  502    0 -0.11113440229E+03 -0.70254090110E+02  0.45234176659E+03  0.47106216827E+03  0.50400001928E-02 0.  1.
       -1    1    3    3    0  502  0.11113440229E+03  0.70254090110E+02 -0.31358664429E+03  0.34003393368E+03  0.50400001928E-02 0. -1.
</event>
<event>
 5   0  0.1818665E-02  0.7969380E+03  0.7818609E-02  0.9564460E-01
        2   -1    0    0  501    0  0.00000000000E+00  0.00000000000E+00  0.11998608495E+04  0.11998608495E+04  0.25500000920E-02 0.  1.
       -2   -1    0    0    0  501  0.00000000000E+00  0.00000000000E+00 -0.13232996329E+03  0.13232996331E+03  0.25500000920E-02 0. -1.
    10030    2    1    2    0    0  0.00000000000E+00  0.00000000000E+00  0.10675308862E+04  0.13321908128E+04  0.79693799552E+03 0.  0.
        3    1    3    3  502    0  0.26702835855E+03  0.11978074330E+03  0.81724580337E+02  0.30385932266E+03  0.10100000352E+00 0. -1.
       -3    1    3    3    0  502 -0.26702835855E+03 -0.11978074330E+03  0.98580630584E+03  0.10283314901E+04  0.10100000352E+00 0.  1.
</event>
<event>
 5   0  0.1818665E-02  0.8008141E+03  0.7818609E-02  0.9558839E-01
        2   -1    0    0  501    0  0.00000000000E+00  0.00000000000E+00  0.13183104916E+04  0.13183104916E+04  0.25500000920E-02 0.  1.
       -2   -1    0    0    0  501  0.00000000000E+00  0.00000000000E+00 -0.12161459893E+03  0.12161459895E+03  0.25500000920E-02 0. -1.
    10030    2    1    2    0    0  0.00000000000E+00  0.00000000000E+00  0.11966958926E+04  0.14399250905E+04  0.80081409007E+03 0.  0.
        3    1    3    3  502    0  0.32904371579E+02  0.36767166892E+03  0.31943943962E+03  0.48816669241E+03  0.10100000352E+00 0.  1.
       -3    1    3    3    0  502 -0.32904371579E+02 -0.36767166892E+03  0.87725645302E+03  0.95175839811E+03  0.10100000352E+00 0. -1.
</event>
<event>
 5   0  0.1146083E-02  0.8023486E+03  0.7818609E-02  0.9556624E-01
       -1   -1    0    0    0  501  0.00000000000E+00  0.00000000000E+00  0.14052181979E+03  0.14052181988E+03  0.50400001928E-02 0.  1.
        1   -1    0    0  501    0  0.00000000000E+00  0.00000000000E+00 -0.11453083967E+04  0.11453083967E+04  0.50400001928E-02 0. -1.
    10030    2    1    2    0    0  0.00000000000E+00  0.00000000000E+00 -0.10047865769E+04  0.12858302165E+04  0.80234860299E+03 0.  0.
        4    1    3    3  502    0  0.19833482986E+03 -0.34851508971E+03 -0.52133733713E+03  0.65771856023E+03  0.12699999809E+01 0.  1.
       -4    1    3    3    0  502 -0.19833482986E+03  0.34851508971E+03 -0.48344923974E+03  0.62811165632E+03  0.12699999809E+01 0. -1.
</event>
<event>
 5   0  0.1747544E-02  0.8165764E+03  0.7818609E-02  0.9536329E-01
       -2   -1    0    0    0  501  0.00000000000E+00  0.00000000000E+00  0.20975582047E+03  0.20975582049E+03  0.25500000920E-02 0. -1.
        2   -1    0    0  501    0  0.00000000000E+00  0.00000000000E+00 -0.79472995899E+03  0.79472995900E+03  0.25500000920E-02 0.  1.
    10030    2    1    2    0    0  0.00000000000E+00  0.00000000000E+00 -0.58497413852E+03  0.10044857795E+04  0.81657635189E+03 0.  0.
        1    1    3    3  502    0 -0.36090974854E+03 -0.18960843690E+03 -0.26520092365E+03  0.48635248109E+03  0.50400001928E-02 0. -1.
       -1    1    3    3    0  502  0.36090974854E+03  0.18960843690E+03 -0.31977321487E+03  0.51813329840E+03  0.50400001928E-02 0.  1.
</event>
<event>
 5   0  0.1038912E-02  0.7974995E+03  0.7818609E-02  0.9563644E-01
        1   -1    0    0  501    0  0.00000000000E+00  0.00000000000E+00  0.21668188986E+03  0.21668188992E+03  0.50400001928E-02 0. -1.
       -1   -1    0    0    0  501  0.00000000000E+00  0.00000000000E+00 -0.73380084530E+03  0.73380084532E+03  0.50400001928E-02 0.  1.
    10030    2    1    2    0    0  0.00000000000E+00  0.00000000000E+00 -0.51711895544E+03  0.95048273524E+03  0.79749947706E+03 0.  0.
        2    1    3    3  502    0  0.57358554044E+02  0.18959029562E+03  0.15390084355E+03  0.25083850097E+03  0.25500000920E-02 0. -1.
       -2    1    3    3    0  502 -0.57358554044E+02 -0.18959029562E+03 -0.67101979899E+03  0.69964423428E+03  0.25500000920E-02 0.  1.
</event>
<event>
 5   0  0.1025900E-02  0.7930144E+03  0.7818609E-02  0.9570184E-01
        1   -1    0    0  501    0  0.00000000000E+00  0.00000000000E+00  0.63863344991E+03  0.63863344993E+03  0.50400001928E-02 0. -1.
       -1   -1    0    0    0  501  0.00000000000E+00  0.00000000000E+00 -0.24617870969E+03  0.24617870974E+03  0.50400001928E-02 0.  1.
    10030    2    1    2    0    0  0.00000000000E+00  0.00000000000E+00  0.39245474022E+03  0.88481215967E+03  0.79301439759E+03 0.  0.
        1    1    3    3  502    0 -0.35621240484E+03 -0.93136300855E+02  0.32031493133E+02  0.36957768396E+03  0.50400001928E-02 0.  1.
       -1    1    3    3    0  502  0.35621240484E+03  0.93136300855E+02  0.36042324709E+03  0.51523447572E+03  0.50400001928E-02 0. -1.
</event>
<event>
 5   0  0.1049780E-02  0.7979633E+03  0.7818609E-02  0.9562970E-01
       -1   -1    0    0    0  501  0.00000000000E+00  0.00000000000E+00  0.39669189115E+03  0.39669189118E+03  0.50400001928E-02 0.  1.
        1   -1    0    0  501    0  0.00000000000E+00  0.00000000000E+00 -0.40128462269E+03  0.40128462272E+03  0.50400001928E-02 0. -1.
    10030    2    1    2    0    0  0.00000000000E+00  0.00000000000E+00 -0.45927315389E+01  0.79797651391E+03  0.79796329713E+03 0.  0.
        5    1    3    3  502    0 -0.24669022294E+03 -0.26898773045E+03 -0.16340086733E+03  0.39991548941E+03  0.46999998093E+01 0. -1.
       -5    1    3    3    0  502  0.24669022294E+03  0.26898773045E+03  0.15880813580E+03  0.39806102449E+03  0.46999998093E+01 0.  1.
</event>
<event>
 5   0  0.1817089E-02  0.8131060E+03  0.7818609E-02  0.9541238E-01
       -2   -1    0    0    0  501  0.00000000000E+00  0.00000000000E+00  0.25678975006E+03  0.25678975007E+03  0.25500000920E-02 0. -1.
        2   -1    0    0  501    0  0.00000000000E+00  0.00000000000E+00 -0.64366020769E+03  0.64366020770E+03  0.25500000920E-02 0.  1.
    10030    2    1    2    0    0  0.00000000000E+00  0.00000000000E+00 -0.38687045764E+03  0.90044995777E+03  0.81310600505E+03 0.  0.
        2    1    3    3  502    0  0.29699410285E+03 -0.51979394703E+02  0.10858402501E+03  0.32046504505E+03  0.25500000920E-02 0. -1.
       -2    1    3    3    0  502 -0.29699410285E+03  0.51979394703E+02 -0.49545448265E+03  0.57998491272E+03  0.25500000920E-02 0.  1.
</event>
<event>
 5   0  0.1747544E-02  0.7983471E+03  0.7818609E-02  0.9562413E-01
       -2   -1    0    0    0  501  0.00000000000E+00  0.00000000000E+00  0.98299126408E+02  0.98299126441E+02  0.25500000920E-02 0. -1.
        2   -1    0    0  501    0  0.00000000000E+00  0.00000000000E+00 -0.16209659558E+04  0.16209659558E+04  0.25500000920E-02 0.  1.
    10030    2    1    2    0    0  0.00000000000E+00  0.00000000000E+00 -0.15226668294E+04  0.17192650822E+04  0.79834713608E+03 0.  0.
        1    1    3    3  502    0  0.28396193655E+03  0.36025676235E+02 -0.13604923626E+04  0.13902775620E+04  0.50400001928E-02 0.  1.
       -1    1    3    3    0  502 -0.28396193655E+03 -0.36025676235E+02 -0.16217446680E+03  0.32898752023E+03  0.50400001928E-02 0. -1.
</event>
<event>
 5   0  0.1673727E-02  0.8034096E+03  0.7818609E-02  0.9555095E-01
        2   -1    0    0  501    0  0.00000000000E+00  0.00000000000E+00  0.12875799154E+04  0.12875799154E+04  0.25500000920E-02 0. -1.
       -2   -1    0    0    0  501  0.00000000000E+00  0.00000000000E+00 -0.12532562093E+03  0.12532562095E+03  0.25500000920E-02 0.  1.
    10030    2    1    2    0    0  0.00000000000E+00  0.00000000000E+00  0.11622542945E+04  0.14129055364E+04  0.80340961511E+03 0.  0.
        5    1    3    3  502    0 -0.11825138406E+03 -0.51105993870E+01  0.12561668131E+04  0.12617395375E+04  0.46999998093E+01 0. -1.
       -5    1    3    3    0  502  0.11825138406E+03  0.51105993870E+01 -0.93912518648E+02  0.15116599888E+03  0.46999998093E+01 0.  1.
</event>
<event>
 5   0  0.6872500E-03  0.6652679E+03  0.7818609E-02  0.9778544E-01
        3   -1    0    0  501    0  0.00000000000E+00  0.00000000000E+00  0.10087912034E+03  0.10087917090E+03  0.10100000352E+00 0. -1.
       -3   -1    0    0    0  501  0.00000000000E+00  0.00000000000E+00 -0.10968108473E+04  0.10968108519E+04  0.10100000352E+00 0.  1.
    10030    2    1    2    0    0  0.00000000000E+00  0.00000000000E+00 -0.99593172692E+03  0.11976900228E+04  0.66526790548E+03 0.  0.
        4    1    3    3  502    0  0.26132576572E+03  0.20445435819E+03 -0.54022503512E+03  0.63398536409E+03  0.12699999809E+01 0. -1.
       -4    1    3    3    0  502 -0.26132576572E+03 -0.20445435819E+03 -0.45570669180E+03  0.56370465872E+03  0.12699999809E+01 0.  1.
</event>
<event>
 5   0  0.6872500E-03  0.7883073E+03  0.7818609E-02  0.9577098E-01
       -4   -1    0    0    0  501  0.00000000000E+00  0.00000000000E+00  0.39171252916E+03  0.39171458794E+03  0.12699999809E+01 0.  1.
        4   -1    0    0  501    0  0.00000000000E+00  0.00000000000E+00 -0.39660582731E+03  0.39660786068E+03  0.12699999809E+01 0. -1.
    10030    2    1    2    0    0  0.00000000000E+00  0.00000000000E+00 -0.48932981476E+01  0.78832244862E+03  0.78830726157E+03 0.  0.
        4    1    3    3  502    0  0.44132244247E+02  0.20227584188E+03  0.33295853131E+03  0.39207928747E+03  0.12699999809E+01 0.  1.
       -4    1    3    3    0  502 -0.44132244247E+02 -0.20227584188E+03 -0.33785182946E+03  0.39624316115E+03  0.12699999809E+01 0. -1.
</event>
<event>
 5   0  0.1731337E-02  0.7963873E+03  0.7818609E-02  0.9565261E-01
        2   -1    0    0  501    0  0.00000000000E+00  0.00000000000E+00  0.10920260579E+04  0.10920260579E+04  0.25500000920E-02 0. -1.
       -2   -1    0    0    0  501  0.00000000000E+00  0.00000000000E+00 -0.14519633950E+03  0.14519633952E+03  0.25500000920E-02 0.  1.
    10030    2    1    2    0    0  0.00000000000E+00  0.00000000000E+00  0.94682971840E+03  0.12372223974E+04  0.79638730843E+03 0.  0.
        4    1    3    3  502    0  0.27270435834E+03 -0.16987276580E+03  0.10797811337E+03  0.33894735503E+03  0.12699999809E+01 0.  1.
       -4    1    3    3    0  502 -0.27270435834E+03  0.16987276580E+03  0.83885160502E+03  0.89827504238E+03  0.12699999809E+01 0. -1.
</event>
<event>
 5   0  0.1747544E-02  0.8052804E+03  0.7818609E-02  0.9552405E-01
        2   -1    0    0  501    0  0.00000000000E+00  0.00000000000E+00  0.11363163957E+04  0.11363163957E+04  0.25500000920E-02 0. -1.
       -2   -1    0    0    0  501  0.00000000000E+00  0.00000000000E+00 -0.14267077169E+03  0.14267077172E+03  0.25500000920E-02 0.  1.
    10030    2    1    2    0    0  0.00000000000E+00  0.00000000000E+00  0.99364562401E+03  0.12789871674E+04  0.80528041595E+03 0.  0.
        1    1    3    3  502    0  0.16459611414E+03  0.12898317918E+03 -0.49661441550E+02  0.21492975620E+03  0.50400001928E-02 0.  1.
       -1    1    3    3    0  502 -0.16459611414E+03 -0.12898317918E+03  0.10433070656E+04  0.10640574112E+04  0.50400001928E-02 0. -1.
</event>
<event>
 5   0  0.1025900E-02  0.7973900E+03  0.7818609E-02  0.9563803E-01
        1   -1    0    0  501    0  0.00000000000E+00  0.00000000000E+00  0.68180269426E+03  0.68180269428E+03  0.50400001928E-02 0. -1.
       -1   -1    0    0    0  501  0.00000000000E+00  0.00000000000E+00 -0.23314328162E+03  0.23314328167E+03  0.50400001928E-02 0.  1.
    10030    2    1    2    0    0  0.00000000000E+00  0.00000000000E+00  0.44865941264E+03  0.91494597595E+03  0.79739003653E+03 0.  0.
        1    1    3    3  502    0  0.22982015385E+03 -0.25092041576E+03 -0.14101306748E+02  0.34055426152E+03  0.50400001928E-02 0.  1.
       -1    1    3    3    0  502 -0.22982015385E+03  0.25092041576E+03  0.46276071939E+03  0.57439171442E+03  0.50400001928E-02 0. -1.
</event>
<event>
 5   0  0.1049780E-02  0.7917791E+03  0.7818609E-02  0.9571993E-01
       -1   -1    0    0    0  501  0.00000000000E+00  0.00000000000E+00  0.54937327527E+03  0.54937327530E+03  0.50400001928E-02 0. -1.
        1   -1    0    0  501    0  0.00000000000E+00  0.00000000000E+00 -0.28528603133E+03  0.28528603138E+03  0.50400001928E-02 0.  1.
    10030    2    1    2    0    0  0.00000000000E+00  0.00000000000E+00  0.26408724394E+03  0.83465930668E+03  0.79177906376E+03 0.  0.
        5    1    3    3  502    0 -0.11580374429E+03 -0.33994503288E+03 -0.43508463217E+02  0.36178475499E+03  0.46999998093E+01 0.  1.
       -5    1    3    3    0  502  0.11580374429E+03  0.33994503288E+03  0.30759570716E+03  0.47287455169E+03  0.46999998093E+01 0. -1.
</event>
<event>
 5   0  0.1673727E-02  0.7996516E+03  0.7818609E-02  0.9560521E-01
        2   -1    0    0  501    0  0.00000000000E+00  0.00000000000E+00  0.84528876981E+03  0.84528876981E+03  0.25500000920E-02 0.  1.
       -2   -1    0    0    0  501  0.00000000000E+00  0.00000000000E+00 -0.18911961826E+03  0.18911961828E+03  0.25500000920E-02 0. -1.
    10030    2    1    2    0    0  0.00000000000E+00  0.00000000000E+00  0.65616915155E+03  0.10344083881E+04  0.79965164785E+03 0.  0.
        5    1    3    3  502    0  0.29698964911E+03 -0.41917617286E+01 -0.18096105230E+02  0.29760709260E+03  0.46999998093E+01 0. -1.
       -5    1    3    3    0  502 -0.29698964911E+03  0.41917617286E+01  0.67426525678E+03  0.73680129549E+03  0.46999998093E+01 0.  1.
</event>
<event>
 5   0  0.1673727E-02  0.8168970E+03  0.7818609E-02  0.9535876E-01
       -2   -1    0    0    0  501  0.00000000000E+00  0.00000000000E+00  0.26997799409E+03  0.26997799410E+03  0.25500000920E-02 0. -1.
        2   -1    0    0  501    0  0.00000000000E+00  0.00000000000E+00 -0.61793990615E+03  0.61793990615E+03  0.25500000920E-02 0.  1.
    10030    2    1    2    0    0  0.00000000000E+00  0.00000000000E+00 -0.34796191206E+03  0.88791790025E+03  0.81689699800E+03 0.  0.
        5    1    3    3  502    0  0.86439819112E+02  0.13507675338E+03 -0.58225749092E+03  0.60395649459E+03  0.46999998093E+01 0.  1.
       -5    1    3    3    0  502 -0.86439819112E+02 -0.13507675338E+03  0.23429557886E+03  0.28396140566E+03  0.46999998093E+01 0. -1.
</event>
<event>
 5   0  0.1673727E-02  0.8042798E+03  0.7818609E-02  0.9553843E-01
       -2   -1    0    0    0  501  0.00000000000E+00  0.00000000000E+00  0.91804602883E+02  0.91804602918E+02  0.25500000920E-02 0. -1.
        2   -1    0    0  501    0  0.00000000000E+00  0.00000000000E+00 -0.17615293470E+04  0.17615293471E+04  0.25500000920E-02 0.  1.
    10030    2    1    2    0    0  0.00000000000E+00  0.00000000000E+00 -0.16697247442E+04  0.18533339500E+04  0.80427980755E+03 0.  0.
        5    1    3    3  502    0  0.19013022277E+03  0.23704056391E+03 -0.14417253854E+04  0.14734082623E+04  0.46999998093E+01 0.  1.
       -5    1    3    3    0  502 -0.19013022277E+03 -0.23704056391E+03 -0.22799935878E+03  0.37992568767E+03  0.46999998093E+01 0. -1.
</event>
<event>
 5   0  0.1731337E-02  0.8014953E+03  0.7818609E-02  0.9557855E-01
       -2   -1    0    0    0  501  0.00000000000E+00  0.00000000000E+00  0.20646993653E+03  0.20646993655E+03  0.25500000920E-02 0.  1.
        2   -1    0    0  501    0  0.00000000000E+00  0.00000000000E+00 -0.77783073300E+03  0.77783073301E+03  0.25500000920E-02 0. -1.
    10030    2    1    2    0    0  0.00000000000E+00  0.00000000000E+00 -0.57136079647E+03  0.98430066955E+03  0.80149525784E+03 0.  0.
        4    1    3    3  502    0 -0.11683174574E+03 -0.52222152768E+02  0.18069961354E+03  0.22142893507E+03  0.12699999809E+01 0.  1.
       -4    1    3    3    0  502  0.11683174574E+03  0.52222152768E+02 -0.75206041002E+03  0.76287173448E+03  0.12699999809E+01 0. -1.
</event>
<event>
 5   0  0.1731337E-02  0.8104004E+03  0.7818609E-02  0.9545084E-01
       -2   -1    0    0    0  501  0.00000000000E+00  0.00000000000E+00  0.10107987090E+03  0.10107987093E+03  0.25500000920E-02 0.  1.
        2   -1    0    0  501    0  0.00000000000E+00  0.00000000000E+00 -0.16243313961E+04  0.16243313961E+04  0.25500000920E-02 0. -1.
    10030    2    1    2    0    0  0.00000000000E+00  0.00000000000E+00 -0.15232515252E+04  0.17254112671E+04  0.81040041423E+03 0.  0.
        4    1    3    3  502    0 -0.66880621214E+02 -0.38670307157E+03 -0.97637130367E+03  0.10522902730E+04  0.12699999809E+01 0. -1.
       -4    1    3    3    0  502  0.66880621214E+02  0.38670307157E+03 -0.54688022156E+03  0.67312099409E+03  0.12699999809E+01 0.  1.
</event>
<event>
 5   0  0.1049780E-02  0.7995020E+03  0.7818609E-02  0.9560738E-01
        1   -1    0    0  501    0  0.00000000000E+00  0.00000000000E+00  0.61449867689E+03  0.61449867691E+03  0.50400001928E-02 0.  1.
       -1   -1    0    0    0  501  0.00000000000E+00  0.00000000000E+00 -0.26005078537E+03  0.26005078542E+03  0.50400001928E-02 0. -1.
    10030    2    1    2    0    0  0.00000000000E+00  0.00000000000E+00  0.35444789152E+03  0.87454946232E+03  0.79950200390E+03 0.  0.
        5    1    3    3  502    0  0.11399236158E+03 -0.38220976703E+03  0.20616928740E+03  0.44900604626E+03  0.46999998093E+01 0. -1.
       -5    1    3    3    0  502 -0.11399236158E+03  0.38220976703E+03  0.14827860412E+03  0.42554341606E+03  0.46999998093E+01 0.  1.
</event>
<event>
 5   0  0.1818665E-02  0.7956719E+03  0.7818609E-02  0.9566303E-01
        2   -1    0    0  501    0  0.00000000000E+00  0.00000000000E+00  0.86668709780E+03  0.86668709780E+03  0.25500000920E-02 0. -1.
       -2   -1    0    0    0  501  0.00000000000E+00  0.00000000000E+00 -0.18261889619E+03  0.18261889621E+03  0.25500000920E-02 0.  1.
    10030    2    1    2    0    0  0.00000000000E+00  0.00000000000E+00  0.68406820161E+03  0.10493059940E+04  0.79567189508E+03 0.  0.
        3    1    3    3  502    0 -0.32836545137E+02  0.20014749583E+03 -0.10931610993E+03  0.23040677263E+03  0.10100000352E+00 0.  1.
       -3    1    3    3    0  502  0.32836545137E+02 -0.20014749583E+03  0.79338431154E+03  0.81889922138E+03  0.10100000352E+00 0. -1.
</event>
<event>
 5   0  0.1731337E-02  0.8062839E+03  0.7818609E-02  0.9550966E-01
        2   -1    0    0  501    0  0.00000000000E+00  0.00000000000E+00  0.70482132452E+03  0.70482132453E+03  0.25500000920E-02 0.  1.
       -2   -1    0    0    0  501  0.00000000000E+00  0.00000000000E+00 -0.23058811903E+03  0.23058811905E+03  0.25500000920E-02 0. -1.
    10030    2    1    2    0    0  0.00000000000E+00  0.00000000000E+00  0.47423320549E+03  0.93540944357E+03  0.80628387925E+03 0.  0.
        4    1    3    3  502    0 -0.22779538508E+03  0.21562203703E+03  0.53093040401E+03  0.61666223098E+03  0.12699999809E+01 0.  1.
       -4    1    3    3    0  502  0.22779538508E+03 -0.21562203703E+03 -0.56697198515E+02  0.31874721259E+03  0.12699999809E+01 0. -1.
</event>
<event>
 5   0  0.1030323E-02  0.8027737E+03  0.7818609E-02  0.9556011E-01
        1   -1    0    0  501    0  0.00000000000E+00  0.00000000000E+00  0.60861315201E+03  0.60861315203E+03  0.50400001928E-02 0. -1.
       -1   -1    0    0    0  501  0.00000000000E+00  0.00000000000E+00 -0.26471886998E+03  0.26471887002E+03  0.50400001928E-02 0.  1.
    10030    2    1    2    0    0  0.00000000000E+00  0.00000000000E+00  0.34389428204E+03  0.87333202206E+03  0.80277365648E+03 0.  0.
        3    1    3    3  502    0  0.21629021420E+03 -0.33490150516E+03  0.12125901237E+03  0.41670641128E+03  0.10100000352E+00 0.  1.
       -3    1    3    3    0  502 -0.21629021420E+03  0.33490150516E+03  0.22263526966E+03  0.45662561078E+03  0.10100000352E+00 0. -1.
</event>
<event>
 5   0  0.1673727E-02  0.7915209E+03  0.7818609E-02  0.9572372E-01
       -2   -1    0    0    0  501  0.00000000000E+00  0.00000000000E+00  0.26693655094E+03  0.26693655095E+03  0.25500000920E-02 0. -1.
        2   -1    0    0  501    0  0.00000000000E+00  0.00000000000E+00 -0.58675494592E+03  0.58675494592E+03  0.25500000920E-02 0.  1.
    10030    2    1    2    0    0  0.00000000000E+00  0.00000000000E+00 -0.31981839498E+03  0.85369149688E+03  0.79152091954E+03 0.  0.
        5    1    3    3  502    0  0.48308928045E+02  0.25919533653E+03  0.15837743993E+03  0.30760604429E+03  0.46999998093E+01 0. -1.
       -5    1    3    3    0  502 -0.48308928045E+02 -0.25919533653E+03 -0.47819583491E+03  0.54608545259E+03  0.46999998093E+01 0.  1.
</event>
<event>
 5   0  0.1817089E-02  0.7891273E+03  0.7818609E-02  0.9575890E-01
        2   -1    0    0  501    0  0.00000000000E+00  0.00000000000E+00  0.41846761397E+03  0.41846761398E+03  0.25500000920E-02 0. -1.
       -2   -1    0    0    0  501  0.00000000000E+00  0.00000000000E+00 -0.37202512640E+03  0.37202512641E+03  0.25500000920E-02 0.  1.
    10030    2    1    2    0    0  0.00000000000E+00  0.00000000000E+00  0.46442487566E+02  0.79049274039E+03  0.78912728248E+03 0.  0.
        2    1    3    3  502    0  0.24724548364E+03 -0.71298337501E+02 -0.27640613843E+03  0.37764286764E+03  0.25500000920E-02 0.  1.
       -2    1    3    3    0  502 -0.24724548364E+03  0.71298337501E+02  0.32284862600E+03  0.41284987275E+03  0.25500000920E-02 0. -1.
</event>
<event>
 5   0  0.1025900E-02  0.7996100E+03  0.7818609E-02  0.9560582E-01
        1   -1    0    0  501    0  0.00000000000E+00  0.00000000000E+00  0.11261746347E+03  0.11261746358E+03  0.50400001928E-02 0.  1.
       -1   -1    0    0    0  501  0.00000000000E+00  0.00000000000E+00 -0.14193537737E+04  0.14193537737E+04  0.50400001928E-02 0. -1.
    10030    2    1    2    0    0  0.00000000000E+00  0.00000000000E+00 -0.13067363102E+04  0.15319712373E+04  0.79960995954E+03 0.  0.
        1    1    3    3  502    0  0.32645131045E+03 -0.61079207934E+02 -0.10798132300E+04  0.11297334816E+04  0.50400001928E-02 0. -1.
       -1    1    3    3    0  502 -0.32645131045E+03  0.61079207934E+02 -0.22692308024E+03  0.40223775570E+03  0.50400001928E-02 0.  1.
</event>
<event>
 5   0  0.1673727E-02  0.8115971E+03  0.7818609E-02  0.9543381E-01
        2   -1    0    0  501    0  0.00000000000E+00  0.00000000000E+00  0.37517799484E+03  0.37517799485E+03  0.25500000920E-02 0.  1.
       -2   -1    0    0    0  501  0.00000000000E+00  0.00000000000E+00 -0.43891827996E+03  0.43891827997E+03  0.25500000920E-02 0. -1.
    10030    2    1    2    0    0  0.00000000000E+00  0.00000000000E+00 -0.63740285122E+02  0.81409627482E+03  0.81159714189E+03 0.  0.
        5    1    3    3  502    0 -0.26663301526E+03  0.15429901076E+03 -0.29678381776E+03  0.42778975448E+03  0.46999998093E+01 0. -1.
       -5    1    3    3    0  502  0.26663301526E+03 -0.15429901076E+03  0.23304353264E+03  0.38630652034E+03  0.46999998093E+01 0.  1.
</event>
<event>
 5   0  0.6872500E-03  0.8018168E+03  0.7818609E-02  0.9557391E-01
        4   -1    0    0  501    0  0.00000000000E+00  0.00000000000E+00  0.38273728657E+03  0.38273939362E+03  0.12699999809E+01 0.  1.
       -4   -1    0    0    0  501  0.00000000000E+00  0.00000000000E+00 -0.41993800995E+03  0.41993993035E+03  0.12699999809E+01 0. -1.
    10030    2    1    2    0    0  0.00000000000E+00  0.00000000000E+00 -0.37200723380E+02  0.80267932397E+03  0.80181681406E+03 0.  0.
        2    1    3    3  502    0  0.36118243363E+03 -0.16600932716E+03 -0.70768833351E+02  0.40375744556E+03  0.25500000920E-02 0. -1.
       -2    1    3    3    0  502 -0.36118243363E+03  0.16600932716E+03  0.33568109971E+02  0.39892187841E+03  0.25500000920E-02 0.  1.
</event>
<event>
 5   0  0.1818665E-02  0.8069963E+03  0.7818609E-02  0.9549945E-01
        2   -1    0    0  501    0  0.00000000000E+00  0.00000000000E+00  0.82204446692E+03  0.82204446692E+03  0.25500000920E-02 0.  1.
       -2   -1    0    0    0  501  0.00000000000E+00  0.00000000000E+00 -0.19805590480E+03  0.19805590482E+03  0.25500000920E-02 0. -1.
    10030    2    1    2    0    0  0.00000000000E+00  0.00000000000E+00  0.62398856212E+03  0.10201003717E+04  0.80699630902E+03 0.  0.
        3    1    3    3  502    0  0.27367604755E+03 -0.26636661468E+03  0.14736879893E+03  0.40934988154E+03  0.10100000352E+00 0. -1.
       -3    1    3    3    0  502 -0.27367604755E+03  0.26636661468E+03  0.47661976319E+03  0.61075049020E+03  0.10100000352E+00 0.  1.
</event>
<event>
 5   0  0.6872500E-03  0.8170456E+03  0.7818609E-02  0.9535667E-01
        4   -1    0    0  501    0  0.00000000000E+00  0.00000000000E+00  0.71206468828E+03  0.71206582083E+03  0.12699999809E+01 0. -1.
       -4   -1    0    0    0  501  0.00000000000E+00  0.00000000000E+00 -0.23437295875E+03  0.23437639961E+03  0.12699999809E+01 0.  1.
    10030    2    1    2    0    0  0.00000000000E+00  0.00000000000E+00  0.47769172953E+03  0.94644222043E+03  0.81704558511E+03 0.  0.
        5    1    3    3  502    0 -0.32917104099E+03  0.22841538494E+03  0.14659978550E+03  0.42666233653E+03  0.46999998093E+01 0. -1.
       -5    1    3    3    0  502  0.32917104099E+03 -0.22841538494E+03  0.33109194403E+03  0.51977988390E+03  0.46999998093E+01 0.  1.
</event>
<event>
 5   0  0.1049780E-02  0.7973477E+03  0.7818609E-02  0.9563864E-01
        1   -1    0    0  501    0  0.00000000000E+00  0.00000000000E+00  0.15269397761E+04  0.15269397761E+04  0.50400001928E-02 0.  1.
       -1   -1    0    0    0  501  0.00000000000E+00  0.00000000000E+00 -0.10409110210E+03  0.10409110222E+03  0.50400001928E-02 0. -1.
    10030    2    1    2    0    0  0.00000000000E+00  0.00000000000E+00  0.14228486740E+04  0.16310308783E+04  0.79734771394E+03 0.  0.
        5    1    3    3  502    0 -0.18172517678E+03 -0.25284544491E+03  0.20222974142E+03  0.37131363724E+03  0.46999998093E+01 0. -1.
       -5    1    3    3    0  502  0.18172517678E+03  0.25284544491E+03  0.12206189325E+04  0.12597172410E+04  0.46999998093E+01 0.  1.
</event>
<event>
 5   0  0.1817089E-02  0.8057051E+03  0.7818609E-02  0.9551796E-01
       -2   -1    0    0    0  501  0.00000000000E+00  0.00000000000E+00  0.10172082685E+04  0.10172082685E+04  0.25500000920E-02 0.  1.
        2   -1    0    0  501    0  0.00000000000E+00  0.00000000000E+00 -0.15954469845E+03  0.15954469847E+03  0.25500000920E-02 0. -1.
    10030    2    1    2    0    0  0.00000000000E+00  0.00000000000E+00  0.85766357004E+03  0.11767529670E+04  0.80570512339E+03 0.  0.
        2    1    3    3  502    0 -0.32179139397E+03 -0.24229728588E+03  0.42050416579E+03  0.58230698900E+03  0.25500000920E-02 0.  1.
       -2    1    3    3    0  502  0.32179139397E+03  0.24229728588E+03  0.43715940425E+03  0.59444597796E+03  0.25500000920E-02 0. -1.
</event>
<event>
 5   0  0.1747544E-02  0.8029937E+03  0.7818609E-02  0.9555694E-01
        2   -1    0    0  501    0  0.00000000000E+00  0.00000000000E+00  0.25021800244E+03  0.25021800246E+03  0.25500000920E-02 0.  1.
       -2   -1    0    0    0  501  0.00000000000E+00  0.00000000000E+00 -0.64423712290E+03  0.64423712290E+03  0.25500000920E-02 0. -1.
    10030    2    1    2    0    0  0.00000000000E+00  0.00000000000E+00 -0.39401912045E+03  0.89445512536E+03  0.80299371355E+03 0.  0.
        1    1    3    3  502    0 -0.34933724390E+03  0.21682739375E+02  0.22100860709E+02  0.35070657142E+03  0.50400001928E-02 0.  1.
       -1    1    3    3    0  502  0.34933724390E+03 -0.21682739375E+02 -0.41611998116E+03  0.54374855394E+03  0.50400001928E-02 0. -1.
</event>
<event>
 5   0  0.1038912E-02  0.8005450E+03  0.7818609E-02  0.9559229E-01
        1   -1    0    0  501    0  0.00000000000E+00  0.00000000000E+00  0.23261217974E+03  0.23261217979E+03  0.50400001928E-02 0.  1.
       -1   -1    0    0    0  501  0.00000000000E+00  0.00000000000E+00 -0.68877766993E+03  0.68877766995E+03  0.50400001928E-02 0. -1.
    10030    2    1    2    0    0  0.00000000000E+00  0.00000000000E+00 -0.45616549020E+03  0.92138984974E+03  0.80054500234E+03 0.  0.
        2    1    3    3  502    0  0.35254612867E+02  0.36555991485E+03 -0.44863658462E+02  0.36998606315E+03  0.25500000920E-02 0.  1.
       -2    1    3    3    0  502 -0.35254612867E+02 -0.36555991485E+03 -0.41130183173E+03  0.55140378659E+03  0.25500000920E-02 0. -1.
</event>
<event>
 5   0  0.1030323E-02  0.8025140E+03  0.7818609E-02  0.9556385E-01
       -1   -1    0    0    0  501  0.00000000000E+00  0.00000000000E+00  0.32802969301E+03  0.32802969305E+03  0.50400001928E-02 0.  1.
        1   -1    0    0  501    0  0.00000000000E+00  0.00000000000E+00 -0.49083107540E+03  0.49083107543E+03  0.50400001928E-02 0. -1.
    10030    2    1    2    0    0  0.00000000000E+00  0.00000000000E+00 -0.16280138239E+03  0.81886076848E+03  0.80251396751E+03 0.  0.
        3    1    3    3  502    0 -0.14278751769E+02  0.49473619422E+02  0.32464436381E+03  0.32870274554E+03  0.10100000352E+00 0.  1.
       -3    1    3    3    0  502  0.14278751769E+02 -0.49473619422E+02 -0.48744574620E+03  0.49015802295E+03  0.10100000352E+00 0. -1.
</event>
<event>
 5   0  0.1817089E-02  0.8107331E+03  0.7818609E-02  0.9544610E-01
       -2   -1    0    0    0  501  0.00000000000E+00  0.00000000000E+00  0.20003234176E+03  0.20003234178E+03  0.25500000920E-02 0. -1.
        2   -1    0    0  501    0  0.00000000000E+00  0.00000000000E+00 -0.82147738083E+03  0.82147738083E+03  0.25500000920E-02 0.  1.
    10030    2    1    2    0    0  0.00000000000E+00  0.00000000000E+00 -0.62144503907E+03  0.10215097226E+04  0.81073311071E+03 0.  0.
        2    1    3    3  502    0  0.26627677294E+03  0.30517679639E+03 -0.28941996605E+03  0.49779525271E+03  0.25500000920E-02 0. -1.
       -2    1    3    3    0  502 -0.26627677294E+03 -0.30517679639E+03 -0.33202507302E+03  0.52371446990E+03  0.25500000920E-02 0.  1.
</event>
<event>
 5   0  0.1025900E-02  0.8095544E+03  0.7818609E-02  0.9546290E-01
        1   -1    0    0  501    0  0.00000000000E+00  0.00000000000E+00  0.66588694146E+03  0.66588694147E+03  0.50400001928E-02 0. -1.
       -1   -1    0    0    0  501  0.00000000000E+00  0.00000000000E+00 -0.24605464328E+03  0.24605464333E+03  0.50400001928E-02 0.  1.
    10030    2    1    2    0    0  0.00000000000E+00  0.00000000000E+00  0.41983229817E+03  0.91194158481E+03  0.80955438082E+03 0.  0.
        1    1    3    3  502    0 -0.37448861799E+03 -0.34358110861E+02  0.41236868084E+02  0.37831558797E+03  0.50400001928E-02 0. -1.
       -1    1    3    3    0  502  0.37448861799E+03  0.34358110861E+02  0.37859543009E+03  0.53362599684E+03  0.50400001928E-02 0.  1.
</event>
<event>
 5   0  0.1025900E-02  0.7849064E+03  0.7818609E-02  0.9582125E-01
       -1   -1    0    0    0  501  0.00000000000E+00  0.00000000000E+00  0.32150994014E+03  0.32150994018E+03  0.50400001928E-02 0. -1.
        1   -1    0    0  501    0  0.00000000000E+00  0.00000000000E+00 -0.47905056959E+03  0.47905056961E+03  0.50400001928E-02 0.  1.
    10030    2    1    2    0    0  0.00000000000E+00  0.00000000000E+00 -0.15754062945E+03  0.80056050979E+03  0.78490641475E+03 0.  0.
        1    1    3    3  502    0 -0.99188675283E+02  0.10364715315E+03 -0.45134786989E+03  0.47359901324E+03  0.50400001928E-02 0.  1.
       -1    1    3    3    0  502  0.99188675283E+02 -0.10364715315E+03  0.29380724045E+03  0.32696149655E+03  0.50400001928E-02 0. -1.
</event>
<event>
 5   0  0.1038912E-02  0.7904799E+03  0.7818609E-02  0.9573900E-01
       -1   -1    0    0    0  501  0.00000000000E+00  0.00000000000E+00  0.19384174363E+03  0.19384174369E+03  0.50400001928E-02 0.  1.
        1   -1    0    0  501    0  0.00000000000E+00  0.00000000000E+00 -0.80588729482E+03  0.80588729483E+03  0.50400001928E-02 0. -1.
    10030    2    1    2    0    0  0.00000000000E+00  0.00000000000E+00 -0.61204555119E+03  0.99972903852E+03  0.79047985030E+03 0.  0.
        2    1    3    3  502    0 -0.13231397267E+03 -0.35521039502E+03 -0.44760940762E+03  0.58654547470E+03  0.25500000920E-02 0.  1.
       -2    1    3    3    0  502  0.13231397267E+03  0.35521039502E+03 -0.16443614357E+03  0.41318356382E+03  0.25500000920E-02 0. -1.
</event>
<event>
 5   0  0.1731337E-02  0.7870444E+03  0.7818609E-02  0.9578962E-01
        2   -1    0    0  501    0  0.00000000000E+00  0.00000000000E+00  0.10268932199E+04  0.10268932199E+04  0.25500000920E-02 0.  1.
       -2   -1    0    0    0  501  0.00000000000E+00  0.00000000000E+00 -0.15080409699E+03  0.15080409702E+03  0.25500000920E-02 0. -1.
    10030    2    1    2    0    0  0.00000000000E+00  0.00000000000E+00  0.87608912289E+03  0.11776973169E+04  0.78704435643E+03 0.  0.
        4    1    3    3  502    0  0.21664776597E+03 -0.15373926479E+03  0.87246714464E+03  0.91201565087E+03  0.12699999809E+01 0.  1.
       -4    1    3    3    0  502 -0.21664776597E+03  0.15373926479E+03  0.36219782403E+01  0.26568166603E+03  0.12699999809E+01 0. -1.
</event>
<event>
 5   0  0.6872500E-03  0.8553440E+03  0.7818609E-02  0.9483192E-01
        4   -1    0    0  501    0  0.00000000000E+00  0.00000000000E+00  0.41618391075E+03  0.41618584847E+03  0.12699999809E+01 0.  1.
       -4   -1    0    0    0  501  0.00000000000E+00  0.00000000000E+00 -0.43947336208E+03  0.43947519711E+03  0.12699999809E+01 0. -1.
    10030    2    1    2    0    0  0.00000000000E+00  0.00000000000E+00 -0.23289451329E+02  0.85566104558E+03  0.85534403977E+03 0.  0.
        2    1    3    3  502    0  0.33552851984E+03  0.13513086901E+03 -0.23990382355E+03  0.43404329732E+03  0.25500000920E-02 0. -1.
       -2    1    3    3    0  502 -0.33552851984E+03 -0.13513086901E+03  0.21661437222E+03  0.42161774826E+03  0.25500000920E-02 0.  1.
</event>
<event>
 5   0  0.1731337E-02  0.7829218E+03  0.7818609E-02  0.9585071E-01
        2   -1    0    0  501    0  0.00000000000E+00  0.00000000000E+00  0.12487618172E+04  0.12487618172E+04  0.25500000920E-02 0.  1.
       -2   -1    0    0    0  501  0.00000000000E+00  0.00000000000E+00 -0.12271485206E+03  0.12271485209E+03  0.25500000920E-02 0. -1.
    10030    2    1    2    0    0  0.00000000000E+00  0.00000000000E+00  0.11260469652E+04  0.13714766693E+04  0.78292176283E+03 0.  0.
        4    1    3    3  502    0  0.23067058825E+03  0.37128691179E+02  0.11132280786E+04  0.11374822319E+04  0.12699999809E+01 0.  1.
       -4    1    3    3    0  502 -0.23067058825E+03 -0.37128691179E+02  0.12818886565E+02  0.23399443742E+03  0.12699999809E+01 0. -1.
</event>
<event>
 5   0  0.1747544E-02  0.8015423E+03  0.7818609E-02  0.9557787E-01
        2   -1    0    0  501    0  0.00000000000E+00  0.00000000000E+00  0.29307035537E+03  0.29307035538E+03  0.25500000920E-02 0. -1.
       -2   -1    0    0    0  501  0.00000000000E+00  0.00000000000E+00 -0.54805098084E+03  0.54805098085E+03  0.25500000920E-02 0.  1.
    10030    2    1    2    0    0  0.00000000000E+00  0.00000000000E+00 -0.25498062547E+03  0.84112133623E+03  0.80154225272E+03 0.  0.
        1    1    3    3  502    0 -0.31898246895E+03 -0.48764505036E+02  0.12192141766E+03  0.34495307588E+03  0.50400001928E-02 0. -1.
       -1    1    3    3    0  502  0.31898246895E+03  0.48764505036E+02 -0.37690204312E+03  0.49616826036E+03  0.50400001928E-02 0.  1.
</event>
<event>
 5   0  0.6872500E-03  0.7983856E+03  0.7818609E-02  0.9562357E-01
       -4   -1    0    0    0  501  0.00000000000E+00  0.00000000000E+00  0.47772979494E+03  0.47773148303E+03  0.12699999809E+01 0. -1.
        4   -1    0    0  501    0  0.00000000000E+00  0.00000000000E+00 -0.33356353418E+03  0.33356595186E+03  0.12699999809E+01 0.  1.
    10030    2    1    2    0    0  0.00000000000E+00  0.00000000000E+00  0.14416626076E+03  0.81129743488E+03  0.79838563183E+03 0.  0.
        2    1    3    3  502    0 -0.22489006345E+02  0.35069113311E+03 -0.12035984784E+03  0.37145190702E+03  0.25500000920E-02 0.  1.
       -2    1    3    3    0  502  0.22489006345E+02 -0.35069113311E+03  0.26452610860E+03  0.43984552787E+03  0.25500000920E-02 0. -1.
</event>
<event>
 5   0  0.1818665E-02  0.8001175E+03  0.7818609E-02  0.9559847E-01
        2   -1    0    0  501    0  0.00000000000E+00  0.00000000000E+00  0.18219267052E+04  0.18219267052E+04  0.25500000920E-02 0. -1.
       -2   -1    0    0    0  501  0.00000000000E+00  0.00000000000E+00 -0.87844911250E+02  0.87844911287E+02  0.25500000920E-02 0.  1.
    10030    2    1    2    0    0  0.00000000000E+00  0.00000000000E+00  0.17340817939E+04  0.19097716165E+04  0.80011746577E+03 0.  0.
        3    1    3    3  502    0  0.11547181581E+03  0.37957230279E+03  0.98963619867E+03  0.10662029306E+04  0.10100000352E+00 0. -1.
       -3    1    3    3    0  502 -0.11547181581E+03 -0.37957230279E+03  0.74444559528E+03  0.84356868589E+03  0.10100000352E+00 0.  1.
</event>
<event>
 5   0  0.1731337E-02  0.8354001E+03  0.7818609E-02  0.9510145E-01
       -2   -1    0    0    0  501  0.00000000000E+00  0.00000000000E+00  0.99201942572E+02  0.99201942605E+02  0.25500000920E-02 0. -1.
        2   -1    0    0  501    0  0.00000000000E+00  0.00000000000E+00 -0.17587693871E+04  0.17587693871E+04  0.25500000920E-02 0.  1.
    10030    2    1    2    0    0  0.00000000000E+00  0.00000000000E+00 -0.16595674445E+04  0.18579713297E+04  0.83540011914E+03 0.  0.
        4    1    3    3  502    0  0.37665045478E+03 -0.13880052920E+03 -0.57290286159E+03  0.69953588451E+03  0.12699999809E+01 0.  1.
       -4    1    3    3    0  502 -0.37665045478E+03  0.13880052920E+03 -0.10866645829E+04  0.11584354452E+04  0.12699999809E+01 0. -1.
</event>
<event>
 5   0  0.1030323E-02  0.8024553E+03  0.7818609E-02  0.9556470E-01
       -1   -1    0    0    0  501  0.00000000000E+00  0.00000000000E+00  0.35990510259E+03  0.35990510263E+03  0.50400001928E-02 0.  1.
        1   -1    0    0  501    0  0.00000000000E+00  0.00000000000E+00 -0.44729463230E+03  0.44729463233E+03  0.50400001928E-02 0. -1.
    10030    2    1    2    0    0  0.00000000000E+00  0.00000000000E+00 -0.87389529707E+02  0.80719973496E+03  0.80245528362E+03 0.  0.
        3    1    3    3  502    0  0.26224772429E+03 -0.26422308331E+03 -0.19423218377E+03  0.41989743755E+03  0.10100000352E+00 0. -1.
       -3    1    3    3    0  502 -0.26224772429E+03  0.26422308331E+03  0.10684265406E+03  0.38730229741E+03  0.10100000352E+00 0.  1.
</event>
<event>
 5   0  0.1038912E-02  0.7885641E+03  0.7818609E-02  0.9576719E-01
        1   -1    0    0  501    0  0.00000000000E+00  0.00000000000E+00  0.41441471413E+03  0.41441471416E+03  0.50400001928E-02 0.  1.
       -1   -1    0    0    0  501  0.00000000000E+00  0.00000000000E+00 -0.37512742454E+03  0.37512742457E+03  0.50400001928E-02 0. -1.
    10030    2    1    2    0    0  0.00000000000E+00  0.00000000000E+00  0.39287289592E+02  0.78954213873E+03  0.78856407331E+03 0.  0.
        2    1    3    3  502    0  0.28425680056E+03  0.10404839770E+03  0.27260364938E+03  0.40735825435E+03  0.25500000920E-02 0.  1.
       -2    1    3    3    0  502 -0.28425680056E+03 -0.10404839770E+03 -0.23331635979E+03  0.38218388438E+03  0.25500000920E-02 0. -1.
</event>
<event>
 5   0  0.1030323E-02  0.8394663E+03  0.7818609E-02  0.9504585E-01
        1   -1    0    0  501    0  0.00000000000E+00  0.00000000000E+00  0.17026232526E+04  0.17026232526E+04  0.50400001928E-02 0. -1.
       -1   -1    0    0    0  501  0.00000000000E+00  0.00000000000E+00 -0.10347323255E+03  0.10347323267E+03  0.50400001928E-02 0.  1.
    10030    2    1    2    0    0  0.00000000000E+00  0.00000000000E+00  0.15991500201E+04  0.18060964853E+04  0.83946633496E+03 0.  0.
        3    1    3    3  502    0  0.33649351516E+03  0.24069305070E+03  0.95193411901E+03  0.10379497134E+04  0.10100000352E+00 0. -1.
       -3    1    3    3    0  502 -0.33649351516E+03 -0.24069305070E+03  0.64721590108E+03  0.76814677192E+03  0.10100000352E+00 0.  1.
</event>
<event>
 5   0  0.1731337E-02  0.8045736E+03  0.7818609E-02  0.9553421E-01
        2   -1    0    0  501    0  0.00000000000E+00  0.00000000000E+00  0.14238381549E+03  0.14238381551E+03  0.25500000920E-02 0.  1.
       -2   -1    0    0    0  501  0.00000000000E+00  0.00000000000E+00 -0.11366086001E+04  0.11366086001E+04  0.25500000920E-02 0. -1.
    10030    2    1    2    0    0  0.00000000000E+00  0.00000000000E+00 -0.99422478457E+03  0.12789924156E+04  0.80457359938E+03 0.  0.
        4    1    3    3  502    0  0.79794821767E+02  0.32338527227E+03 -0.13851339989E+03  0.36073927254E+03  0.12699999809E+01 0.  1.
       -4    1    3    3    0  502 -0.79794821767E+02 -0.32338527227E+03 -0.85571138468E+03  0.91825314303E+03  0.12699999809E+01 0. -1.
</event>
<event>
 5   0  0.1025900E-02  0.7994806E+03  0.7818609E-02  0.9560769E-01
       -1   -1    0    0    0  501  0.00000000000E+00  0.00000000000E+00  0.14214631350E+03  0.14214631359E+03  0.50400001928E-02 0. -1.
        1   -1    0    0  501    0  0.00000000000E+00  0.00000000000E+00 -0.11241396471E+04  0.11241396471E+04  0.50400001928E-02 0.  1.
    10030    2    1    2    0    0  0.00000000000E+00  0.00000000000E+00 -0.98199333363E+03  0.12662859607E+04  0.79948059829E+03 0.  0.
        1    1    3    3  502    0  0.29451569611E+03 -0.25444537144E+03 -0.63538559674E+03  0.74511529234E+03  0.50400001928E-02 0.  1.
       -1    1    3    3    0  502 -0.29451569611E+03  0.25444537144E+03 -0.34660773689E+03  0.52117066839E+03  0.50400001928E-02 0. -1.
</event>
<event>
 5   0  0.1049780E-02  0.8147532E+03  0.7818609E-02  0.9538905E-01
        1   -1    0    0  501    0  0.00000000000E+00  0.00000000000E+00  0.10771327335E+04  0.10771327335E+04  0.50400001928E-02 0. -1.
       -1   -1    0    0    0  501  0.00000000000E+00  0.00000000000E+00 -0.15407170922E+03  0.15407170931E+03  0.50400001928E-02 0.  1.
    10030    2    1    2    0    0  0.00000000000E+00  0.00000000000E+00  0.92306102431E+03  0.12312044429E+04  0.81475316845E+03 0.  0.
        5    1    3    3  502    0  0.35758466343E+03 -0.13386217042E+03  0.24703556769E+03  0.45479064842E+03  0.46999998093E+01 0.  1.
       -5    1    3    3    0  502 -0.35758466343E+03  0.13386217042E+03  0.67602545662E+03  0.77641379443E+03  0.46999998093E+01 0. -1.
</event>
<event>
 5   0  0.1025900E-02  0.8015213E+03  0.7818609E-02  0.9557818E-01
       -1   -1    0    0    0  501  0.00000000000E+00  0.00000000000E+00  0.18659131295E+03  0.18659131302E+03  0.50400001928E-02 0.  1.
        1   -1    0    0  501    0  0.00000000000E+00  0.00000000000E+00 -0.86075337986E+03  0.86075337987E+03  0.50400001928E-02 0. -1.
    10030    2    1    2    0    0  0.00000000000E+00  0.00000000000E+00 -0.67416206691E+03  0.10473446929E+04  0.80152131180E+03 0.  0.
        1    1    3    3  502    0 -0.37816638870E+03  0.30339861824E+02 -0.50583604654E+03  0.63229773902E+03  0.50400001928E-02 0. -1.
       -1    1    3    3    0  502  0.37816638870E+03 -0.30339861824E+02 -0.16832602037E+03  0.41504695387E+03  0.50400001928E-02 0.  1.
</event>
<event>
 5   0  0.1038912E-02  0.7599843E+03  0.7818609E-02  0.9619816E-01
       -1   -1    0    0    0  501  0.00000000000E+00  0.00000000000E+00  0.10272785045E+03  0.10272785058E+03  0.50400001928E-02 0.  1.
        1   -1    0    0  501    0  0.00000000000E+00  0.00000000000E+00 -0.14055976148E+04  0.14055976148E+04  0.50400001928E-02 0. -1.
    10030    2    1    2    0    0  0.00000000000E+00  0.00000000000E+00 -0.13028697643E+04  0.15083254654E+04  0.75998426739E+03 0.  0.
        2    1    3    3  502    0 -0.61220196321E+02  0.18538314676E+03 -0.44195145626E+01  0.19528019781E+03  0.25500000920E-02 0.  1.
       -2    1    3    3    0  502  0.61220196321E+02 -0.18538314676E+03 -0.12984502498E+04  0.13130452676E+04  0.25500000920E-02 0. -1.
</event>
<event>
 5   0  0.1673727E-02  0.7930487E+03  0.7818609E-02  0.9570134E-01
       -2   -1    0    0    0  501  0.00000000000E+00  0.00000000000E+00  0.30615255269E+03  0.30615255271E+03  0.25500000920E-02 0.  1.
        2   -1    0    0  501    0  0.00000000000E+00  0.00000000000E+00 -0.51357258986E+03  0.51357258986E+03  0.25500000920E-02 0. -1.
    10030    2    1    2    0    0  0.00000000000E+00  0.00000000000E+00 -0.20742003716E+03  0.81972514257E+03  0.79304869809E+03 0.  0.
        5    1    3    3  502    0 -0.19917829535E+03  0.29155831240E+03  0.82721191424E+02  0.36268874862E+03  0.46999998093E+01 0.  1.
       -5    1    3    3    0  502  0.19917829535E+03 -0.29155831240E+03 -0.29014122859E+03  0.45703639395E+03  0.46999998093E+01 0. -1.
</event>
<event>
 5   0  0.1731337E-02  0.7802940E+03  0.7818609E-02  0.9588987E-01
       -2   -1    0    0    0  501  0.00000000000E+00  0.00000000000E+00  0.13534357056E+03  0.13534357058E+03  0.25500000920E-02 0. -1.
        2   -1    0    0  501    0  0.00000000000E+00  0.00000000000E+00 -0.11246538656E+04  0.11246538656E+04  0.25500000920E-02 0.  1.
    10030    2    1    2    0    0  0.00000000000E+00  0.00000000000E+00 -0.98931029503E+03  0.12599974362E+04  0.78029396980E+03 0.  0.
        4    1    3    3  502    0 -0.14398856973E+03 -0.69988992560E+02  0.79854330739E+02  0.17891197369E+03  0.12699999809E+01 0. -1.
       -4    1    3    3    0  502  0.14398856973E+03  0.69988992560E+02 -0.10691646258E+04  0.10810854625E+04  0.12699999809E+01 0.  1.
</event>
<event>
 5   0  0.1030323E-02  0.7897856E+03  0.7818609E-02  0.9574921E-01
        1   -1    0    0  501    0  0.00000000000E+00  0.00000000000E+00  0.17378474118E+04  0.17378474118E+04  0.50400001928E-02 0. -1.
       -1   -1    0    0    0  501  0.00000000000E+00  0.00000000000E+00 -0.89731882787E+02  0.89731882929E+02  0.50400001928E-02 0.  1.
    10030    2    1    2    0    0  0.00000000000E+00  0.00000000000E+00  0.16481155290E+04  0.18275792947E+04  0.78978559215E+03 0.  0.
        3    1    3    3  502    0  0.11384256786E+03  0.24588891586E+03  0.14887850861E+04  0.15132423904E+04  0.10100000352E+00 0. -1.
       -3    1    3    3    0  502 -0.11384256786E+03 -0.24588891586E+03  0.15933044288E+03  0.31433690434E+03  0.10100000352E+00 0.  1.
</event>
<event>
 5   0  0.1038912E-02  0.7966469E+03  0.7818609E-02  0.9564883E-01
       -1   -1    0    0    0  501  0.00000000000E+00  0.00000000000E+00  0.57326472633E+03  0.57326472635E+03  0.50400001928E-02 0.  1.
        1   -1    0    0  501    0  0.00000000000E+00  0.00000000000E+00 -0.27676838596E+03  0.27676838601E+03  0.50400001928E-02 0. -1.
    10030    2    1    2    0    0  0.00000000000E+00  0.00000000000E+00  0.29649634036E+03  0.85003311236E+03  0.79664685542E+03 0.  0.
        2    1    3    3  502    0 -0.24185058327E+03 -0.28383503835E+02 -0.18809686586E+03  0.30769751197E+03  0.25500000920E-02 0. -1.
       -2    1    3    3    0  502  0.24185058327E+03  0.28383503835E+02  0.48459320623E+03  0.54233560039E+03  0.25500000920E-02 0.  1.
</event>
<event>
 5   0  0.1731337E-02  0.7992771E+03  0.7818609E-02  0.9561064E-01
       -2   -1    0    0    0  501  0.00000000000E+00  0.00000000000E+00  0.18072415201E+03  0.18072415203E+03  0.25500000920E-02 0.  1.
        2   -1    0    0  501    0  0.00000000000E+00  0.00000000000E+00 -0.88372792896E+03  0.88372792896E+03  0.25500000920E-02 0. -1.
    10030    2    1    2    0    0  0.00000000000E+00  0.00000000000E+00 -0.70300377695E+03  0.10644520810E+04  0.79927712486E+03 0.  0.
        4    1    3    3  502    0  0.28322039245E+03 -0.81126034472E+02  0.81104804633E+01  0.29472464601E+03  0.12699999809E+01 0.  1.
       -4    1    3    3    0  502 -0.28322039245E+03  0.81126034472E+02 -0.71111425741E+03  0.76972743498E+03  0.12699999809E+01 0. -1.
</event>
<event>
 5   0  0.1025900E-02  0.8007581E+03  0.7818609E-02  0.9558920E-01
       -1   -1    0    0    0  501  0.00000000000E+00  0.00000000000E+00  0.59514848261E+03  0.59514848263E+03  0.50400001928E-02 0. -1.
        1   -1    0    0  501    0  0.00000000000E+00  0.00000000000E+00 -0.26935022298E+03  0.26935022302E+03  0.50400001928E-02 0.  1.
    10030    2    1    2    0    0  0.00000000000E+00  0.00000000000E+00  0.32579825963E+03  0.86449870565E+03  0.80075808213E+03 0.  0.
        1    1    3    3  502    0  0.22691518261E+03 -0.14081101233E+03 -0.15914971743E+03  0.31088080333E+03  0.50400001928E-02 0.  1.
       -1    1    3    3    0  502 -0.22691518261E+03  0.14081101233E+03  0.48494797706E+03  0.55361790233E+03  0.50400001928E-02 0. -1.
</event>
<event>
 5   0  0.1747544E-02  0.8018207E+03  0.7818609E-02  0.9557386E-01
        2   -1    0    0  501    0  0.00000000000E+00  0.00000000000E+00  0.29629950483E+03  0.29629950484E+03  0.25500000920E-02 0.  1.
       -2   -1    0    0    0  501  0.00000000000E+00  0.00000000000E+00 -0.54245481633E+03  0.54245481634E+03  0.25500000920E-02 0. -1.
    10030    2    1    2    0    0  0.00000000000E+00  0.00000000000E+00 -0.24615531150E+03  0.83875432118E+03  0.80182066194E+03 0.  0.
        1    1    3    3  502    0 -0.14759523130E+03  0.24490893956E+03  0.17087207487E+03  0.33310960204E+03  0.50400001928E-02 0.  1.
       -1    1    3    3    0  502  0.14759523130E+03 -0.24490893956E+03 -0.41702738637E+03  0.50564471913E+03  0.50400001928E-02 0. -1.
</event>
<event>
 5   0  0.1025900E-02  0.8043092E+03  0.7818609E-02  0.9553801E-01
        1   -1    0    0  501    0  0.00000000000E+00  0.00000000000E+00  0.75693791353E+03  0.75693791354E+03  0.50400001928E-02 0. -1.
       -1   -1    0    0    0  501  0.00000000000E+00  0.00000000000E+00 -0.21366126141E+03  0.21366126147E+03  0.50400001928E-02 0.  1.
    10030    2    1    2    0    0  0.00000000000E+00  0.00000000000E+00  0.54327665212E+03  0.97059917501E+03  0.80430916804E+03 0.  0.
        1    1    3    3  502    0  0.38082350890E+03  0.30768968961E+02  0.12016834002E+03  0.40051679659E+03  0.50400001928E-02 0.  1.
       -1    1    3    3    0  502 -0.38082350890E+03 -0.30768968961E+02  0.42310831210E+03  0.57008237841E+03  0.50400001928E-02 0. -1.
</event>
<event>
 5   0  0.1025900E-02  0.8047884E+03  0.7818609E-02  0.9553112E-01
       -1   -1    0    0    0  501  0.00000000000E+00  0.00000000000E+00  0.12930500395E+03  0.12930500405E+03  0.50400001928E-02 0. -1.
        1   -1    0    0  501    0  0.00000000000E+00  0.00000000000E+00 -0.12522414073E+04  0.12522414073E+04  0.50400001928E-02 0.  1.
    10030    2    1    2    0    0  0.00000000000E+00  0.00000000000E+00 -0.11229364033E+04  0.13815464113E+04  0.80478837017E+03 0.  0.
        1    1    3    3  502    0 -0.14321506699E+03  0.22710869204E+02 -0.12058320684E+04  0.12145193767E+04  0.50400001928E-02 0.  1.
       -1    1    3    3    0  502  0.14321506699E+03 -0.22710869204E+02  0.82895665110E+02  0.16702703467E+03  0.50400001928E-02 0. -1.
</event>
<event>
 5   0  0.1673727E-02  0.6565923E+03  0.7818609E-02  0.9794487E-01
       -2   -1    0    0    0  501  0.00000000000E+00  0.00000000000E+00  0.28677956158E+03  0.28677956160E+03  0.25500000920E-02 0.  1.
        2   -1    0    0  501    0  0.00000000000E+00  0.00000000000E+00 -0.37582304552E+03  0.37582304553E+03  0.25500000920E-02 0. -1.
    10030    2    1    2    0    0  0.00000000000E+00  0.00000000000E+00 -0.89043483937E+02  0.66260260713E+03  0.65659231867E+03 0.  0.
        5    1    3    3  502    0  0.25454087701E+03 -0.62043284461E+01 -0.25360594812E+03  0.35939896867E+03  0.46999998093E+01 0. -1.
       -5    1    3    3    0  502 -0.25454087701E+03  0.62043284461E+01  0.16456246418E+03  0.30320363846E+03  0.46999998093E+01 0.  1.
</event>
<event>
 5   0  0.1049780E-02  0.7963487E+03  0.7818609E-02  0.9565317E-01
        1   -1    0    0  501    0  0.00000000000E+00  0.00000000000E+00  0.18830434024E+04  0.18830434024E+04  0.50400001928E-02 0. -1.
       -1   -1    0    0    0  501  0.00000000000E+00  0.00000000000E+00 -0.84194983673E+02  0.84194983823E+02  0.50400001928E-02 0.  1.
    10030    2    1    2    0    0  0.00000000000E+00  0.00000000000E+00  0.17988484188E+04  0.19672383863E+04  0.79634868915E+03 0.  0.
        5    1    3    3  502    0 -0.15298654303E+03  0.25732583552E+03  0.15478510299E+04  0.15765425363E+04  0.46999998093E+01 0. -1.
       -5    1    3    3    0  502  0.15298654303E+03 -0.25732583552E+03  0.25099738887E+03  0.39069584998E+03  0.46999998093E+01 0.  1.
</event>
<event>
 5   0  0.1818665E-02  0.8008742E+03  0.7818609E-02  0.9558753E-01
        2   -1    0    0  501    0  0.00000000000E+00  0.00000000000E+00  0.37227647256E+03  0.37227647257E+03  0.25500000920E-02 0. -1.
       -2   -1    0    0    0  501  0.00000000000E+00  0.00000000000E+00 -0.43072789766E+03  0.43072789767E+03  0.25500000920E-02 0.  1.
    10030    2    1    2    0    0  0.00000000000E+00  0.00000000000E+00 -0.58451425104E+02  0.80300437024E+03  0.80087417834E+03 0.  0.
        3    1    3    3  502    0  0.21461575143E+03  0.31899489034E+03  0.83019318981E+02  0.39333176626E+03  0.10100000352E+00 0. -1.
       -3    1    3    3    0  502 -0.21461575143E+03 -0.31899489034E+03 -0.14147074408E+03  0.40967260398E+03  0.10100000352E+00 0.  1.
</event>
<event>
 5   0  0.1731337E-02  0.8035468E+03  0.7818609E-02  0.9554897E-01
        2   -1    0    0  501    0  0.00000000000E+00  0.00000000000E+00  0.75848532887E+03  0.75848532887E+03  0.25500000920E-02 0. -1.
       -2   -1    0    0    0  501  0.00000000000E+00  0.00000000000E+00 -0.21282135343E+03  0.21282135344E+03  0.25500000920E-02 0.  1.
    10030    2    1    2    0    0  0.00000000000E+00  0.00000000000E+00  0.54566397544E+03  0.97130668232E+03  0.80354682316E+03 0.  0.
        4    1    3    3  502    0 -0.22771401599E+03 -0.23105295240E+03  0.55934238721E+03  0.64661012899E+03  0.12699999809E+01 0. -1.
       -4    1    3    3    0  502  0.22771401599E+03  0.23105295240E+03 -0.13678411765E+02  0.32469655332E+03  0.12699999809E+01 0.  1.
</event>
<event>
 5   0  0.1818665E-02  0.7911934E+03  0.7818609E-02  0.9572852E-01
        2   -1    0    0  501    0  0.00000000000E+00  0.00000000000E+00  0.65064239467E+03  0.65064239468E+03  0.25500000920E-02 0. -1.
       -2   -1    0    0    0  501  0.00000000000E+00  0.00000000000E+00 -0.24052654089E+03  0.24052654091E+03  0.25500000920E-02 0.  1.
    10030    2    1    2    0    0  0.00000000000E+00  0.00000000000E+00  0.41011585378E+03  0.89116893558E+03  0.79119343920E+03 0.  0.
        3    1    3    3  502    0 -0.18425046928E+03 -0.16931308731E+03 -0.14006006229E+03  0.28676120417E+03  0.10100000352E+00 0.  1.
       -3    1    3    3    0  502  0.18425046928E+03  0.16931308731E+03  0.55017591607E+03  0.60440773141E+03  0.10100000352E+00 0. -1.
</event>
<event>
 5   0  0.1747544E-02  0.7845556E+03  0.7818609E-02  0.9582645E-01
        2   -1    0    0  501    0  0.00000000000E+00  0.00000000000E+00  0.11462204260E+04  0.11462204260E+04  0.25500000920E-02 0.  1.
       -2   -1    0    0    0  501  0.00000000000E+00  0.00000000000E+00 -0.13425155411E+03  0.13425155414E+03  0.25500000920E-02 0. -1.
    10030    2    1    2    0    0  0.00000000000E+00  0.00000000000E+00  0.10119688719E+04  0.12804719801E+04  0.78455560304E+03 0.  0.
        1    1    3    3  502    0  0.27498172328E+03  0.16571951700E+03  0.87385510666E+03  0.93096759016E+03  0.50400001928E-02 0.  1.
       -1    1    3    3    0  502 -0.27498172328E+03 -0.16571951700E+03  0.13811376522E+03  0.34950438999E+03  0.50400001928E-02 0. -1.
</event>
<event>
 5   0  0.1038912E-02  0.8016885E+03  0.7818609E-02  0.9557576E-01
        1   -1    0    0  501    0  0.00000000000E+00  0.00000000000E+00  0.12786261618E+04  0.12786261618E+04  0.50400001928E-02 0.  1.
       -1   -1    0    0    0  501  0.00000000000E+00  0.00000000000E+00 -0.12566307700E+03  0.12566307710E+03  0.50400001928E-02 0. -1.
    10030    2    1    2    0    0  0.00000000000E+00  0.00000000000E+00  0.11529630848E+04  0.14042892389E+04  0.80168846292E+03 0.  0.
        2    1    3    3  502    0  0.16523751704E+03 -0.12095650080E+03 -0.27124326282E+02  0.20656631188E+03  0.25500000920E-02 0. -1.
       -2    1    3    3    0  502 -0.16523751704E+03  0.12095650080E+03  0.11800874110E+04  0.11977229270E+04  0.25500000920E-02 0.  1.
</event>
<event>
 5   0  0.1146083E-02  0.7998666E+03  0.7818609E-02  0.9560210E-01
        1   -1    0    0  501    0  0.00000000000E+00  0.00000000000E+00  0.12439051564E+04  0.12439051564E+04  0.50400001928E-02 0.  1.
       -1   -1    0    0    0  501  0.00000000000E+00  0.00000000000E+00 -0.12858428659E+03  0.12858428669E+03  0.50400001928E-02 0. -1.
    10030    2    1    2    0    0  0.00000000000E+00  0.00000000000E+00  0.11153208698E+04  0.13724894431E+04  0.79986663187E+03 0.  0.
        4    1    3    3  502    0 -0.18785935793E+03  0.16382531879E+03  0.10943146464E+04  0.11223439899E+04  0.12699999809E+01 0.  1.
       -4    1    3    3    0  502  0.18785935793E+03 -0.16382531879E+03  0.21006223406E+02  0.25014545320E+03  0.12699999809E+01 0. -1.
</event>
<event>
 5   0  0.1673727E-02  0.8013481E+03  0.7818609E-02  0.9558068E-01
       -2   -1    0    0    0  501  0.00000000000E+00  0.00000000000E+00  0.16858175753E+03  0.16858175755E+03  0.25500000920E-02 0.  1.
        2   -1    0    0  501    0  0.00000000000E+00  0.00000000000E+00 -0.95229570209E+03  0.95229570209E+03  0.25500000920E-02 0. -1.
    10030    2    1    2    0    0  0.00000000000E+00  0.00000000000E+00 -0.78371394456E+03  0.11208774596E+04  0.80134807208E+03 0.  0.
        5    1    3    3  502    0 -0.75843985426E+02 -0.25414344781E+03  0.28175981469E+02  0.26675302832E+03  0.46999998093E+01 0.  1.
       -5    1    3    3    0  502  0.75843985426E+02  0.25414344781E+03 -0.81188992603E+03  0.85412443132E+03  0.46999998093E+01 0. -1.
</event>
<event>
 5   0  0.1025900E-02  0.7996842E+03  0.7818609E-02  0.9560474E-01
       -1   -1    0    0    0  501  0.00000000000E+00  0.00000000000E+00  0.18831866514E+03  0.18831866521E+03  0.50400001928E-02 0.  1.
        1   -1    0    0  501    0  0.00000000000E+00  0.00000000000E+00 -0.84895297233E+03  0.84895297235E+03  0.50400001928E-02 0. -1.
    10030    2    1    2    0    0  0.00000000000E+00  0.00000000000E+00 -0.66063430719E+03  0.10372716376E+04  0.79968416406E+03 0.  0.
        1    1    3    3  502    0 -0.11815944282E+03  0.38198257795E+03 -0.32881187260E+03  0.51767711112E+03  0.50400001928E-02 0. -1.
       -1    1    3    3    0  502  0.11815944282E+03 -0.38198257795E+03 -0.33182243459E+03  0.51959452644E+03  0.50400001928E-02 0.  1.
</event>
<event>
 5   0  0.1146083E-02  0.7797514E+03  0.7818609E-02  0.9589798E-01
       -1   -1    0    0    0  501  0.00000000000E+00  0.00000000000E+00  0.18170331148E+03  0.18170331155E+03  0.50400001928E-02 0. -1.
        1   -1    0    0  501    0  0.00000000000E+00  0.00000000000E+00 -0.83654539572E+03  0.83654539574E+03  0.50400001928E-02 0.  1.
    10030    2    1    2    0    0  0.00000000000E+00  0.00000000000E+00 -0.65484208424E+03  0.10182487073E+04  0.77975141847E+03 0.  0.
        4    1    3    3  502    0  0.17804837479E+03 -0.66659902827E+02 -0.77190721048E+03  0.79497617631E+03  0.12699999809E+01 0.  1.
       -4    1    3    3    0  502 -0.17804837479E+03  0.66659902827E+02  0.11706512624E+03  0.22327253099E+03  0.12699999809E+01 0. -1.
</event>
<event>
 5   0  0.1049780E-02  0.8013427E+03  0.7818609E-02  0.9558076E-01
       -1   -1    0    0    0  501  0.00000000000E+00  0.00000000000E+00  0.75366487210E+03  0.75366487212E+03  0.50400001928E-02 0.  1.
        1   -1    0    0  501    0  0.00000000000E+00  0.00000000000E+00 -0.21300916793E+03  0.21300916799E+03  0.50400001928E-02 0. -1.
    10030    2    1    2    0    0  0.00000000000E+00  0.00000000000E+00  0.54065570417E+03  0.96667404011E+03  0.80134269160E+03 0.  0.
        5    1    3    3  502    0  0.22467998950E+03 -0.13654354380E+03 -0.94351848885E+02  0.27937358219E+03  0.46999998093E+01 0. -1.
       -5    1    3    3    0  502 -0.22467998950E+03  0.13654354380E+03  0.63500755305E+03  0.68730045793E+03  0.46999998093E+01 0.  1.
</event>
<event>
 5   0  0.1731337E-02  0.7950731E+03  0.7818609E-02  0.9567176E-01
        2   -1    0    0  501    0  0.00000000000E+00  0.00000000000E+00  0.33696441290E+03  0.33696441291E+03  0.25500000920E-02 0.  1.
       -2   -1    0    0    0  501  0.00000000000E+00  0.00000000000E+00 -0.46899698666E+03  0.46899698667E+03  0.25500000920E-02 0. -1.
    10030    2    1    2    0    0  0.00000000000E+00  0.00000000000E+00 -0.13203257376E+03  0.80596139957E+03  0.79507306398E+03 0.  0.
        4    1    3    3  502    0 -0.21273384304E+03 -0.19261580446E+03  0.21284586380E+03  0.35729751012E+03  0.12699999809E+01 0.  1.
       -4    1    3    3    0  502  0.21273384304E+03  0.19261580446E+03 -0.34487843756E+03  0.44866388945E+03  0.12699999809E+01 0. -1.
</event>
<event>
 5   0  0.1025900E-02  0.8382529E+03  0.7818609E-02  0.9506241E-01
       -1   -1    0    0    0  501  0.00000000000E+00  0.00000000000E+00  0.26355884454E+03  0.26355884459E+03  0.50400001928E-02 0. -1.
        1   -1    0    0  501    0  0.00000000000E+00  0.00000000000E+00 -0.66651902147E+03  0.66651902149E+03  0.50400001928E-02 0.  1.
    10030    2    1    2    0    0  0.00000000000E+00  0.00000000000E+00 -0.40296017693E+03  0.93007786608E+03  0.83825290502E+03 0.  0.
        1    1    3    3  502    0  0.95197854649E+02 -0.66783031532E+01  0.25134374256E+03  0.26885108929E+03  0.50400001928E-02 0. -1.
       -1    1    3    3    0  502 -0.95197854649E+02  0.66783031532E+01 -0.65430391949E+03  0.66122677679E+03  0.50400001928E-02 0.  1.
</event>
<event>
 5   0  0.1817089E-02  0.7977213E+03  0.7818609E-02  0.9563321E-01
        2   -1    0    0  501    0  0.00000000000E+00  0.00000000000E+00  0.43315943878E+03  0.43315943879E+03  0.25500000920E-02 0. -1.
       -2   -1    0    0    0  501  0.00000000000E+00  0.00000000000E+00 -0.36727774889E+03  0.36727774890E+03  0.25500000920E-02 0.  1.
    10030    2    1    2    0    0  0.00000000000E+00  0.00000000000E+00  0.65881689888E+02  0.80043718768E+03  0.79772131372E+03 0.  0.
        2    1    3    3  502    0 -0.18044916185E+03 -0.31654505414E+03 -0.12986800340E+03  0.38681826434E+03  0.25500000920E-02 0.  1.
       -2    1    3    3    0  502  0.18044916185E+03  0.31654505414E+03  0.19574969329E+03  0.41361892334E+03  0.25500000920E-02 0. -1.
</event>
<event>
 5   0  0.1673727E-02  0.8007465E+03  0.7818609E-02  0.9558937E-01
       -2   -1    0    0    0  501  0.00000000000E+00  0.00000000000E+00  0.25636061261E+03  0.25636061262E+03  0.25500000920E-02 0.  1.
        2   -1    0    0  501    0  0.00000000000E+00  0.00000000000E+00 -0.62528621148E+03  0.62528621149E+03  0.25500000920E-02 0. -1.
    10030    2    1    2    0    0  0.00000000000E+00  0.00000000000E+00 -0.36892559887E+03  0.88164682411E+03  0.80074654227E+03 0.  0.
        5    1    3    3  502    0  0.99631889267E+02 -0.13341791892E+03 -0.58531948675E+03  0.60856211352E+03  0.46999998093E+01 0. -1.
       -5    1    3    3    0  502 -0.99631889267E+02  0.13341791892E+03  0.21639388788E+03  0.27308471059E+03  0.46999998093E+01 0.  1.
</event>
<event>
 5   0  0.1030323E-02  0.7920970E+03  0.7818609E-02  0.9571527E-01
       -1   -1    0    0    0  501  0.00000000000E+00  0.00000000000E+00  0.34227020357E+03  0.34227020361E+03  0.50400001928E-02 0.  1.
        1   -1    0    0  501    0  0.00000000000E+00  0.00000000000E+00 -0.45827652690E+03  0.45827652692E+03  0.50400001928E-02 0. -1.
    10030    2    1    2    0    0  0.00000000000E+00  0.00000000000E+00 -0.11600632332E+03  0.80054673053E+03  0.79209696421E+03 0.  0.
        3    1    3    3  502    0 -0.11721056179E+03  0.14362237074E+03  0.29571416353E+03  0.34901658683E+03  0.10100000352E+00 0.  1.
       -3    1    3    3    0  502  0.11721056179E+03 -0.14362237074E+03 -0.41172048685E+03  0.45153014370E+03  0.10100000352E+00 0. -1.
</event>
<event>
 5   0  0.6872500E-03  0.8059076E+03  0.7818609E-02  0.9551505E-01
       -3   -1    0    0    0  501  0.00000000000E+00  0.00000000000E+00  0.64449734831E+03  0.64449735622E+03  0.10100000352E+00 0. -1.
        3   -1    0    0  501    0  0.00000000000E+00  0.00000000000E+00 -0.25193551068E+03  0.25193553093E+03  0.10100000352E+00 0.  1.
    10030    2    1    2    0    0  0.00000000000E+00  0.00000000000E+00  0.39256183762E+03  0.89643288714E+03  0.80590764036E+03 0.  0.
        3    1    3    3  502    0  0.38907479140E+02  0.39440718934E+03  0.11529504314E+03  0.41275147499E+03  0.10100000352E+00 0.  1.
       -3    1    3    3    0  502 -0.38907479140E+02 -0.39440718934E+03  0.27726679448E+03  0.48368141215E+03  0.10100000352E+00 0. -1.
</event>
<event>
 5   0  0.1049780E-02  0.7808096E+03  0.7818609E-02  0.9588217E-01
        1   -1    0    0  501    0  0.00000000000E+00  0.00000000000E+00  0.16908084415E+03  0.16908084423E+03  0.50400001928E-02 0. -1.
       -1   -1    0    0    0  501  0.00000000000E+00  0.00000000000E+00 -0.90143803255E+03  0.90143803256E+03  0.50400001928E-02 0.  1.
    10030    2    1    2    0    0  0.00000000000E+00  0.00000000000E+00 -0.73235718839E+03  0.10705188768E+04  0.78080958894E+03 0.  0.
        5    1    3    3  502    0 -0.97474773231E+02 -0.94649151188E+02 -0.86793698545E+03  0.87851948979E+03  0.46999998093E+01 0.  1.
       -5    1    3    3    0  502  0.97474773231E+02  0.94649151188E+02  0.13557979706E+03  0.19199938699E+03  0.46999998093E+01 0. -1.
</event>
<event>
 5   0  0.1817089E-02  0.8010307E+03  0.7818609E-02  0.9558526E-01
        2   -1    0    0  501    0  0.00000000000E+00  0.00000000000E+00  0.35475982990E+03  0.35475982991E+03  0.25500000920E-02 0.  1.
       -2   -1    0    0    0  501  0.00000000000E+00  0.00000000000E+00 -0.45217218115E+03  0.45217218116E+03  0.25500000920E-02 0. -1.
    10030    2    1    2    0    0  0.00000000000E+00  0.00000000000E+00 -0.97412351250E+02  0.80693201108E+03  0.80103065130E+03 0.  0.
        2    1    3    3  502    0  0.14117709854E+03 -0.37435276117E+03 -0.30088592515E+02  0.40121850201E+03  0.25500000920E-02 0. -1.
       -2    1    3    3    0  502 -0.14117709854E+03  0.37435276117E+03 -0.67323758735E+02  0.40571350907E+03  0.25500000920E-02 0.  1.
</event>
<event>
 5   0  0.1146083E-02  0.8017750E+03  0.7818609E-02  0.9557451E-01
        1   -1    0    0  501    0  0.00000000000E+00  0.00000000000E+00  0.12212412595E+04  0.12212412595E+04  0.50400001928E-02 0.  1.
       -1   -1    0    0    0  501  0.00000000000E+00  0.00000000000E+00 -0.13159626369E+03  0.13159626378E+03  0.50400001928E-02 0. -1.
    10030    2    1    2    0    0  0.00000000000E+00  0.00000000000E+00  0.10896449958E+04  0.13528375233E+04  0.80177499807E+03 0.  0.
        4    1    3    3  502    0  0.33642720151E+03 -0.37911988599E+01  0.91260636919E+03  0.97265082794E+03  0.12699999809E+01 0.  1.
       -4    1    3    3    0  502 -0.33642720151E+03  0.37911988599E+01  0.17703862660E+03  0.38018669534E+03  0.12699999809E+01 0. -1.
</event>
<event>
 5   0  0.1818665E-02  0.8119190E+03  0.7818609E-02  0.9542923E-01
       -2   -1    0    0    0  501  0.00000000000E+00  0.00000000000E+00  0.56304400168E+03  0.56304400169E+03  0.25500000920E-02 0. -1.
        2   -1    0    0  501    0  0.00000000000E+00  0.00000000000E+00 -0.29270025292E+03  0.29270025293E+03  0.25500000920E-02 0.  1.
    10030    2    1    2    0    0  0.00000000000E+00  0.00000000000E+00  0.27034374876E+03  0.85574425462E+03  0.81191901494E+03 0.  0.
        3    1    3    3  502    0  0.24984377572E+03 -0.19533647868E+03  0.40227739257E+03  0.51225517366E+03  0.10100000352E+00 0. -1.
       -3    1    3    3    0  502 -0.24984377572E+03  0.19533647868E+03 -0.13193364381E+03  0.34348908096E+03  0.10100000352E+00 0.  1.
</event>
<event>
 5   0  0.1673727E-02  0.8162754E+03  0.7818609E-02  0.9536753E-01
       -2   -1    0    0    0  501  0.00000000000E+00  0.00000000000E+00  0.10969553525E+03  0.10969553528E+03  0.25500000920E-02 0. -1.
        2   -1    0    0  501    0  0.00000000000E+00  0.00000000000E+00 -0.15185339531E+04  0.15185339531E+04  0.25500000920E-02 0.  1.
    10030    2    1    2    0    0  0.00000000000E+00  0.00000000000E+00 -0.14088384178E+04  0.16282294884E+04  0.81627543098E+03 0.  0.
        5    1    3    3  502    0  0.13510913005E+03  0.12778570305E+03  0.20212869093E+02  0.18712111854E+03  0.46999998093E+01 0. -1.
       -5    1    3    3    0  502 -0.13510913005E+03 -0.12778570305E+03 -0.14290512869E+04  0.14411083698E+04  0.46999998093E+01 0.  1.
</event>
<event>
 5   0  0.1747544E-02  0.7982511E+03  0.7818609E-02  0.9562552E-01
       -2   -1    0    0    0  501  0.00000000000E+00  0.00000000000E+00  0.26631455014E+03  0.26631455015E+03  0.25500000920E-02 0. -1.
        2   -1    0    0  501    0  0.00000000000E+00  0.00000000000E+00 -0.59816932453E+03  0.59816932453E+03  0.25500000920E-02 0.  1.
    10030    2    1    2    0    0  0.00000000000E+00  0.00000000000E+00 -0.33185477439E+03  0.86448387468E+03  0.79825107473E+03 0.  0.
        1    1    3    3  502    0 -0.32698920326E+03  0.22518007118E+03 -0.12162877195E+03  0.41523675379E+03  0.50400001928E-02 0. -1.
       -1    1    3    3    0  502  0.32698920326E+03 -0.22518007118E+03 -0.21022600244E+03  0.44924712089E+03  0.50400001928E-02 0.  1.
</event>
<event>
 5   0  0.1146083E-02  0.8000192E+03  0.7818609E-02  0.9559989E-01
       -1   -1    0    0    0  501  0.00000000000E+00  0.00000000000E+00  0.76273378482E+02  0.76273378649E+02  0.50400001928E-02 0.  1.
        1   -1    0    0  501    0  0.00000000000E+00  0.00000000000E+00 -0.20978181779E+04  0.20978181779E+04  0.50400001928E-02 0. -1.
    10030    2    1    2    0    0  0.00000000000E+00  0.00000000000E+00 -0.20215447994E+04  0.21740915565E+04  0.80001919991E+03 0.  0.
        4    1    3    3  502    0  0.10456451773E+03 -0.24430144207E+03 -0.18232656932E+04  0.18425298732E+04  0.12699999809E+01 0. -1.
       -4    1    3    3    0  502 -0.10456451773E+03  0.24430144207E+03 -0.19827910622E+03  0.33156168329E+03  0.12699999809E+01 0.  1.
</event>
<event>
 5   0  0.1747544E-02  0.8061953E+03  0.7818609E-02  0.9551093E-01
        2   -1    0    0  501    0  0.00000000000E+00  0.00000000000E+00  0.16944676416E+04  0.16944676416E+04  0.25500000920E-02 0. -1.
       -2   -1    0    0    0  501  0.00000000000E+00  0.00000000000E+00 -0.95893068833E+02  0.95893068867E+02  0.25500000920E-02 0.  1.
    10030    2    1    2    0    0  0.00000000000E+00  0.00000000000E+00  0.15985745728E+04  0.17903607105E+04  0.80619526723E+03 0.  0.
        1    1    3    3  502    0  0.78129404093E+02 -0.13166735571E+03  0.16273846986E+04  0.16345707246E+04  0.50400001928E-02 0. -1.
       -1    1    3    3    0  502 -0.78129404093E+02  0.13166735571E+03 -0.28810125803E+02  0.15578998593E+03  0.50400001928E-02 0.  1.
</event>
<event>
 5   0  0.1146083E-02  0.8031674E+03  0.7818609E-02  0.9555444E-01
       -1   -1    0    0    0  501  0.00000000000E+00  0.00000000000E+00  0.60735755376E+03  0.60735755378E+03  0.50400001928E-02 0. -1.
        1   -1    0    0  501    0  0.00000000000E+00  0.00000000000E+00 -0.26552642764E+03  0.26552642769E+03  0.50400001928E-02 0.  1.
    10030    2    1    2    0    0  0.00000000000E+00  0.00000000000E+00  0.34183112611E+03  0.87288398147E+03  0.80316743356E+03 0.  0.
        4    1    3    3  502    0 -0.36509878232E+02 -0.76407972809E+02  0.59754137644E+03  0.60351342900E+03  0.12699999809E+01 0. -1.
       -4    1    3    3    0  502  0.36509878232E+02  0.76407972809E+02 -0.25571025033E+03  0.26937055247E+03  0.12699999809E+01 0.  1.
</event>
<event>
 5   0  0.1731337E-02  0.7976825E+03  0.7818609E-02  0.9563378E-01
       -2   -1    0    0    0  501  0.00000000000E+00  0.00000000000E+00  0.95487934146E+02  0.95487934180E+02  0.25500000920E-02 0.  1.
        2   -1    0    0  501    0  0.00000000000E+00  0.00000000000E+00 -0.16659103794E+04  0.16659103794E+04  0.25500000920E-02 0. -1.
    10030    2    1    2    0    0  0.00000000000E+00  0.00000000000E+00 -0.15704224452E+04  0.17613983135E+04  0.79768249480E+03 0.  0.
        4    1    3    3  502    0 -0.30252619056E+03 -0.18803342175E+03 -0.11814120851E+04  0.12339427828E+04  0.12699999809E+01 0. -1.
       -4    1    3    3    0  502  0.30252619056E+03  0.18803342175E+03 -0.38901036012E+03  0.52745553069E+03  0.12699999809E+01 0.  1.
</event>
<event>
 5   0  0.1025900E-02  0.7924721E+03  0.7818609E-02  0.9570978E-01
       -1   -1    0    0    0  501  0.00000000000E+00  0.00000000000E+00  0.15248316975E+03  0.15248316983E+03  0.50400001928E-02 0. -1.
        1   -1    0    0  501    0  0.00000000000E+00  0.00000000000E+00 -0.10296414804E+04  0.10296414804E+04  0.50400001928E-02 0.  1.
    10030    2    1    2    0    0  0.00000000000E+00  0.00000000000E+00 -0.87715831064E+03  0.11821246502E+04  0.79247207318E+03 0.  0.
        1    1    3    3  502    0 -0.16523494640E+03 -0.93413630287E+02  0.80251789498E+02  0.20608018725E+03  0.50400001928E-02 0. -1.
       -1    1    3    3    0  502  0.16523494640E+03  0.93413630287E+02 -0.95741010014E+03  0.97604446298E+03  0.50400001928E-02 0.  1.
</event>
<event>
 5   0  0.1673727E-02  0.7969423E+03  0.7818609E-02  0.9564454E-01
        2   -1    0    0  501    0  0.00000000000E+00  0.00000000000E+00  0.14937745503E+04  0.14937745503E+04  0.25500000920E-02 0. -1.
       -2   -1    0    0    0  501  0.00000000000E+00  0.00000000000E+00 -0.10629398294E+03  0.10629398297E+03  0.25500000920E-02 0.  1.
    10030    2    1    2    0    0  0.00000000000E+00  0.00000000000E+00  0.13874805673E+04  0.16000685332E+04  0.79694227293E+03 0.  0.
        5    1    3    3  502    0 -0.28845498586E+03 -0.19669134419E+03  0.30825360677E+03  0.46576403879E+03  0.46999998093E+01 0.  1.
       -5    1    3    3    0  502  0.28845498586E+03  0.19669134419E+03  0.10792269606E+04  0.11343044945E+04  0.46999998093E+01 0. -1.
</event>
<event>
 5   0  0.1673727E-02  0.8088626E+03  0.7818609E-02  0.9547277E-01
       -2   -1    0    0    0  501  0.00000000000E+00  0.00000000000E+00  0.20035183718E+03  0.20035183719E+03  0.25500000920E-02 0. -1.
        2   -1    0    0  501    0  0.00000000000E+00  0.00000000000E+00 -0.81638724405E+03  0.81638724406E+03  0.25500000920E-02 0.  1.
    10030    2    1    2    0    0  0.00000000000E+00  0.00000000000E+00 -0.61603540688E+03  0.10167390813E+04  0.80886261925E+03 0.  0.
        5    1    3    3  502    0  0.27078958172E+03  0.29956806305E+03 -0.28063439513E+03  0.49177817733E+03  0.46999998093E+01 0. -1.
       -5    1    3    3    0  502 -0.27078958172E+03 -0.29956806305E+03 -0.33540101174E+03  0.52496090392E+03  0.46999998093E+01 0.  1.
</event>
<event>
 5   0  0.1817089E-02  0.8139209E+03  0.7818609E-02  0.9540083E-01
       -2   -1    0    0    0  501  0.00000000000E+00  0.00000000000E+00  0.24765895560E+03  0.24765895562E+03  0.25500000920E-02 0.  1.
        2   -1    0    0  501    0  0.00000000000E+00  0.00000000000E+00 -0.66872932608E+03  0.66872932608E+03  0.25500000920E-02 0. -1.
    10030    2    1    2    0    0  0.00000000000E+00  0.00000000000E+00 -0.42107037047E+03  0.91638828170E+03  0.81392089661E+03 0.  0.
        2    1    3    3  502    0  0.37366424320E+02 -0.23012187374E+03  0.16502158861E+03  0.28562991992E+03  0.25500000920E-02 0.  1.
       -2    1    3    3    0  502 -0.37366424320E+02  0.23012187374E+03 -0.58609195908E+03  0.63075836178E+03  0.25500000920E-02 0. -1.
</event>
<event>
 5   0  0.1817089E-02  0.8242671E+03  0.7818609E-02  0.9525541E-01
        2   -1    0    0  501    0  0.00000000000E+00  0.00000000000E+00  0.11891799088E+04  0.11891799088E+04  0.25500000920E-02 0.  1.
       -2   -1    0    0    0  501  0.00000000000E+00  0.00000000000E+00 -0.14283295578E+03  0.14283295581E+03  0.25500000920E-02 0. -1.
    10030    2    1    2    0    0  0.00000000000E+00  0.00000000000E+00  0.10463469530E+04  0.13320128646E+04  0.82426714443E+03 0.  0.
        2    1    3    3  502    0  0.21144804539E+03  0.16125171565E+02  0.10942488802E+04  0.11146079620E+04  0.25500000920E-02 0.  1.
       -2    1    3    3    0  502 -0.21144804539E+03 -0.16125171565E+02 -0.47901927182E+02  0.21740490264E+03  0.25500000920E-02 0. -1.
</event>
<event>
 5   0  0.1747544E-02  0.7858191E+03  0.7818609E-02  0.9580773E-01
        2   -1    0    0  501    0  0.00000000000E+00  0.00000000000E+00  0.61522970604E+03  0.61522970604E+03  0.25500000920E-02 0.  1.
       -2   -1    0    0    0  501  0.00000000000E+00  0.00000000000E+00 -0.25092726639E+03  0.25092726641E+03  0.25500000920E-02 0. -1.
    10030    2    1    2    0    0  0.00000000000E+00  0.00000000000E+00  0.36430243964E+03  0.86615697245E+03  0.78581908439E+03 0.  0.
        1    1    3    3  502    0  0.21274126933E+03  0.29316942999E+03  0.14369731780E+02  0.36251020892E+03  0.50400001928E-02 0. -1.
       -1    1    3    3    0  502 -0.21274126933E+03 -0.29316942999E+03  0.34993270786E+03  0.50364676353E+03  0.50400001928E-02 0.  1.
</event>
<event>
 5   0  0.1030323E-02  0.8028002E+03  0.7818609E-02  0.9555973E-01
       -1   -1    0    0    0  501  0.00000000000E+00  0.00000000000E+00  0.15680176871E+03  0.15680176879E+03  0.50400001928E-02 0.  1.
        1   -1    0    0  501    0  0.00000000000E+00  0.00000000000E+00 -0.10275523548E+04  0.10275523548E+04  0.50400001928E-02 0. -1.
    10030    2    1    2    0    0  0.00000000000E+00  0.00000000000E+00 -0.87075058605E+03  0.11843541236E+04  0.80280016624E+03 0.  0.
        3    1    3    3  502    0 -0.72013789988E+02 -0.35967155668E+03 -0.67586114356E+03  0.76898498699E+03  0.10100000352E+00 0. -1.
       -3    1    3    3    0  502  0.72013789988E+02  0.35967155668E+03 -0.19488944249E+03  0.41536913659E+03  0.10100000352E+00 0.  1.
</event>
<event>
 5   0  0.1030323E-02  0.7941426E+03  0.7818609E-02  0.9568534E-01
        1   -1    0    0  501    0  0.00000000000E+00  0.00000000000E+00  0.83123229149E+03  0.83123229150E+03  0.50400001928E-02 0. -1.
       -1   -1    0    0    0  501  0.00000000000E+00  0.00000000000E+00 -0.18967698058E+03  0.18967698065E+03  0.50400001928E-02 0.  1.
    10030    2    1    2    0    0  0.00000000000E+00  0.00000000000E+00  0.64155531091E+03  0.10209092721E+04  0.79414263518E+03 0.  0.
        3    1    3    3  502    0 -0.35664059390E+03 -0.10376351342E+03  0.50124163568E+03  0.62386101615E+03  0.10100000352E+00 0. -1.
       -3    1    3    3    0  502  0.35664059390E+03  0.10376351342E+03  0.14031367523E+03  0.39704825600E+03  0.10100000352E+00 0.  1.
</event>
<event>
 5   0  0.6872500E-03  0.8025902E+03  0.7818609E-02  0.9556275E-01
       -3   -1    0    0    0  501  0.00000000000E+00  0.00000000000E+00  0.26720483837E+03  0.26720485746E+03  0.10100000352E+00 0.  1.
        3   -1    0    0  501    0  0.00000000000E+00  0.00000000000E+00 -0.60267531954E+03  0.60267532801E+03  0.10100000352E+00 0. -1.
    10030    2    1    2    0    0  0.00000000000E+00  0.00000000000E+00 -0.33547048117E+03  0.86988018547E+03  0.80259023999E+03 0.  0.
        1    1    3    3  502    0 -0.21169920929E+03 -0.34076083422E+03 -0.17874953696E+03  0.43918777117E+03  0.50400001928E-02 0.  1.
       -1    1    3    3    0  502  0.21169920929E+03  0.34076083422E+03 -0.15672094421E+03  0.43069241430E+03  0.50400001928E-02 0. -1.
</event>
<event>
 5   0  0.1818665E-02  0.7689527E+03  0.7818609E-02  0.9606077E-01
        2   -1    0    0  501    0  0.00000000000E+00  0.00000000000E+00  0.51220865468E+03  0.51220865469E+03  0.25500000920E-02 0.  1.
       -2   -1    0    0    0  501  0.00000000000E+00  0.00000000000E+00 -0.28859738184E+03  0.28859738185E+03  0.25500000920E-02 0. -1.
    10030    2    1    2    0    0  0.00000000000E+00  0.00000000000E+00  0.22361127284E+03  0.80080603654E+03  0.76895273380E+03 0.  0.
        3    1    3    3  502    0  0.10091327504E+03  0.35260166665E+02 -0.27281040401E+03  0.29300562310E+03  0.10100000352E+00 0. -1.
       -3    1    3    3    0  502 -0.10091327504E+03 -0.35260166665E+02  0.49642167686E+03  0.50780041344E+03  0.10100000352E+00 0.  1.
</event>
<event>
 5   0  0.1025900E-02  0.8028776E+03  0.7818609E-02  0.9555861E-01
       -1   -1    0    0    0  501  0.00000000000E+00  0.00000000000E+00  0.17709276416E+03  0.17709276424E+03  0.50400001928E-02 0. -1.
        1   -1    0    0  501    0  0.00000000000E+00  0.00000000000E+00 -0.90999262811E+03  0.90999262812E+03  0.50400001928E-02 0.  1.
    10030    2    1    2    0    0  0.00000000000E+00  0.00000000000E+00 -0.73289986395E+03  0.10870853924E+04  0.80287759946E+03 0.  0.
        1    1    3    3  502    0 -0.33435789996E+03 -0.75035103590E+02 -0.83315734313E+02  0.35265703402E+03  0.50400001928E-02 0. -1.
       -1    1    3    3    0  502  0.33435789996E+03  0.75035103590E+02 -0.64958412963E+03  0.73442835834E+03  0.50400001928E-02 0.  1.
</event>
<event>
 5   0  0.1817089E-02  0.7933421E+03  0.7818609E-02  0.9569704E-01
       -2   -1    0    0    0  501  0.00000000000E+00  0.00000000000E+00  0.80815427027E+02  0.80815427067E+02  0.25500000920E-02 0.  1.
        2   -1    0    0  501    0  0.00000000000E+00  0.00000000000E+00 -0.19470035622E+04  0.19470035622E+04  0.25500000920E-02 0. -1.
    10030    2    1    2    0    0  0.00000000000E+00  0.00000000000E+00 -0.18661881352E+04  0.20278189893E+04  0.79334210615E+03 0.  0.
        2    1    3    3  502    0  0.86368186888E+02 -0.40011553328E+01 -0.19226254822E+04  0.19245685796E+04  0.25500000920E-02 0. -1.
       -2    1    3    3    0  502 -0.86368186888E+02  0.40011553328E+01  0.56437346998E+02  0.10325040965E+03  0.25500000920E-02 0.  1.
</event>
<event>
 5   0  0.1146083E-02  0.7993271E+03  0.7818609E-02  0.9560992E-01
       -1   -1    0    0    0  501  0.00000000000E+00  0.00000000000E+00  0.94652870935E+03  0.94652870936E+03  0.50400001928E-02 0.  1.
        1   -1    0    0  501    0  0.00000000000E+00  0.00000000000E+00 -0.16875447261E+03  0.16875447269E+03  0.50400001928E-02 0. -1.
    10030    2    1    2    0    0  0.00000000000E+00  0.00000000000E+00  0.77777423674E+03  0.11152831821E+04  0.79932710003E+03 0.  0.
        4    1    3    3  502    0 -0.29110712851E+03  0.26922572734E+03  0.45869964458E+03  0.60632732857E+03  0.12699999809E+01 0.  1.
       -4    1    3    3    0  502  0.29110712851E+03 -0.26922572734E+03  0.31907459216E+03  0.50895585348E+03  0.12699999809E+01 0. -1.
</event>
<event>
 5   0  0.1025900E-02  0.7812195E+03  0.7818609E-02  0.9587606E-01
       -1   -1    0    0    0  501  0.00000000000E+00  0.00000000000E+00  0.19970046227E+03  0.19970046234E+03  0.50400001928E-02 0.  1.
        1   -1    0    0  501    0  0.00000000000E+00  0.00000000000E+00 -0.76402422106E+03  0.76402422108E+03  0.50400001928E-02 0. -1.
    10030    2    1    2    0    0  0.00000000000E+00  0.00000000000E+00 -0.56432375879E+03  0.96372468342E+03  0.78121953425E+03 0.  0.
        1    1    3    3  502    0  0.20180715733E+03  0.31840589879E+03 -0.15594939753E+03  0.40795668857E+03  0.50400001928E-02 0.  1.
       -1    1    3    3    0  502 -0.20180715733E+03 -0.31840589879E+03 -0.40837436126E+03  0.55576799485E+03  0.50400001928E-02 0. -1.
</event>
<event>
 5   0  0.1038912E-02  0.7973222E+03  0.7818609E-02  0.9563901E-01
        1   -1    0    0  501    0  0.00000000000E+00  0.00000000000E+00  0.12023571054E+04  0.12023571054E+04  0.50400001928E-02 0.  1.
       -1   -1    0    0    0  501  0.00000000000E+00  0.00000000000E+00 -0.13218257406E+03  0.13218257416E+03  0.50400001928E-02 0. -1.
    10030    2    1    2    0    0  0.00000000000E+00  0.00000000000E+00  0.10701745313E+04  0.13345396796E+04  0.79732216124E+03 0.  0.
        2    1    3    3  502    0 -0.35185583345E+03  0.18142576195E+03  0.61382283116E+03  0.73040831232E+03  0.25500000920E-02 0.  1.
       -2    1    3    3    0  502  0.35185583345E+03 -0.18142576195E+03  0.45635170016E+03  0.60413136724E+03  0.25500000920E-02 0. -1.
</event>
<event>
 5   0  0.1030323E-02  0.7889509E+03  0.7818609E-02  0.9576149E-01
       -1   -1    0    0    0  501  0.00000000000E+00  0.00000000000E+00  0.23084438454E+03  0.23084438459E+03  0.50400001928E-02 0.  1.
        1   -1    0    0  501    0  0.00000000000E+00  0.00000000000E+00 -0.67409428854E+03  0.67409428856E+03  0.50400001928E-02 0. -1.
    10030    2    1    2    0    0  0.00000000000E+00  0.00000000000E+00 -0.44324990401E+03  0.90493867316E+03  0.78895090137E+03 0.  0.
        3    1    3    3  502    0  0.24270874054E+03 -0.23044813278E+03  0.17870602469E+02  0.33516151818E+03  0.10100000352E+00 0. -1.
       -3    1    3    3    0  502 -0.24270874054E+03  0.23044813278E+03 -0.46112050647E+03  0.56977715497E+03  0.10100000352E+00 0.  1.
</event>
<event>
 5   0  0.1731337E-02  0.7031344E+03  0.7818609E-02  0.9711887E-01
       -2   -1    0    0    0  501  0.00000000000E+00  0.00000000000E+00  0.89885406474E+02  0.89885406510E+02  0.25500000920E-02 0. -1.
        2   -1    0    0  501    0  0.00000000000E+00  0.00000000000E+00 -0.13750786434E+04  0.13750786434E+04  0.25500000920E-02 0.  1.
    10030    2    1    2    0    0  0.00000000000E+00  0.00000000000E+00 -0.12851932370E+04  0.14649640500E+04  0.70313441909E+03 0.  0.
        4    1    3    3  502    0 -0.28954214300E+03 -0.13354815457E+03 -0.33407231098E+03  0.46181780393E+03  0.12699999809E+01 0. -1.
       -4    1    3    3    0  502  0.28954214300E+03  0.13354815457E+03 -0.95112092599E+03  0.10031462460E+04  0.12699999809E+01 0.  1.
</event>
<event>
 5   0  0.1731337E-02  0.8239664E+03  0.7818609E-02  0.9525960E-01
       -2   -1    0    0    0  501  0.00000000000E+00  0.00000000000E+00  0.58535246522E+03  0.58535246523E+03  0.25500000920E-02 0.  1.
        2   -1    0    0  501    0  0.00000000000E+00  0.00000000000E+00 -0.28996230828E+03  0.28996230829E+03  0.25500000920E-02 0. -1.
    10030    2    1    2    0    0  0.00000000000E+00  0.00000000000E+00  0.29539015694E+03  0.87531477352E+03  0.82396638762E+03 0.  0.
        4    1    3    3  502    0  0.19158308914E+03  0.13544851330E+03 -0.21205021394E+03  0.31625509629E+03  0.12699999809E+01 0. -1.
       -4    1    3    3    0  502 -0.19158308914E+03 -0.13544851330E+03  0.50744037088E+03  0.55905967723E+03  0.12699999809E+01 0.  1.
</event>
<event>
 5   0  0.1038912E-02  0.7390047E+03  0.7818609E-02  0.9652760E-01
       -1   -1    0    0    0  501  0.00000000000E+00  0.00000000000E+00  0.22585477998E+03  0.22585478003E+03  0.50400001928E-02 0. -1.
        1   -1    0    0  501    0  0.00000000000E+00  0.00000000000E+00 -0.60451225041E+03  0.60451225044E+03  0.50400001928E-02 0.  1.
    10030    2    1    2    0    0  0.00000000000E+00  0.00000000000E+00 -0.37865747044E+03  0.83036703047E+03  0.73900468562E+03 0.  0.
        2    1    3    3  502    0 -0.91535175191E+02  0.34752705341E+03 -0.92812738564E+02  0.37117104628E+03  0.25500000920E-02 0. -1.
       -2    1    3    3    0  502  0.91535175191E+02 -0.34752705341E+03 -0.28584473187E+03  0.45919598419E+03  0.25500000920E-02 0.  1.
</event>
<event>
 5   0  0.1731337E-02  0.7975378E+03  0.7818609E-02  0.9563588E-01
       -2   -1    0    0    0  501  0.00000000000E+00  0.00000000000E+00  0.18281755107E+03  0.18281755108E+03  0.25500000920E-02 0. -1.
        2   -1    0    0  501    0  0.00000000000E+00  0.00000000000E+00 -0.86981045040E+03  0.86981045041E+03  0.25500000920E-02 0.  1.
    10030    2    1    2    0    0  0.00000000000E+00  0.00000000000E+00 -0.68699289934E+03  0.10526280015E+04  0.79753775195E+03 0.  0.
        4    1    3    3  502    0 -0.10964624321E+03  0.20260036716E+03 -0.77309769666E+03  0.80669130955E+03  0.12699999809E+01 0. -1.
       -4    1    3    3    0  502  0.10964624321E+03 -0.20260036716E+03  0.86104797318E+02  0.24593669194E+03  0.12699999809E+01 0.  1.
</event>
<event>
 5   0  0.1747544E-02  0.8013021E+03  0.7818609E-02  0.9558134E-01
        2   -1    0    0  501    0  0.00000000000E+00  0.00000000000E+00  0.61093874428E+03  0.61093874428E+03  0.25500000920E-02 0. -1.
       -2   -1    0    0    0  501  0.00000000000E+00  0.00000000000E+00 -0.26274528942E+03  0.26274528943E+03  0.25500000920E-02 0.  1.
    10030    2    1    2    0    0  0.00000000000E+00  0.00000000000E+00  0.34819345486E+03  0.87368403371E+03  0.80130213325E+03 0.  0.
        1    1    3    3  502    0 -0.31021397468E+03  0.36545879686E+02  0.44766529577E+03  0.54586860001E+03  0.50400001928E-02 0. -1.
       -1    1    3    3    0  502  0.31021397468E+03 -0.36545879686E+02 -0.99471840914E+02  0.32781543370E+03  0.50400001928E-02 0.  1.
</event>
<event>
 5   0  0.1731337E-02  0.7978870E+03  0.7818609E-02  0.9563081E-01
       -2   -1    0    0    0  501  0.00000000000E+00  0.00000000000E+00  0.11307471282E+03  0.11307471285E+03  0.25500000920E-02 0.  1.
        2   -1    0    0  501    0  0.00000000000E+00  0.00000000000E+00 -0.14075286459E+04  0.14075286459E+04  0.25500000920E-02 0. -1.
    10030    2    1    2    0    0  0.00000000000E+00  0.00000000000E+00 -0.12944539331E+04  0.15206033587E+04  0.79788695302E+03 0.  0.
        4    1    3    3  502    0 -0.15176547086E+03  0.14543510138E+03 -0.12934272517E+04  0.13103968083E+04  0.12699999809E+01 0. -1.
       -4    1    3    3    0  502  0.15176547086E+03 -0.14543510138E+03 -0.10266813249E+01  0.21020655041E+03  0.12699999809E+01 0.  1.
</event>
<event>
 5   0  0.1030323E-02  0.7999543E+03  0.7818609E-02  0.9560083E-01
       -1   -1    0    0    0  501  0.00000000000E+00  0.00000000000E+00  0.18507692488E+03  0.18507692495E+03  0.50400001928E-02 0. -1.
        1   -1    0    0  501    0  0.00000000000E+00  0.00000000000E+00 -0.86440659871E+03  0.86440659873E+03  0.50400001928E-02 0.  1.
    10030    2    1    2    0    0  0.00000000000E+00  0.00000000000E+00 -0.67932967383E+03  0.10494835237E+04  0.79995428665E+03 0.  0.
        3    1    3    3  502    0  0.32889387746E+03  0.16648997055E+02 -0.41844348252E+02  0.33196284644E+03  0.10100000352E+00 0.  1.
       -3    1    3    3    0  502 -0.32889387746E+03 -0.16648997055E+02 -0.63748532558E+03  0.71752067724E+03  0.10100000352E+00 0. -1.
</event>
<event>
 5   0  0.1673727E-02  0.7862017E+03  0.7818609E-02  0.9580207E-01
        2   -1    0    0  501    0  0.00000000000E+00  0.00000000000E+00  0.60653436515E+03  0.60653436515E+03  0.25500000920E-02 0. -1.
       -2   -1    0    0    0  501  0.00000000000E+00  0.00000000000E+00 -0.25477250167E+03  0.25477250168E+03  0.25500000920E-02 0.  1.
    10030    2    1    2    0    0  0.00000000000E+00  0.00000000000E+00  0.35176186348E+03  0.86130686683E+03  0.78620169820E+03 0.  0.
        5    1    3    3  502    0 -0.36851773625E+03  0.27307631127E+02  0.29083465775E+02  0.37070064287E+03  0.46999998093E+01 0.  1.
       -5    1    3    3    0  502  0.36851773625E+03 -0.27307631127E+02  0.32267839771E+03  0.49060622396E+03  0.46999998093E+01 0. -1.
</event>
<event>
 5   0  0.1030323E-02  0.8032478E+03  0.7818609E-02  0.9555328E-01
       -1   -1    0    0    0  501  0.00000000000E+00  0.00000000000E+00  0.60405341663E+03  0.60405341665E+03  0.50400001928E-02 0.  1.
        1   -1    0    0  501    0  0.00000000000E+00  0.00000000000E+00 -0.26703228512E+03  0.26703228516E+03  0.50400001928E-02 0. -1.
    10030    2    1    2    0    0  0.00000000000E+00  0.00000000000E+00  0.33702113151E+03  0.87108570181E+03  0.80324781781E+03 0.  0.
        3    1    3    3  502    0  0.85595524897E+02  0.15794456221E+03 -0.22103157824E+03  0.28482985692E+03  0.10100000352E+00 0. -1.
       -3    1    3    3    0  502 -0.85595524897E+02 -0.15794456221E+03  0.55805270975E+03  0.58625584489E+03  0.10100000352E+00 0.  1.
</event>
<event>
 5   0  0.1030323E-02  0.7877873E+03  0.7818609E-02  0.9577865E-01
       -1   -1    0    0    0  501  0.00000000000E+00  0.00000000000E+00  0.24194774329E+03  0.24194774334E+03  0.50400001928E-02 0.  1.
        1   -1    0    0  501    0  0.00000000000E+00  0.00000000000E+00 -0.64126323474E+03  0.64126323476E+03  0.50400001928E-02 0. -1.
    10030    2    1    2    0    0  0.00000000000E+00  0.00000000000E+00 -0.39931549145E+03  0.88321097810E+03  0.78778726197E+03 0.  0.
        3    1    3    3  502    0  0.34157021202E+03  0.19201954495E+03 -0.24464934308E+03  0.46194699550E+03  0.10100000352E+00 0.  1.
       -3    1    3    3    0  502 -0.34157021202E+03 -0.19201954495E+03 -0.15466614837E+03  0.42126398260E+03  0.10100000352E+00 0. -1.
</event>
<event>
 5   0  0.1673727E-02  0.8047780E+03  0.7818609E-02  0.9553127E-01
        2   -1    0    0  501    0  0.00000000000E+00  0.00000000000E+00  0.51971967952E+03  0.51971967953E+03  0.25500000920E-02 0.  1.
       -2   -1    0    0    0  501  0.00000000000E+00  0.00000000000E+00 -0.31154661678E+03  0.31154661679E+03  0.25500000920E-02 0. -1.
    10030    2    1    2    0    0  0.00000000000E+00  0.00000000000E+00  0.20817306274E+03  0.83126629632E+03  0.80477800128E+03 0.  0.
        5    1    3    3  502    0 -0.72142344783E+01 -0.20871027983E+01  0.51961892573E+03  0.51969444787E+03  0.46999998093E+01 0.  1.
       -5    1    3    3    0  502  0.72142344783E+01  0.20871027983E+01 -0.31144586298E+03  0.31157184845E+03  0.46999998093E+01 0. -1.
</event>
<event>
 5   0  0.1025900E-02  0.8080670E+03  0.7818609E-02  0.9548413E-01
       -1   -1    0    0    0  501  0.00000000000E+00  0.00000000000E+00  0.75014333929E+03  0.75014333931E+03  0.50400001928E-02 0.  1.
        1   -1    0    0  501    0  0.00000000000E+00  0.00000000000E+00 -0.21761581897E+03  0.21761581903E+03  0.50400001928E-02 0. -1.
    10030    2    1    2    0    0  0.00000000000E+00  0.00000000000E+00  0.53252752032E+03  0.96775915834E+03  0.80806697040E+03 0.  0.
        1    1    3    3  502    0 -0.33882755307E+02 -0.26904888948E+02  0.74736100753E+03  0.74861230938E+03  0.50400001928E-02 0.  1.
       -1    1    3    3    0  502  0.33882755307E+02  0.26904888948E+02 -0.21483348721E+03  0.21914684896E+03  0.50400001928E-02 0. -1.
</event>
<event>
 5   0  0.1146083E-02  0.7976327E+03  0.7818609E-02  0.9563450E-01
        1   -1    0    0  501    0  0.00000000000E+00  0.00000000000E+00  0.54590398921E+03  0.54590398923E+03  0.50400001928E-02 0.  1.
       -1   -1    0    0    0  501  0.00000000000E+00  0.00000000000E+00 -0.29135979328E+03  0.29135979332E+03  0.50400001928E-02 0. -1.
    10030    2    1    2    0    0  0.00000000000E+00  0.00000000000E+00  0.25454419593E+03  0.83726378255E+03  0.79763268106E+03 0.  0.
        4    1    3    3  502    0  0.32771939142E+03 -0.12232761806E+03 -0.73788147064E+02  0.35750573310E+03  0.12699999809E+01 0. -1.
       -4    1    3    3    0  502 -0.32771939142E+03  0.12232761806E+03  0.32833234300E+03  0.47975804945E+03  0.12699999809E+01 0.  1.
</event>
<event>
 5   0  0.1049780E-02  0.7788073E+03  0.7818609E-02  0.9591210E-01
        1   -1    0    0  501    0  0.00000000000E+00  0.00000000000E+00  0.72689852497E+03  0.72689852499E+03  0.50400001928E-02 0. -1.
       -1   -1    0    0    0  501  0.00000000000E+00  0.00000000000E+00 -0.20860572208E+03  0.20860572214E+03  0.50400001928E-02 0.  1.
    10030    2    1    2    0    0  0.00000000000E+00  0.00000000000E+00  0.51829280289E+03  0.93550424713E+03  0.77880727197E+03 0.  0.
        5    1    3    3  502    0  0.55074263280E+02  0.36584240160E+03  0.40497868311E+03  0.54854686314E+03  0.46999998093E+01 0. -1.
       -5    1    3    3    0  502 -0.55074263280E+02 -0.36584240160E+03  0.11331411977E+03  0.38695738399E+03  0.46999998093E+01 0.  1.
</event>
<event>
 5   0  0.1146083E-02  0.7971001E+03  0.7818609E-02  0.9564224E-01
        1   -1    0    0  501    0  0.00000000000E+00  0.00000000000E+00  0.51025549589E+03  0.51025549591E+03  0.50400001928E-02 0. -1.
       -1   -1    0    0    0  501  0.00000000000E+00  0.00000000000E+00 -0.31129921224E+03  0.31129921228E+03  0.50400001928E-02 0.  1.
    10030    2    1    2    0    0  0.00000000000E+00  0.00000000000E+00  0.19895628365E+03  0.82155470819E+03  0.79710007888E+03 0.  0.
        4    1    3    3  502    0 -0.24710472270E+03 -0.30845041917E+03  0.15241651343E+03  0.42359746403E+03  0.12699999809E+01 0. -1.
       -4    1    3    3    0  502  0.24710472270E+03  0.30845041917E+03  0.46539770225E+02  0.39795724416E+03  0.12699999809E+01 0.  1.
</event>
<event>
 5   0  0.1025900E-02  0.7948139E+03  0.7818609E-02  0.9567554E-01
        1   -1    0    0  501    0  0.00000000000E+00  0.00000000000E+00  0.15328457756E+03  0.15328457764E+03  0.50400001928E-02 0.  1.
       -1   -1    0    0    0  501  0.00000000000E+00  0.00000000000E+00 -0.10303208322E+04  0.10303208322E+04  0.50400001928E-02 0. -1.
    10030    2    1    2    0    0  0.00000000000E+00  0.00000000000E+00 -0.87703625466E+03  0.11836054099E+04  0.79481392432E+03 0.  0.
        1    1    3    3  502    0  0.67066981870E+02  0.22139717253E+03 -0.91972114201E+03  0.94836789652E+03  0.50400001928E-02 0. -1.
       -1    1    3    3    0  502 -0.67066981870E+02 -0.22139717253E+03  0.42684887344E+02  0.23523751336E+03  0.50400001928E-02 0.  1.
</event>
<event>
 5   0  0.1731337E-02  0.7969759E+03  0.7818609E-02  0.9564405E-01
        2   -1    0    0  501    0  0.00000000000E+00  0.00000000000E+00  0.77193356359E+03  0.77193356360E+03  0.25500000920E-02 0. -1.
       -2   -1    0    0    0  501  0.00000000000E+00  0.00000000000E+00 -0.20570766810E+03  0.20570766812E+03  0.25500000920E-02 0.  1.
    10030    2    1    2    0    0  0.00000000000E+00  0.00000000000E+00  0.56622589549E+03  0.97764123171E+03  0.79697591759E+03 0.  0.
        4    1    3    3  502    0 -0.23230044390E+03  0.78256452614E+02  0.66850302228E+03  0.71202912322E+03  0.12699999809E+01 0. -1.
       -4    1    3    3    0  502  0.23230044390E+03 -0.78256452614E+02 -0.10227712679E+03  0.26561210849E+03  0.12699999809E+01 0.  1.
</event>
<event>
 5   0  0.1146083E-02  0.8009936E+03  0.7818609E-02  0.9558580E-01
        1   -1    0    0  501    0  0.00000000000E+00  0.00000000000E+00  0.53596842509E+03  0.53596842512E+03  0.50400001928E-02 0. -1.
       -1   -1    0    0    0  501  0.00000000000E+00  0.00000000000E+00 -0.29926701811E+03  0.29926701815E+03  0.50400001928E-02 0.  1.
    10030    2    1    2    0    0  0.00000000000E+00  0.00000000000E+00  0.23670140698E+03  0.83523544327E+03  0.80099356404E+03 0.  0.
        4    1    3    3  502    0  0.10133742520E+03 -0.16322788889E+03  0.48477499111E+03  0.52146047056E+03  0.12699999809E+01 0. -1.
       -4    1    3    3    0  502 -0.10133742520E+03  0.16322788889E+03 -0.24807358412E+03  0.31377497271E+03  0.12699999809E+01 0.  1.
</event>
<event>
 5   0  0.1025900E-02  0.7878466E+03  0.7818609E-02  0.9577777E-01
        1   -1    0    0  501    0  0.00000000000E+00  0.00000000000E+00  0.94250461278E+03  0.94250461279E+03  0.50400001928E-02 0.  1.
       -1   -1    0    0    0  501  0.00000000000E+00  0.00000000000E+00 -0.16464169915E+03  0.16464169923E+03  0.50400001928E-02 0. -1.
    10030    2    1    2    0    0  0.00000000000E+00  0.00000000000E+00  0.77786291363E+03  0.11071463120E+04  0.78784658648E+03 0.  0.
        1    1    3    3  502    0 -0.23933600409E+02  0.22423095009E+03 -0.64961936686E+02  0.23467507207E+03  0.50400001928E-02 0. -1.
       -1    1    3    3    0  502  0.23933600409E+02 -0.22423095009E+03  0.84282485031E+03  0.87247123995E+03  0.50400001928E-02 0.  1.
</event>
<event>
 5   0  0.1030323E-02  0.7976462E+03  0.7818609E-02  0.9563430E-01
       -1   -1    0    0    0  501  0.00000000000E+00  0.00000000000E+00  0.18604197897E+03  0.18604197903E+03  0.50400001928E-02 0.  1.
        1   -1    0    0  501    0  0.00000000000E+00  0.00000000000E+00 -0.85496757685E+03  0.85496757687E+03  0.50400001928E-02 0. -1.
    10030    2    1    2    0    0  0.00000000000E+00  0.00000000000E+00 -0.66892559789E+03  0.10410095559E+04  0.79764618721E+03 0.  0.
        3    1    3    3  502    0  0.34780371437E+03  0.18307972769E+03 -0.42273091684E+03  0.57722356906E+03  0.10100000352E+00 0. -1.
       -3    1    3    3    0  502 -0.34780371437E+03 -0.18307972769E+03 -0.24619468104E+03  0.46378598684E+03  0.10100000352E+00 0.  1.
</event>
<event>
 5   0  0.1030323E-02  0.8004291E+03  0.7818609E-02  0.9559396E-01
       -1   -1    0    0    0  501  0.00000000000E+00  0.00000000000E+00  0.11682203733E+03  0.11682203744E+03  0.50400001928E-02 0.  1.
        1   -1    0    0  501    0  0.00000000000E+00  0.00000000000E+00 -0.13710742074E+04  0.13710742074E+04  0.50400001928E-02 0. -1.
    10030    2    1    2    0    0  0.00000000000E+00  0.00000000000E+00 -0.12542521700E+04  0.14878962448E+04  0.80042909075E+03 0.  0.
        3    1    3    3  502    0 -0.20139291191E+03  0.34499789899E+03 -0.67224032489E+03  0.78197808146E+03  0.10100000352E+00 0. -1.
       -3    1    3    3    0  502  0.20139291191E+03 -0.34499789899E+03 -0.58201184515E+03  0.70591816337E+03  0.10100000352E+00 0.  1.
</event>
<event>
 5   0  0.1731337E-02  0.8005985E+03  0.7818609E-02  0.9559151E-01
        2   -1    0    0  501    0  0.00000000000E+00  0.00000000000E+00  0.23856734155E+04  0.23856734155E+04  0.25500000920E-02 0. -1.
       -2   -1    0    0    0  501  0.00000000000E+00  0.00000000000E+00 -0.67167399267E+02  0.67167399315E+02  0.25500000920E-02 0.  1.
    10030    2    1    2    0    0  0.00000000000E+00  0.00000000000E+00  0.23185060163E+04  0.24528408148E+04  0.80059847335E+03 0.  0.
        4    1    3    3  502    0  0.38531196529E+03  0.10275753802E+03  0.10525284331E+04  0.11255408200E+04  0.12699999809E+01 0.  1.
       -4    1    3    3    0  502 -0.38531196529E+03 -0.10275753802E+03  0.12659775832E+04  0.13272999948E+04  0.12699999809E+01 0. -1.
</event>
<event>
 5   0  0.1038912E-02  0.8056478E+03  0.7818609E-02  0.9551878E-01
        1   -1    0    0  501    0  0.00000000000E+00  0.00000000000E+00  0.48039302718E+03  0.48039302721E+03  0.50400001928E-02 0. -1.
       -1   -1    0    0    0  501  0.00000000000E+00  0.00000000000E+00 -0.33777990577E+03  0.33777990581E+03  0.50400001928E-02 0.  1.
    10030    2    1    2    0    0  0.00000000000E+00  0.00000000000E+00  0.14261312141E+03  0.81817293302E+03  0.80564784238E+03 0.  0.
        2    1    3    3  502    0  0.20277455824E+03 -0.30825353225E+03  0.23546535800E+03  0.43770046429E+03  0.25500000920E-02 0. -1.
       -2    1    3    3    0  502 -0.20277455824E+03  0.30825353225E+03 -0.92852236590E+02  0.38047246873E+03  0.25500000920E-02 0.  1.
</event>
<event>
 5   0  0.1146083E-02  0.7897243E+03  0.7818609E-02  0.9575011E-01
       -1   -1    0    0    0  501  0.00000000000E+00  0.00000000000E+00  0.14816192764E+03  0.14816192773E+03  0.50400001928E-02 0. -1.
        1   -1    0    0  501    0  0.00000000000E+00  0.00000000000E+00 -0.10523359636E+04  0.10523359636E+04  0.50400001928E-02 0.  1.
    10030    2    1    2    0    0  0.00000000000E+00  0.00000000000E+00 -0.90417403597E+03  0.12004978914E+04  0.78972431887E+03 0.  0.
        4    1    3    3  502    0 -0.26075474865E+03 -0.19873434419E+03 -0.11756416862E+03  0.34829775358E+03  0.12699999809E+01 0. -1.
       -4    1    3    3    0  502  0.26075474865E+03  0.19873434419E+03 -0.78660986735E+03  0.85220013777E+03  0.12699999809E+01 0.  1.
</event>
<event>
 5   0  0.1731337E-02  0.7933520E+03  0.7818609E-02  0.9569690E-01
        2   -1    0    0  501    0  0.00000000000E+00  0.00000000000E+00  0.82218980033E+03  0.82218980033E+03  0.25500000920E-02 0.  1.
       -2   -1    0    0    0  501  0.00000000000E+00  0.00000000000E+00 -0.19138142698E+03  0.19138142699E+03  0.25500000920E-02 0. -1.
    10030    2    1    2    0    0  0.00000000000E+00  0.00000000000E+00  0.63080837335E+03  0.10135712273E+04  0.79335202084E+03 0.  0.
        4    1    3    3  502    0  0.31259291357E+03  0.49856194321E+02  0.99841661414E+01  0.31670375148E+03  0.12699999809E+01 0. -1.
       -4    1    3    3    0  502 -0.31259291357E+03 -0.49856194321E+02  0.62082420721E+03  0.69686747584E+03  0.12699999809E+01 0.  1.
</event>
<event>
 5   0  0.1673727E-02  0.7994789E+03  0.7818609E-02  0.9560772E-01
       -2   -1    0    0    0  501  0.00000000000E+00  0.00000000000E+00  0.72280931355E+03  0.72280931355E+03  0.25500000920E-02 0.  1.
        2   -1    0    0  501    0  0.00000000000E+00  0.00000000000E+00 -0.22107026224E+03  0.22107026225E+03  0.25500000920E-02 0. -1.
    10030    2    1    2    0    0  0.00000000000E+00  0.00000000000E+00  0.50173905131E+03  0.94387957580E+03  0.79947894157E+03 0.  0.
        5    1    3    3  502    0  0.20323061309E+02  0.39901069324E+03  0.26518348893E+03  0.47954867630E+03  0.46999998093E+01 0.  1.
       -5    1    3    3    0  502 -0.20323061309E+02 -0.39901069324E+03  0.23655556238E+03  0.46433089950E+03  0.46999998093E+01 0. -1.
</event>
<event>
 5   0  0.1146083E-02  0.7943460E+03  0.7818609E-02  0.9568237E-01
       -1   -1    0    0    0  501  0.00000000000E+00  0.00000000000E+00  0.52984670807E+03  0.52984670809E+03  0.50400001928E-02 0. -1.
        1   -1    0    0  501    0  0.00000000000E+00  0.00000000000E+00 -0.29772079546E+03  0.29772079550E+03  0.50400001928E-02 0.  1.
    10030    2    1    2    0    0  0.00000000000E+00  0.00000000000E+00  0.23212591261E+03  0.82756750360E+03  0.79434597859E+03 0.  0.
        4    1    3    3  502    0 -0.83165365299E+02  0.22024716289E+03 -0.21718913937E+03  0.32030926603E+03  0.12699999809E+01 0.  1.
       -4    1    3    3    0  502  0.83165365299E+02 -0.22024716289E+03  0.44931505197E+03  0.50725823757E+03  0.12699999809E+01 0. -1.
</event>
<event>
 5   0  0.1731337E-02  0.8173886E+03  0.7818609E-02  0.9535183E-01
        2   -1    0    0  501    0  0.00000000000E+00  0.00000000000E+00  0.12642032464E+04  0.12642032464E+04  0.25500000920E-02 0. -1.
       -2   -1    0    0    0  501  0.00000000000E+00  0.00000000000E+00 -0.13212355200E+03  0.13212355202E+03  0.25500000920E-02 0.  1.
    10030    2    1    2    0    0  0.00000000000E+00  0.00000000000E+00  0.11320796944E+04  0.13963267984E+04  0.81738858171E+03 0.  0.
        4    1    3    3  502    0 -0.20554847049E+03  0.34094443954E+03  0.40821008126E+03  0.57020204131E+03  0.12699999809E+01 0.  1.
       -4    1    3    3    0  502  0.20554847049E+03 -0.34094443954E+03  0.72386961316E+03  0.82612475712E+03  0.12699999809E+01 0. -1.
</event>
<event>
 5   0  0.1818665E-02  0.8513392E+03  0.7818609E-02  0.9488541E-01
        2   -1    0    0  501    0  0.00000000000E+00  0.00000000000E+00  0.25745750953E+03  0.25745750955E+03  0.25500000920E-02 0. -1.
       -2   -1    0    0    0  501  0.00000000000E+00  0.00000000000E+00 -0.70378447728E+03  0.70378447729E+03  0.25500000920E-02 0.  1.
    10030    2    1    2    0    0  0.00000000000E+00  0.00000000000E+00 -0.44632696775E+03  0.96124198683E+03  0.85133917748E+03 0.  0.
        3    1    3    3  502    0  0.29439486672E+03 -0.30695165552E+03 -0.24294462498E+03  0.48980583641E+03  0.10100000352E+00 0. -1.
       -3    1    3    3    0  502 -0.29439486672E+03  0.30695165552E+03 -0.20338234276E+03  0.47143615042E+03  0.10100000352E+00 0.  1.
</event>
<event>
 5   0  0.1049780E-02  0.8409664E+03  0.7818609E-02  0.9502542E-01
        1   -1    0    0  501    0  0.00000000000E+00  0.00000000000E+00  0.13377436751E+04  0.13377436751E+04  0.50400001928E-02 0.  1.
       -1   -1    0    0    0  501  0.00000000000E+00  0.00000000000E+00 -0.13216742210E+03  0.13216742219E+03  0.50400001928E-02 0. -1.
    10030    2    1    2    0    0  0.00000000000E+00  0.00000000000E+00  0.12055762530E+04  0.14699110973E+04  0.84096642751E+03 0.  0.
        5    1    3    3  502    0 -0.12439861691E+03  0.39950340902E+03  0.53059286178E+03  0.67574319432E+03  0.46999998093E+01 0.  1.
       -5    1    3    3    0  502  0.12439861691E+03 -0.39950340902E+03  0.67498339126E+03  0.79416790301E+03  0.46999998093E+01 0. -1.
</event>
<event>
 5   0  0.1817089E-02  0.8009323E+03  0.7818609E-02  0.9558669E-01
        2   -1    0    0  501    0  0.00000000000E+00  0.00000000000E+00  0.10901174480E+04  0.10901174480E+04  0.25500000920E-02 0.  1.
       -2   -1    0    0    0  501  0.00000000000E+00  0.00000000000E+00 -0.14711547299E+03  0.14711547301E+03  0.25500000920E-02 0. -1.
    10030    2    1    2    0    0  0.00000000000E+00  0.00000000000E+00  0.94300197503E+03  0.12372329210E+04  0.80093231673E+03 0.  0.
        2    1    3    3  502    0 -0.32072057582E+03  0.20244786408E+03  0.27291723633E+03  0.46725864713E+03  0.25500000920E-02 0. -1.
       -2    1    3    3    0  502  0.32072057582E+03 -0.20244786408E+03  0.67008473870E+03  0.76997427390E+03  0.25500000920E-02 0.  1.
</event>
<event>
 5   0  0.1049780E-02  0.8007722E+03  0.7818609E-02  0.9558900E-01
       -1   -1    0    0    0  501  0.00000000000E+00  0.00000000000E+00  0.11740764819E+04  0.11740764819E+04  0.50400001928E-02 0. -1.
        1   -1    0    0  501    0  0.00000000000E+00  0.00000000000E+00 -0.13654054088E+03  0.13654054097E+03  0.50400001928E-02 0.  1.
    10030    2    1    2    0    0  0.00000000000E+00  0.00000000000E+00  0.10375359410E+04  0.13106170228E+04  0.80077222213E+03 0.  0.
        5    1    3    3  502    0  0.12557615276E+03 -0.32229025332E+03  0.84874123900E+03  0.91652831833E+03  0.46999998093E+01 0.  1.
       -5    1    3    3    0  502 -0.12557615276E+03  0.32229025332E+03  0.18879470198E+03  0.39408870450E+03  0.46999998093E+01 0. -1.
</event>
<event>
 5   0  0.1817089E-02  0.7982112E+03  0.7818609E-02  0.9562610E-01
       -2   -1    0    0    0  501  0.00000000000E+00  0.00000000000E+00  0.28119952049E+03  0.28119952051E+03  0.25500000920E-02 0.  1.
        2   -1    0    0  501    0  0.00000000000E+00  0.00000000000E+00 -0.56644937723E+03  0.56644937724E+03  0.25500000920E-02 0. -1.
    10030    2    1    2    0    0  0.00000000000E+00  0.00000000000E+00 -0.28524985673E+03  0.84764889774E+03  0.79821123337E+03 0.  0.
        2    1    3    3  502    0  0.38902006268E+03  0.56173231644E+02 -0.69103607051E+02  0.39908313625E+03  0.25500000920E-02 0.  1.
       -2    1    3    3    0  502 -0.38902006268E+03 -0.56173231644E+02 -0.21614624968E+03  0.44856576149E+03  0.25500000920E-02 0. -1.
</event>
<event>
 5   0  0.1030323E-02  0.7983689E+03  0.7818609E-02  0.9562381E-01
        1   -1    0    0  501    0  0.00000000000E+00  0.00000000000E+00  0.24004014917E+04  0.24004014917E+04  0.50400001928E-02 0. -1.
       -1   -1    0    0    0  501  0.00000000000E+00  0.00000000000E+00 -0.66383982636E+02  0.66383982827E+02  0.50400001928E-02 0.  1.
    10030    2    1    2    0    0  0.00000000000E+00  0.00000000000E+00  0.23340175091E+04  0.24667854746E+04  0.79836886510E+03 0.  0.
        3    1    3    3  502    0 -0.21416192676E+03 -0.58576550341E+02  0.21920139936E+04  0.22032298794E+04  0.10100000352E+00 0. -1.
       -3    1    3    3    0  502  0.21416192676E+03  0.58576550341E+02  0.14200351547E+03  0.26355559514E+03  0.10100000352E+00 0.  1.
</event>
<event>
 5   0  0.1818665E-02  0.7990292E+03  0.7818609E-02  0.9561423E-01
        2   -1    0    0  501    0  0.00000000000E+00  0.00000000000E+00  0.12679015485E+04  0.12679015485E+04  0.25500000920E-02 0.  1.
       -2   -1    0    0    0  501  0.00000000000E+00  0.00000000000E+00 -0.12588667659E+03  0.12588667662E+03  0.25500000920E-02 0. -1.
    10030    2    1    2    0    0  0.00000000000E+00  0.00000000000E+00  0.11420148719E+04  0.13937882251E+04  0.79902919146E+03 0.  0.
        3    1    3    3  502    0  0.80837879146E+02  0.28969929354E+03  0.10297138552E+04  0.10727399858E+04  0.10100000352E+00 0.  1.
       -3    1    3    3    0  502 -0.80837879146E+02 -0.28969929354E+03  0.11230101667E+03  0.32104823925E+03  0.10100000352E+00 0. -1.
</event>
<event>
 5   0  0.1038912E-02  0.8032549E+03  0.7818609E-02  0.9555318E-01
       -1   -1    0    0    0  501  0.00000000000E+00  0.00000000000E+00  0.53536423288E+03  0.53536423290E+03  0.50400001928E-02 0.  1.
        1   -1    0    0  501    0  0.00000000000E+00  0.00000000000E+00 -0.30129884986E+03  0.30129884990E+03  0.50400001928E-02 0. -1.
    10030    2    1    2    0    0  0.00000000000E+00  0.00000000000E+00  0.23406538302E+03  0.83666308281E+03  0.80325494745E+03 0.  0.
        2    1    3    3  502    0 -0.13017832670E+03  0.35295983699E+02  0.51106865984E+03  0.52856728832E+03  0.25500000920E-02 0.  1.
       -2    1    3    3    0  502  0.13017832670E+03 -0.35295983699E+02 -0.27700327682E+03  0.30809579449E+03  0.25500000920E-02 0. -1.
</event>
<event>
 5   0  0.1025900E-02  0.7933002E+03  0.7818609E-02  0.9569766E-01
        1   -1    0    0  501    0  0.00000000000E+00  0.00000000000E+00  0.82236858636E+03  0.82236858637E+03  0.50400001928E-02 0. -1.
       -1   -1    0    0    0  501  0.00000000000E+00  0.00000000000E+00 -0.19131480168E+03  0.19131480175E+03  0.50400001928E-02 0.  1.
    10030    2    1    2    0    0  0.00000000000E+00  0.00000000000E+00  0.63105378467E+03  0.10136833881E+04  0.79330015266E+03 0.  0.
        1    1    3    3  502    0  0.16658768593E+03 -0.28871566487E+03  0.59024942564E+03  0.67786619383E+03  0.50400001928E-02 0. -1.
       -1    1    3    3    0  502 -0.16658768593E+03  0.28871566487E+03  0.40804359033E+02  0.33581719429E+03  0.50400001928E-02 0.  1.
</event>
<event>
 5   0  0.1817089E-02  0.8095917E+03  0.7818609E-02  0.9546236E-01
       -2   -1    0    0    0  501  0.00000000000E+00  0.00000000000E+00  0.45988611327E+03  0.45988611328E+03  0.25500000920E-02 0. -1.
        2   -1    0    0  501    0  0.00000000000E+00  0.00000000000E+00 -0.35630493486E+03  0.35630493487E+03  0.25500000920E-02 0.  1.
    10030    2    1    2    0    0  0.00000000000E+00  0.00000000000E+00  0.10358117841E+03  0.81619104815E+03  0.80959172832E+03 0.  0.
        2    1    3    3  502    0 -0.32014893590E+03  0.14834657085E+03 -0.14821416499E+03  0.38271331954E+03  0.25500000920E-02 0.  1.
       -2    1    3    3    0  502  0.32014893590E+03 -0.14834657085E+03  0.25179534341E+03  0.43347772862E+03  0.25500000920E-02 0. -1.
</event>
<event>
 5   0  0.1030323E-02  0.8099725E+03  0.7818609E-02  0.9545693E-01
        1   -1    0    0  501    0  0.00000000000E+00  0.00000000000E+00  0.51596396402E+03  0.51596396404E+03  0.50400001928E-02 0.  1.
       -1   -1    0    0    0  501  0.00000000000E+00  0.00000000000E+00 -0.31787852944E+03  0.31787852948E+03  0.50400001928E-02 0. -1.
    10030    2    1    2    0    0  0.00000000000E+00  0.00000000000E+00  0.19808543458E+03  0.83384249352E+03  0.80997250855E+03 0.  0.
        3    1    3    3  502    0  0.22320590026E+03  0.19206702013E+03 -0.18718560062E+03  0.34892559868E+03  0.10100000352E+00 0. -1.
       -3    1    3    3    0  502 -0.22320590026E+03 -0.19206702013E+03  0.38527103520E+03  0.48491689484E+03  0.10100000352E+00 0.  1.
</event>
<event>
 5   0  0.1731337E-02  0.8016409E+03  0.7818609E-02  0.9557645E-01
        2   -1    0    0  501    0  0.00000000000E+00  0.00000000000E+00  0.39082212900E+03  0.39082212901E+03  0.25500000920E-02 0. -1.
       -2   -1    0    0    0  501  0.00000000000E+00  0.00000000000E+00 -0.41107459334E+03  0.41107459335E+03  0.25500000920E-02 0.  1.
    10030    2    1    2    0    0  0.00000000000E+00  0.00000000000E+00 -0.20252464338E+02  0.80189672236E+03  0.80164093647E+03 0.  0.
        4    1    3    3  502    0  0.10845946080E+03 -0.35037023789E+03  0.15158139288E+03  0.39686432165E+03  0.12699999809E+01 0. -1.
       -4    1    3    3    0  502 -0.10845946080E+03  0.35037023789E+03 -0.17183385722E+03  0.40503240071E+03  0.12699999809E+01 0.  1.
</event>
<event>
 5   0  0.1818665E-02  0.7896733E+03  0.7818609E-02  0.9575086E-01
       -2   -1    0    0    0  501  0.00000000000E+00  0.00000000000E+00  0.33045889032E+03  0.33045889033E+03  0.25500000920E-02 0.  1.
        2   -1    0    0  501    0  0.00000000000E+00  0.00000000000E+00 -0.47175603891E+03  0.47175603891E+03  0.25500000920E-02 0. -1.
    10030    2    1    2    0    0  0.00000000000E+00  0.00000000000E+00 -0.14129714859E+03  0.80221492924E+03  0.78967329225E+03 0.  0.
        3    1    3    3  502    0 -0.25674535723E+03 -0.55166354345E+02 -0.37017784909E+03  0.45386468828E+03  0.10100000352E+00 0.  1.
       -3    1    3    3    0  502  0.25674535723E+03  0.55166354345E+02  0.22888070050E+03  0.34835024096E+03  0.10100000352E+00 0. -1.
</event>
<event>
 5   0  0.1673727E-02  0.7694308E+03  0.7818609E-02  0.9605350E-01
       -2   -1    0    0    0  501  0.00000000000E+00  0.00000000000E+00  0.34863068091E+03  0.34863068092E+03  0.25500000920E-02 0.  1.
        2   -1    0    0  501    0  0.00000000000E+00  0.00000000000E+00 -0.42453507291E+03  0.42453507292E+03  0.25500000920E-02 0. -1.
    10030    2    1    2    0    0  0.00000000000E+00  0.00000000000E+00 -0.75904391998E+02  0.77316575384E+03  0.76943083262E+03 0.  0.
        5    1    3    3  502    0 -0.25489308278E+03  0.16007365262E+03 -0.27867675148E+03  0.41021565027E+03  0.46999998093E+01 0. -1.
       -5    1    3    3    0  502  0.25489308278E+03 -0.16007365262E+03  0.20277235948E+03  0.36295010357E+03  0.46999998093E+01 0.  1.
</event>
<event>
 5   0  0.1146083E-02  0.8019276E+03  0.7818609E-02  0.9557231E-01
       -1   -1    0    0    0  501  0.00000000000E+00  0.00000000000E+00  0.32583313003E+03  0.32583313007E+03  0.50400001928E-02 0.  1.
        1   -1    0    0  501    0  0.00000000000E+00  0.00000000000E+00 -0.49341814375E+03  0.49341814378E+03  0.50400001928E-02 0. -1.
    10030    2    1    2    0    0  0.00000000000E+00  0.00000000000E+00 -0.16758501372E+03  0.81925127385E+03  0.80192762322E+03 0.  0.
        4    1    3    3  502    0 -0.25959737344E+03 -0.73827967365E+02 -0.38672650696E+03  0.47159343629E+03  0.12699999809E+01 0. -1.
       -4    1    3    3    0  502  0.25959737344E+03  0.73827967365E+02  0.21914149324E+03  0.34765783756E+03  0.12699999809E+01 0.  1.
</event>
<event>
 5   0  0.1030323E-02  0.7970987E+03  0.7818609E-02  0.9564226E-01
       -1   -1    0    0    0  501  0.00000000000E+00  0.00000000000E+00  0.12669799304E+03  0.12669799314E+03  0.50400001928E-02 0.  1.
        1   -1    0    0  501    0  0.00000000000E+00  0.00000000000E+00 -0.12537025151E+04  0.12537025151E+04  0.50400001928E-02 0. -1.
    10030    2    1    2    0    0  0.00000000000E+00  0.00000000000E+00 -0.11270045220E+04  0.13804005082E+04  0.79709872063E+03 0.  0.
        3    1    3    3  502    0 -0.27798309554E+02  0.29014809209E+02 -0.12501856327E+04  0.12508312163E+04  0.10100000352E+00 0. -1.
       -3    1    3    3    0  502  0.27798309554E+02 -0.29014809209E+02  0.12318111072E+03  0.12956929191E+03  0.10100000352E+00 0.  1.
</event>
<event>
 5   0  0.1049780E-02  0.7719845E+03  0.7818609E-02  0.9601478E-01
        1   -1    0    0  501    0  0.00000000000E+00  0.00000000000E+00  0.82081581766E+03  0.82081581768E+03  0.50400001928E-02 0.  1.
       -1   -1    0    0    0  501  0.00000000000E+00  0.00000000000E+00 -0.18151453087E+03  0.18151453094E+03  0.50400001928E-02 0. -1.
    10030    2    1    2    0    0  0.00000000000E+00  0.00000000000E+00  0.63930128679E+03  0.10023303486E+04  0.77198445093E+03 0.  0.
        5    1    3    3  502    0 -0.96049681123E+01  0.26783197818E+03  0.68026821563E+03  0.73117245513E+03  0.46999998093E+01 0.  1.
       -5    1    3    3    0  502  0.96049681123E+01 -0.26783197818E+03 -0.40966928841E+02  0.27115789349E+03  0.46999998093E+01 0. -1.
</event>
<event>
 5   0  0.1731337E-02  0.7962363E+03  0.7818609E-02  0.9565481E-01
        2   -1    0    0  501    0  0.00000000000E+00  0.00000000000E+00  0.26582070227E+03  0.26582070229E+03  0.25500000920E-02 0. -1.
       -2   -1    0    0    0  501  0.00000000000E+00  0.00000000000E+00 -0.59625934000E+03  0.59625934001E+03  0.25500000920E-02 0.  1.
    10030    2    1    2    0    0  0.00000000000E+00  0.00000000000E+00 -0.33043863773E+03  0.86208004230E+03  0.79623633804E+03 0.  0.
        4    1    3    3  502    0  0.31809678686E+03  0.22634935551E+03 -0.24961990543E+03  0.46339109469E+03  0.12699999809E+01 0.  1.
       -4    1    3    3    0  502 -0.31809678686E+03 -0.22634935551E+03 -0.80818732306E+02  0.39868894761E+03  0.12699999809E+01 0. -1.
</event>
<event>
 5   0  0.1747544E-02  0.8056126E+03  0.7818609E-02  0.9551928E-01
        2   -1    0    0  501    0  0.00000000000E+00  0.00000000000E+00  0.16242304677E+04  0.16242304677E+04  0.25500000920E-02 0. -1.
       -2   -1    0    0    0  501  0.00000000000E+00  0.00000000000E+00 -0.99895247477E+02  0.99895247510E+02  0.25500000920E-02 0.  1.
    10030    2    1    2    0    0  0.00000000000E+00  0.00000000000E+00  0.15243352202E+04  0.17241257152E+04  0.80561257329E+03 0.  0.
        1    1    3    3  502    0  0.93637000685E+02 -0.27920636889E+03  0.17400279049E+03  0.34205417034E+03  0.50400001928E-02 0.  1.
       -1    1    3    3    0  502 -0.93637000685E+02  0.27920636889E+03  0.13503324297E+04  0.13820715449E+04  0.50400001928E-02 0. -1.
</event>
<event>
 5   0  0.1673727E-02  0.8015312E+03  0.7818609E-02  0.9557803E-01
       -2   -1    0    0    0  501  0.00000000000E+00  0.00000000000E+00  0.32819603153E+03  0.32819603154E+03  0.25500000920E-02 0.  1.
        2   -1    0    0  501    0  0.00000000000E+00  0.00000000000E+00 -0.48938154085E+03  0.48938154085E+03  0.25500000920E-02 0. -1.
    10030    2    1    2    0    0  0.00000000000E+00  0.00000000000E+00 -0.16118550932E+03  0.81757757239E+03  0.80153123362E+03 0.  0.
        5    1    3    3  502    0 -0.27380670411E+03 -0.29006508397E+03 -0.41310404344E+02  0.40104426646E+03  0.46999998093E+01 0.  1.
       -5    1    3    3    0  502  0.27380670411E+03  0.29006508397E+03 -0.11987510498E+03  0.41653330593E+03  0.46999998093E+01 0. -1.
</event>
<event>
 5   0  0.1731337E-02  0.8057354E+03  0.7818609E-02  0.9551752E-01
        2   -1    0    0  501    0  0.00000000000E+00  0.00000000000E+00  0.68928092931E+03  0.68928092931E+03  0.25500000920E-02 0.  1.
       -2   -1    0    0    0  501  0.00000000000E+00  0.00000000000E+00 -0.23546622536E+03  0.23546622538E+03  0.25500000920E-02 0. -1.
    10030    2    1    2    0    0  0.00000000000E+00  0.00000000000E+00  0.45381470394E+03  0.92474715469E+03  0.80573538745E+03 0.  0.
        4    1    3    3  502    0  0.16174907809E+03  0.27181569199E+03 -0.59454394440E+02  0.32184308692E+03  0.12699999809E+01 0. -1.
       -4    1    3    3    0  502 -0.16174907809E+03 -0.27181569199E+03  0.51326909838E+03  0.60290406777E+03  0.12699999809E+01 0.  1.
</event>
<event>
 5   0  0.1817089E-02  0.8048985E+03  0.7818609E-02  0.9552954E-01
       -2   -1    0    0    0  501  0.00000000000E+00  0.00000000000E+00  0.35235948225E+03  0.35235948226E+03  0.25500000920E-02 0.  1.
        2   -1    0    0  501    0  0.00000000000E+00  0.00000000000E+00 -0.45965950496E+03  0.45965950496E+03  0.25500000920E-02 0. -1.
    10030    2    1    2    0    0  0.00000000000E+00  0.00000000000E+00 -0.10730002271E+03  0.81201898722E+03  0.80489846610E+03 0.  0.
        2    1    3    3  502    0  0.17634573268E+03  0.25312217538E+03 -0.31438702829E+03  0.44046322964E+03  0.25500000920E-02 0. -1.
       -2    1    3    3    0  502 -0.17634573268E+03 -0.25312217538E+03  0.20708700558E+03  0.37155575758E+03  0.25500000920E-02 0.  1.
</event>
<event>
 5   0  0.1673727E-02  0.7846659E+03  0.7818609E-02  0.9582482E-01
        2   -1    0    0  501    0  0.00000000000E+00  0.00000000000E+00  0.20143749779E+04  0.20143749779E+04  0.25500000920E-02 0. -1.
       -2   -1    0    0    0  501  0.00000000000E+00  0.00000000000E+00 -0.76413353521E+02  0.76413353564E+02  0.25500000920E-02 0.  1.
    10030    2    1    2    0    0  0.00000000000E+00  0.00000000000E+00  0.19379616243E+04  0.20907883314E+04  0.78466590943E+03 0.  0.
        5    1    3    3  502    0  0.23416346364E+01 -0.27957062185E+03  0.23568071111E+03  0.36569482283E+03  0.46999998093E+01 0.  1.
       -5    1    3    3    0  502 -0.23416346364E+01  0.27957062185E+03  0.17022809132E+04  0.17250935086E+04  0.46999998093E+01 0. -1.
</event>
<event>
 5   0  0.1673727E-02  0.7338517E+03  0.7818609E-02  0.9661031E-01
       -2   -1    0    0    0  501  0.00000000000E+00  0.00000000000E+00  0.31251608118E+03  0.31251608119E+03  0.25500000920E-02 0.  1.
        2   -1    0    0  501    0  0.00000000000E+00  0.00000000000E+00 -0.43080848471E+03  0.43080848471E+03  0.25500000920E-02 0. -1.
    10030    2    1    2    0    0  0.00000000000E+00  0.00000000000E+00 -0.11829240353E+03  0.74332456590E+03  0.73385169997E+03 0.  0.
        5    1    3    3  502    0 -0.14061530978E+03 -0.26275251520E+03  0.15762789037E+03  0.33716493205E+03  0.46999998093E+01 0.  1.
       -5    1    3    3    0  502  0.14061530978E+03  0.26275251520E+03 -0.27592029389E+03  0.40615963385E+03  0.46999998093E+01 0. -1.
</event>
<event>
 5   0  0.1038912E-02  0.7980748E+03  0.7818609E-02  0.9562808E-01
       -1   -1    0    0    0  501  0.00000000000E+00  0.00000000000E+00  0.12701614769E+03  0.12701614779E+03  0.50400001928E-02 0.  1.
        1   -1    0    0  501    0  0.00000000000E+00  0.00000000000E+00 -0.12536266770E+04  0.12536266770E+04  0.50400001928E-02 0. -1.
    10030    2    1    2    0    0  0.00000000000E+00  0.00000000000E+00 -0.11266105293E+04  0.13806428248E+04  0.79807476149E+03 0.  0.
        2    1    3    3  502    0  0.25347791906E+02  0.20589687928E+03 -0.11530052295E+04  0.11715191397E+04  0.25500000920E-02 0. -1.
       -2    1    3    3    0  502 -0.25347791906E+02 -0.20589687928E+03  0.26394700215E+02  0.20912368507E+03  0.25500000920E-02 0.  1.
</event>
<event>
 5   0  0.1038912E-02  0.8130943E+03  0.7818609E-02  0.9541255E-01
       -1   -1    0    0    0  501  0.00000000000E+00  0.00000000000E+00  0.41777757331E+03  0.41777757334E+03  0.50400001928E-02 0. -1.
        1   -1    0    0  501    0  0.00000000000E+00  0.00000000000E+00 -0.39561862237E+03  0.39561862240E+03  0.50400001928E-02 0.  1.
    10030    2    1    2    0    0  0.00000000000E+00  0.00000000000E+00  0.22158950943E+02  0.81339619574E+03  0.81309430704E+03 0.  0.
        2    1    3    3  502    0  0.27721295222E+03  0.83862726040E+02 -0.27433437668E+03  0.39892270922E+03  0.25500000920E-02 0.  1.
       -2    1    3    3    0  502 -0.27721295222E+03 -0.83862726040E+02  0.29649332763E+03  0.41447348652E+03  0.25500000920E-02 0. -1.
</event>
<event>
 5   0  0.6872500E-03  0.7920681E+03  0.7818609E-02  0.9571570E-01
       -4   -1    0    0    0  501  0.00000000000E+00  0.00000000000E+00  0.33803249368E+03  0.33803487939E+03  0.12699999809E+01 0. -1.
        4   -1    0    0  501    0  0.00000000000E+00  0.00000000000E+00 -0.46398292498E+03  0.46398466308E+03  0.12699999809E+01 0.  1.
    10030    2    1    2    0    0  0.00000000000E+00  0.00000000000E+00 -0.12595043130E+03  0.80201954247E+03  0.79206807495E+03 0.  0.
        1    1    3    3  502    0  0.34349512563E+03  0.19487946101E+03 -0.92945279662E+02  0.40571631801E+03  0.50400001928E-02 0. -1.
       -1    1    3    3    0  502 -0.34349512563E+03 -0.19487946101E+03 -0.33005151635E+02  0.39630322446E+03  0.50400001928E-02 0.  1.
</event>
<event>
 5   0  0.1049780E-02  0.7978542E+03  0.7818609E-02  0.9563128E-01
       -1   -1    0    0    0  501  0.00000000000E+00  0.00000000000E+00  0.17584561865E+03  0.17584561872E+03  0.50400001928E-02 0. -1.
        1   -1    0    0  501    0  0.00000000000E+00  0.00000000000E+00 -0.90501454487E+03  0.90501454488E+03  0.50400001928E-02 0.  1.
    10030    2    1    2    0    0  0.00000000000E+00  0.00000000000E+00 -0.72916892621E+03  0.10808601636E+04  0.79785422874E+03 0.  0.
        5    1    3    3  502    0  0.22083443594E+03 -0.18726303336E+03 -0.73629212745E+03  0.79119117709E+03  0.46999998093E+01 0.  1.
       -5    1    3    3    0  502 -0.22083443594E+03  0.18726303336E+03  0.71232012352E+01  0.28966898652E+03  0.46999998093E+01 0. -1.
</event>
<event>
 5   0  0.1818665E-02  0.8008423E+03  0.7818609E-02  0.9558799E-01
       -2   -1    0    0    0  501  0.00000000000E+00  0.00000000000E+00  0.12389321289E+03  0.12389321292E+03  0.25500000920E-02 0.  1.
        2   -1    0    0  501    0  0.00000000000E+00  0.00000000000E+00 -0.12941555811E+04  0.12941555811E+04  0.25500000920E-02 0. -1.
    10030    2    1    2    0    0  0.00000000000E+00  0.00000000000E+00 -0.11702623682E+04  0.14180487940E+04  0.80084228896E+03 0.  0.
        3    1    3    3  502    0 -0.29221396750E+03 -0.41277719704E+02 -0.10643467152E+04  0.11045029622E+04  0.10100000352E+00 0. -1.
       -3    1    3    3    0  502  0.29221396750E+03  0.41277719704E+02 -0.10591565298E+03  0.31354583189E+03  0.10100000352E+00 0.  1.
</event>
<event>
 5   0  0.1025900E-02  0.7989810E+03  0.7818609E-02  0.9561493E-01
        1   -1    0    0  501    0  0.00000000000E+00  0.00000000000E+00  0.13541294483E+04  0.13541294483E+04  0.50400001928E-02 0.  1.
       -1   -1    0    0    0  501  0.00000000000E+00  0.00000000000E+00 -0.11785628523E+03  0.11785628534E+03  0.50400001928E-02 0. -1.
    10030    2    1    2    0    0  0.00000000000E+00  0.00000000000E+00  0.12362731630E+04  0.14719857336E+04  0.79898101749E+03 0.  0.
        1    1    3    3  502    0 -0.29267491435E+03 -0.97320182445E+02  0.15037788812E+03  0.34313748362E+03  0.50400001928E-02 0. -1.
       -1    1    3    3    0  502  0.29267491435E+03  0.97320182445E+02  0.10858952749E+04  0.11288482500E+04  0.50400001928E-02 0.  1.
</event>
<event>
 5   0  0.1038912E-02  0.7947166E+03  0.7818609E-02  0.9567696E-01
        1   -1    0    0  501    0  0.00000000000E+00  0.00000000000E+00  0.75447297017E+03  0.75447297019E+03  0.50400001928E-02 0.  1.
       -1   -1    0    0    0  501  0.00000000000E+00  0.00000000000E+00 -0.20927671299E+03  0.20927671305E+03  0.50400001928E-02 0. -1.
    10030    2    1    2    0    0  0.00000000000E+00  0.00000000000E+00  0.54519625718E+03  0.96374968323E+03  0.79471661181E+03 0.  0.
        2    1    3    3  502    0 -0.20676942688E+03 -0.33831912852E+03  0.24097035917E+03  0.46398291199E+03  0.25500000920E-02 0.  1.
       -2    1    3    3    0  502  0.20676942688E+03  0.33831912852E+03  0.30422589802E+03  0.49976677125E+03  0.25500000920E-02 0. -1.
</event>
<event>
 5   0  0.1049780E-02  0.8041029E+03  0.7818609E-02  0.9554097E-01
        1   -1    0    0  501    0  0.00000000000E+00  0.00000000000E+00  0.21047307903E+03  0.21047307909E+03  0.50400001928E-02 0. -1.
       -1   -1    0    0    0  501  0.00000000000E+00  0.00000000000E+00 -0.76800962481E+03  0.76800962483E+03  0.50400001928E-02 0.  1.
    10030    2    1    2    0    0  0.00000000000E+00  0.00000000000E+00 -0.55753654578E+03  0.97848270391E+03  0.80410285534E+03 0.  0.
        5    1    3    3  502    0  0.40518433751E+02 -0.39991356768E+03 -0.27010754402E+03  0.48430649430E+03  0.46999998093E+01 0. -1.
       -5    1    3    3    0  502 -0.40518433751E+02  0.39991356768E+03 -0.28742900176E+03  0.49417620961E+03  0.46999998093E+01 0.  1.
</event>
<event>
 5   0  0.1817089E-02  0.8002524E+03  0.7818609E-02  0.9559652E-01
        2   -1    0    0  501    0  0.00000000000E+00  0.00000000000E+00  0.88839895183E+03  0.88839895183E+03  0.25500000920E-02 0.  1.
       -2   -1    0    0    0  501  0.00000000000E+00  0.00000000000E+00 -0.18021293879E+03  0.18021293881E+03  0.25500000920E-02 0. -1.
    10030    2    1    2    0    0  0.00000000000E+00  0.00000000000E+00  0.70818601304E+03  0.10686118906E+04  0.80025242502E+03 0.  0.
        2    1    3    3  502    0  0.39844325419E+03  0.35416687552E+02  0.36673422899E+03  0.54268348352E+03  0.25500000920E-02 0.  1.
       -2    1    3    3    0  502 -0.39844325419E+03 -0.35416687552E+02  0.34145178405E+03  0.52592840711E+03  0.25500000920E-02 0. -1.
</event>
<event>
 5   0  0.1731337E-02  0.7906894E+03  0.7818609E-02  0.9573592E-01
       -2   -1    0    0    0  501  0.00000000000E+00  0.00000000000E+00  0.14117744997E+03  0.14117745000E+03  0.25500000920E-02 0. -1.
        2   -1    0    0  501    0  0.00000000000E+00  0.00000000000E+00 -0.11070990910E+04  0.11070990910E+04  0.25500000920E-02 0.  1.
    10030    2    1    2    0    0  0.00000000000E+00  0.00000000000E+00 -0.96592164101E+03  0.12482765410E+04  0.79068938667E+03 0.  0.
        4    1    3    3  502    0 -0.44332072196E+01 -0.35376820222E+03 -0.76147937573E+03  0.83965710072E+03  0.12699999809E+01 0.  1.
       -4    1    3    3    0  502  0.44332072196E+01  0.35376820222E+03 -0.20444226528E+03  0.40861944027E+03  0.12699999809E+01 0. -1.
</event>
<event>
 5   0  0.1030323E-02  0.7997661E+03  0.7818609E-02  0.9560356E-01
       -1   -1    0    0    0  501  0.00000000000E+00  0.00000000000E+00  0.37324449743E+03  0.37324449746E+03  0.50400001928E-02 0.  1.
        1   -1    0    0  501    0  0.00000000000E+00  0.00000000000E+00 -0.42842278067E+03  0.42842278070E+03  0.50400001928E-02 0. -1.
    10030    2    1    2    0    0  0.00000000000E+00  0.00000000000E+00 -0.55178283244E+02  0.80166727816E+03  0.79976607951E+03 0.  0.
        3    1    3    3  502    0  0.28875520900E+02 -0.24914160011E+03  0.28460123554E+03  0.37934576060E+03  0.10100000352E+00 0.  1.
       -3    1    3    3    0  502 -0.28875520900E+02  0.24914160011E+03 -0.33977951878E+03  0.42232151756E+03  0.10100000352E+00 0. -1.
</event>
<event>
 5   0  0.1817089E-02  0.7964362E+03  0.7818609E-02  0.9565190E-01
        2   -1    0    0  501    0  0.00000000000E+00  0.00000000000E+00  0.20949439276E+04  0.20949439276E+04  0.25500000920E-02 0. -1.
       -2   -1    0    0    0  501  0.00000000000E+00  0.00000000000E+00 -0.75695426071E+02  0.75695426114E+02  0.25500000920E-02 0.  1.
    10030    2    1    2    0    0  0.00000000000E+00  0.00000000000E+00  0.20192485016E+04  0.21706393537E+04  0.79643624540E+03 0.  0.
        2    1    3    3  502    0  0.11838378354E+02 -0.46087714813E+02 -0.67919291407E+02  0.82929215663E+02  0.25500000920E-02 0.  1.
       -2    1    3    3    0  502 -0.11838378354E+02  0.46087714813E+02  0.20871677930E+04  0.20877101381E+04  0.25500000920E-02 0. -1.
</event>
<event>
 5   0  0.1049780E-02  0.8002169E+03  0.7818609E-02  0.9559703E-01
        1   -1    0    0  501    0  0.00000000000E+00  0.00000000000E+00  0.20092072871E+03  0.20092072877E+03  0.50400001928E-02 0.  1.
       -1   -1    0    0    0  501  0.00000000000E+00  0.00000000000E+00 -0.79676588450E+03  0.79676588452E+03  0.50400001928E-02 0. -1.
    10030    2    1    2    0    0  0.00000000000E+00  0.00000000000E+00 -0.59584515579E+03  0.99768661329E+03  0.80021692600E+03 0.  0.
        5    1    3    3  502    0 -0.15876454931E+03 -0.30306561174E+03 -0.55648764245E+03  0.65326528557E+03  0.46999998093E+01 0. -1.
       -5    1    3    3    0  502  0.15876454931E+03  0.30306561174E+03 -0.39357513346E+02  0.34442132772E+03  0.46999998093E+01 0.  1.
</event>
<event>
 5   0  0.6872500E-03  0.7986647E+03  0.7818609E-02  0.9561952E-01
        3   -1    0    0  501    0  0.00000000000E+00  0.00000000000E+00  0.61773892030E+03  0.61773892856E+03  0.10100000352E+00 0.  1.
       -3   -1    0    0    0  501  0.00000000000E+00  0.00000000000E+00 -0.25814516522E+03  0.25814518498E+03  0.10100000352E+00 0. -1.
    10030    2    1    2    0    0  0.00000000000E+00  0.00000000000E+00  0.35959375508E+03  0.87588411353E+03  0.79866470539E+03 0.  0.
        1    1    3    3  502    0 -0.58191158960E+02  0.11223744369E+03  0.59521189179E+03  0.60849046903E+03  0.50400001928E-02 0.  1.
       -1    1    3    3    0  502  0.58191158960E+02 -0.11223744369E+03 -0.23561813671E+03  0.26739364450E+03  0.50400001928E-02 0. -1.
</event>
<event>
 5   0  0.1146083E-02  0.7968912E+03  0.7818609E-02  0.9564528E-01
        1   -1    0    0  501    0  0.00000000000E+00  0.00000000000E+00  0.23962980013E+03  0.23962980019E+03  0.50400001928E-02 0. -1.
       -1   -1    0    0    0  501  0.00000000000E+00  0.00000000000E+00 -0.66251734618E+03  0.66251734620E+03  0.50400001928E-02 0.  1.
    10030    2    1    2    0    0  0.00000000000E+00  0.00000000000E+00 -0.42288754604E+03  0.90214714638E+03  0.79689120784E+03 0.  0.
        4    1    3    3  502    0  0.76050196287E+02 -0.31367691357E+03 -0.47592624306E+03  0.57505151091E+03  0.12699999809E+01 0.  1.
       -4    1    3    3    0  502 -0.76050196287E+02  0.31367691357E+03  0.53038697020E+02  0.32709563547E+03  0.12699999809E+01 0. -1.
</event>
<event>
 5   0  0.1038912E-02  0.7908640E+03  0.7818609E-02  0.9573336E-01
       -1   -1    0    0    0  501  0.00000000000E+00  0.00000000000E+00  0.13282990100E+03  0.13282990109E+03  0.50400001928E-02 0. -1.
        1   -1    0    0  501    0  0.00000000000E+00  0.00000000000E+00 -0.11771933877E+04  0.11771933877E+04  0.50400001928E-02 0.  1.
    10030    2    1    2    0    0  0.00000000000E+00  0.00000000000E+00 -0.10443634867E+04  0.13100232888E+04  0.79086403689E+03 0.  0.
        2    1    3    3  502    0  0.27263621412E+03  0.24883152121E+02 -0.49537670445E+02  0.27821512775E+03  0.25500000920E-02 0. -1.
       -2    1    3    3    0  502 -0.27263621412E+03 -0.24883152121E+02 -0.99482581627E+03  0.10318081611E+04  0.25500000920E-02 0.  1.
</event>
<event>
 5   0  0.1049780E-02  0.8017120E+03  0.7818609E-02  0.9557542E-01
       -1   -1    0    0    0  501  0.00000000000E+00  0.00000000000E+00  0.13488518621E+03  0.13488518631E+03  0.50400001928E-02 0. -1.
        1   -1    0    0  501    0  0.00000000000E+00  0.00000000000E+00 -0.11912762565E+04  0.11912762565E+04  0.50400001928E-02 0.  1.
    10030    2    1    2    0    0  0.00000000000E+00  0.00000000000E+00 -0.10563910703E+04  0.13261614428E+04  0.80171196761E+03 0.  0.
        5    1    3    3  502    0 -0.20951131788E+02  0.28882043405E+03 -0.69759127434E+02  0.29790035063E+03  0.46999998093E+01 0. -1.
       -5    1    3    3    0  502  0.20951131788E+02 -0.28882043405E+03 -0.98663194282E+03  0.10282610922E+04  0.46999998093E+01 0.  1.
</event>
<event>
 5   0  0.1025900E-02  0.8050711E+03  0.7818609E-02  0.9552706E-01
       -1   -1    0    0    0  501  0.00000000000E+00  0.00000000000E+00  0.13713203940E+03  0.13713203949E+03  0.50400001928E-02 0.  1.
        1   -1    0    0  501    0  0.00000000000E+00  0.00000000000E+00 -0.11815973149E+04  0.11815973149E+04  0.50400001928E-02 0. -1.
    10030    2    1    2    0    0  0.00000000000E+00  0.00000000000E+00 -0.10444652755E+04  0.13187293544E+04  0.80507105180E+03 0.  0.
        1    1    3    3  502    0 -0.33706213246E+03 -0.18422300734E+03 -0.32508413427E+03  0.50321833427E+03  0.50400001928E-02 0. -1.
       -1    1    3    3    0  502  0.33706213246E+03  0.18422300734E+03 -0.71938114122E+03  0.81551102012E+03  0.50400001928E-02 0.  1.
</event>
<event>
 5   0  0.1818665E-02  0.8032937E+03  0.7818609E-02  0.9555262E-01
       -2   -1    0    0    0  501  0.00000000000E+00  0.00000000000E+00  0.16857494117E+03  0.16857494119E+03  0.25500000920E-02 0.  1.
        2   -1    0    0  501    0  0.00000000000E+00  0.00000000000E+00 -0.95696428303E+03  0.95696428303E+03  0.25500000920E-02 0. -1.
    10030    2    1    2    0    0  0.00000000000E+00  0.00000000000E+00 -0.78838934186E+03  0.11255392242E+04  0.80329371397E+03 0.  0.
        3    1    3    3  502    0 -0.74507277005E+02 -0.10685680686E+03 -0.92654236372E+03  0.93565510390E+03  0.10100000352E+00 0. -1.
       -3    1    3    3    0  502  0.74507277005E+02  0.10685680686E+03  0.13815302186E+03  0.18988412032E+03  0.10100000352E+00 0.  1.
</event>
<event>
 5   0  0.1818665E-02  0.8033979E+03  0.7818609E-02  0.9555112E-01
        2   -1    0    0  501    0  0.00000000000E+00  0.00000000000E+00  0.16535236784E+04  0.16535236784E+04  0.25500000920E-02 0.  1.
       -2   -1    0    0    0  501  0.00000000000E+00  0.00000000000E+00 -0.97586778122E+02  0.97586778156E+02  0.25500000920E-02 0. -1.
    10030    2    1    2    0    0  0.00000000000E+00  0.00000000000E+00  0.15559369003E+04  0.17511104566E+04  0.80339790480E+03 0.  0.
        3    1    3    3  502    0 -0.40115077534E+02 -0.61844988533E+02 -0.82717915518E+02  0.11079840162E+03  0.10100000352E+00 0. -1.
       -3    1    3    3    0  502  0.40115077534E+02  0.61844988533E+02  0.16386548158E+04  0.16403120550E+04  0.10100000352E+00 0.  1.
</event>
<event>
 5   0  0.1049780E-02  0.8078642E+03  0.7818609E-02  0.9548703E-01
       -1   -1    0    0    0  501  0.00000000000E+00  0.00000000000E+00  0.63231531241E+03  0.63231531243E+03  0.50400001928E-02 0. -1.
        1   -1    0    0  501    0  0.00000000000E+00  0.00000000000E+00 -0.25803759980E+03  0.25803759985E+03  0.50400001928E-02 0.  1.
    10030    2    1    2    0    0  0.00000000000E+00  0.00000000000E+00  0.37427771261E+03  0.89035291228E+03  0.80786416076E+03 0.  0.
        5    1    3    3  502    0 -0.23257418610E+03  0.32527912225E+03  0.12438862180E+03  0.41879813591E+03  0.46999998093E+01 0. -1.
       -5    1    3    3    0  502  0.23257418610E+03 -0.32527912225E+03  0.24988909081E+03  0.47155477637E+03  0.46999998093E+01 0.  1.
</event>
<event>
 5   0  0.1030323E-02  0.8008944E+03  0.7818609E-02  0.9558723E-01
        1   -1    0    0  501    0  0.00000000000E+00  0.00000000000E+00  0.66698919950E+03  0.66698919952E+03  0.50400001928E-02 0. -1.
       -1   -1    0    0    0  501  0.00000000000E+00  0.00000000000E+00 -0.24042064481E+03  0.24042064486E+03  0.50400001928E-02 0.  1.
    10030    2    1    2    0    0  0.00000000000E+00  0.00000000000E+00  0.42656855469E+03  0.90740984438E+03  0.80089443364E+03 0.  0.
        3    1    3    3  502    0  0.55520528391E+02  0.27800587585E+03 -0.10715156204E+03  0.30306973377E+03  0.10100000352E+00 0.  1.
       -3    1    3    3    0  502 -0.55520528391E+02 -0.27800587585E+03  0.53372011674E+03  0.60434011061E+03  0.10100000352E+00 0. -1.
</event>
<event>
 5   0  0.1030323E-02  0.8018668E+03  0.7818609E-02  0.9557319E-01
       -1   -1    0    0    0  501  0.00000000000E+00  0.00000000000E+00  0.22986216870E+03  0.22986216876E+03  0.50400001928E-02 0. -1.
        1   -1    0    0  501    0  0.00000000000E+00  0.00000000000E+00 -0.69932168771E+03  0.69932168773E+03  0.50400001928E-02 0.  1.
    10030    2    1    2    0    0  0.00000000000E+00  0.00000000000E+00 -0.46945951901E+03  0.92918385649E+03  0.80186682134E+03 0.  0.
        3    1    3    3  502    0  0.31889047217E+03 -0.19073451552E+02  0.46001844576E+02  0.32275549523E+03  0.10100000352E+00 0. -1.
       -3    1    3    3    0  502 -0.31889047217E+03  0.19073451552E+02 -0.51546136359E+03  0.60642836127E+03  0.10100000352E+00 0.  1.
</event>
<event>
 5   0  0.1817089E-02  0.7248788E+03  0.7818609E-02  0.9675607E-01
        2   -1    0    0  501    0  0.00000000000E+00  0.00000000000E+00  0.11237299317E+04  0.11237299317E+04  0.25500000920E-02 0. -1.
       -2   -1    0    0    0  501  0.00000000000E+00  0.00000000000E+00 -0.11689846678E+03  0.11689846681E+03  0.25500000920E-02 0.  1.
    10030    2    1    2    0    0  0.00000000000E+00  0.00000000000E+00  0.10068314649E+04  0.12406283985E+04  0.72487876535E+03 0.  0.
        2    1    3    3  502    0  0.30073581224E+03  0.13270864164E+03  0.76471326497E+03  0.83237010395E+03  0.25500000920E-02 0. -1.
       -2    1    3    3    0  502 -0.30073581224E+03 -0.13270864164E+03  0.24211819997E+03  0.40825829458E+03  0.25500000920E-02 0.  1.
</event>
<event>
 5   0  0.1817089E-02  0.7979747E+03  0.7818609E-02  0.9562953E-01
        2   -1    0    0  501    0  0.00000000000E+00  0.00000000000E+00  0.26162983177E+03  0.26162983178E+03  0.25500000920E-02 0.  1.
       -2   -1    0    0    0  501  0.00000000000E+00  0.00000000000E+00 -0.60845860363E+03  0.60845860363E+03  0.25500000920E-02 0. -1.
    10030    2    1    2    0    0  0.00000000000E+00  0.00000000000E+00 -0.34682877186E+03  0.87008843541E+03  0.79797474173E+03 0.  0.
        2    1    3    3  502    0  0.29754651727E+03 -0.26407978013E+03 -0.14036226207E+03  0.42186920347E+03  0.25500000920E-02 0. -1.
       -2    1    3    3    0  502 -0.29754651727E+03  0.26407978013E+03 -0.20646650979E+03  0.44821923194E+03  0.25500000920E-02 0.  1.
</event>
<event>
 5   0  0.1146083E-02  0.7981248E+03  0.7818609E-02  0.9562735E-01
        1   -1    0    0  501    0  0.00000000000E+00  0.00000000000E+00  0.20203575125E+03  0.20203575131E+03  0.50400001928E-02 0. -1.
       -1   -1    0    0    0  501  0.00000000000E+00  0.00000000000E+00 -0.78823075556E+03  0.78823075558E+03  0.50400001928E-02 0.  1.
    10030    2    1    2    0    0  0.00000000000E+00  0.00000000000E+00 -0.58619500431E+03  0.99026650688E+03  0.79812478446E+03 0.  0.
        4    1    3    3  502    0  0.16620788008E+03 -0.12464696975E+03 -0.71583771464E+03  0.74537720187E+03  0.12699999809E+01 0. -1.
       -4    1    3    3    0  502 -0.16620788008E+03  0.12464696975E+03  0.12964271032E+03  0.24488930501E+03  0.12699999809E+01 0.  1.
</event>
<event>
 5   0  0.1747544E-02  0.7982251E+03  0.7818609E-02  0.9562590E-01
        2   -1    0    0  501    0  0.00000000000E+00  0.00000000000E+00  0.40634959302E+03  0.40634959303E+03  0.25500000920E-02 0.  1.
       -2   -1    0    0    0  501  0.00000000000E+00  0.00000000000E+00 -0.39200439871E+03  0.39200439872E+03  0.25500000920E-02 0. -1.
    10030    2    1    2    0    0  0.00000000000E+00  0.00000000000E+00  0.14345194312E+02  0.79835399175E+03  0.79822510080E+03 0.  0.
        1    1    3    3  502    0  0.29491746265E+03 -0.10831511120E+03  0.25334717149E+03  0.40360037465E+03  0.50400001928E-02 0.  1.
       -1    1    3    3    0  502 -0.29491746265E+03  0.10831511120E+03 -0.23900197717E+03  0.39475361710E+03  0.50400001928E-02 0. -1.
</event>
<event>
 5   0  0.6872500E-03  0.7435691E+03  0.7818609E-02  0.9645494E-01
       -3   -1    0    0    0  501  0.00000000000E+00  0.00000000000E+00  0.73092872749E+03  0.73092873447E+03  0.10100000352E+00 0. -1.
        3   -1    0    0  501    0  0.00000000000E+00  0.00000000000E+00 -0.18910699270E+03  0.18910701967E+03  0.10100000352E+00 0.  1.
    10030    2    1    2    0    0  0.00000000000E+00  0.00000000000E+00  0.54182173479E+03  0.92003575414E+03  0.74356909337E+03 0.  0.
        4    1    3    3  502    0  0.34668853808E+03 -0.73520858397E+02  0.13189007621E+03  0.37814661727E+03  0.12699999809E+01 0.  1.
       -4    1    3    3    0  502 -0.34668853808E+03  0.73520858397E+02  0.40993165858E+03  0.54188913687E+03  0.12699999809E+01 0. -1.
</event>
<event>
 5   0  0.1673727E-02  0.8094969E+03  0.7818609E-02  0.9546372E-01
        2   -1    0    0  501    0  0.00000000000E+00  0.00000000000E+00  0.96896361277E+03  0.96896361278E+03  0.25500000920E-02 0. -1.
       -2   -1    0    0    0  501  0.00000000000E+00  0.00000000000E+00 -0.16906859654E+03  0.16906859656E+03  0.25500000920E-02 0.  1.
    10030    2    1    2    0    0  0.00000000000E+00  0.00000000000E+00  0.79989501624E+03  0.11380322093E+04  0.80949692555E+03 0.  0.
        5    1    3    3  502    0 -0.46718753047E+02 -0.23892837742E+03  0.85447425507E+03  0.88849184239E+03  0.46999998093E+01 0. -1.
       -5    1    3    3    0  502  0.46718753047E+02  0.23892837742E+03 -0.54579238832E+02  0.24954036694E+03  0.46999998093E+01 0.  1.
</event>
<event>
 5   0  0.1673727E-02  0.7943655E+03  0.7818609E-02  0.9568209E-01
       -2   -1    0    0    0  501  0.00000000000E+00  0.00000000000E+00  0.55343520841E+02  0.55343520900E+02  0.25500000920E-02 0.  1.
        2   -1    0    0  501    0  0.00000000000E+00  0.00000000000E+00 -0.28504537430E+04  0.28504537430E+04  0.25500000920E-02 0. -1.
    10030    2    1    2    0    0  0.00000000000E+00  0.00000000000E+00 -0.27951102221E+04  0.29057972639E+04  0.79436552346E+03 0.  0.
        5    1    3    3  502    0  0.17418431052E+02  0.36022482963E+02 -0.28429600793E+04  0.28432455265E+04  0.46999998093E+01 0. -1.
       -5    1    3    3    0  502 -0.17418431052E+02 -0.36022482963E+02  0.47849857214E+02  0.62551737407E+02  0.46999998093E+01 0.  1.
</event>
<event>
 5   0  0.1817089E-02  0.8050961E+03  0.7818609E-02  0.9552670E-01
       -2   -1    0    0    0  501  0.00000000000E+00  0.00000000000E+00  0.50491270109E+02  0.50491270173E+02  0.25500000920E-02 0.  1.
        2   -1    0    0  501    0  0.00000000000E+00  0.00000000000E+00 -0.32093654030E+04  0.32093654030E+04  0.25500000920E-02 0. -1.
    10030    2    1    2    0    0  0.00000000000E+00  0.00000000000E+00 -0.31588741328E+04  0.32598566731E+04  0.80509610742E+03 0.  0.
        2    1    3    3  502    0  0.31167953496E+03 -0.15705501119E+03 -0.23916132054E+04  0.24169452069E+04  0.25500000920E-02 0. -1.
       -2    1    3    3    0  502 -0.31167953496E+03  0.15705501119E+03 -0.76726092743E+03  0.84291146618E+03  0.25500000920E-02 0.  1.
</event>
<event>
 5   0  0.1049780E-02  0.8011674E+03  0.7818609E-02  0.9558329E-01
        1   -1    0    0  501    0  0.00000000000E+00  0.00000000000E+00  0.75792069452E+03  0.75792069454E+03  0.50400001928E-02 0. -1.
       -1   -1    0    0    0  501  0.00000000000E+00  0.00000000000E+00 -0.21172044215E+03  0.21172044221E+03  0.50400001928E-02 0.  1.
    10030    2    1    2    0    0  0.00000000000E+00  0.00000000000E+00  0.54620025238E+03  0.96964113675E+03  0.80116740970E+03 0.  0.
        5    1    3    3  502    0  0.84739751156E+02  0.10975682816E+03 -0.18171250866E+03  0.22862395447E+03  0.46999998093E+01 0.  1.
       -5    1    3    3    0  502 -0.84739751156E+02 -0.10975682816E+03  0.72791276104E+03  0.74101718228E+03  0.46999998093E+01 0. -1.
</event>
<event>
 5   0  0.1673727E-02  0.8073793E+03  0.7818609E-02  0.9549397E-01
       -2   -1    0    0    0  501  0.00000000000E+00  0.00000000000E+00  0.10002314988E+03  0.10002314991E+03  0.25500000920E-02 0. -1.
        2   -1    0    0  501    0  0.00000000000E+00  0.00000000000E+00 -0.16292760271E+04  0.16292760271E+04  0.25500000920E-02 0.  1.
    10030    2    1    2    0    0  0.00000000000E+00  0.00000000000E+00 -0.15292528772E+04  0.17292991770E+04  0.80737926722E+03 0.  0.
        5    1    3    3  502    0 -0.30765809357E+03  0.13197027450E+03 -0.28152462479E+03  0.43743326377E+03  0.46999998093E+01 0. -1.
       -5    1    3    3    0  502  0.30765809357E+03 -0.13197027450E+03 -0.12477282524E+04  0.12918659132E+04  0.46999998093E+01 0.  1.
</event>
<event>
 5   0  0.1030323E-02  0.7988800E+03  0.7818609E-02  0.9561640E-01
       -1   -1    0    0    0  501  0.00000000000E+00  0.00000000000E+00  0.15561608226E+03  0.15561608234E+03  0.50400001928E-02 0. -1.
        1   -1    0    0  501    0  0.00000000000E+00  0.00000000000E+00 -0.10252944690E+04  0.10252944691E+04  0.50400001928E-02 0.  1.
    10030    2    1    2    0    0  0.00000000000E+00  0.00000000000E+00 -0.86967838679E+03  0.11809105514E+04  0.79887998721E+03 0.  0.
        3    1    3    3  502    0  0.36111113679E+03  0.23430448620E+02 -0.68483579920E+03  0.77456460098E+03  0.10100000352E+00 0.  1.
       -3    1    3    3    0  502 -0.36111113679E+03 -0.23430448620E+02 -0.18484258759E+03  0.40634595042E+03  0.10100000352E+00 0. -1.
</event>
<event>
 5   0  0.1731337E-02  0.8063727E+03  0.7818609E-02  0.9550838E-01
        2   -1    0    0  501    0  0.00000000000E+00  0.00000000000E+00  0.10384037891E+04  0.10384037891E+04  0.25500000920E-02 0.  1.
       -2   -1    0    0    0  501  0.00000000000E+00  0.00000000000E+00 -0.15654722482E+03  0.15654722484E+03  0.25500000920E-02 0. -1.
    10030    2    1    2    0    0  0.00000000000E+00  0.00000000000E+00  0.88185656429E+03  0.11949510140E+04  0.80637269657E+03 0.  0.
        4    1    3    3  502    0 -0.10934898910E+03 -0.34548301543E+03  0.17899961751E+03  0.40417594107E+03  0.12699999809E+01 0.  1.
       -4    1    3    3    0  502  0.10934898910E+03  0.34548301543E+03  0.70285694678E+03  0.79077507289E+03  0.12699999809E+01 0. -1.
</event>
<event>
 5   0  0.1038912E-02  0.7783598E+03  0.7818609E-02  0.9591880E-01
       -1   -1    0    0    0  501  0.00000000000E+00  0.00000000000E+00  0.23468100224E+03  0.23468100229E+03  0.50400001928E-02 0.  1.
        1   -1    0    0  501    0  0.00000000000E+00  0.00000000000E+00 -0.64539101859E+03  0.64539101861E+03  0.50400001928E-02 0. -1.
    10030    2    1    2    0    0  0.00000000000E+00  0.00000000000E+00 -0.41071001635E+03  0.88007202090E+03  0.77835984252E+03 0.  0.
        2    1    3    3  502    0 -0.18086012393E+03  0.13670763079E+03  0.15230602230E+03  0.27312357126E+03  0.25500000920E-02 0.  1.
       -2    1    3    3    0  502  0.18086012393E+03 -0.13670763079E+03 -0.56301603865E+03  0.60694844964E+03  0.25500000920E-02 0. -1.
</event>
<event>
 5   0  0.1025900E-02  0.8253804E+03  0.7818609E-02  0.9523990E-01
        1   -1    0    0  501    0  0.00000000000E+00  0.00000000000E+00  0.20896726733E+04  0.20896726733E+04  0.50400001928E-02 0. -1.
       -1   -1    0    0    0  501  0.00000000000E+00  0.00000000000E+00 -0.81502335567E+02  0.81502335723E+02  0.50400001928E-02 0.  1.
    10030    2    1    2    0    0  0.00000000000E+00  0.00000000000E+00  0.20081703377E+04  0.21711750090E+04  0.82538040591E+03 0.  0.
        1    1    3    3  502    0  0.17426360197E+03  0.32565262235E+03  0.14883840101E+04  0.15335267832E+04  0.50400001928E-02 0. -1.
       -1    1    3    3    0  502 -0.17426360197E+03 -0.32565262235E+03  0.51978632763E+03  0.63764822577E+03  0.50400001928E-02 0.  1.
</event>
<event>
 5   0  0.1673727E-02  0.8024182E+03  0.7818609E-02  0.9556523E-01
        2   -1    0    0  501    0  0.00000000000E+00  0.00000000000E+00  0.13077216320E+04  0.13077216320E+04  0.25500000920E-02 0.  1.
       -2   -1    0    0    0  501  0.00000000000E+00  0.00000000000E+00 -0.12309099517E+03  0.12309099519E+03  0.25500000920E-02 0. -1.
    10030    2    1    2    0    0  0.00000000000E+00  0.00000000000E+00  0.11846306369E+04  0.14308126272E+04  0.80241823785E+03 0.  0.
        5    1    3    3  502    0  0.73544803682E+02 -0.21583731188E+03  0.11808875162E+04  0.12027102724E+04  0.46999998093E+01 0.  1.
       -5    1    3    3    0  502 -0.73544803682E+02  0.21583731188E+03  0.37431206806E+01  0.22810235487E+03  0.46999998093E+01 0. -1.
</event>
<event>
 5   0  0.1049780E-02  0.7938546E+03  0.7818609E-02  0.9568955E-01
       -1   -1    0    0    0  501  0.00000000000E+00  0.00000000000E+00  0.22270131137E+03  0.22270131142E+03  0.50400001928E-02 0. -1.
        1   -1    0    0  501    0  0.00000000000E+00  0.00000000000E+00 -0.70745555963E+03  0.70745555965E+03  0.50400001928E-02 0.  1.
    10030    2    1    2    0    0  0.00000000000E+00  0.00000000000E+00 -0.48475424827E+03  0.93015687107E+03  0.79385459852E+03 0.  0.
        5    1    3    3  502    0  0.14304698523E+03 -0.30431704719E+03  0.46755938645E+01  0.33632611610E+03  0.46999998093E+01 0. -1.
       -5    1    3    3    0  502 -0.14304698523E+03  0.30431704719E+03 -0.48942984213E+03  0.59383075498E+03  0.46999998093E+01 0.  1.
</event>
<event>
 5   0  0.1818665E-02  0.7955695E+03  0.7818609E-02  0.9566452E-01
        2   -1    0    0  501    0  0.00000000000E+00  0.00000000000E+00  0.10474452710E+04  0.10474452710E+04  0.25500000920E-02 0. -1.
       -2   -1    0    0    0  501  0.00000000000E+00  0.00000000000E+00 -0.15106535239E+03  0.15106535241E+03  0.25500000920E-02 0.  1.
    10030    2    1    2    0    0  0.00000000000E+00  0.00000000000E+00  0.89637991857E+03  0.11985106234E+04  0.79556945386E+03 0.  0.
        3    1    3    3  502    0  0.15064172932E+03 -0.77553768862E+02  0.99036667012E+03  0.10047555271E+04  0.10100000352E+00 0. -1.
       -3    1    3    3    0  502 -0.15064172932E+03  0.77553768862E+02 -0.93986751552E+02  0.19375509631E+03  0.10100000352E+00 0.  1.
</event>
<event>
 5   0  0.1747544E-02  0.8039677E+03  0.7818609E-02  0.9554292E-01
       -2   -1    0    0    0  501  0.00000000000E+00  0.00000000000E+00  0.18650190434E+03  0.18650190436E+03  0.25500000920E-02 0.  1.
        2   -1    0    0  501    0  0.00000000000E+00  0.00000000000E+00 -0.86643092836E+03  0.86643092837E+03  0.25500000920E-02 0. -1.
    10030    2    1    2    0    0  0.00000000000E+00  0.00000000000E+00 -0.67992902402E+03  0.10529328327E+04  0.80396770615E+03 0.  0.
        1    1    3    3  502    0  0.20483288809E+03  0.25135193104E+03 -0.28778649898E+02  0.32551884123E+03  0.50400001928E-02 0.  1.
       -1    1    3    3    0  502 -0.20483288809E+03 -0.25135193104E+03 -0.65115037412E+03  0.72741399150E+03  0.50400001928E-02 0. -1.
</event>
<event>
 5   0  0.1038912E-02  0.8006245E+03  0.7818609E-02  0.9559114E-01
       -1   -1    0    0    0  501  0.00000000000E+00  0.00000000000E+00  0.69850860305E+03  0.69850860307E+03  0.50400001928E-02 0.  1.
        1   -1    0    0  501    0  0.00000000000E+00  0.00000000000E+00 -0.22941719539E+03  0.22941719544E+03  0.50400001928E-02 0. -1.
    10030    2    1    2    0    0  0.00000000000E+00  0.00000000000E+00  0.46909140767E+03  0.92792579851E+03  0.80062446802E+03 0.  0.
        2    1    3    3  502    0 -0.14097836912E+03 -0.94530874574E+02 -0.18564490831E+03  0.25154526192E+03  0.25500000920E-02 0. -1.
       -2    1    3    3    0  502  0.14097836912E+03  0.94530874574E+02  0.65473631598E+03  0.67638053659E+03  0.25500000920E-02 0.  1.
</event>
<event>
 5   0  0.1038912E-02  0.8833816E+03  0.7818609E-02  0.9446597E-01
       -1   -1    0    0    0  501  0.00000000000E+00  0.00000000000E+00  0.50045051187E+03  0.50045051190E+03  0.50400001928E-02 0.  1.
        1   -1    0    0  501    0  0.00000000000E+00  0.00000000000E+00 -0.38983030059E+03  0.38983030063E+03  0.50400001928E-02 0. -1.
    10030    2    1    2    0    0  0.00000000000E+00  0.00000000000E+00  0.11062021128E+03  0.89028081252E+03  0.88338162422E+03 0.  0.
        2    1    3    3  502    0  0.35667367165E+03 -0.15710894048E+03 -0.15413852525E+03  0.41911575036E+03  0.25500000920E-02 0. -1.
       -2    1    3    3    0  502 -0.35667367165E+03  0.15710894048E+03  0.26475873653E+03  0.47116506216E+03  0.25500000920E-02 0.  1.
</event>
<event>
 5   0  0.1818665E-02  0.7979652E+03  0.7818609E-02  0.9562967E-01
       -2   -1    0    0    0  501  0.00000000000E+00  0.00000000000E+00  0.35116647845E+03  0.35116647846E+03  0.25500000920E-02 0.  1.
        2   -1    0    0  501    0  0.00000000000E+00  0.00000000000E+00 -0.45330951188E+03  0.45330951189E+03  0.25500000920E-02 0. -1.
    10030    2    1    2    0    0  0.00000000000E+00  0.00000000000E+00 -0.10214303343E+03  0.80447599035E+03  0.79796517454E+03 0.  0.
        3    1    3    3  502    0 -0.31465053259E+03  0.21334257343E+03  0.71024369246E+02  0.38673567527E+03  0.10100000352E+00 0.  1.
       -3    1    3    3    0  502  0.31465053259E+03 -0.21334257343E+03 -0.17316740267E+03  0.41774031508E+03  0.10100000352E+00 0. -1.
</event>
<event>
 5   0  0.1673727E-02  0.7976214E+03  0.7818609E-02  0.9563466E-01
       -2   -1    0    0    0  501  0.00000000000E+00  0.00000000000E+00  0.35286907063E+03  0.35286907064E+03  0.25500000920E-02 0. -1.
        2   -1    0    0  501    0  0.00000000000E+00  0.00000000000E+00 -0.45073371361E+03  0.45073371362E+03  0.25500000920E-02 0.  1.
    10030    2    1    2    0    0  0.00000000000E+00  0.00000000000E+00 -0.97864642981E+02  0.80360278426E+03  0.79762143058E+03 0.  0.
        5    1    3    3  502    0 -0.11707254372E+03  0.30480452084E+03 -0.27959485325E+03  0.42989201944E+03  0.46999998093E+01 0.  1.
       -5    1    3    3    0  502  0.11707254372E+03 -0.30480452084E+03  0.18173021027E+03  0.37371076482E+03  0.46999998093E+01 0. -1.
</event>
<event>
 5   0  0.1146083E-02  0.7906252E+03  0.7818609E-02  0.9573687E-01
       -1   -1    0    0    0  501  0.00000000000E+00  0.00000000000E+00  0.12910680256E+03  0.12910680266E+03  0.50400001928E-02 0. -1.
        1   -1    0    0  501    0  0.00000000000E+00  0.00000000000E+00 -0.12104091810E+04  0.12104091810E+04  0.50400001928E-02 0.  1.
    10030    2    1    2    0    0  0.00000000000E+00  0.00000000000E+00 -0.10813023784E+04  0.13395159836E+04  0.79062521898E+03 0.  0.
        4    1    3    3  502    0 -0.42428122770E+02 -0.15253105224E+03  0.73042606565E+02  0.17436370830E+03  0.12699999809E+01 0. -1.
       -4    1    3    3    0  502  0.42428122770E+02  0.15253105224E+03 -0.11543449850E+04  0.11651522753E+04  0.12699999809E+01 0.  1.
</event>
<event>
 5   0  0.1146083E-02  0.8077949E+03  0.7818609E-02  0.9548802E-01
       -1   -1    0    0    0  501  0.00000000000E+00  0.00000000000E+00  0.36804082982E+03  0.36804082986E+03  0.50400001928E-02 0.  1.
        1   -1    0    0  501    0  0.00000000000E+00  0.00000000000E+00 -0.44324743473E+03  0.44324743476E+03  0.50400001928E-02 0. -1.
    10030    2    1    2    0    0  0.00000000000E+00  0.00000000000E+00 -0.75206604905E+02  0.81128826462E+03  0.80779490892E+03 0.  0.
        4    1    3    3  502    0  0.22847607894E+03 -0.24654358457E+03  0.18729921783E+03  0.38479561801E+03  0.12699999809E+01 0.  1.
       -4    1    3    3    0  502 -0.22847607894E+03  0.24654358457E+03 -0.26250582273E+03  0.42649264661E+03  0.12699999809E+01 0. -1.
</event>
<event>
 5   0  0.1025900E-02  0.8095012E+03  0.7818609E-02  0.9546365E-01
        1   -1    0    0  501    0  0.00000000000E+00  0.00000000000E+00  0.53833160479E+03  0.53833160481E+03  0.50400001928E-02 0.  1.
       -1   -1    0    0    0  501  0.00000000000E+00  0.00000000000E+00 -0.30431625221E+03  0.30431625225E+03  0.50400001928E-02 0. -1.
    10030    2    1    2    0    0  0.00000000000E+00  0.00000000000E+00  0.23401535258E+03  0.84264785706E+03  0.80950122036E+03 0.  0.
        1    1    3    3  502    0  0.29119360328E+03 -0.27784405428E+03  0.72452915927E+02  0.40895043483E+03  0.50400001928E-02 0. -1.
       -1    1    3    3    0  502 -0.29119360328E+03  0.27784405428E+03  0.16156243665E+03  0.43369742224E+03  0.50400001928E-02 0.  1.
</event>
<event>
 5   0  0.1025900E-02  0.8294040E+03  0.7818609E-02  0.9518405E-01
       -1   -1    0    0    0  501  0.00000000000E+00  0.00000000000E+00  0.24767226517E+03  0.24767226522E+03  0.50400001928E-02 0.  1.
        1   -1    0    0  501    0  0.00000000000E+00  0.00000000000E+00 -0.69437637236E+03  0.69437637238E+03  0.50400001928E-02 0. -1.
    10030    2    1    2    0    0  0.00000000000E+00  0.00000000000E+00 -0.44670410719E+03  0.94204863760E+03  0.82940404884E+03 0.  0.
        1    1    3    3  502    0  0.81570342352E+02 -0.21099515308E+02  0.23784833130E+03  0.25233061452E+03  0.50400001928E-02 0.  1.
       -1    1    3    3    0  502 -0.81570342352E+02  0.21099515308E+02 -0.68455243849E+03  0.68971802308E+03  0.50400001928E-02 0. -1.
</event>
<event>
 5   0  0.1038912E-02  0.7997629E+03  0.7818609E-02  0.9560360E-01
        1   -1    0    0  501    0  0.00000000000E+00  0.00000000000E+00  0.10244040103E+04  0.10244040103E+04  0.50400001928E-02 0. -1.
       -1   -1    0    0    0  501  0.00000000000E+00  0.00000000000E+00 -0.15609581103E+03  0.15609581111E+03  0.50400001928E-02 0.  1.
    10030    2    1    2    0    0  0.00000000000E+00  0.00000000000E+00  0.86830819929E+03  0.11804998214E+04  0.79976290203E+03 0.  0.
        2    1    3    3  502    0 -0.31022928923E+03 -0.24968633647E+03  0.38053226395E+03  0.55080875305E+03  0.25500000920E-02 0.  1.
       -2    1    3    3    0  502  0.31022928923E+03  0.24968633647E+03  0.48777593534E+03  0.62969106840E+03  0.25500000920E-02 0. -1.
</event>
<event>
 5   0  0.1049780E-02  0.7981283E+03  0.7818609E-02  0.9562730E-01
        1   -1    0    0  501    0  0.00000000000E+00  0.00000000000E+00  0.15278772605E+04  0.15278772605E+04  0.50400001928E-02 0. -1.
       -1   -1    0    0    0  501  0.00000000000E+00  0.00000000000E+00 -0.10423102428E+03  0.10423102440E+03  0.50400001928E-02 0.  1.
    10030    2    1    2    0    0  0.00000000000E+00  0.00000000000E+00  0.14236462363E+04  0.16321082849E+04  0.79812834042E+03 0.  0.
        5    1    3    3  502    0  0.16989351816E+03  0.18246532974E+03  0.74697846486E+02  0.26030609355E+03  0.46999998093E+01 0.  1.
       -5    1    3    3    0  502 -0.16989351816E+03 -0.18246532974E+03  0.13489483898E+04  0.13718021914E+04  0.46999998093E+01 0. -1.
</event>
<event>
 5   0  0.1038912E-02  0.8011919E+03  0.7818609E-02  0.9558293E-01
        1   -1    0    0  501    0  0.00000000000E+00  0.00000000000E+00  0.27179635312E+03  0.27179635317E+03  0.50400001928E-02 0.  1.
       -1   -1    0    0    0  501  0.00000000000E+00  0.00000000000E+00 -0.59043149982E+03  0.59043149984E+03  0.50400001928E-02 0. -1.
    10030    2    1    2    0    0  0.00000000000E+00  0.00000000000E+00 -0.31863514670E+03  0.86222785301E+03  0.80119193318E+03 0.  0.
        2    1    3    3  502    0 -0.23497717240E+03  0.83802949439E+02 -0.49662778240E+03  0.55576646188E+03  0.25500000920E-02 0. -1.
       -2    1    3    3    0  502  0.23497717240E+03 -0.83802949439E+02  0.17799263571E+03  0.30646139114E+03  0.25500000920E-02 0.  1.
</event>
<event>
 5   0  0.1747544E-02  0.7945228E+03  0.7818609E-02  0.9567979E-01
       -2   -1    0    0    0  501  0.00000000000E+00  0.00000000000E+00  0.23112013169E+03  0.23112013170E+03  0.25500000920E-02 0.  1.
        2   -1    0    0  501    0  0.00000000000E+00  0.00000000000E+00 -0.68283365631E+03  0.68283365631E+03  0.25500000920E-02 0. -1.
    10030    2    1    2    0    0  0.00000000000E+00  0.00000000000E+00 -0.45171352462E+03  0.91395378801E+03  0.79452276135E+03 0.  0.
        1    1    3    3  502    0 -0.45766936328E+02 -0.83476575920E+02  0.21780470809E+03  0.23770116129E+03  0.50400001928E-02 0.  1.
       -1    1    3    3    0  502  0.45766936328E+02  0.83476575920E+02 -0.66951823271E+03  0.67625262672E+03  0.50400001928E-02 0. -1.
</event>
<event>
 5   0  0.1747544E-02  0.7965955E+03  0.7818609E-02  0.9564958E-01
       -2   -1    0    0    0  501  0.00000000000E+00  0.00000000000E+00  0.26384536908E+03  0.26384536909E+03  0.25500000920E-02 0. -1.
        2   -1    0    0  501    0  0.00000000000E+00  0.00000000000E+00 -0.60126538480E+03  0.60126538480E+03  0.25500000920E-02 0.  1.
    10030    2    1    2    0    0  0.00000000000E+00  0.00000000000E+00 -0.33742001572E+03  0.86511075389E+03  0.79659547418E+03 0.  0.
        1    1    3    3  502    0  0.25200846471E+03  0.21680966849E+03  0.69535934727E+02  0.33963207281E+03  0.50400001928E-02 0. -1.
       -1    1    3    3    0  502 -0.25200846471E+03 -0.21680966849E+03 -0.40695595045E+03  0.52547868108E+03  0.50400001928E-02 0.  1.
</event>
<event>
 5   0  0.1817089E-02  0.8513968E+03  0.7818609E-02  0.9488464E-01
        2   -1    0    0  501    0  0.00000000000E+00  0.00000000000E+00  0.24047087176E+04  0.24047087176E+04  0.25500000920E-02 0.  1.
       -2   -1    0    0    0  501  0.00000000000E+00  0.00000000000E+00 -0.75360117502E+02  0.75360117545E+02  0.25500000920E-02 0. -1.
    10030    2    1    2    0    0  0.00000000000E+00  0.00000000000E+00  0.23293486001E+04  0.24800688352E+04  0.85139680895E+03 0.  0.
        2    1    3    3  502    0  0.26683690908E+03  0.16493672604E+03  0.32640962649E+03  0.45271326898E+03  0.25500000920E-02 0. -1.
       -2    1    3    3    0  502 -0.26683690908E+03 -0.16493672604E+03  0.20029389736E+04  0.20273555662E+04  0.25500000920E-02 0.  1.
</event>
<event>
 5   0  0.1146083E-02  0.7796828E+03  0.7818609E-02  0.9589900E-01
       -1   -1    0    0    0  501  0.00000000000E+00  0.00000000000E+00  0.95175643776E+02  0.95175643910E+02  0.50400001928E-02 0.  1.
        1   -1    0    0  501    0  0.00000000000E+00  0.00000000000E+00 -0.15967984383E+04  0.15967984383E+04  0.50400001928E-02 0. -1.
    10030    2    1    2    0    0  0.00000000000E+00  0.00000000000E+00 -0.15016227945E+04  0.16919740822E+04  0.77968280592E+03 0.  0.
        4    1    3    3  502    0 -0.41560532500E+02 -0.37051258748E+03 -0.50369033687E+03  0.62666771395E+03  0.12699999809E+01 0.  1.
       -4    1    3    3    0  502  0.41560532500E+02  0.37051258748E+03 -0.99793245762E+03  0.10653063682E+04  0.12699999809E+01 0. -1.
</event>
<event>
 5   0  0.1146083E-02  0.8072899E+03  0.7818609E-02  0.9549525E-01
       -1   -1    0    0    0  501  0.00000000000E+00  0.00000000000E+00  0.13584112156E+03  0.13584112165E+03  0.50400001928E-02 0.  1.
        1   -1    0    0  501    0  0.00000000000E+00  0.00000000000E+00 -0.11994104848E+04  0.11994104848E+04  0.50400001928E-02 0. -1.
    10030    2    1    2    0    0  0.00000000000E+00  0.00000000000E+00 -0.10635693632E+04  0.13352516064E+04  0.80728994921E+03 0.  0.
        4    1    3    3  502    0 -0.20502039231E+02  0.12766329726E+03  0.10065806102E+03  0.16386552178E+03  0.12699999809E+01 0.  1.
       -4    1    3    3    0  502  0.20502039231E+02 -0.12766329726E+03 -0.11642274242E+04  0.11713860846E+04  0.12699999809E+01 0. -1.
</event>
<event>
 5   0  0.1025900E-02  0.7988420E+03  0.7818609E-02  0.9561695E-01
        1   -1    0    0  501    0  0.00000000000E+00  0.00000000000E+00  0.96337119214E+03  0.96337119215E+03  0.50400001928E-02 0.  1.
       -1   -1    0    0    0  501  0.00000000000E+00  0.00000000000E+00 -0.16560299191E+03  0.16560299199E+03  0.50400001928E-02 0. -1.
    10030    2    1    2    0    0  0.00000000000E+00  0.00000000000E+00  0.79776820022E+03  0.11289741841E+04  0.79884204144E+03 0.  0.
        1    1    3    3  502    0  0.13168388708E+02  0.36334435669E+03  0.16518390525E+03  0.39934728067E+03  0.50400001928E-02 0. -1.
       -1    1    3    3    0  502 -0.13168388708E+02 -0.36334435669E+03  0.63258429498E+03  0.72962690347E+03  0.50400001928E-02 0.  1.
</event>
<event>
 5   0  0.1038912E-02  0.7946955E+03  0.7818609E-02  0.9567727E-01
        1   -1    0    0  501    0  0.00000000000E+00  0.00000000000E+00  0.66561774513E+03  0.66561774515E+03  0.50400001928E-02 0.  1.
       -1   -1    0    0    0  501  0.00000000000E+00  0.00000000000E+00 -0.23720107449E+03  0.23720107455E+03  0.50400001928E-02 0. -1.
    10030    2    1    2    0    0  0.00000000000E+00  0.00000000000E+00  0.42841667064E+03  0.90281881970E+03  0.79469552504E+03 0.  0.
        2    1    3    3  502    0 -0.14861980863E+03 -0.35821254003E+03  0.11594654209E+03  0.40478101732E+03  0.25500000920E-02 0. -1.
       -2    1    3    3    0  502  0.14861980863E+03  0.35821254003E+03  0.31247012855E+03  0.49803780238E+03  0.25500000920E-02 0.  1.
</event>
<event>
 5   0  0.6872500E-03  0.7255544E+03  0.7818609E-02  0.9674502E-01
        4   -1    0    0  501    0  0.00000000000E+00  0.00000000000E+00  0.18913939185E+03  0.18914365559E+03  0.12699999809E+01 0.  1.
       -4   -1    0    0    0  501  0.00000000000E+00  0.00000000000E+00 -0.69580908878E+03  0.69581024779E+03  0.12699999809E+01 0. -1.
    10030    2    1    2    0    0  0.00000000000E+00  0.00000000000E+00 -0.50666969692E+03  0.88495390338E+03  0.72555442892E+03 0.  0.
        5    1    3    3  502    0 -0.33421577589E+03 -0.65737017623E+02 -0.10117265637E+03  0.35535832161E+03  0.46999998093E+01 0.  1.
       -5    1    3    3    0  502  0.33421577589E+03  0.65737017623E+02 -0.40549704055E+03  0.52959558177E+03  0.46999998093E+01 0. -1.
</event>
<event>
 5   0  0.1818665E-02  0.8076004E+03  0.7818609E-02  0.9549081E-01
       -2   -1    0    0    0  501  0.00000000000E+00  0.00000000000E+00  0.26786455613E+03  0.26786455614E+03  0.25500000920E-02 0. -1.
        2   -1    0    0  501    0  0.00000000000E+00  0.00000000000E+00 -0.60872033411E+03  0.60872033411E+03  0.25500000920E-02 0.  1.
    10030    2    1    2    0    0  0.00000000000E+00  0.00000000000E+00 -0.34085577798E+03  0.87658489026E+03  0.80760040146E+03 0.  0.
        3    1    3    3  502    0  0.30662493725E+03  0.25178070238E+03 -0.88896963344E+02  0.40658954060E+03  0.10100000352E+00 0. -1.
       -3    1    3    3    0  502 -0.30662493725E+03 -0.25178070238E+03 -0.25195881463E+03  0.46999534966E+03  0.10100000352E+00 0.  1.
</event>
<event>
 5   0  0.1747544E-02  0.8051903E+03  0.7818609E-02  0.9552535E-01
        2   -1    0    0  501    0  0.00000000000E+00  0.00000000000E+00  0.10840929054E+04  0.10840929054E+04  0.25500000920E-02 0. -1.
       -2   -1    0    0    0  501  0.00000000000E+00  0.00000000000E+00 -0.14951010881E+03  0.14951010883E+03  0.25500000920E-02 0.  1.
    10030    2    1    2    0    0  0.00000000000E+00  0.00000000000E+00  0.93458279655E+03  0.12336030142E+04  0.80519028373E+03 0.  0.
        1    1    3    3  502    0 -0.16466032386E+03  0.14552474886E+03 -0.49521655003E+02  0.22526177910E+03  0.50400001928E-02 0.  1.
       -1    1    3    3    0  502  0.16466032386E+03 -0.14552474886E+03  0.98410445155E+03  0.10083412351E+04  0.50400001928E-02 0. -1.
</event>
<event>
 5   0  0.1818665E-02  0.8044056E+03  0.7818609E-02  0.9553662E-01
        2   -1    0    0  501    0  0.00000000000E+00  0.00000000000E+00  0.72569978350E+03  0.72569978351E+03  0.25500000920E-02 0. -1.
       -2   -1    0    0    0  501  0.00000000000E+00  0.00000000000E+00 -0.22291188892E+03  0.22291188893E+03  0.25500000920E-02 0.  1.
    10030    2    1    2    0    0  0.00000000000E+00  0.00000000000E+00  0.50278789459E+03  0.94861167244E+03  0.80440564279E+03 0.  0.
        3    1    3    3  502    0 -0.10511460360E+03  0.34379094902E+03  0.38713596371E+02  0.36157993482E+03  0.10100000352E+00 0.  1.
       -3    1    3    3    0  502  0.10511460360E+03 -0.34379094902E+03  0.46407429821E+03  0.58703173763E+03  0.10100000352E+00 0. -1.
</event>
<event>
 5   0  0.1025900E-02  0.7962363E+03  0.7818609E-02  0.9565481E-01
       -1   -1    0    0    0  501  0.00000000000E+00  0.00000000000E+00  0.17423963030E+03  0.17423963038E+03  0.50400001928E-02 0.  1.
        1   -1    0    0  501    0  0.00000000000E+00  0.00000000000E+00 -0.90965561901E+03  0.90965561903E+03  0.50400001928E-02 0. -1.
    10030    2    1    2    0    0  0.00000000000E+00  0.00000000000E+00 -0.73541598871E+03  0.10838952494E+04  0.79623629359E+03 0.  0.
        1    1    3    3  502    0 -0.37877671408E+03  0.92389825755E+02 -0.47737611406E+03  0.61635674194E+03  0.50400001928E-02 0. -1.
       -1    1    3    3    0  502  0.37877671408E+03 -0.92389825755E+02 -0.25803987465E+03  0.46753850746E+03  0.50400001928E-02 0.  1.
</event>
<event>
 5   0  0.1817089E-02  0.8011972E+03  0.7818609E-02  0.9558286E-01
       -2   -1    0    0    0  501  0.00000000000E+00  0.00000000000E+00  0.12250514798E+03  0.12250514800E+03  0.25500000920E-02 0. -1.
        2   -1    0    0  501    0  0.00000000000E+00  0.00000000000E+00 -0.13099795787E+04  0.13099795787E+04  0.25500000920E-02 0.  1.
    10030    2    1    2    0    0  0.00000000000E+00  0.00000000000E+00 -0.11874744307E+04  0.14324847267E+04  0.80119720958E+03 0.  0.
        2    1    3    3  502    0 -0.16210027573E+03 -0.27343740001E+03 -0.15785342080E+03  0.35491155741E+03  0.25500000920E-02 0. -1.
       -2    1    3    3    0  502  0.16210027573E+03  0.27343740001E+03 -0.10296210099E+04  0.10775731693E+04  0.25500000920E-02 0.  1.
</event>
<event>
 5   0  0.1817089E-02  0.7816139E+03  0.7818609E-02  0.9587018E-01
       -2   -1    0    0    0  501  0.00000000000E+00  0.00000000000E+00  0.26133921340E+03  0.26133921341E+03  0.25500000920E-02 0. -1.
        2   -1    0    0  501    0  0.00000000000E+00  0.00000000000E+00 -0.58441318313E+03  0.58441318314E+03  0.25500000920E-02 0.  1.
    10030    2    1    2    0    0  0.00000000000E+00  0.00000000000E+00 -0.32307396973E+03  0.84575239654E+03  0.78161392410E+03 0.  0.
        2    1    3    3  502    0 -0.32000524829E+03 -0.17478100280E+03 -0.31371281861E+03  0.48100674677E+03  0.25500000920E-02 0.  1.
       -2    1    3    3    0  502  0.32000524829E+03  0.17478100280E+03 -0.93611511238E+01  0.36474564977E+03  0.25500000920E-02 0. -1.
</event>
<event>
 5   0  0.1025900E-02  0.7984650E+03  0.7818609E-02  0.9562242E-01
        1   -1    0    0  501    0  0.00000000000E+00  0.00000000000E+00  0.43827886534E+03  0.43827886537E+03  0.50400001928E-02 0. -1.
       -1   -1    0    0    0  501  0.00000000000E+00  0.00000000000E+00 -0.36366475746E+03  0.36366475749E+03  0.50400001928E-02 0.  1.
    10030    2    1    2    0    0  0.00000000000E+00  0.00000000000E+00  0.74614107884E+02  0.80194362286E+03  0.79846497053E+03 0.  0.
        1    1    3    3  502    0  0.49182431113E+02  0.37870842894E+03  0.15420826708E+03  0.41184848590E+03  0.50400001928E-02 0.  1.
       -1    1    3    3    0  502 -0.49182431113E+02 -0.37870842894E+03 -0.79594159197E+02  0.39009513696E+03  0.50400001928E-02 0. -1.
</event>
<event>
 5   0  0.1038912E-02  0.8117250E+03  0.7818609E-02  0.9543199E-01
        1   -1    0    0  501    0  0.00000000000E+00  0.00000000000E+00  0.25829045018E+03  0.25829045023E+03  0.50400001928E-02 0. -1.
       -1   -1    0    0    0  501  0.00000000000E+00  0.00000000000E+00 -0.63774865532E+03  0.63774865534E+03  0.50400001928E-02 0.  1.
    10030    2    1    2    0    0  0.00000000000E+00  0.00000000000E+00 -0.37945820514E+03  0.89603910556E+03  0.81172504535E+03 0.  0.
        2    1    3    3  502    0  0.19997062680E+03 -0.23583058183E+03 -0.47994427256E+03  0.57092102753E+03  0.25500000920E-02 0.  1.
       -2    1    3    3    0  502 -0.19997062680E+03  0.23583058183E+03  0.10048606742E+03  0.32511807803E+03  0.25500000920E-02 0. -1.
</event>
<event>
 5   0  0.1049780E-02  0.8043145E+03  0.7818609E-02  0.9553793E-01
        1   -1    0    0  501    0  0.00000000000E+00  0.00000000000E+00  0.31573764366E+03  0.31573764370E+03  0.50400001928E-02 0. -1.
       -1   -1    0    0    0  501  0.00000000000E+00  0.00000000000E+00 -0.51223052937E+03  0.51223052940E+03  0.50400001928E-02 0.  1.
    10030    2    1    2    0    0  0.00000000000E+00  0.00000000000E+00 -0.19649288571E+03  0.82796817310E+03  0.80431451655E+03 0.  0.
        5    1    3    3  502    0 -0.70640817163E+02  0.13702133838E+03  0.28408339802E+03  0.32324980936E+03  0.46999998093E+01 0. -1.
       -5    1    3    3    0  502  0.70640817163E+02 -0.13702133838E+03 -0.48057628373E+03  0.50471836375E+03  0.46999998093E+01 0.  1.
</event>
<event>
 5   0  0.1731337E-02  0.8199909E+03  0.7818609E-02  0.9531524E-01
        2   -1    0    0  501    0  0.00000000000E+00  0.00000000000E+00  0.70219877234E+03  0.70219877234E+03  0.25500000920E-02 0.  1.
       -2   -1    0    0    0  501  0.00000000000E+00  0.00000000000E+00 -0.23938558390E+03  0.23938558391E+03  0.25500000920E-02 0. -1.
    10030    2    1    2    0    0  0.00000000000E+00  0.00000000000E+00  0.46281318844E+03  0.94158435625E+03  0.81999088565E+03 0.  0.
        4    1    3    3  502    0  0.10080194393E+03 -0.40002074617E+02 -0.22261464381E+03  0.24762893694E+03  0.12699999809E+01 0. -1.
       -4    1    3    3    0  502 -0.10080194393E+03  0.40002074617E+02  0.68542783224E+03  0.69395541931E+03  0.12699999809E+01 0.  1.
</event>
<event>
 5   0  0.1049780E-02  0.8066894E+03  0.7818609E-02  0.9550385E-01
        1   -1    0    0  501    0  0.00000000000E+00  0.00000000000E+00  0.41929881529E+03  0.41929881532E+03  0.50400001928E-02 0.  1.
       -1   -1    0    0    0  501  0.00000000000E+00  0.00000000000E+00 -0.38799763217E+03  0.38799763220E+03  0.50400001928E-02 0. -1.
    10030    2    1    2    0    0  0.00000000000E+00  0.00000000000E+00  0.31301183115E+02  0.80729644752E+03  0.80668940127E+03 0.  0.
        5    1    3    3  502    0  0.41228409648E+02  0.22484957378E+03  0.34817724392E+03  0.41654122938E+03  0.46999998093E+01 0.  1.
       -5    1    3    3    0  502 -0.41228409648E+02 -0.22484957378E+03 -0.31687606081E+03  0.39075521814E+03  0.46999998093E+01 0. -1.
</event>
<event>
 5   0  0.1818665E-02  0.7988307E+03  0.7818609E-02  0.9561711E-01
        2   -1    0    0  501    0  0.00000000000E+00  0.00000000000E+00  0.55527548452E+03  0.55527548453E+03  0.25500000920E-02 0. -1.
       -2   -1    0    0    0  501  0.00000000000E+00  0.00000000000E+00 -0.28730354508E+03  0.28730354509E+03  0.25500000920E-02 0.  1.
    10030    2    1    2    0    0  0.00000000000E+00  0.00000000000E+00  0.26797193945E+03  0.84257902961E+03  0.79883068345E+03 0.  0.
        3    1    3    3  502    0 -0.11018950403E+03  0.24848920631E+03 -0.17469109416E+03  0.32311855569E+03  0.10100000352E+00 0.  1.
       -3    1    3    3    0  502  0.11018950403E+03 -0.24848920631E+03  0.44266303360E+03  0.51946047393E+03  0.10100000352E+00 0. -1.
</event>
<event>
 5   0  0.1049780E-02  0.7754489E+03  0.7818609E-02  0.9596250E-01
       -1   -1    0    0    0  501  0.00000000000E+00  0.00000000000E+00  0.10076791254E+04  0.10076791254E+04  0.50400001928E-02 0.  1.
        1   -1    0    0  501    0  0.00000000000E+00  0.00000000000E+00 -0.14918463808E+03  0.14918463816E+03  0.50400001928E-02 0. -1.
    10030    2    1    2    0    0  0.00000000000E+00  0.00000000000E+00  0.85849448728E+03  0.11568637635E+04  0.77544889109E+03 0.  0.
        5    1    3    3  502    0 -0.17259197062E+03 -0.21804171852E+03  0.83226571068E+03  0.87750697006E+03  0.46999998093E+01 0.  1.
       -5    1    3    3    0  502  0.17259197062E+03  0.21804171852E+03  0.26228776602E+02  0.27935679347E+03  0.46999998093E+01 0. -1.
</event>
<event>
 5   0  0.1030323E-02  0.8038980E+03  0.7818609E-02  0.9554392E-01
        1   -1    0    0  501    0  0.00000000000E+00  0.00000000000E+00  0.25688259765E+03  0.25688259770E+03  0.50400001928E-02 0. -1.
       -1   -1    0    0    0  501  0.00000000000E+00  0.00000000000E+00 -0.62893710363E+03  0.62893710365E+03  0.50400001928E-02 0.  1.
    10030    2    1    2    0    0  0.00000000000E+00  0.00000000000E+00 -0.37205450597E+03  0.88581970135E+03  0.80389799595E+03 0.  0.
        3    1    3    3  502    0  0.14757246076E+03  0.57563436427E+02  0.22103971196E+03  0.27193702369E+03  0.10100000352E+00 0. -1.
       -3    1    3    3    0  502 -0.14757246076E+03 -0.57563436427E+02 -0.59309421793E+03  0.61388267766E+03  0.10100000352E+00 0.  1.
</event>
<event>
 5   0  0.1030323E-02  0.8622484E+03  0.7818609E-02  0.9474043E-01
        1   -1    0    0  501    0  0.00000000000E+00  0.00000000000E+00  0.35341142062E+03  0.35341142066E+03  0.50400001928E-02 0.  1.
       -1   -1    0    0    0  501  0.00000000000E+00  0.00000000000E+00 -0.52592545071E+03  0.52592545073E+03  0.50400001928E-02 0. -1.
    10030    2    1    2    0    0  0.00000000000E+00  0.00000000000E+00 -0.17251403008E+03  0.87933687139E+03  0.86224836492E+03 0.  0.
        3    1    3    3  502    0  0.15830958439E+03 -0.22333257773E+01 -0.49520442666E+03  0.51989840030E+03  0.10100000352E+00 0. -1.
       -3    1    3    3    0  502 -0.15830958439E+03  0.22333257773E+01  0.32269039658E+03  0.35943847109E+03  0.10100000352E+00 0.  1.
</event>
<event>
 5   0  0.1049780E-02  0.7965600E+03  0.7818609E-02  0.9565010E-01
        1   -1    0    0  501    0  0.00000000000E+00  0.00000000000E+00  0.64385689174E+03  0.64385689176E+03  0.50400001928E-02 0.  1.
       -1   -1    0    0    0  501  0.00000000000E+00  0.00000000000E+00 -0.24636987985E+03  0.24636987990E+03  0.50400001928E-02 0. -1.
    10030    2    1    2    0    0  0.00000000000E+00  0.00000000000E+00  0.39748701189E+03  0.89022677166E+03  0.79655996658E+03 0.  0.
        5    1    3    3  502    0 -0.37761617128E+03  0.81937075151E+02  0.30650366277E+03  0.49322838765E+03  0.46999998093E+01 0.  1.
       -5    1    3    3    0  502  0.37761617128E+03 -0.81937075151E+02  0.90983349119E+02  0.39699838401E+03  0.46999998093E+01 0. -1.
</event>
<event>
 5   0  0.1731337E-02  0.7935285E+03  0.7818609E-02  0.9569432E-01
        2   -1    0    0  501    0  0.00000000000E+00  0.00000000000E+00  0.10209172919E+04  0.10209172919E+04  0.25500000920E-02 0. -1.
       -2   -1    0    0    0  501  0.00000000000E+00  0.00000000000E+00 -0.15419650372E+03  0.15419650375E+03  0.25500000920E-02 0.  1.
    10030    2    1    2    0    0  0.00000000000E+00  0.00000000000E+00  0.86672078814E+03  0.11751137956E+04  0.79352851747E+03 0.  0.
        4    1    3    3  502    0 -0.13345649063E+03  0.36390716882E+03  0.30786842072E+03  0.49499862604E+03  0.12699999809E+01 0.  1.
       -4    1    3    3    0  502  0.13345649063E+03 -0.36390716882E+03  0.55885236742E+03  0.68011516957E+03  0.12699999809E+01 0. -1.
</event>
<event>
 5   0  0.1818665E-02  0.8012058E+03  0.7818609E-02  0.9558273E-01
        2   -1    0    0  501    0  0.00000000000E+00  0.00000000000E+00  0.76690899259E+03  0.76690899260E+03  0.25500000920E-02 0.  1.
       -2   -1    0    0    0  501  0.00000000000E+00  0.00000000000E+00 -0.20925911770E+03  0.20925911771E+03  0.25500000920E-02 0. -1.
    10030    2    1    2    0    0  0.00000000000E+00  0.00000000000E+00  0.55764987490E+03  0.97616811031E+03  0.80120583911E+03 0.  0.
        3    1    3    3  502    0 -0.13307620129E+03 -0.25943142140E+03  0.61353139550E+03  0.67928986540E+03  0.10100000352E+00 0.  1.
       -3    1    3    3    0  502  0.13307620129E+03  0.25943142140E+03 -0.55881520608E+02  0.29687824492E+03  0.10100000352E+00 0. -1.
</event>
<event>
 5   0  0.1817089E-02  0.8032895E+03  0.7818609E-02  0.9555268E-01
       -2   -1    0    0    0  501  0.00000000000E+00  0.00000000000E+00  0.43600366289E+03  0.43600366290E+03  0.25500000920E-02 0.  1.
        2   -1    0    0  501    0  0.00000000000E+00  0.00000000000E+00 -0.36999345048E+03  0.36999345049E+03  0.25500000920E-02 0. -1.
    10030    2    1    2    0    0  0.00000000000E+00  0.00000000000E+00  0.66010212412E+02  0.80599711339E+03  0.80328948621E+03 0.  0.
        2    1    3    3  502    0 -0.12458233803E+03 -0.23899135059E+03  0.33180221341E+03  0.42746968716E+03  0.25500000920E-02 0.  1.
       -2    1    3    3    0  502  0.12458233803E+03  0.23899135059E+03 -0.26579200100E+03  0.37852742623E+03  0.25500000920E-02 0. -1.
</event>
<event>
 5   0  0.1747544E-02  0.7341887E+03  0.7818609E-02  0.9660488E-01
       -2   -1    0    0    0  501  0.00000000000E+00  0.00000000000E+00  0.15386109126E+03  0.15386109128E+03  0.25500000920E-02 0.  1.
        2   -1    0    0  501    0  0.00000000000E+00  0.00000000000E+00 -0.87584360943E+03  0.87584360943E+03  0.25500000920E-02 0. -1.
    10030    2    1    2    0    0  0.00000000000E+00  0.00000000000E+00 -0.72198251817E+03  0.10297047007E+04  0.73418867747E+03 0.  0.
        1    1    3    3  502    0 -0.28006822645E+03  0.20216894576E+03 -0.18667505458E+03  0.39262968574E+03  0.50400001928E-02 0.  1.
       -1    1    3    3    0  502  0.28006822645E+03 -0.20216894576E+03 -0.53530746359E+03  0.63707501497E+03  0.50400001928E-02 0. -1.
</event>
<event>
 5   0  0.1673727E-02  0.8011286E+03  0.7818609E-02  0.9558385E-01
        2   -1    0    0  501    0  0.00000000000E+00  0.00000000000E+00  0.18232549011E+04  0.18232549011E+04  0.25500000920E-02 0. -1.
       -2   -1    0    0    0  501  0.00000000000E+00  0.00000000000E+00 -0.88002923293E+02  0.88002923330E+02  0.25500000920E-02 0.  1.
    10030    2    1    2    0    0  0.00000000000E+00  0.00000000000E+00  0.17352519778E+04  0.19112578244E+04  0.80112860701E+03 0.  0.
        5    1    3    3  502    0  0.16519431908E+03  0.80876303506E+02  0.17164801581E+04  0.17263129388E+04  0.46999998093E+01 0. -1.
       -5    1    3    3    0  502 -0.16519431908E+03 -0.80876303506E+02  0.18771819757E+02  0.18494488568E+03  0.46999998093E+01 0.  1.
</event>
<event>
 5   0  0.1818665E-02  0.8226881E+03  0.7818609E-02  0.9527745E-01
        2   -1    0    0  501    0  0.00000000000E+00  0.00000000000E+00  0.91816120081E+03  0.91816120081E+03  0.25500000920E-02 0.  1.
       -2   -1    0    0    0  501  0.00000000000E+00  0.00000000000E+00 -0.18428565260E+03  0.18428565262E+03  0.25500000920E-02 0. -1.
    10030    2    1    2    0    0  0.00000000000E+00  0.00000000000E+00  0.73387554821E+03  0.11024468534E+04  0.82268812097E+03 0.  0.
        3    1    3    3  502    0  0.23941034629E+02  0.32446301855E+03  0.29641784345E+02  0.32669262179E+03  0.10100000352E+00 0. -1.
       -3    1    3    3    0  502 -0.23941034629E+02 -0.32446301855E+03  0.70423376386E+03  0.77575423164E+03  0.10100000352E+00 0.  1.
</event>
<event>
 5   0  0.1025900E-02  0.7999014E+03  0.7818609E-02  0.9560160E-01
       -1   -1    0    0    0  501  0.00000000000E+00  0.00000000000E+00  0.35057137483E+03  0.35057137487E+03  0.50400001928E-02 0. -1.
        1   -1    0    0  501    0  0.00000000000E+00  0.00000000000E+00 -0.45628530983E+03  0.45628530985E+03  0.50400001928E-02 0.  1.
    10030    2    1    2    0    0  0.00000000000E+00  0.00000000000E+00 -0.10571393500E+03  0.80685668472E+03  0.79990141494E+03 0.  0.
        1    1    3    3  502    0  0.29398659988E+03  0.45042950665E+01 -0.32634575433E+03  0.43926069819E+03  0.50400001928E-02 0.  1.
       -1    1    3    3    0  502 -0.29398659988E+03 -0.45042950665E+01  0.22063181933E+03  0.36759598653E+03  0.50400001928E-02 0. -1.
</event>
<event>
 5   0  0.1030323E-02  0.8445860E+03  0.7818609E-02  0.9497632E-01
        1   -1    0    0  501    0  0.00000000000E+00  0.00000000000E+00  0.78844338146E+03  0.78844338147E+03  0.50400001928E-02 0.  1.
       -1   -1    0    0    0  501  0.00000000000E+00  0.00000000000E+00 -0.22618160413E+03  0.22618160419E+03  0.50400001928E-02 0. -1.
    10030    2    1    2    0    0  0.00000000000E+00  0.00000000000E+00  0.56226177733E+03  0.10146249857E+04  0.84458602598E+03 0.  0.
        3    1    3    3  502    0 -0.28386735326E+03 -0.31071966413E+03  0.23944645092E+03  0.48421276004E+03  0.10100000352E+00 0. -1.
       -3    1    3    3    0  502  0.28386735326E+03  0.31071966413E+03  0.32281532640E+03  0.53041222562E+03  0.10100000352E+00 0.  1.
</event>
<event>
 5   0  0.1049780E-02  0.8083589E+03  0.7818609E-02  0.9547996E-01
        1   -1    0    0  501    0  0.00000000000E+00  0.00000000000E+00  0.21619910841E+04  0.21619910841E+04  0.50400001928E-02 0. -1.
       -1   -1    0    0    0  501  0.00000000000E+00  0.00000000000E+00 -0.75560449291E+02  0.75560449459E+02  0.50400001928E-02 0.  1.
    10030    2    1    2    0    0  0.00000000000E+00  0.00000000000E+00  0.20864306348E+04  0.22375515336E+04  0.80835887543E+03 0.  0.
        5    1    3    3  502    0  0.15357218457E+03 -0.23834543938E+03  0.18404138004E+04  0.18621326513E+04  0.46999998093E+01 0. -1.
       -5    1    3    3    0  502 -0.15357218457E+03  0.23834543938E+03  0.24601683440E+03  0.37541888226E+03  0.46999998093E+01 0.  1.
</event>
<event>
 5   0  0.1030323E-02  0.8033507E+03  0.7818609E-02  0.9555180E-01
       -1   -1    0    0    0  501  0.00000000000E+00  0.00000000000E+00  0.96888223121E+02  0.96888223252E+02  0.50400001928E-02 0. -1.
        1   -1    0    0  501    0  0.00000000000E+00  0.00000000000E+00 -0.16652497812E+04  0.16652497812E+04  0.50400001928E-02 0.  1.
    10030    2    1    2    0    0  0.00000000000E+00  0.00000000000E+00 -0.15683615581E+04  0.17621380044E+04  0.80335071413E+03 0.  0.
        3    1    3    3  502    0 -0.31286650892E+03  0.58005647983E+02 -0.24647267118E+03  0.40249086380E+03  0.10100000352E+00 0. -1.
       -3    1    3    3    0  502  0.31286650892E+03 -0.58005647983E+02 -0.13218888869E+04  0.13596471406E+04  0.10100000352E+00 0.  1.
</event>
<event>
 5   0  0.1817089E-02  0.7957584E+03  0.7818609E-02  0.9566177E-01
        2   -1    0    0  501    0  0.00000000000E+00  0.00000000000E+00  0.65147190941E+03  0.65147190942E+03  0.25500000920E-02 0.  1.
       -2   -1    0    0    0  501  0.00000000000E+00  0.00000000000E+00 -0.24300026499E+03  0.24300026500E+03  0.25500000920E-02 0. -1.
    10030    2    1    2    0    0  0.00000000000E+00  0.00000000000E+00  0.40847164443E+03  0.89447217442E+03  0.79575837194E+03 0.  0.
        2    1    3    3  502    0 -0.60343931562E+02 -0.39258759769E+03  0.23039105898E+03  0.45918019557E+03  0.25500000920E-02 0.  1.
       -2    1    3    3    0  502  0.60343931562E+02  0.39258759769E+03  0.17808058544E+03  0.43529197885E+03  0.25500000920E-02 0. -1.
</event>
<event>
 5   0  0.1818665E-02  0.7992672E+03  0.7818609E-02  0.9561078E-01
        2   -1    0    0  501    0  0.00000000000E+00  0.00000000000E+00  0.42857305894E+03  0.42857305895E+03  0.25500000920E-02 0.  1.
       -2   -1    0    0    0  501  0.00000000000E+00  0.00000000000E+00 -0.37264826759E+03  0.37264826760E+03  0.25500000920E-02 0. -1.
    10030    2    1    2    0    0  0.00000000000E+00  0.00000000000E+00  0.55924791345E+02  0.80122132655E+03  0.79926718426E+03 0.  0.
        3    1    3    3  502    0  0.38399434063E+03  0.11044641435E+03  0.20398506955E+02  0.40008270816E+03  0.10100000352E+00 0. -1.
       -3    1    3    3    0  502 -0.38399434063E+03 -0.11044641435E+03  0.35526284390E+02  0.40113861839E+03  0.10100000352E+00 0.  1.
</event>
<event>
 5   0  0.1030323E-02  0.8077981E+03  0.7818609E-02  0.9548798E-01
       -1   -1    0    0    0  501  0.00000000000E+00  0.00000000000E+00  0.47947341362E+03  0.47947341365E+03  0.50400001928E-02 0. -1.
        1   -1    0    0  501    0  0.00000000000E+00  0.00000000000E+00 -0.34023669257E+03  0.34023669261E+03  0.50400001928E-02 0.  1.
    10030    2    1    2    0    0  0.00000000000E+00  0.00000000000E+00  0.13923672105E+03  0.81971010626E+03  0.80779811452E+03 0.  0.
        3    1    3    3  502    0  0.24494517831E+03  0.51926610372E+00 -0.25626535242E+03  0.35450014255E+03  0.10100000352E+00 0.  1.
       -3    1    3    3    0  502 -0.24494517831E+03 -0.51926610372E+00  0.39550207347E+03  0.46520996371E+03  0.10100000352E+00 0. -1.
</event>
<event>
 5   0  0.1038912E-02  0.8021709E+03  0.7818609E-02  0.9556880E-01
       -1   -1    0    0    0  501  0.00000000000E+00  0.00000000000E+00  0.15333507103E+03  0.15333507111E+03  0.50400001928E-02 0. -1.
        1   -1    0    0  501    0  0.00000000000E+00  0.00000000000E+00 -0.10491371793E+04  0.10491371793E+04  0.50400001928E-02 0.  1.
    10030    2    1    2    0    0  0.00000000000E+00  0.00000000000E+00 -0.89580210828E+03  0.12024722504E+04  0.80217086451E+03 0.  0.
        2    1    3    3  502    0  0.18790139585E+03  0.81367494482E+02 -0.96488332719E+03  0.98637084244E+03  0.25500000920E-02 0.  1.
       -2    1    3    3    0  502 -0.18790139585E+03 -0.81367494482E+02  0.69081218914E+02  0.21610140799E+03  0.25500000920E-02 0. -1.
</event>
<event>
 5   0  0.1817089E-02  0.7982003E+03  0.7818609E-02  0.9562626E-01
       -2   -1    0    0    0  501  0.00000000000E+00  0.00000000000E+00  0.67176055015E+03  0.67176055016E+03  0.25500000920E-02 0. -1.
        2   -1    0    0  501    0  0.00000000000E+00  0.00000000000E+00 -0.23710965909E+03  0.23710965910E+03  0.25500000920E-02 0.  1.
    10030    2    1    2    0    0  0.00000000000E+00  0.00000000000E+00  0.43465089106E+03  0.90887020926E+03  0.79820026321E+03 0.  0.
        2    1    3    3  502    0  0.14662382807E+03  0.84289310674E+02  0.62893998779E+03  0.65128238353E+03  0.25500000920E-02 0. -1.
       -2    1    3    3    0  502 -0.14662382807E+03 -0.84289310674E+02 -0.19428909672E+03  0.25758782573E+03  0.25500000920E-02 0.  1.
</event>
<event>
 5   0  0.1038912E-02  0.7982789E+03  0.7818609E-02  0.9562512E-01
        1   -1    0    0  501    0  0.00000000000E+00  0.00000000000E+00  0.81015342738E+03  0.81015342740E+03  0.50400001928E-02 0.  1.
       -1   -1    0    0    0  501  0.00000000000E+00  0.00000000000E+00 -0.19664461035E+03  0.19664461042E+03  0.50400001928E-02 0. -1.
    10030    2    1    2    0    0  0.00000000000E+00  0.00000000000E+00  0.61350881703E+03  0.10067980378E+04  0.79827891139E+03 0.  0.
        2    1    3    3  502    0  0.40166050071E+02  0.11519808284E+03 -0.17255284009E+03  0.21132532385E+03  0.25500000920E-02 0. -1.
       -2    1    3    3    0  502 -0.40166050071E+02 -0.11519808284E+03  0.78606165712E+03  0.79547271397E+03  0.25500000920E-02 0.  1.
</event>
<event>
 5   0  0.6872500E-03  0.8161732E+03  0.7818609E-02  0.9536898E-01
       -3   -1    0    0    0  501  0.00000000000E+00  0.00000000000E+00  0.38523053549E+03  0.38523054873E+03  0.10100000352E+00 0. -1.
        3   -1    0    0  501    0  0.00000000000E+00  0.00000000000E+00 -0.43229866244E+03  0.43229867424E+03  0.10100000352E+00 0.  1.
    10030    2    1    2    0    0  0.00000000000E+00  0.00000000000E+00 -0.47068126948E+02  0.81752922297E+03  0.81617315677E+03 0.  0.
        1    1    3    3  502    0  0.19643138434E+03 -0.38745460676E+02  0.33265225089E+03  0.38825767156E+03  0.50400001928E-02 0. -1.
       -1    1    3    3    0  502 -0.19643138434E+03  0.38745460676E+02 -0.37972037784E+03  0.42927155141E+03  0.50400001928E-02 0.  1.
</event>
<event>
 5   0  0.1747544E-02  0.7973300E+03  0.7818609E-02  0.9563890E-01
       -2   -1    0    0    0  501  0.00000000000E+00  0.00000000000E+00  0.96363529027E+03  0.96363529027E+03  0.25500000920E-02 0.  1.
        2   -1    0    0  501    0  0.00000000000E+00  0.00000000000E+00 -0.16493148689E+03  0.16493148691E+03  0.25500000920E-02 0. -1.
    10030    2    1    2    0    0  0.00000000000E+00  0.00000000000E+00  0.79870380338E+03  0.11285667772E+04  0.79733004774E+03 0.  0.
        1    1    3    3  502    0  0.38983823389E+02 -0.34774370853E+03  0.12897698592E+03  0.37293496515E+03  0.50400001928E-02 0. -1.
       -1    1    3    3    0  502 -0.38983823389E+02  0.34774370853E+03  0.66972681746E+03  0.75563181204E+03  0.50400001928E-02 0.  1.
</event>
<event>
 5   0  0.1146083E-02  0.8043560E+03  0.7818609E-02  0.9553733E-01
       -1   -1    0    0    0  501  0.00000000000E+00  0.00000000000E+00  0.37220337677E+03  0.37220337680E+03  0.50400001928E-02 0.  1.
        1   -1    0    0  501    0  0.00000000000E+00  0.00000000000E+00 -0.43456651302E+03  0.43456651305E+03  0.50400001928E-02 0. -1.
    10030    2    1    2    0    0  0.00000000000E+00  0.00000000000E+00 -0.62363136251E+02  0.80676988984E+03  0.80435595006E+03 0.  0.
        4    1    3    3  502    0  0.30377269261E+03  0.21284008565E+03  0.12474158754E+03  0.39133211905E+03  0.12699999809E+01 0.  1.
       -4    1    3    3    0  502 -0.30377269261E+03 -0.21284008565E+03 -0.18710472379E+03  0.41543777079E+03  0.12699999809E+01 0. -1.
</event>
<event>
 5   0  0.1030323E-02  0.8030739E+03  0.7818609E-02  0.9555578E-01
        1   -1    0    0  501    0  0.00000000000E+00  0.00000000000E+00  0.55518818976E+03  0.55518818979E+03  0.50400001928E-02 0.  1.
       -1   -1    0    0    0  501  0.00000000000E+00  0.00000000000E+00 -0.29040947165E+03  0.29040947169E+03  0.50400001928E-02 0. -1.
    10030    2    1    2    0    0  0.00000000000E+00  0.00000000000E+00  0.26477871812E+03  0.84559766148E+03  0.80307386679E+03 0.  0.
        3    1    3    3  502    0  0.32148437191E+03  0.23292138063E+03  0.19580577280E+03  0.44265616656E+03  0.10100000352E+00 0.  1.
       -3    1    3    3    0  502 -0.32148437191E+03 -0.23292138063E+03  0.68972945318E+02  0.40294149491E+03  0.10100000352E+00 0. -1.
</event>
<event>
 5   0  0.1038912E-02  0.7945364E+03  0.7818609E-02  0.9567959E-01
       -1   -1    0    0    0  501  0.00000000000E+00  0.00000000000E+00  0.62493807918E+03  0.62493807920E+03  0.50400001928E-02 0. -1.
        1   -1    0    0  501    0  0.00000000000E+00  0.00000000000E+00 -0.25254023047E+03  0.25254023052E+03  0.50400001928E-02 0.  1.
    10030    2    1    2    0    0  0.00000000000E+00  0.00000000000E+00  0.37239784872E+03  0.87747830972E+03  0.79453635933E+03 0.  0.
        2    1    3    3  502    0  0.20376253873E+03 -0.16886541553E+03  0.51341789517E+03  0.57760941460E+03  0.25500000920E-02 0. -1.
       -2    1    3    3    0  502 -0.20376253873E+03  0.16886541553E+03 -0.14102004645E+03  0.29986889512E+03  0.25500000920E-02 0.  1.
</event>
<event>
 5   0  0.1747544E-02  0.8149952E+03  0.7818609E-02  0.9538562E-01
       -2   -1    0    0    0  501  0.00000000000E+00  0.00000000000E+00  0.19186372735E+03  0.19186372737E+03  0.25500000920E-02 0.  1.
        2   -1    0    0  501    0  0.00000000000E+00  0.00000000000E+00 -0.86548031537E+03  0.86548031537E+03  0.25500000920E-02 0. -1.
    10030    2    1    2    0    0  0.00000000000E+00  0.00000000000E+00 -0.67361658801E+03  0.10573440427E+04  0.81499516383E+03 0.  0.
        1    1    3    3  502    0  0.42081043544E+02 -0.22503311267E+03 -0.77416290763E+03  0.80730348915E+03  0.50400001928E-02 0. -1.
       -1    1    3    3    0  502 -0.42081043544E+02  0.22503311267E+03  0.10054631961E+03  0.25004055359E+03  0.50400001928E-02 0.  1.
</event>
<event>
 5   0  0.1673727E-02  0.7992275E+03  0.7818609E-02  0.9561136E-01
       -2   -1    0    0    0  501  0.00000000000E+00  0.00000000000E+00  0.21058853627E+03  0.21058853629E+03  0.25500000920E-02 0. -1.
        2   -1    0    0  501    0  0.00000000000E+00  0.00000000000E+00 -0.75830877705E+03  0.75830877706E+03  0.25500000920E-02 0.  1.
    10030    2    1    2    0    0  0.00000000000E+00  0.00000000000E+00 -0.54772024078E+03  0.96889731335E+03  0.79922746553E+03 0.  0.
        5    1    3    3  502    0 -0.26061608576E+03 -0.10720850241E+03 -0.61729343577E+03  0.67859242774E+03  0.46999998093E+01 0.  1.
       -5    1    3    3    0  502  0.26061608576E+03  0.10720850241E+03  0.69573194995E+02  0.29030488560E+03  0.46999998093E+01 0. -1.
</event>
<event>
 5   0  0.1049780E-02  0.8046314E+03  0.7818609E-02  0.9553337E-01
        1   -1    0    0  501    0  0.00000000000E+00  0.00000000000E+00  0.74605747229E+03  0.74605747230E+03  0.50400001928E-02 0. -1.
       -1   -1    0    0    0  501  0.00000000000E+00  0.00000000000E+00 -0.21695101346E+03  0.21695101352E+03  0.50400001928E-02 0.  1.
    10030    2    1    2    0    0  0.00000000000E+00  0.00000000000E+00  0.52910645882E+03  0.96300848583E+03  0.80463140568E+03 0.  0.
        5    1    3    3  502    0 -0.40937304098E+02  0.21297626458E+03  0.67006748512E+03  0.70430623791E+03  0.46999998093E+01 0. -1.
       -5    1    3    3    0  502  0.40937304098E+02 -0.21297626458E+03 -0.14096102630E+03  0.25870224791E+03  0.46999998093E+01 0.  1.
</event>
<event>
 5   0  0.1731337E-02  0.7990179E+03  0.7818609E-02  0.9561440E-01
        2   -1    0    0  501    0  0.00000000000E+00  0.00000000000E+00  0.10853405585E+04  0.10853405585E+04  0.25500000920E-02 0.  1.
       -2   -1    0    0    0  501  0.00000000000E+00  0.00000000000E+00 -0.14705742191E+03  0.14705742193E+03  0.25500000920E-02 0. -1.
    10030    2    1    2    0    0  0.00000000000E+00  0.00000000000E+00  0.93828313655E+03  0.12323979804E+04  0.79901785822E+03 0.  0.
        4    1    3    3  502    0 -0.13422773487E+03  0.10072259770E+03  0.10283378679E+04  0.10419417018E+04  0.12699999809E+01 0.  1.
       -4    1    3    3    0  502  0.13422773487E+03 -0.10072259770E+03 -0.90054731390E+02  0.19045627856E+03  0.12699999809E+01 0. -1.
</event>
<event>
 5   0  0.1025900E-02  0.7993404E+03  0.7818609E-02  0.9560972E-01
       -1   -1    0    0    0  501  0.00000000000E+00  0.00000000000E+00  0.12926074045E+03  0.12926074055E+03  0.50400001928E-02 0.  1.
        1   -1    0    0  501    0  0.00000000000E+00  0.00000000000E+00 -0.12357679243E+04  0.12357679243E+04  0.50400001928E-02 0. -1.
    10030    2    1    2    0    0  0.00000000000E+00  0.00000000000E+00 -0.11065071838E+04  0.13650286648E+04  0.79934042057E+03 0.  0.
        1    1    3    3  502    0 -0.49139231270E+02 -0.18124201438E+03 -0.11557403131E+04  0.11708966663E+04  0.50400001928E-02 0. -1.
       -1    1    3    3    0  502  0.49139231270E+02  0.18124201438E+03  0.49233129234E+02  0.19413199856E+03  0.50400001928E-02 0.  1.
</event>
<event>
 5   0  0.1049780E-02  0.8204026E+03  0.7818609E-02  0.9530946E-01
       -1   -1    0    0    0  501  0.00000000000E+00  0.00000000000E+00  0.98388220591E+02  0.98388220720E+02  0.50400001928E-02 0.  1.
        1   -1    0    0  501    0  0.00000000000E+00  0.00000000000E+00 -0.17102158032E+04  0.17102158032E+04  0.50400001928E-02 0. -1.
    10030    2    1    2    0    0  0.00000000000E+00  0.00000000000E+00 -0.16118275826E+04  0.18086040239E+04  0.82040255930E+03 0.  0.
        5    1    3    3  502    0 -0.30055195587E+03 -0.11282367973E+03 -0.24307832466E+03  0.40270314476E+03  0.46999998093E+01 0.  1.
       -5    1    3    3    0  502  0.30055195587E+03  0.11282367973E+03 -0.13687492579E+04  0.14059008792E+04  0.46999998093E+01 0. -1.
</event>
<event>
 5   0  0.1038912E-02  0.8034808E+03  0.7818609E-02  0.9554992E-01
        1   -1    0    0  501    0  0.00000000000E+00  0.00000000000E+00  0.26393921062E+03  0.26393921066E+03  0.50400001928E-02 0. -1.
       -1   -1    0    0    0  501  0.00000000000E+00  0.00000000000E+00 -0.61148689568E+03  0.61148689570E+03  0.50400001928E-02 0.  1.
    10030    2    1    2    0    0  0.00000000000E+00  0.00000000000E+00 -0.34754768506E+03  0.87542610636E+03  0.80348084875E+03 0.  0.
        2    1    3    3  502    0 -0.36044221655E+03  0.15720493889E+03 -0.26337755345E+03  0.47328608679E+03  0.25500000920E-02 0.  1.
       -2    1    3    3    0  502  0.36044221655E+03 -0.15720493889E+03 -0.84170131611E+02  0.40214001957E+03  0.25500000920E-02 0. -1.
</event>
<event>
 5   0  0.1038912E-02  0.7964659E+03  0.7818609E-02  0.9565147E-01
        1   -1    0    0  501    0  0.00000000000E+00  0.00000000000E+00  0.66428763379E+03  0.66428763381E+03  0.50400001928E-02 0. -1.
       -1   -1    0    0    0  501  0.00000000000E+00  0.00000000000E+00 -0.23873618460E+03  0.23873618465E+03  0.50400001928E-02 0.  1.
    10030    2    1    2    0    0  0.00000000000E+00  0.00000000000E+00  0.42555144919E+03  0.90302381846E+03  0.79646593198E+03 0.  0.
        2    1    3    3  502    0 -0.25615742030E+03 -0.35359768155E+02  0.55615183795E+03  0.61332846342E+03  0.25500000920E-02 0. -1.
       -2    1    3    3    0  502  0.25615742030E+03  0.35359768155E+02 -0.13060038877E+03  0.28969535504E+03  0.25500000920E-02 0.  1.
</event>
<event>
 5   0  0.1049780E-02  0.8005293E+03  0.7818609E-02  0.9559251E-01
        1   -1    0    0  501    0  0.00000000000E+00  0.00000000000E+00  0.20594184808E+04  0.20594184808E+04  0.50400001928E-02 0.  1.
       -1   -1    0    0    0  501  0.00000000000E+00  0.00000000000E+00 -0.77794670546E+02  0.77794670710E+02  0.50400001928E-02 0. -1.
    10030    2    1    2    0    0  0.00000000000E+00  0.00000000000E+00  0.19816238103E+04  0.21372131515E+04  0.80052928095E+03 0.  0.
        5    1    3    3  502    0  0.11200406747E+03  0.31759675215E+03  0.15682257465E+04  0.16039846290E+04  0.46999998093E+01 0.  1.
       -5    1    3    3    0  502 -0.11200406747E+03 -0.31759675215E+03  0.41339806376E+03  0.53322852251E+03  0.46999998093E+01 0. -1.
</event>
<event>
 5   0  0.1049780E-02  0.7943599E+03  0.7818609E-02  0.9568217E-01
        1   -1    0    0  501    0  0.00000000000E+00  0.00000000000E+00  0.32325431339E+03  0.32325431343E+03  0.50400001928E-02 0.  1.
       -1   -1    0    0    0  501  0.00000000000E+00  0.00000000000E+00 -0.48801180753E+03  0.48801180756E+03  0.50400001928E-02 0. -1.
    10030    2    1    2    0    0  0.00000000000E+00  0.00000000000E+00 -0.16475749414E+03  0.81126612099E+03  0.79435992295E+03 0.  0.
        5    1    3    3  502    0  0.11082456750E+03  0.36921654557E+03 -0.17994674905E+03  0.42544784025E+03  0.46999998093E+01 0. -1.
       -5    1    3    3    0  502 -0.11082456750E+03 -0.36921654557E+03  0.15189254912E+02  0.38581828073E+03  0.46999998093E+01 0.  1.
</event>
<event>
 5   0  0.1038912E-02  0.7935696E+03  0.7818609E-02  0.9569372E-01
        1   -1    0    0  501    0  0.00000000000E+00  0.00000000000E+00  0.54117686309E+03  0.54117686311E+03  0.50400001928E-02 0.  1.
       -1   -1    0    0    0  501  0.00000000000E+00  0.00000000000E+00 -0.29091818572E+03  0.29091818576E+03  0.50400001928E-02 0. -1.
    10030    2    1    2    0    0  0.00000000000E+00  0.00000000000E+00  0.25025867737E+03  0.83209504887E+03  0.79356963448E+03 0.  0.
        2    1    3    3  502    0 -0.23730572596E+03  0.90120410302E+02  0.44489748318E+03  0.51222013478E+03  0.25500000920E-02 0.  1.
       -2    1    3    3    0  502  0.23730572596E+03 -0.90120410302E+02 -0.19463880582E+03  0.31987491409E+03  0.25500000920E-02 0. -1.
</event>
<event>
 5   0  0.1038912E-02  0.7995534E+03  0.7818609E-02  0.9560664E-01
        1   -1    0    0  501    0  0.00000000000E+00  0.00000000000E+00  0.20172547590E+03  0.20172547596E+03  0.50400001928E-02 0.  1.
       -1   -1    0    0    0  501  0.00000000000E+00  0.00000000000E+00 -0.79227174925E+03  0.79227174926E+03  0.50400001928E-02 0. -1.
    10030    2    1    2    0    0  0.00000000000E+00  0.00000000000E+00 -0.59054627335E+03  0.99399722522E+03  0.79955336456E+03 0.  0.
        2    1    3    3  502    0 -0.38809460632E+03  0.84627250317E+02 -0.23909246450E+03  0.46362096754E+03  0.25500000920E-02 0. -1.
       -2    1    3    3    0  502  0.38809460632E+03 -0.84627250317E+02 -0.35145380885E+03  0.53037625768E+03  0.25500000920E-02 0.  1.
</event>
<event>
 5   0  0.6872500E-03  0.8047827E+03  0.7818609E-02  0.9553120E-01
       -4   -1    0    0    0  501  0.00000000000E+00  0.00000000000E+00  0.63424840747E+03  0.63424967898E+03  0.12699999809E+01 0.  1.
        4   -1    0    0  501    0  0.00000000000E+00  0.00000000000E+00 -0.25528926684E+03  0.25529242578E+03  0.12699999809E+01 0. -1.
    10030    2    1    2    0    0  0.00000000000E+00  0.00000000000E+00  0.37895914064E+03  0.88954210476E+03  0.80478265754E+03 0.  0.
        1    1    3    3  502    0 -0.17736485934E+03 -0.23261701260E+02  0.58788465479E+03  0.61449798001E+03  0.50400001928E-02 0.  1.
       -1    1    3    3    0  502  0.17736485934E+03  0.23261701260E+02 -0.20892551415E+03  0.27504412476E+03  0.50400001928E-02 0. -1.
</event>
<event>
 5   0  0.1747544E-02  0.7951262E+03  0.7818609E-02  0.9567099E-01
       -2   -1    0    0    0  501  0.00000000000E+00  0.00000000000E+00  0.27020268582E+03  0.27020268583E+03  0.25500000920E-02 0.  1.
        2   -1    0    0  501    0  0.00000000000E+00  0.00000000000E+00 -0.58495495672E+03  0.58495495673E+03  0.25500000920E-02 0. -1.
    10030    2    1    2    0    0  0.00000000000E+00  0.00000000000E+00 -0.31475227090E+03  0.85515764256E+03  0.79512615451E+03 0.  0.
        1    1    3    3  502    0  0.21086580968E+03  0.12868337825E+03  0.17764250654E+03  0.30427070461E+03  0.50400001928E-02 0.  1.
       -1    1    3    3    0  502 -0.21086580968E+03 -0.12868337825E+03 -0.49239477744E+03  0.55088693795E+03  0.50400001928E-02 0. -1.
</event>
<event>
 5   0  0.1049780E-02  0.8012646E+03  0.7818609E-02  0.9558189E-01
       -1   -1    0    0    0  501  0.00000000000E+00  0.00000000000E+00  0.28273675976E+03  0.28273675980E+03  0.50400001928E-02 0. -1.
        1   -1    0    0  501    0  0.00000000000E+00  0.00000000000E+00 -0.56768784254E+03  0.56768784256E+03  0.50400001928E-02 0.  1.
    10030    2    1    2    0    0  0.00000000000E+00  0.00000000000E+00 -0.28495108278E+03  0.85042460237E+03  0.80126455352E+03 0.  0.
        5    1    3    3  502    0  0.90019514964E+02 -0.39007128075E+03 -0.12655474840E+03  0.41987773397E+03  0.46999998093E+01 0.  1.
       -5    1    3    3    0  502 -0.90019514964E+02  0.39007128075E+03 -0.15839633438E+03  0.43054686840E+03  0.46999998093E+01 0. -1.
</event>
<event>
 5   0  0.1038912E-02  0.7978589E+03  0.7818609E-02  0.9563121E-01
        1   -1    0    0  501    0  0.00000000000E+00  0.00000000000E+00  0.40110380485E+03  0.40110380488E+03  0.50400001928E-02 0.  1.
       -1   -1    0    0    0  501  0.00000000000E+00  0.00000000000E+00 -0.39676688347E+03  0.39676688350E+03  0.50400001928E-02 0. -1.
    10030    2    1    2    0    0  0.00000000000E+00  0.00000000000E+00  0.43369213860E+01  0.79787068838E+03  0.79785890137E+03 0.  0.
        2    1    3    3  502    0 -0.91562754554E+02 -0.63124540310E+02 -0.38095109999E+03  0.39685285208E+03  0.25500000920E-02 0. -1.
       -2    1    3    3    0  502  0.91562754554E+02  0.63124540310E+02  0.38528802138E+03  0.40101783630E+03  0.25500000920E-02 0.  1.
</event>
<event>
 5   0  0.1025900E-02  0.8126867E+03  0.7818609E-02  0.9541833E-01
        1   -1    0    0  501    0  0.00000000000E+00  0.00000000000E+00  0.26668112625E+03  0.26668112629E+03  0.50400001928E-02 0. -1.
       -1   -1    0    0    0  501  0.00000000000E+00  0.00000000000E+00 -0.61914730580E+03  0.61914730582E+03  0.50400001928E-02 0.  1.
    10030    2    1    2    0    0  0.00000000000E+00  0.00000000000E+00 -0.35246617955E+03  0.88582843211E+03  0.81268665758E+03 0.  0.
        1    1    3    3  502    0 -0.54622749494E+02  0.14493541091E+03  0.23324289566E+03  0.27998601126E+03  0.50400001928E-02 0. -1.
       -1    1    3    3    0  502  0.54622749494E+02 -0.14493541091E+03 -0.58570907521E+03  0.60584242086E+03  0.50400001928E-02 0.  1.
</event>
<event>
 5   0  0.1673727E-02  0.8199230E+03  0.7818609E-02  0.9531619E-01
       -2   -1    0    0    0  501  0.00000000000E+00  0.00000000000E+00  0.20995633618E+03  0.20995633620E+03  0.25500000920E-02 0.  1.
        2   -1    0    0  501    0  0.00000000000E+00  0.00000000000E+00 -0.80049230742E+03  0.80049230742E+03  0.25500000920E-02 0. -1.
    10030    2    1    2    0    0  0.00000000000E+00  0.00000000000E+00 -0.59053597124E+03  0.10104486436E+04  0.81992300130E+03 0.  0.
        5    1    3    3  502    0  0.73168909133E+02 -0.39986451998E+03 -0.23004522789E+03  0.46710621969E+03  0.46999998093E+01 0. -1.
       -5    1    3    3    0  502 -0.73168909133E+02  0.39986451998E+03 -0.36049074334E+03  0.54334242392E+03  0.46999998093E+01 0.  1.
</event>
<event>
 5   0  0.1673727E-02  0.8046623E+03  0.7818609E-02  0.9553293E-01
        2   -1    0    0  501    0  0.00000000000E+00  0.00000000000E+00  0.16803513715E+04  0.16803513715E+04  0.25500000920E-02 0. -1.
       -2   -1    0    0    0  501  0.00000000000E+00  0.00000000000E+00 -0.96331246378E+02  0.96331246412E+02  0.25500000920E-02 0.  1.
    10030    2    1    2    0    0  0.00000000000E+00  0.00000000000E+00  0.15840201252E+04  0.17766826179E+04  0.80466226954E+03 0.  0.
        5    1    3    3  502    0 -0.18507737972E+03  0.16148374889E+03  0.88505501680E+02  0.26112439845E+03  0.46999998093E+01 0.  1.
       -5    1    3    3    0  502  0.18507737972E+03 -0.16148374889E+03  0.14955146235E+04  0.15155582195E+04  0.46999998093E+01 0. -1.
</event>
<event>
 5   0  0.1731337E-02  0.8011932E+03  0.7818609E-02  0.9558292E-01
       -2   -1    0    0    0  501  0.00000000000E+00  0.00000000000E+00  0.11983592568E+03  0.11983592570E+03  0.25500000920E-02 0.  1.
        2   -1    0    0  501    0  0.00000000000E+00  0.00000000000E+00 -0.13391447320E+04  0.13391447320E+04  0.25500000920E-02 0. -1.
    10030    2    1    2    0    0  0.00000000000E+00  0.00000000000E+00 -0.12193088064E+04  0.14589806578E+04  0.80119323163E+03 0.  0.
        4    1    3    3  502    0  0.18111530860E+03 -0.90638583382E+02  0.19735470424E+02  0.20349252935E+03  0.12699999809E+01 0.  1.
       -4    1    3    3    0  502 -0.18111530860E+03  0.90638583382E+02 -0.12390442768E+04  0.12554881284E+04  0.12699999809E+01 0. -1.
</event>
<event>
 5   0  0.1049780E-02  0.7994890E+03  0.7818609E-02  0.9560757E-01
        1   -1    0    0  501    0  0.00000000000E+00  0.00000000000E+00  0.12191362816E+03  0.12191362827E+03  0.50400001928E-02 0.  1.
       -1   -1    0    0    0  501  0.00000000000E+00  0.00000000000E+00 -0.13107285101E+04  0.13107285102E+04  0.50400001928E-02 0. -1.
    10030    2    1    2    0    0  0.00000000000E+00  0.00000000000E+00 -0.11888148820E+04  0.14326421384E+04  0.79948900753E+03 0.  0.
        5    1    3    3  502    0  0.36786180618E+03 -0.15567737146E+03 -0.56808192036E+03  0.69447599718E+03  0.46999998093E+01 0.  1.
       -5    1    3    3    0  502 -0.36786180618E+03  0.15567737146E+03 -0.62073296162E+03  0.73816614124E+03  0.46999998093E+01 0. -1.
</event>
<event>
 5   0  0.1817089E-02  0.7977982E+03  0.7818609E-02  0.9563210E-01
       -2   -1    0    0    0  501  0.00000000000E+00  0.00000000000E+00  0.13674699491E+03  0.13674699494E+03  0.25500000920E-02 0. -1.
        2   -1    0    0  501    0  0.00000000000E+00  0.00000000000E+00 -0.11636122762E+04  0.11636122762E+04  0.25500000920E-02 0.  1.
    10030    2    1    2    0    0  0.00000000000E+00  0.00000000000E+00 -0.10268652813E+04  0.13003592712E+04  0.79779817506E+03 0.  0.
        2    1    3    3  502    0  0.21745087852E+03 -0.25810267775E+03 -0.86003291400E+03  0.92388229229E+03  0.25500000920E-02 0.  1.
       -2    1    3    3    0  502 -0.21745087852E+03  0.25810267775E+03 -0.16683236730E+03  0.37647697887E+03  0.25500000920E-02 0. -1.
</event>
<event>
 5   0  0.1038912E-02  0.8146974E+03  0.7818609E-02  0.9538984E-01
       -1   -1    0    0    0  501  0.00000000000E+00  0.00000000000E+00  0.45014786580E+03  0.45014786582E+03  0.50400001928E-02 0. -1.
        1   -1    0    0  501    0  0.00000000000E+00  0.00000000000E+00 -0.36861875995E+03  0.36861875999E+03  0.50400001928E-02 0.  1.
    10030    2    1    2    0    0  0.00000000000E+00  0.00000000000E+00  0.81529105845E+02  0.81876662581E+03  0.81469736248E+03 0.  0.
        2    1    3    3  502    0  0.51691109166E+02  0.82314354467E+02 -0.35679356758E+03  0.36979625957E+03  0.25500000920E-02 0.  1.
       -2    1    3    3    0  502 -0.51691109166E+02 -0.82314354467E+02  0.43832267342E+03  0.44897036624E+03  0.25500000920E-02 0. -1.
</event>
<event>
 5   0  0.1817089E-02  0.8598499E+03  0.7818609E-02  0.9477211E-01
        2   -1    0    0  501    0  0.00000000000E+00  0.00000000000E+00  0.11663411106E+04  0.11663411106E+04  0.25500000920E-02 0. -1.
       -2   -1    0    0    0  501  0.00000000000E+00  0.00000000000E+00 -0.15847461534E+03  0.15847461536E+03  0.25500000920E-02 0.  1.
    10030    2    1    2    0    0  0.00000000000E+00  0.00000000000E+00  0.10078664953E+04  0.13248157260E+04  0.85984989126E+03 0.  0.
        2    1    3    3  502    0 -0.21116552054E+03  0.35617591230E+03  0.32568943554E+03  0.52680714307E+03  0.25500000920E-02 0.  1.
       -2    1    3    3    0  502  0.21116552054E+03 -0.35617591230E+03  0.68217705972E+03  0.79800858290E+03  0.25500000920E-02 0. -1.
</event>
<event>
 5   0  0.1049780E-02  0.8100339E+03  0.7818609E-02  0.9545606E-01
       -1   -1    0    0    0  501  0.00000000000E+00  0.00000000000E+00  0.42909302045E+03  0.42909302048E+03  0.50400001928E-02 0.  1.
        1   -1    0    0  501    0  0.00000000000E+00  0.00000000000E+00 -0.38229177582E+03  0.38229177586E+03  0.50400001928E-02 0. -1.
    10030    2    1    2    0    0  0.00000000000E+00  0.00000000000E+00  0.46801244627E+02  0.81138479633E+03  0.81003390745E+03 0.  0.
        5    1    3    3  502    0  0.39685821563E+03 -0.47409655432E+02  0.88874177848E+02  0.40946895881E+03  0.46999998093E+01 0. -1.
       -5    1    3    3    0  502 -0.39685821563E+03  0.47409655432E+02 -0.42072933221E+02  0.40191583752E+03  0.46999998093E+01 0.  1.
</event>
<event>
 5   0  0.1731337E-02  0.8008499E+03  0.7818609E-02  0.9558788E-01
        2   -1    0    0  501    0  0.00000000000E+00  0.00000000000E+00  0.64209603583E+03  0.64209603584E+03  0.25500000920E-02 0. -1.
       -2   -1    0    0    0  501  0.00000000000E+00  0.00000000000E+00 -0.24971362063E+03  0.24971362065E+03  0.25500000920E-02 0.  1.
    10030    2    1    2    0    0  0.00000000000E+00  0.00000000000E+00  0.39238241520E+03  0.89180965649E+03  0.80084986336E+03 0.  0.
        4    1    3    3  502    0  0.11269971371E+03  0.37155081228E+02 -0.22968078501E+03  0.25852775757E+03  0.12699999809E+01 0.  1.
       -4    1    3    3    0  502 -0.11269971371E+03 -0.37155081228E+02  0.62206320021E+03  0.63328189891E+03  0.12699999809E+01 0. -1.
</event>
<event>
 5   0  0.1025900E-02  0.8160369E+03  0.7818609E-02  0.9537090E-01
       -1   -1    0    0    0  501  0.00000000000E+00  0.00000000000E+00  0.15702714677E+03  0.15702714685E+03  0.50400001928E-02 0.  1.
        1   -1    0    0  501    0  0.00000000000E+00  0.00000000000E+00 -0.10601927521E+04  0.10601927521E+04  0.50400001928E-02 0. -1.
    10030    2    1    2    0    0  0.00000000000E+00  0.00000000000E+00 -0.90316560530E+03  0.12172198989E+04  0.81603686912E+03 0.  0.
        1    1    3    3  502    0  0.15822213937E+03  0.27102920837E+03 -0.62649361575E+02  0.32002502982E+03  0.50400001928E-02 0.  1.
       -1    1    3    3    0  502 -0.15822213937E+03 -0.27102920837E+03 -0.84051624373E+03  0.89719486912E+03  0.50400001928E-02 0. -1.
</event>
<event>
 5   0  0.1049780E-02  0.7983061E+03  0.7818609E-02  0.9562472E-01
       -1   -1    0    0    0  501  0.00000000000E+00  0.00000000000E+00  0.25787537999E+03  0.25787538004E+03  0.50400001928E-02 0. -1.
        1   -1    0    0  501    0  0.00000000000E+00  0.00000000000E+00 -0.61783008405E+03  0.61783008407E+03  0.50400001928E-02 0.  1.
    10030    2    1    2    0    0  0.00000000000E+00  0.00000000000E+00 -0.35995470406E+03  0.87570546411E+03  0.79830612605E+03 0.  0.
        5    1    3    3  502    0 -0.37625949829E+03 -0.94960501267E+02 -0.77587533178E+02  0.39576586786E+03  0.46999998093E+01 0. -1.
       -5    1    3    3    0  502  0.37625949829E+03  0.94960501267E+02 -0.28236717089E+03  0.47993959625E+03  0.46999998093E+01 0.  1.
</event>
<event>
 5   0  0.1025900E-02  0.7996490E+03  0.7818609E-02  0.9560525E-01
       -1   -1    0    0    0  501  0.00000000000E+00  0.00000000000E+00  0.39773495928E+03  0.39773495931E+03  0.50400001928E-02 0.  1.
        1   -1    0    0  501    0  0.00000000000E+00  0.00000000000E+00 -0.40192498660E+03  0.40192498664E+03  0.50400001928E-02 0. -1.
    10030    2    1    2    0    0  0.00000000000E+00  0.00000000000E+00 -0.41900273271E+01  0.79965994595E+03  0.79964896850E+03 0.  0.
        1    1    3    3  502    0  0.95245451803E+02  0.37587333360E+03  0.95410987199E+02  0.39931906479E+03  0.50400001928E-02 0.  1.
       -1    1    3    3    0  502 -0.95245451803E+02 -0.37587333360E+03 -0.99601014526E+02  0.40034088115E+03  0.50400001928E-02 0. -1.
</event>
<event>
 5   0  0.1817089E-02  0.8101058E+03  0.7818609E-02  0.9545503E-01
       -2   -1    0    0    0  501  0.00000000000E+00  0.00000000000E+00  0.17045538271E+03  0.17045538273E+03  0.25500000920E-02 0.  1.
        2   -1    0    0  501    0  0.00000000000E+00  0.00000000000E+00 -0.96252671928E+03  0.96252671928E+03  0.25500000920E-02 0. -1.
    10030    2    1    2    0    0  0.00000000000E+00  0.00000000000E+00 -0.79207133656E+03  0.11329821020E+04  0.81010582104E+03 0.  0.
        2    1    3    3  502    0  0.17608992990E+03  0.19130984025E+03 -0.83040244033E+03  0.87015822199E+03  0.25500000920E-02 0. -1.
       -2    1    3    3    0  502 -0.17608992990E+03 -0.19130984025E+03  0.38331103767E+02  0.26282388002E+03  0.25500000920E-02 0.  1.
</event>
<event>
 5   0  0.1818665E-02  0.8004829E+03  0.7818609E-02  0.9559318E-01
        2   -1    0    0  501    0  0.00000000000E+00  0.00000000000E+00  0.92349678120E+03  0.92349678121E+03  0.25500000920E-02 0.  1.
       -2   -1    0    0    0  501  0.00000000000E+00  0.00000000000E+00 -0.17346374506E+03  0.17346374508E+03  0.25500000920E-02 0. -1.
    10030    2    1    2    0    0  0.00000000000E+00  0.00000000000E+00  0.75003303614E+03  0.10969605263E+04  0.80048287985E+03 0.  0.
        3    1    3    3  502    0 -0.15190582856E+03 -0.35503600887E+03  0.23085184704E+03  0.44990947293E+03  0.10100000352E+00 0. -1.
       -3    1    3    3    0  502  0.15190582856E+03  0.35503600887E+03  0.51918118910E+03  0.64705105336E+03  0.10100000352E+00 0.  1.
</event>
<event>
 5   0  0.1049780E-02  0.7854791E+03  0.7818609E-02  0.9581277E-01
        1   -1    0    0  501    0  0.00000000000E+00  0.00000000000E+00  0.41525197431E+03  0.41525197434E+03  0.50400001928E-02 0. -1.
       -1   -1    0    0    0  501  0.00000000000E+00  0.00000000000E+00 -0.37144764210E+03  0.37144764213E+03  0.50400001928E-02 0.  1.
    10030    2    1    2    0    0  0.00000000000E+00  0.00000000000E+00  0.43804332209E+02  0.78669961647E+03  0.78547913214E+03 0.  0.
        5    1    3    3  502    0  0.60084957261E+02  0.14195110977E+03 -0.33985424080E+03  0.37320679876E+03  0.46999998093E+01 0.  1.
       -5    1    3    3    0  502 -0.60084957261E+02 -0.14195110977E+03  0.38365857301E+03  0.41349281771E+03  0.46999998093E+01 0. -1.
</event>
<event>
 5   0  0.1673727E-02  0.8044817E+03  0.7818609E-02  0.9553553E-01
       -2   -1    0    0    0  501  0.00000000000E+00  0.00000000000E+00  0.12815735078E+03  0.12815735081E+03  0.25500000920E-02 0. -1.
        2   -1    0    0  501    0  0.00000000000E+00  0.00000000000E+00 -0.12624924225E+04  0.12624924225E+04  0.25500000920E-02 0.  1.
    10030    2    1    2    0    0  0.00000000000E+00  0.00000000000E+00 -0.11343350717E+04  0.13906497733E+04  0.80448165738E+03 0.  0.
        5    1    3    3  502    0  0.80753885951E+02 -0.35207049788E+03 -0.87299685967E+03  0.94478591891E+03  0.46999998093E+01 0.  1.
       -5    1    3    3    0  502 -0.80753885951E+02  0.35207049788E+03 -0.26133821200E+03  0.44586385436E+03  0.46999998093E+01 0. -1.
</event>
<event>
 5   0  0.1673727E-02  0.8079213E+03  0.7818609E-02  0.9548622E-01
        2   -1    0    0  501    0  0.00000000000E+00  0.00000000000E+00  0.40773046519E+03  0.40773046520E+03  0.25500000920E-02 0. -1.
       -2   -1    0    0    0  501  0.00000000000E+00  0.00000000000E+00 -0.40022569366E+03  0.40022569366E+03  0.25500000920E-02 0.  1.
    10030    2    1    2    0    0  0.00000000000E+00  0.00000000000E+00  0.75047715366E+01  0.80795615886E+03  0.80792130375E+03 0.  0.
        5    1    3    3  502    0 -0.20347979185E+03  0.30657607048E+03 -0.16289575150E+03  0.40243015361E+03  0.46999998093E+01 0. -1.
       -5    1    3    3    0  502  0.20347979185E+03 -0.30657607048E+03  0.17040052303E+03  0.40552600525E+03  0.46999998093E+01 0.  1.
</event>
<event>
 5   0  0.1673727E-02  0.8942425E+03  0.7818609E-02  0.9432807E-01
       -2   -1    0    0    0  501  0.00000000000E+00  0.00000000000E+00  0.27663780400E+03  0.27663780401E+03  0.25500000920E-02 0.  1.
        2   -1    0    0  501    0  0.00000000000E+00  0.00000000000E+00 -0.72266847826E+03  0.72266847826E+03  0.25500000920E-02 0. -1.
    10030    2    1    2    0    0  0.00000000000E+00  0.00000000000E+00 -0.44603067426E+03  0.99930628228E+03  0.89424251935E+03 0.  0.
        5    1    3    3  502    0  0.26983570033E+03  0.17284568704E+01  0.17535195983E+03  0.32184575894E+03  0.46999998093E+01 0.  1.
       -5    1    3    3    0  502 -0.26983570033E+03 -0.17284568704E+01 -0.62138263409E+03  0.67746052333E+03  0.46999998093E+01 0. -1.
</event>
<event>
 5   0  0.1025900E-02  0.7911411E+03  0.7818609E-02  0.9572929E-01
       -1   -1    0    0    0  501  0.00000000000E+00  0.00000000000E+00  0.12609387923E+03  0.12609387933E+03  0.50400001928E-02 0.  1.
        1   -1    0    0  501    0  0.00000000000E+00  0.00000000000E+00 -0.12409488617E+04  0.12409488617E+04  0.50400001928E-02 0. -1.
    10030    2    1    2    0    0  0.00000000000E+00  0.00000000000E+00 -0.11148549824E+04  0.13670427410E+04  0.79114108973E+03 0.  0.
        1    1    3    3  502    0  0.17465469006E+03 -0.20241249539E+03 -0.10612065497E+04  0.10943648479E+04  0.50400001928E-02 0. -1.
       -1    1    3    3    0  502 -0.17465469006E+03  0.20241249539E+03 -0.53648432728E+02  0.27267789315E+03  0.50400001928E-02 0.  1.
</event>
<event>
 5   0  0.1731337E-02  0.7777802E+03  0.7818609E-02  0.9592748E-01
        2   -1    0    0  501    0  0.00000000000E+00  0.00000000000E+00  0.43267898060E+03  0.43267898061E+03  0.25500000920E-02 0. -1.
       -2   -1    0    0    0  501  0.00000000000E+00  0.00000000000E+00 -0.34953285135E+03  0.34953285136E+03  0.25500000920E-02 0.  1.
    10030    2    1    2    0    0  0.00000000000E+00  0.00000000000E+00  0.83146129251E+02  0.78221183197E+03  0.77778022041E+03 0.  0.
        4    1    3    3  502    0 -0.26036830025E+03  0.22591835403E+02  0.33119282836E+03  0.42189139036E+03  0.12699999809E+01 0. -1.
       -4    1    3    3    0  502  0.26036830025E+03 -0.22591835403E+02 -0.24804669911E+03  0.36032044161E+03  0.12699999809E+01 0.  1.
</event>
<event>
 5   0  0.1025900E-02  0.7992199E+03  0.7818609E-02  0.9561147E-01
       -1   -1    0    0    0  501  0.00000000000E+00  0.00000000000E+00  0.14937612277E+04  0.14937612277E+04  0.50400001928E-02 0.  1.
        1   -1    0    0  501    0  0.00000000000E+00  0.00000000000E+00 -0.10690338502E+03  0.10690338513E+03  0.50400001928E-02 0. -1.
    10030    2    1    2    0    0  0.00000000000E+00  0.00000000000E+00  0.13868578427E+04  0.16006646128E+04  0.79921994907E+03 0.  0.
        1    1    3    3  502    0 -0.12745610913E+03  0.24762931900E+03  0.12673681134E+04  0.12976082900E+04  0.50400001928E-02 0.  1.
       -1    1    3    3    0  502  0.12745610913E+03 -0.24762931900E+03  0.11948972927E+03  0.30305632283E+03  0.50400001928E-02 0. -1.
</event>
<event>
 5   0  0.6872500E-03  0.8077611E+03  0.7818609E-02  0.9548851E-01
       -3   -1    0    0    0  501  0.00000000000E+00  0.00000000000E+00  0.11332382683E+04  0.11332382728E+04  0.10100000352E+00 0. -1.
        3   -1    0    0  501    0  0.00000000000E+00  0.00000000000E+00 -0.14394103249E+03  0.14394106793E+03  0.10100000352E+00 0.  1.
    10030    2    1    2    0    0  0.00000000000E+00  0.00000000000E+00  0.98929723577E+03  0.12771793407E+04  0.80776113276E+03 0.  0.
        5    1    3    3  502    0  0.12536502840E+03 -0.32282785431E+03  0.82314136897E+03  0.89303864260E+03  0.46999998093E+01 0. -1.
       -5    1    3    3    0  502 -0.12536502840E+03  0.32282785431E+03  0.16615586680E+03  0.38414069809E+03  0.46999998093E+01 0.  1.
</event>
<event>
 5   0  0.1025900E-02  0.7915226E+03  0.7818609E-02  0.9572369E-01
       -1   -1    0    0    0  501  0.00000000000E+00  0.00000000000E+00  0.72197210812E+03  0.72197210813E+03  0.50400001928E-02 0.  1.
        1   -1    0    0  501    0  0.00000000000E+00  0.00000000000E+00 -0.21694330051E+03  0.21694330057E+03  0.50400001928E-02 0. -1.
    10030    2    1    2    0    0  0.00000000000E+00  0.00000000000E+00  0.50502880761E+03  0.93891540870E+03  0.79152261382E+03 0.  0.
        1    1    3    3  502    0  0.71828433525E+02 -0.15315976327E+03  0.67692352254E+03  0.69774113562E+03  0.50400001928E-02 0.  1.
       -1    1    3    3    0  502 -0.71828433525E+02  0.15315976327E+03 -0.17189471493E+03  0.24117427308E+03  0.50400001928E-02 0. -1.
</event>
<event>
 5   0  0.1038912E-02  0.7991245E+03  0.7818609E-02  0.9561285E-01
       -1   -1    0    0    0  501  0.00000000000E+00  0.00000000000E+00  0.31234733589E+03  0.31234733593E+03  0.50400001928E-02 0.  1.
        1   -1    0    0  501    0  0.00000000000E+00  0.00000000000E+00 -0.51112963886E+03  0.51112963888E+03  0.50400001928E-02 0. -1.
    10030    2    1    2    0    0  0.00000000000E+00  0.00000000000E+00 -0.19878230297E+03  0.82347697481E+03  0.79912447345E+03 0.  0.
        2    1    3    3  502    0 -0.51647983586E+02  0.10928820060E+03 -0.49183611761E+03  0.50647230091E+03  0.25500000920E-02 0. -1.
       -2    1    3    3    0  502  0.51647983586E+02 -0.10928820060E+03  0.29305381464E+03  0.31700467390E+03  0.25500000920E-02 0.  1.
</event>
<event>
 5   0  0.1731337E-02  0.8019656E+03  0.7818609E-02  0.9557176E-01
       -2   -1    0    0    0  501  0.00000000000E+00  0.00000000000E+00  0.93802546497E+02  0.93802546531E+02  0.25500000920E-02 0. -1.
        2   -1    0    0  501    0  0.00000000000E+00  0.00000000000E+00 -0.17141029521E+04  0.17141029521E+04  0.25500000920E-02 0.  1.
    10030    2    1    2    0    0  0.00000000000E+00  0.00000000000E+00 -0.16203004056E+04  0.18079054986E+04  0.80196563991E+03 0.  0.
        4    1    3    3  502    0 -0.25276031931E+02 -0.31411165039E+03 -0.13691208735E+04  0.14049194232E+04  0.12699999809E+01 0.  1.
       -4    1    3    3    0  502  0.25276031931E+02  0.31411165039E+03 -0.25117953212E+03  0.40298607539E+03  0.12699999809E+01 0. -1.
</event>
<event>
 5   0  0.1146083E-02  0.7828846E+03  0.7818609E-02  0.9585127E-01
       -1   -1    0    0    0  501  0.00000000000E+00  0.00000000000E+00  0.30172200546E+03  0.30172200550E+03  0.50400001928E-02 0. -1.
        1   -1    0    0  501    0  0.00000000000E+00  0.00000000000E+00 -0.50784195473E+03  0.50784195475E+03  0.50400001928E-02 0.  1.
    10030    2    1    2    0    0  0.00000000000E+00  0.00000000000E+00 -0.20611994927E+03  0.80956396025E+03  0.78288464811E+03 0.  0.
        4    1    3    3  502    0 -0.10211937439E+03 -0.30980108067E+03  0.12069410762E+03  0.34781281852E+03  0.12699999809E+01 0. -1.
       -4    1    3    3    0  502  0.10211937439E+03  0.30980108067E+03 -0.32681405689E+03  0.46175114173E+03  0.12699999809E+01 0.  1.
</event>
<event>
 5   0  0.1030323E-02  0.7996973E+03  0.7818609E-02  0.9560455E-01
       -1   -1    0    0    0  501  0.00000000000E+00  0.00000000000E+00  0.19634566722E+03  0.19634566729E+03  0.50400001928E-02 0. -1.
        1   -1    0    0  501    0  0.00000000000E+00  0.00000000000E+00 -0.81427279245E+03  0.81427279247E+03  0.50400001928E-02 0.  1.
    10030    2    1    2    0    0  0.00000000000E+00  0.00000000000E+00 -0.61792712523E+03  0.10106184598E+04  0.79969727966E+03 0.  0.
        3    1    3    3  502    0 -0.54550987085E+02  0.21309524781E+03 -0.73093828922E+03  0.76331919122E+03  0.10100000352E+00 0.  1.
       -3    1    3    3    0  502  0.54550987085E+02 -0.21309524781E+03  0.11301116399E+03  0.24729926854E+03  0.10100000352E+00 0. -1.
</event>
<event>
 5   0  0.1747544E-02  0.7944293E+03  0.7818609E-02  0.9568116E-01
       -2   -1    0    0    0  501  0.00000000000E+00  0.00000000000E+00  0.87525678536E+02  0.87525678573E+02  0.25500000920E-02 0. -1.
        2   -1    0    0  501    0  0.00000000000E+00  0.00000000000E+00 -0.18026649239E+04  0.18026649239E+04  0.25500000920E-02 0.  1.
    10030    2    1    2    0    0  0.00000000000E+00  0.00000000000E+00 -0.17151392454E+04  0.18901906025E+04  0.79442928112E+03 0.  0.
        1    1    3    3  502    0  0.27781210874E+03  0.15168944864E+03 -0.28658461784E+03  0.42698946100E+03  0.50400001928E-02 0. -1.
       -1    1    3    3    0  502 -0.27781210874E+03 -0.15168944864E+03 -0.14285546275E+04  0.14632011415E+04  0.50400001928E-02 0.  1.
</event>
<event>
 5   0  0.1673727E-02  0.8003066E+03  0.7818609E-02  0.9559573E-01
        2   -1    0    0  501    0  0.00000000000E+00  0.00000000000E+00  0.58817021979E+03  0.58817021979E+03  0.25500000920E-02 0. -1.
       -2   -1    0    0    0  501  0.00000000000E+00  0.00000000000E+00 -0.27223863581E+03  0.27223863582E+03  0.25500000920E-02 0.  1.
    10030    2    1    2    0    0  0.00000000000E+00  0.00000000000E+00  0.31593158398E+03  0.86040885562E+03  0.80030658692E+03 0.  0.
        5    1    3    3  502    0 -0.27074651463E+03  0.22032284759E+03 -0.52310874906E+02  0.35299341352E+03  0.46999998093E+01 0.  1.
       -5    1    3    3    0  502  0.27074651463E+03 -0.22032284759E+03  0.36824245888E+03  0.50741544210E+03  0.46999998093E+01 0. -1.
</event>
<event>
 5   0  0.1146083E-02  0.8170605E+03  0.7818609E-02  0.9535646E-01
       -1   -1    0    0    0  501  0.00000000000E+00  0.00000000000E+00  0.28732522886E+03  0.28732522890E+03  0.50400001928E-02 0.  1.
        1   -1    0    0  501    0  0.00000000000E+00  0.00000000000E+00 -0.58086425347E+03  0.58086425349E+03  0.50400001928E-02 0. -1.
    10030    2    1    2    0    0  0.00000000000E+00  0.00000000000E+00 -0.29353902461E+03  0.86818948240E+03  0.81706047412E+03 0.  0.
        4    1    3    3  502    0 -0.21543525996E+03 -0.25180345446E+02  0.22108612716E+03  0.30972098662E+03  0.12699999809E+01 0.  1.
       -4    1    3    3    0  502  0.21543525996E+03  0.25180345446E+02 -0.51462515178E+03  0.55846849577E+03  0.12699999809E+01 0. -1.
</event>
<event>
 5   0  0.1731337E-02  0.7965487E+03  0.7818609E-02  0.9565026E-01
       -2   -1    0    0    0  501  0.00000000000E+00  0.00000000000E+00  0.23607340406E+03  0.23607340407E+03  0.25500000920E-02 0. -1.
        2   -1    0    0  501    0  0.00000000000E+00  0.00000000000E+00 -0.67192002750E+03  0.67192002751E+03  0.25500000920E-02 0.  1.
    10030    2    1    2    0    0  0.00000000000E+00  0.00000000000E+00 -0.43584662344E+03  0.90799343158E+03  0.79654867562E+03 0.  0.
        4    1    3    3  502    0 -0.11050394527E+03  0.16789318702E+03  0.17401596511E+03  0.26586164293E+03  0.12699999809E+01 0. -1.
       -4    1    3    3    0  502  0.11050394527E+03 -0.16789318702E+03 -0.60986258856E+03  0.64213178865E+03  0.12699999809E+01 0.  1.
</event>
<event>
 5   0  0.1817089E-02  0.8229829E+03  0.7818609E-02  0.9527333E-01
        2   -1    0    0  501    0  0.00000000000E+00  0.00000000000E+00  0.16221589850E+04  0.16221589850E+04  0.25500000920E-02 0. -1.
       -2   -1    0    0    0  501  0.00000000000E+00  0.00000000000E+00 -0.10438261537E+03  0.10438261541E+03  0.25500000920E-02 0.  1.
    10030    2    1    2    0    0  0.00000000000E+00  0.00000000000E+00  0.15177763696E+04  0.17265416004E+04  0.82298286115E+03 0.  0.
        2    1    3    3  502    0 -0.17058500617E+03  0.34425437880E+03  0.44974126015E+03  0.59150445708E+03  0.25500000920E-02 0.  1.
       -2    1    3    3    0  502  0.17058500617E+03 -0.34425437880E+03  0.10680351095E+04  0.11350371433E+04  0.25500000920E-02 0. -1.
</event>
<event>
 5   0  0.1025900E-02  0.8657563E+03  0.7818609E-02  0.9469430E-01
       -1   -1    0    0    0  501  0.00000000000E+00  0.00000000000E+00  0.66876967367E+03  0.66876967369E+03  0.50400001928E-02 0. -1.
        1   -1    0    0  501    0  0.00000000000E+00  0.00000000000E+00 -0.28019140036E+03  0.28019140041E+03  0.50400001928E-02 0.  1.
    10030    2    1    2    0    0  0.00000000000E+00  0.00000000000E+00  0.38857827331E+03  0.94896107410E+03  0.86575634313E+03 0.  0.
        1    1    3    3  502    0 -0.56144503670E+02  0.30044252302E+03  0.53028749347E+03  0.61206432725E+03  0.50400001928E-02 0. -1.
       -1    1    3    3    0  502  0.56144503670E+02 -0.30044252302E+03 -0.14170922016E+03  0.33689674685E+03  0.50400001928E-02 0.  1.
</event>
<event>
 5   0  0.1817089E-02  0.7978146E+03  0.7818609E-02  0.9563186E-01
       -2   -1    0    0    0  501  0.00000000000E+00  0.00000000000E+00  0.21984350074E+03  0.21984350076E+03  0.25500000920E-02 0. -1.
        2   -1    0    0  501    0  0.00000000000E+00  0.00000000000E+00 -0.72381965442E+03  0.72381965443E+03  0.25500000920E-02 0.  1.
    10030    2    1    2    0    0  0.00000000000E+00  0.00000000000E+00 -0.50397615368E+03  0.94366315518E+03  0.79781463196E+03 0.  0.
        2    1    3    3  502    0  0.32572960712E+03 -0.78807811006E+01  0.20225735857E+02  0.32645208540E+03  0.25500000920E-02 0. -1.
       -2    1    3    3    0  502 -0.32572960712E+03  0.78807811006E+01 -0.52420188954E+03  0.61721106979E+03  0.25500000920E-02 0.  1.
</event>
<event>
 5   0  0.1038912E-02  0.7989694E+03  0.7818609E-02  0.9561510E-01
        1   -1    0    0  501    0  0.00000000000E+00  0.00000000000E+00  0.94213957245E+03  0.94213957247E+03  0.50400001928E-02 0. -1.
       -1   -1    0    0    0  501  0.00000000000E+00  0.00000000000E+00 -0.16938893313E+03  0.16938893320E+03  0.50400001928E-02 0.  1.
    10030    2    1    2    0    0  0.00000000000E+00  0.00000000000E+00  0.77275063932E+03  0.11115285057E+04  0.79896937885E+03 0.  0.
        2    1    3    3  502    0  0.37718958326E+03  0.12535877588E+03  0.33070611983E+03  0.51706222267E+03  0.25500000920E-02 0.  1.
       -2    1    3    3    0  502 -0.37718958326E+03 -0.12535877588E+03  0.44204451949E+03  0.59446628300E+03  0.25500000920E-02 0. -1.
</event>
<event>
 5   0  0.1146083E-02  0.8000865E+03  0.7818609E-02  0.9559892E-01
        1   -1    0    0  501    0  0.00000000000E+00  0.00000000000E+00  0.81739824209E+03  0.81739824211E+03  0.50400001928E-02 0.  1.
       -1   -1    0    0    0  501  0.00000000000E+00  0.00000000000E+00 -0.19578534159E+03  0.19578534165E+03  0.50400001928E-02 0. -1.
    10030    2    1    2    0    0  0.00000000000E+00  0.00000000000E+00  0.62161290050E+03  0.10131835838E+04  0.80008648053E+03 0.  0.
        4    1    3    3  502    0 -0.19645532135E+03  0.24397366569E+03 -0.42944444447E+01  0.31326968891E+03  0.12699999809E+01 0. -1.
       -4    1    3    3    0  502  0.19645532135E+03 -0.24397366569E+03  0.62590734495E+03  0.69991389485E+03  0.12699999809E+01 0.  1.
</event>
<event>
 5   0  0.1747544E-02  0.8018327E+03  0.7818609E-02  0.9557368E-01
       -2   -1    0    0    0  501  0.00000000000E+00  0.00000000000E+00  0.11966972537E+03  0.11966972540E+03  0.25500000920E-02 0.  1.
        2   -1    0    0  501    0  0.00000000000E+00  0.00000000000E+00 -0.13431461453E+04  0.13431461453E+04  0.25500000920E-02 0. -1.
    10030    2    1    2    0    0  0.00000000000E+00  0.00000000000E+00 -0.12234764199E+04  0.14628158707E+04  0.80183272660E+03 0.  0.
        1    1    3    3  502    0  0.12707087556E+03  0.31082594406E+03 -0.10113235574E+04  0.10656148988E+04  0.50400001928E-02 0. -1.
       -1    1    3    3    0  502 -0.12707087556E+03 -0.31082594406E+03 -0.21215286251E+03  0.39720097181E+03  0.50400001928E-02 0.  1.
</event>
<event>
 5   0  0.1817089E-02  0.7496576E+03  0.7818609E-02  0.9635888E-01
        2   -1    0    0  501    0  0.00000000000E+00  0.00000000000E+00  0.58042877687E+03  0.58042877688E+03  0.25500000920E-02 0. -1.
       -2   -1    0    0    0  501  0.00000000000E+00  0.00000000000E+00 -0.24205664116E+03  0.24205664117E+03  0.25500000920E-02 0.  1.
    10030    2    1    2    0    0  0.00000000000E+00  0.00000000000E+00  0.33837213571E+03  0.82248541805E+03  0.74965762898E+03 0.  0.
        2    1    3    3  502    0 -0.10894096398E+03 -0.12873735101E+03 -0.19808037738E+03  0.26014856350E+03  0.25500000920E-02 0.  1.
       -2    1    3    3    0  502  0.10894096398E+03  0.12873735101E+03  0.53645251310E+03  0.56233685456E+03  0.25500000920E-02 0. -1.
</event>
<event>
 5   0  0.1025900E-02  0.7960273E+03  0.7818609E-02  0.9565785E-01
       -1   -1    0    0    0  501  0.00000000000E+00  0.00000000000E+00  0.25235899899E+03  0.25235899904E+03  0.50400001928E-02 0.  1.
        1   -1    0    0  501    0  0.00000000000E+00  0.00000000000E+00 -0.62773609349E+03  0.62773609351E+03  0.50400001928E-02 0. -1.
    10030    2    1    2    0    0  0.00000000000E+00  0.00000000000E+00 -0.37537709450E+03  0.88009509256E+03  0.79602726641E+03 0.  0.
        1    1    3    3  502    0 -0.21635835053E+03  0.19864588316E+03 -0.48465059554E+03  0.56670743997E+03  0.50400001928E-02 0. -1.
       -1    1    3    3    0  502  0.21635835053E+03 -0.19864588316E+03  0.10927350104E+03  0.31338765259E+03  0.50400001928E-02 0.  1.
</event>
<event>
 5   0  0.1038912E-02  0.7582281E+03  0.7818609E-02  0.9622530E-01
       -1   -1    0    0    0  501  0.00000000000E+00  0.00000000000E+00  0.52051052316E+03  0.52051052319E+03  0.50400001928E-02 0.  1.
        1   -1    0    0  501    0  0.00000000000E+00  0.00000000000E+00 -0.27612783688E+03  0.27612783693E+03  0.50400001928E-02 0. -1.
    10030    2    1    2    0    0  0.00000000000E+00  0.00000000000E+00  0.24438268629E+03  0.79663836011E+03  0.75822805240E+03 0.  0.
        2    1    3    3  502    0 -0.25629194788E+03  0.26732756131E+03  0.36978787678E+02  0.37217874513E+03  0.25500000920E-02 0.  1.
       -2    1    3    3    0  502  0.25629194788E+03 -0.26732756131E+03  0.20740389861E+03  0.42445961498E+03  0.25500000920E-02 0. -1.
</event>
<event>
 5   0  0.1747544E-02  0.8050374E+03  0.7818609E-02  0.9552754E-01
       -2   -1    0    0    0  501  0.00000000000E+00  0.00000000000E+00  0.49041520029E+03  0.49041520029E+03  0.25500000920E-02 0. -1.
        2   -1    0    0  501    0  0.00000000000E+00  0.00000000000E+00 -0.33037575448E+03  0.33037575449E+03  0.25500000920E-02 0.  1.
    10030    2    1    2    0    0  0.00000000000E+00  0.00000000000E+00  0.16003944580E+03  0.82079095479E+03  0.80503737009E+03 0.  0.
        1    1    3    3  502    0  0.22531562673E+03  0.32097006673E+03 -0.12488242758E+02  0.39235809105E+03  0.50400001928E-02 0.  1.
       -1    1    3    3    0  502 -0.22531562673E+03 -0.32097006673E+03  0.17252768856E+03  0.42843286373E+03  0.50400001928E-02 0. -1.
</event>
<event>
 5   0  0.1038912E-02  0.7936925E+03  0.7818609E-02  0.9569192E-01
       -1   -1    0    0    0  501  0.00000000000E+00  0.00000000000E+00  0.12077372767E+03  0.12077372778E+03  0.50400001928E-02 0. -1.
        1   -1    0    0  501    0  0.00000000000E+00  0.00000000000E+00 -0.13039835765E+04  0.13039835765E+04  0.50400001928E-02 0.  1.
    10030    2    1    2    0    0  0.00000000000E+00  0.00000000000E+00 -0.11832098489E+04  0.14247573043E+04  0.79369252849E+03 0.  0.
        2    1    3    3  502    0  0.35887239611E+03  0.13876806276E+03 -0.76602531934E+03  0.85722853534E+03  0.25500000920E-02 0.  1.
       -2    1    3    3    0  502 -0.35887239611E+03 -0.13876806276E+03 -0.41718452951E+03  0.56752876897E+03  0.25500000920E-02 0. -1.
</event>
<event>
 5   0  0.1030323E-02  0.8034019E+03  0.7818609E-02  0.9555106E-01
       -1   -1    0    0    0  501  0.00000000000E+00  0.00000000000E+00  0.60668384469E+02  0.60668384678E+02  0.50400001928E-02 0. -1.
        1   -1    0    0  501    0  0.00000000000E+00  0.00000000000E+00 -0.26597650338E+04  0.26597650338E+04  0.50400001928E-02 0.  1.
    10030    2    1    2    0    0  0.00000000000E+00  0.00000000000E+00 -0.25990966493E+04  0.27204334185E+04  0.80340188688E+03 0.  0.
        3    1    3    3  502    0  0.52940901036E+02  0.49350965351E+02 -0.26375048728E+04  0.26384977205E+04  0.10100000352E+00 0.  1.
       -3    1    3    3    0  502 -0.52940901036E+02 -0.49350965351E+02  0.38408223432E+02  0.81935698031E+02  0.10100000352E+00 0. -1.
</event>
<event>
 5   0  0.1731337E-02  0.8022709E+03  0.7818609E-02  0.9556736E-01
       -2   -1    0    0    0  501  0.00000000000E+00  0.00000000000E+00  0.11974147540E+03  0.11974147542E+03  0.25500000920E-02 0. -1.
        2   -1    0    0  501    0  0.00000000000E+00  0.00000000000E+00 -0.13438087004E+04  0.13438087004E+04  0.25500000920E-02 0.  1.
    10030    2    1    2    0    0  0.00000000000E+00  0.00000000000E+00 -0.12240672250E+04  0.14635501759E+04  0.80227086813E+03 0.  0.
        4    1    3    3  502    0  0.30696138557E+03 -0.11911076503E+03 -0.19406175579E+03  0.38219660456E+03  0.12699999809E+01 0. -1.
       -4    1    3    3    0  502 -0.30696138557E+03  0.11911076503E+03 -0.10300054692E+04  0.10813535713E+04  0.12699999809E+01 0.  1.
</event>
<event>
 5   0  0.1731337E-02  0.8451771E+03  0.7818609E-02  0.9496833E-01
       -2   -1    0    0    0  501  0.00000000000E+00  0.00000000000E+00  0.11296661596E+03  0.11296661599E+03  0.25500000920E-02 0.  1.
        2   -1    0    0  501    0  0.00000000000E+00  0.00000000000E+00 -0.15808305070E+04  0.15808305070E+04  0.25500000920E-02 0. -1.
    10030    2    1    2    0    0  0.00000000000E+00  0.00000000000E+00 -0.14678638910E+04  0.16937971230E+04  0.84517707686E+03 0.  0.
        4    1    3    3  502    0  0.33772792545E+02  0.13849497364E+03 -0.15311856002E+04  0.15378076650E+04  0.12699999809E+01 0. -1.
       -4    1    3    3    0  502 -0.33772792545E+02 -0.13849497364E+03  0.63321709227E+02  0.15598945797E+03  0.12699999809E+01 0.  1.
</event>
<event>
 5   0  0.1731337E-02  0.8108000E+03  0.7818609E-02  0.9544515E-01
        2   -1    0    0  501    0  0.00000000000E+00  0.00000000000E+00  0.27686616140E+03  0.27686616141E+03  0.25500000920E-02 0.  1.
       -2   -1    0    0    0  501  0.00000000000E+00  0.00000000000E+00 -0.59360511442E+03  0.59360511442E+03  0.25500000920E-02 0. -1.
    10030    2    1    2    0    0  0.00000000000E+00  0.00000000000E+00 -0.31673895302E+03  0.87047127584E+03  0.81080002325E+03 0.  0.
        4    1    3    3  502    0  0.36183004340E+03 -0.66696445849E+01 -0.35452361141E+03  0.50661037140E+03  0.12699999809E+01 0. -1.
       -4    1    3    3    0  502 -0.36183004340E+03  0.66696445849E+01  0.37784658395E+02  0.36386090443E+03  0.12699999809E+01 0.  1.
</event>
<event>
 5   0  0.1818665E-02  0.8033136E+03  0.7818609E-02  0.9555233E-01
       -2   -1    0    0    0  501  0.00000000000E+00  0.00000000000E+00  0.26646980789E+03  0.26646980790E+03  0.25500000920E-02 0. -1.
        2   -1    0    0  501    0  0.00000000000E+00  0.00000000000E+00 -0.60542759365E+03  0.60542759365E+03  0.25500000920E-02 0.  1.
    10030    2    1    2    0    0  0.00000000000E+00  0.00000000000E+00 -0.33895778576E+03  0.87189740155E+03  0.80331357409E+03 0.  0.
        3    1    3    3  502    0  0.78474171954E+02  0.17773733586E+03  0.21207275475E+03  0.28761714089E+03  0.10100000352E+00 0. -1.
       -3    1    3    3    0  502 -0.78474171954E+02 -0.17773733586E+03 -0.55103054051E+03  0.58428026067E+03  0.10100000352E+00 0.  1.
</event>
<event>
 5   0  0.1025900E-02  0.8049813E+03  0.7818609E-02  0.9552835E-01
       -1   -1    0    0    0  501  0.00000000000E+00  0.00000000000E+00  0.31473200275E+03  0.31473200279E+03  0.50400001928E-02 0. -1.
        1   -1    0    0  501    0  0.00000000000E+00  0.00000000000E+00 -0.51471956842E+03  0.51471956844E+03  0.50400001928E-02 0.  1.
    10030    2    1    2    0    0  0.00000000000E+00  0.00000000000E+00 -0.19998756566E+03  0.82945157123E+03  0.80498129332E+03 0.  0.
        1    1    3    3  502    0  0.14728409735E+03 -0.22486032498E+03 -0.40867331641E+03  0.48915094874E+03  0.50400001928E-02 0.  1.
       -1    1    3    3    0  502 -0.14728409735E+03  0.22486032498E+03  0.20868575074E+03  0.34030062250E+03  0.50400001928E-02 0. -1.
</event>
<event>
 5   0  0.1817089E-02  0.8032521E+03  0.7818609E-02  0.9555322E-01
        2   -1    0    0  501    0  0.00000000000E+00  0.00000000000E+00  0.43746397791E+03  0.43746397792E+03  0.25500000920E-02 0. -1.
       -2   -1    0    0    0  501  0.00000000000E+00  0.00000000000E+00 -0.36872402654E+03  0.36872402655E+03  0.25500000920E-02 0.  1.
    10030    2    1    2    0    0  0.00000000000E+00  0.00000000000E+00  0.68739951372E+02  0.80618800447E+03  0.80325208847E+03 0.  0.
        2    1    3    3  502    0  0.26841925545E+03  0.28593401583E+03  0.12126773227E+03  0.41050337515E+03  0.25500000920E-02 0.  1.
       -2    1    3    3    0  502 -0.26841925545E+03 -0.28593401583E+03 -0.52527780900E+02  0.39568462932E+03  0.25500000920E-02 0. -1.
</event>
<event>
 5   0  0.1747544E-02  0.8073136E+03  0.7818609E-02  0.9549491E-01
        2   -1    0    0  501    0  0.00000000000E+00  0.00000000000E+00  0.13596282208E+04  0.13596282208E+04  0.25500000920E-02 0.  1.
       -2   -1    0    0    0  501  0.00000000000E+00  0.00000000000E+00 -0.11984072324E+03  0.11984072327E+03  0.25500000920E-02 0. -1.
    10030    2    1    2    0    0  0.00000000000E+00  0.00000000000E+00  0.12397874975E+04  0.14794689441E+04  0.80731364250E+03 0.  0.
        1    1    3    3  502    0 -0.11579919196E+03  0.34977125534E+03  0.31771512690E+03  0.48651031418E+03  0.50400001928E-02 0. -1.
       -1    1    3    3    0  502  0.11579919196E+03 -0.34977125534E+03  0.92207237063E+03  0.99295862987E+03  0.50400001928E-02 0.  1.
</event>
<event>
 5   0  0.1038912E-02  0.7911335E+03  0.7818609E-02  0.9572940E-01
        1   -1    0    0  501    0  0.00000000000E+00  0.00000000000E+00  0.47739216153E+03  0.47739216155E+03  0.50400001928E-02 0.  1.
       -1   -1    0    0    0  501  0.00000000000E+00  0.00000000000E+00 -0.32776630680E+03  0.32776630684E+03  0.50400001928E-02 0. -1.
    10030    2    1    2    0    0  0.00000000000E+00  0.00000000000E+00  0.14962585472E+03  0.80515846839E+03  0.79113353034E+03 0.  0.
        2    1    3    3  502    0  0.27329356860E+03  0.17051654052E+02  0.36534330306E+03  0.45656966899E+03  0.25500000920E-02 0.  1.
       -2    1    3    3    0  502 -0.27329356860E+03 -0.17051654052E+02 -0.21571744834E+03  0.34858879940E+03  0.25500000920E-02 0. -1.
</event>
<event>
 5   0  0.1038912E-02  0.8119265E+03  0.7818609E-02  0.9542913E-01
       -1   -1    0    0    0  501  0.00000000000E+00  0.00000000000E+00  0.89609493488E+02  0.89609493630E+02  0.50400001928E-02 0. -1.
        1   -1    0    0  501    0  0.00000000000E+00  0.00000000000E+00 -0.18391595022E+04  0.18391595022E+04  0.50400001928E-02 0.  1.
    10030    2    1    2    0    0  0.00000000000E+00  0.00000000000E+00 -0.17495500087E+04  0.19287689958E+04  0.81192647840E+03 0.  0.
        2    1    3    3  502    0 -0.38898676986E+03 -0.61482812205E+02 -0.11089237329E+04  0.11767763971E+04  0.25500000920E-02 0. -1.
       -2    1    3    3    0  502  0.38898676986E+03  0.61482812205E+02 -0.64062627577E+03  0.75199259873E+03  0.25500000920E-02 0.  1.
</event>
<event>
 5   0  0.1747544E-02  0.8067033E+03  0.7818609E-02  0.9550365E-01
       -2   -1    0    0    0  501  0.00000000000E+00  0.00000000000E+00  0.35965981708E+03  0.35965981709E+03  0.25500000920E-02 0.  1.
        2   -1    0    0  501    0  0.00000000000E+00  0.00000000000E+00 -0.45235115580E+03  0.45235115581E+03  0.25500000920E-02 0. -1.
    10030    2    1    2    0    0  0.00000000000E+00  0.00000000000E+00 -0.92691338724E+02  0.81201097290E+03  0.80670325141E+03 0.  0.
        1    1    3    3  502    0 -0.12717166564E+03 -0.34691402801E+03 -0.20918322953E+03  0.42459345133E+03  0.50400001928E-02 0. -1.
       -1    1    3    3    0  502  0.12717166564E+03  0.34691402801E+03  0.11649189080E+03  0.38741752157E+03  0.50400001928E-02 0.  1.
</event>
<event>
 5   0  0.1731337E-02  0.8020556E+03  0.7818609E-02  0.9557047E-01
        2   -1    0    0  501    0  0.00000000000E+00  0.00000000000E+00  0.36120635309E+03  0.36120635310E+03  0.25500000920E-02 0.  1.
       -2   -1    0    0    0  501  0.00000000000E+00  0.00000000000E+00 -0.44523936442E+03  0.44523936443E+03  0.25500000920E-02 0. -1.
    10030    2    1    2    0    0  0.00000000000E+00  0.00000000000E+00 -0.84033011329E+02  0.80644571753E+03  0.80205557683E+03 0.  0.
        4    1    3    3  502    0 -0.20799029864E+03  0.76418607162E+02 -0.37809432137E+03  0.43824273708E+03  0.12699999809E+01 0. -1.
       -4    1    3    3    0  502  0.20799029864E+03 -0.76418607162E+02  0.29406131004E+03  0.36820298045E+03  0.12699999809E+01 0.  1.
</event>
<event>
 5   0  0.1731337E-02  0.8136950E+03  0.7818609E-02  0.9540403E-01
       -2   -1    0    0    0  501  0.00000000000E+00  0.00000000000E+00  0.85659249269E+02  0.85659249307E+02  0.25500000920E-02 0.  1.
        2   -1    0    0  501    0  0.00000000000E+00  0.00000000000E+00 -0.19323646273E+04  0.19323646273E+04  0.25500000920E-02 0. -1.
    10030    2    1    2    0    0  0.00000000000E+00  0.00000000000E+00 -0.18467053781E+04  0.20180238767E+04  0.81369503706E+03 0.  0.
        4    1    3    3  502    0 -0.15150571266E+03 -0.37627545665E+03 -0.10012321525E+04  0.10802798880E+04  0.12699999809E+01 0. -1.
       -4    1    3    3    0  502  0.15150571266E+03  0.37627545665E+03 -0.84547322553E+03  0.93774398864E+03  0.12699999809E+01 0.  1.
</event>
<event>
 5   0  0.1030323E-02  0.7505094E+03  0.7818609E-02  0.9634552E-01
       -1   -1    0    0    0  501  0.00000000000E+00  0.00000000000E+00  0.19597329957E+03  0.19597329964E+03  0.50400001928E-02 0. -1.
        1   -1    0    0  501    0  0.00000000000E+00  0.00000000000E+00 -0.71854726362E+03  0.71854726364E+03  0.50400001928E-02 0.  1.
    10030    2    1    2    0    0  0.00000000000E+00  0.00000000000E+00 -0.52257396405E+03  0.91452056327E+03  0.75050936886E+03 0.  0.
        3    1    3    3  502    0 -0.12376841697E+03  0.10402827231E+03  0.15135442186E+03  0.22146935159E+03  0.10100000352E+00 0. -1.
       -3    1    3    3    0  502  0.12376841697E+03 -0.10402827231E+03 -0.67392838591E+03  0.69305121168E+03  0.10100000352E+00 0.  1.
</event>
<event>
 5   0  0.6872500E-03  0.7984963E+03  0.7818609E-02  0.9562196E-01
       -3   -1    0    0    0  501  0.00000000000E+00  0.00000000000E+00  0.20137441529E+04  0.20137441555E+04  0.10100000352E+00 0. -1.
        3   -1    0    0  501    0  0.00000000000E+00  0.00000000000E+00 -0.79155551650E+02  0.79155616086E+02  0.10100000352E+00 0.  1.
    10030    2    1    2    0    0  0.00000000000E+00  0.00000000000E+00  0.19345886013E+04  0.20928997716E+04  0.79849633534E+03 0.  0.
        3    1    3    3  502    0  0.68311459943E+02  0.27056909791E+03  0.17156721052E+04  0.17382188801E+04  0.10100000352E+00 0. -1.
       -3    1    3    3    0  502 -0.68311459943E+02 -0.27056909791E+03  0.21891649604E+03  0.35468089143E+03  0.10100000352E+00 0.  1.
</event>
<event>
 5   0  0.1049780E-02  0.7877081E+03  0.7818609E-02  0.9577982E-01
        1   -1    0    0  501    0  0.00000000000E+00  0.00000000000E+00  0.10798541522E+04  0.10798541523E+04  0.50400001928E-02 0.  1.
       -1   -1    0    0    0  501  0.00000000000E+00  0.00000000000E+00 -0.14364996637E+03  0.14364996646E+03  0.50400001928E-02 0. -1.
    10030    2    1    2    0    0  0.00000000000E+00  0.00000000000E+00  0.93620418587E+03  0.12235041187E+04  0.78770810004E+03 0.  0.
        5    1    3    3  502    0  0.24467972471E+03 -0.59383298357E+02  0.93846726940E+03  0.97166735540E+03  0.46999998093E+01 0.  1.
       -5    1    3    3    0  502 -0.24467972471E+03  0.59383298357E+02 -0.22630835337E+01  0.25183676331E+03  0.46999998093E+01 0. -1.
</event>
<event>
 5   0  0.1817089E-02  0.8243986E+03  0.7818609E-02  0.9525357E-01
        2   -1    0    0  501    0  0.00000000000E+00  0.00000000000E+00  0.12075442116E+04  0.12075442116E+04  0.25500000920E-02 0. -1.
       -2   -1    0    0    0  501  0.00000000000E+00  0.00000000000E+00 -0.14070562797E+03  0.14070562799E+03  0.25500000920E-02 0.  1.
    10030    2    1    2    0    0  0.00000000000E+00  0.00000000000E+00  0.10668385836E+04  0.13482498396E+04  0.82439860895E+03 0.  0.
        2    1    3    3  502    0  0.78555689672E+02  0.10996075314E+03  0.11702858837E+04  0.11780625676E+04  0.25500000920E-02 0. -1.
       -2    1    3    3    0  502 -0.78555689672E+02 -0.10996075314E+03 -0.10344730014E+03  0.17018727192E+03  0.25500000920E-02 0.  1.
</event>
<event>
 5   0  0.1038912E-02  0.8073666E+03  0.7818609E-02  0.9549415E-01
       -1   -1    0    0    0  501  0.00000000000E+00  0.00000000000E+00  0.23118490971E+03  0.23118490977E+03  0.50400001928E-02 0. -1.
        1   -1    0    0  501    0  0.00000000000E+00  0.00000000000E+00 -0.70489114615E+03  0.70489114617E+03  0.50400001928E-02 0.  1.
    10030    2    1    2    0    0  0.00000000000E+00  0.00000000000E+00 -0.47370623644E+03  0.93607605593E+03  0.80736657353E+03 0.  0.
        2    1    3    3  502    0  0.14511163140E+03 -0.14128727961E+03 -0.64172231897E+03  0.67292422725E+03  0.25500000920E-02 0.  1.
       -2    1    3    3    0  502 -0.14511163140E+03  0.14128727961E+03  0.16801608253E+03  0.26315182869E+03  0.25500000920E-02 0. -1.
</event>
<event>
 5   0  0.1038912E-02  0.7985361E+03  0.7818609E-02  0.9562139E-01
       -1   -1    0    0    0  501  0.00000000000E+00  0.00000000000E+00  0.40415196539E+03  0.40415196542E+03  0.50400001928E-02 0. -1.
        1   -1    0    0  501    0  0.00000000000E+00  0.00000000000E+00 -0.39444311274E+03  0.39444311277E+03  0.50400001928E-02 0.  1.
    10030    2    1    2    0    0  0.00000000000E+00  0.00000000000E+00  0.97088526538E+01  0.79859507819E+03  0.79853605873E+03 0.  0.
        2    1    3    3  502    0 -0.24500252824E+03  0.29891500551E+03  0.10505434573E+03  0.40051571121E+03  0.25500000920E-02 0.  1.
       -2    1    3    3    0  502  0.24500252824E+03 -0.29891500551E+03 -0.95345493079E+02  0.39807936698E+03  0.25500000920E-02 0. -1.
</event>
<event>
 5   0  0.1025900E-02  0.8092580E+03  0.7818609E-02  0.9546712E-01
        1   -1    0    0  501    0  0.00000000000E+00  0.00000000000E+00  0.41184254881E+03  0.41184254884E+03  0.50400001928E-02 0. -1.
       -1   -1    0    0    0  501  0.00000000000E+00  0.00000000000E+00 -0.39754180916E+03  0.39754180919E+03  0.50400001928E-02 0.  1.
    10030    2    1    2    0    0  0.00000000000E+00  0.00000000000E+00  0.14300739657E+02  0.80938435803E+03  0.80925801069E+03 0.  0.
        1    1    3    3  502    0 -0.20997205484E+03 -0.25178391742E+03 -0.23003898495E+03  0.40050136018E+03  0.50400001928E-02 0.  1.
       -1    1    3    3    0  502  0.20997205484E+03  0.25178391742E+03  0.24433972461E+03  0.40888299785E+03  0.50400001928E-02 0. -1.
</event>
<event>
 5   0  0.1817089E-02  0.8004275E+03  0.7818609E-02  0.9559398E-01
        2   -1    0    0  501    0  0.00000000000E+00  0.00000000000E+00  0.18033456900E+03  0.18033456902E+03  0.25500000920E-02 0. -1.
       -2   -1    0    0    0  501  0.00000000000E+00  0.00000000000E+00 -0.88818835923E+03  0.88818835924E+03  0.25500000920E-02 0.  1.
    10030    2    1    2    0    0  0.00000000000E+00  0.00000000000E+00 -0.70785379023E+03  0.10685229283E+04  0.80042754817E+03 0.  0.
        2    1    3    3  502    0  0.71279340384E+02  0.33911734836E+03 -0.86639509360E+02  0.35719423975E+03  0.25500000920E-02 0. -1.
       -2    1    3    3    0  502 -0.71279340384E+02 -0.33911734836E+03 -0.62121428087E+03  0.71132868850E+03  0.25500000920E-02 0.  1.
</event>
<event>
 5   0  0.1731337E-02  0.7936222E+03  0.7818609E-02  0.9569295E-01
        2   -1    0    0  501    0  0.00000000000E+00  0.00000000000E+00  0.79992675866E+03  0.79992675866E+03  0.25500000920E-02 0. -1.
       -2   -1    0    0    0  501  0.00000000000E+00  0.00000000000E+00 -0.19684180964E+03  0.19684180966E+03  0.25500000920E-02 0.  1.
    10030    2    1    2    0    0  0.00000000000E+00  0.00000000000E+00  0.60308494902E+03  0.99676856832E+03  0.79362215384E+03 0.  0.
        4    1    3    3  502    0  0.12086496481E+03 -0.66798356040E+02  0.76876986003E+03  0.78107558576E+03  0.12699999809E+01 0. -1.
       -4    1    3    3    0  502 -0.12086496481E+03  0.66798356040E+02 -0.16568491101E+03  0.21569298256E+03  0.12699999809E+01 0.  1.
</event>
<event>
 5   0  0.1025900E-02  0.7969393E+03  0.7818609E-02  0.9564458E-01
       -1   -1    0    0    0  501  0.00000000000E+00  0.00000000000E+00  0.65192655065E+03  0.65192655067E+03  0.50400001928E-02 0.  1.
        1   -1    0    0  501    0  0.00000000000E+00  0.00000000000E+00 -0.24355207336E+03  0.24355207341E+03  0.50400001928E-02 0. -1.
    10030    2    1    2    0    0  0.00000000000E+00  0.00000000000E+00  0.40837447729E+03  0.89547862408E+03  0.79693930288E+03 0.  0.
        1    1    3    3  502    0  0.16803012376E+03 -0.33285790084E+03  0.46277587942E+02  0.37572612341E+03  0.50400001928E-02 0. -1.
       -1    1    3    3    0  502 -0.16803012376E+03  0.33285790084E+03  0.36209688935E+03  0.51975250066E+03  0.50400001928E-02 0.  1.
</event>
<event>
 5   0  0.1747544E-02  0.8014184E+03  0.7818609E-02  0.9557966E-01
        2   -1    0    0  501    0  0.00000000000E+00  0.00000000000E+00  0.15576429874E+04  0.15576429874E+04  0.25500000920E-02 0.  1.
       -2   -1    0    0    0  501  0.00000000000E+00  0.00000000000E+00 -0.10308385758E+03  0.10308385762E+03  0.25500000920E-02 0. -1.
    10030    2    1    2    0    0  0.00000000000E+00  0.00000000000E+00  0.14545591298E+04  0.16607268450E+04  0.80141836243E+03 0.  0.
        1    1    3    3  502    0  0.30205137625E+02  0.13132239382E+03  0.15092836973E+04  0.15152871676E+04  0.50400001928E-02 0.  1.
       -1    1    3    3    0  502 -0.30205137625E+02 -0.13132239382E+03 -0.54724567452E+02  0.14543967741E+03  0.50400001928E-02 0. -1.
</event>
<event>
 5   0  0.1038912E-02  0.8165325E+03  0.7818609E-02  0.9536390E-01
        1   -1    0    0  501    0  0.00000000000E+00  0.00000000000E+00  0.32383564625E+03  0.32383564629E+03  0.50400001928E-02 0. -1.
       -1   -1    0    0    0  501  0.00000000000E+00  0.00000000000E+00 -0.51470970220E+03  0.51470970222E+03  0.50400001928E-02 0.  1.
    10030    2    1    2    0    0  0.00000000000E+00  0.00000000000E+00 -0.19087405594E+03  0.83854534852E+03  0.81653254454E+03 0.  0.
        2    1    3    3  502    0  0.29544942990E+02  0.15709475431E+03 -0.48123704194E+03  0.50709048111E+03  0.25500000920E-02 0.  1.
       -2    1    3    3    0  502 -0.29544942990E+02 -0.15709475431E+03  0.29036298599E+03  0.33145486741E+03  0.25500000920E-02 0. -1.
</event>
<event>
 5   0  0.1025900E-02  0.8348702E+03  0.7818609E-02  0.9510872E-01
        1   -1    0    0  501    0  0.00000000000E+00  0.00000000000E+00  0.52428554913E+03  0.52428554915E+03  0.50400001928E-02 0.  1.
       -1   -1    0    0    0  501  0.00000000000E+00  0.00000000000E+00 -0.33236095995E+03  0.33236095999E+03  0.50400001928E-02 0. -1.
    10030    2    1    2    0    0  0.00000000000E+00  0.00000000000E+00  0.19192458918E+03  0.85664650914E+03  0.83487016577E+03 0.  0.
        1    1    3    3  502    0  0.97224995840E+02  0.16318677663E+03  0.47736931448E+03  0.51377435350E+03  0.50400001928E-02 0.  1.
       -1    1    3    3    0  502 -0.97224995840E+02 -0.16318677663E+03 -0.28544472531E+03  0.34287215564E+03  0.50400001928E-02 0. -1.
</event>
<event>
 5   0  0.1025900E-02  0.8011435E+03  0.7818609E-02  0.9558363E-01
       -1   -1    0    0    0  501  0.00000000000E+00  0.00000000000E+00  0.50010512361E+03  0.50010512364E+03  0.50400001928E-02 0.  1.
        1   -1    0    0  501    0  0.00000000000E+00  0.00000000000E+00 -0.32084798812E+03  0.32084798816E+03  0.50400001928E-02 0. -1.
    10030    2    1    2    0    0  0.00000000000E+00  0.00000000000E+00  0.17925713550E+03  0.82095311179E+03  0.80114348973E+03 0.  0.
        1    1    3    3  502    0 -0.27205521617E+03  0.29235556232E+03  0.57682275066E+02  0.40350100415E+03  0.50400001928E-02 0.  1.
       -1    1    3    3    0  502  0.27205521617E+03 -0.29235556232E+03  0.12157486043E+03  0.41745210765E+03  0.50400001928E-02 0. -1.
</event>
<event>
 5   0  0.1025900E-02  0.8144292E+03  0.7818609E-02  0.9539363E-01
       -1   -1    0    0    0  501  0.00000000000E+00  0.00000000000E+00  0.20072960396E+03  0.20072960402E+03  0.50400001928E-02 0. -1.
        1   -1    0    0  501    0  0.00000000000E+00  0.00000000000E+00 -0.82610507912E+03  0.82610507914E+03  0.50400001928E-02 0.  1.
    10030    2    1    2    0    0  0.00000000000E+00  0.00000000000E+00 -0.62537547516E+03  0.10268346832E+04  0.81442923671E+03 0.  0.
        1    1    3    3  502    0 -0.38566808617E+03 -0.12784974626E+03 -0.27842926146E+03  0.49255282353E+03  0.50400001928E-02 0. -1.
       -1    1    3    3    0  502  0.38566808617E+03  0.12784974626E+03 -0.34694621371E+03  0.53428185963E+03  0.50400001928E-02 0.  1.
</event>
<event>
 5   0  0.1025900E-02  0.7893475E+03  0.7818609E-02  0.9575565E-01
        1   -1    0    0  501    0  0.00000000000E+00  0.00000000000E+00  0.54622801879E+03  0.54622801881E+03  0.50400001928E-02 0. -1.
       -1   -1    0    0    0  501  0.00000000000E+00  0.00000000000E+00 -0.28516915027E+03  0.28516915031E+03  0.50400001928E-02 0.  1.
    10030    2    1    2    0    0  0.00000000000E+00  0.00000000000E+00  0.26105886852E+03  0.83139716912E+03  0.78934752802E+03 0.  0.
        1    1    3    3  502    0 -0.37216973833E+03 -0.11450735887E+03  0.19834187842E+03  0.43699170487E+03  0.50400001928E-02 0. -1.
       -1    1    3    3    0  502  0.37216973833E+03  0.11450735887E+03  0.62716990099E+02  0.39440546426E+03  0.50400001928E-02 0.  1.
</event>
<event>
 5   0  0.1038912E-02  0.7990001E+03  0.7818609E-02  0.9561465E-01
        1   -1    0    0  501    0  0.00000000000E+00  0.00000000000E+00  0.82386198008E+03  0.82386198010E+03  0.50400001928E-02 0. -1.
       -1   -1    0    0    0  501  0.00000000000E+00  0.00000000000E+00 -0.19372214091E+03  0.19372214097E+03  0.50400001928E-02 0.  1.
    10030    2    1    2    0    0  0.00000000000E+00  0.00000000000E+00  0.63013983917E+03  0.10175841211E+04  0.79900014176E+03 0.  0.
        2    1    3    3  502    0  0.32461670206E+03 -0.22569485205E+03  0.24206261642E+03  0.46358222547E+03  0.25500000920E-02 0.  1.
       -2    1    3    3    0  502 -0.32461670206E+03  0.22569485205E+03  0.38807722276E+03  0.55400189560E+03  0.25500000920E-02 0. -1.
</event>
<event>
 5   0  0.1146083E-02  0.7992629E+03  0.7818609E-02  0.9561085E-01
       -1   -1    0    0    0  501  0.00000000000E+00  0.00000000000E+00  0.91294856977E+02  0.91294857116E+02  0.50400001928E-02 0. -1.
        1   -1    0    0  501    0  0.00000000000E+00  0.00000000000E+00 -0.17493351473E+04  0.17493351473E+04  0.50400001928E-02 0.  1.
    10030    2    1    2    0    0  0.00000000000E+00  0.00000000000E+00 -0.16580402903E+04  0.18406300044E+04  0.79926291597E+03 0.  0.
        4    1    3    3  502    0 -0.30257816203E+03 -0.33551047021E+02 -0.14252222929E+04  0.14573741503E+04  0.12699999809E+01 0.  1.
       -4    1    3    3    0  502  0.30257816203E+03  0.33551047021E+02 -0.23281799743E+03  0.38325585413E+03  0.12699999809E+01 0. -1.
</event>
<event>
 5   0  0.1817089E-02  0.7972119E+03  0.7818609E-02  0.9564062E-01
        2   -1    0    0  501    0  0.00000000000E+00  0.00000000000E+00  0.35671064997E+03  0.35671064998E+03  0.25500000920E-02 0.  1.
       -2   -1    0    0    0  501  0.00000000000E+00  0.00000000000E+00 -0.44542175608E+03  0.44542175609E+03  0.25500000920E-02 0. -1.
    10030    2    1    2    0    0  0.00000000000E+00  0.00000000000E+00 -0.88711106110E+02  0.80213240607E+03  0.79721185172E+03 0.  0.
        2    1    3    3  502    0  0.26515296281E+03  0.29140263129E+03  0.16558156357E+02  0.39432950658E+03  0.25500000920E-02 0.  1.
       -2    1    3    3    0  502 -0.26515296281E+03 -0.29140263129E+03 -0.10526926247E+03  0.40780289949E+03  0.25500000920E-02 0. -1.
</event>
<event>
 5   0  0.1038912E-02  0.7984435E+03  0.7818609E-02  0.9562273E-01
       -1   -1    0    0    0  501  0.00000000000E+00  0.00000000000E+00  0.12452799536E+03  0.12452799546E+03  0.50400001928E-02 0.  1.
        1   -1    0    0  501    0  0.00000000000E+00  0.00000000000E+00 -0.12798568962E+04  0.12798568963E+04  0.50400001928E-02 0. -1.
    10030    2    1    2    0    0  0.00000000000E+00  0.00000000000E+00 -0.11553289009E+04  0.14043848917E+04  0.79844352015E+03 0.  0.
        2    1    3    3  502    0 -0.11158409401E+03  0.24815155778E+03 -0.63812352597E+02  0.27946774772E+03  0.25500000920E-02 0.  1.
       -2    1    3    3    0  502  0.11158409401E+03 -0.24815155778E+03 -0.10915165483E+04  0.11249171440E+04  0.25500000920E-02 0. -1.
</event>
<event>
 5   0  0.1049780E-02  0.6671303E+03  0.7818609E-02  0.9775156E-01
        1   -1    0    0  501    0  0.00000000000E+00  0.00000000000E+00  0.42783300723E+03  0.42783300726E+03  0.50400001928E-02 0. -1.
       -1   -1    0    0    0  501  0.00000000000E+00  0.00000000000E+00 -0.26006810177E+03  0.26006810181E+03  0.50400001928E-02 0.  1.
    10030    2    1    2    0    0  0.00000000000E+00  0.00000000000E+00  0.16776490547E+03  0.68790110907E+03  0.66713032637E+03 0.  0.
        5    1    3    3  502    0  0.78155879925E+02  0.15911000969E+03  0.37520175442E+03  0.41499732923E+03  0.46999998093E+01 0. -1.
       -5    1    3    3    0  502 -0.78155879925E+02 -0.15911000969E+03 -0.20743684895E+03  0.27290377984E+03  0.46999998093E+01 0.  1.
</event>
<event>
 5   0  0.1747544E-02  0.8100371E+03  0.7818609E-02  0.9545601E-01
        2   -1    0    0  501    0  0.00000000000E+00  0.00000000000E+00  0.11621577693E+04  0.11621577693E+04  0.25500000920E-02 0. -1.
       -2   -1    0    0    0  501  0.00000000000E+00  0.00000000000E+00 -0.14115125314E+03  0.14115125317E+03  0.25500000920E-02 0.  1.
    10030    2    1    2    0    0  0.00000000000E+00  0.00000000000E+00  0.10210065161E+04  0.13033090224E+04  0.81003709915E+03 0.  0.
        1    1    3    3  502    0  0.17982680448E+03 -0.31134594927E+03  0.81050248847E+03  0.88667257970E+03  0.50400001928E-02 0. -1.
       -1    1    3    3    0  502 -0.17982680448E+03  0.31134594927E+03  0.21050402765E+03  0.41663644274E+03  0.50400001928E-02 0.  1.
</event>
<event>
 5   0  0.1747544E-02  0.7975537E+03  0.7818609E-02  0.9563565E-01
       -2   -1    0    0    0  501  0.00000000000E+00  0.00000000000E+00  0.10546607469E+03  0.10546607472E+03  0.25500000920E-02 0. -1.
        2   -1    0    0  501    0  0.00000000000E+00  0.00000000000E+00 -0.15078117184E+04  0.15078117184E+04  0.25500000920E-02 0.  1.
    10030    2    1    2    0    0  0.00000000000E+00  0.00000000000E+00 -0.14023456437E+04  0.16132777931E+04  0.79755371814E+03 0.  0.
        1    1    3    3  502    0  0.38493922110E+03 -0.43130837399E+02 -0.89290562222E+03  0.97330309940E+03  0.50400001928E-02 0. -1.
       -1    1    3    3    0  502 -0.38493922110E+03  0.43130837399E+02 -0.50944002145E+03  0.63997469368E+03  0.50400001928E-02 0.  1.
</event>
<event>
 5   0  0.1817089E-02  0.8080043E+03  0.7818609E-02  0.9548503E-01
        2   -1    0    0  501    0  0.00000000000E+00  0.00000000000E+00  0.15537232376E+04  0.15537232376E+04  0.25500000920E-02 0. -1.
       -2   -1    0    0    0  501  0.00000000000E+00  0.00000000000E+00 -0.10504941714E+03  0.10504941717E+03  0.25500000920E-02 0.  1.
    10030    2    1    2    0    0  0.00000000000E+00  0.00000000000E+00  0.14486738205E+04  0.16587726548E+04  0.80800425873E+03 0.  0.
        2    1    3    3  502    0  0.42779140802E+02 -0.38932043373E+03  0.52092869649E+03  0.65174163734E+03  0.25500000920E-02 0.  1.
       -2    1    3    3    0  502 -0.42779140802E+02  0.38932043373E+03  0.92774512400E+03  0.10070310175E+04  0.25500000920E-02 0. -1.
</event>
<event>
 5   0  0.1673727E-02  0.7905602E+03  0.7818609E-02  0.9573782E-01
        2   -1    0    0  501    0  0.00000000000E+00  0.00000000000E+00  0.31906146604E+03  0.31906146605E+03  0.25500000920E-02 0. -1.
       -2   -1    0    0    0  501  0.00000000000E+00  0.00000000000E+00 -0.48970618225E+03  0.48970618226E+03  0.25500000920E-02 0.  1.
    10030    2    1    2    0    0  0.00000000000E+00  0.00000000000E+00 -0.17064471621E+03  0.80876764830E+03  0.79056023791E+03 0.  0.
        5    1    3    3  502    0 -0.11370497041E+03 -0.63101087416E+02  0.29652143892E+03  0.32381726524E+03  0.46999998093E+01 0. -1.
       -5    1    3    3    0  502  0.11370497041E+03  0.63101087416E+02 -0.46716615514E+03  0.48495038306E+03  0.46999998093E+01 0.  1.
</event>
<event>
 5   0  0.1146083E-02  0.8073355E+03  0.7818609E-02  0.9549460E-01
        1   -1    0    0  501    0  0.00000000000E+00  0.00000000000E+00  0.12943005651E+03  0.12943005661E+03  0.50400001928E-02 0.  1.
       -1   -1    0    0    0  501  0.00000000000E+00  0.00000000000E+00 -0.12589628850E+04  0.12589628850E+04  0.50400001928E-02 0. -1.
    10030    2    1    2    0    0  0.00000000000E+00  0.00000000000E+00 -0.11295328285E+04  0.13883929416E+04  0.80733546293E+03 0.  0.
        4    1    3    3  502    0  0.14675720092E+03  0.36508358013E+03 -0.71975461253E+03  0.82028776150E+03  0.12699999809E+01 0.  1.
       -4    1    3    3    0  502 -0.14675720092E+03 -0.36508358013E+03 -0.40977821595E+03  0.56810518011E+03  0.12699999809E+01 0. -1.
</event>
<event>
 5   0  0.1747544E-02  0.7962899E+03  0.7818609E-02  0.9565403E-01
        2   -1    0    0  501    0  0.00000000000E+00  0.00000000000E+00  0.11421196058E+04  0.11421196058E+04  0.25500000920E-02 0.  1.
       -2   -1    0    0    0  501  0.00000000000E+00  0.00000000000E+00 -0.13879405250E+03  0.13879405252E+03  0.25500000920E-02 0. -1.
    10030    2    1    2    0    0  0.00000000000E+00  0.00000000000E+00  0.10033255533E+04  0.12809136584E+04  0.79628991843E+03 0.  0.
        1    1    3    3  502    0 -0.11771378892E+03  0.16339307415E+03 -0.50829593777E+02  0.20769564370E+03  0.50400001928E-02 0. -1.
       -1    1    3    3    0  502  0.11771378892E+03 -0.16339307415E+03  0.10541551471E+04  0.10732180147E+04  0.50400001928E-02 0.  1.
</event>
<event>
 5   0  0.1025900E-02  0.8148527E+03  0.7818609E-02  0.9538764E-01
        1   -1    0    0  501    0  0.00000000000E+00  0.00000000000E+00  0.44951568740E+03  0.44951568743E+03  0.50400001928E-02 0.  1.
       -1   -1    0    0    0  501  0.00000000000E+00  0.00000000000E+00 -0.36927791426E+03  0.36927791430E+03  0.50400001928E-02 0. -1.
    10030    2    1    2    0    0  0.00000000000E+00  0.00000000000E+00  0.80237773142E+02  0.81879360173E+03  0.81485266275E+03 0.  0.
        1    1    3    3  502    0  0.37557465135E+03  0.15092628328E+03  0.86831932237E+02  0.41397445115E+03  0.50400001928E-02 0.  1.
       -1    1    3    3    0  502 -0.37557465135E+03 -0.15092628328E+03 -0.65941590953E+01  0.40481915058E+03  0.50400001928E-02 0. -1.
</event>
<event>
 5   0  0.6872500E-03  0.7994510E+03  0.7818609E-02  0.9560812E-01
       -4   -1    0    0    0  501  0.00000000000E+00  0.00000000000E+00  0.58310909174E+03  0.58311047475E+03  0.12699999809E+01 0.  1.
        4   -1    0    0  501    0  0.00000000000E+00  0.00000000000E+00 -0.27401152208E+03  0.27401446519E+03  0.12699999809E+01 0. -1.
    10030    2    1    2    0    0  0.00000000000E+00  0.00000000000E+00  0.30909756966E+03  0.85712493995E+03  0.79945097105E+03 0.  0.
        5    1    3    3  502    0  0.34473366937E+03 -0.12236443306E+03 -0.18142692053E+02  0.36628623308E+03  0.46999998093E+01 0. -1.
       -5    1    3    3    0  502 -0.34473366937E+03  0.12236443306E+03  0.32724026171E+03  0.49083870686E+03  0.46999998093E+01 0.  1.
</event>
<event>
 5   0  0.1025900E-02  0.8005249E+03  0.7818609E-02  0.9559258E-01
        1   -1    0    0  501    0  0.00000000000E+00  0.00000000000E+00  0.68194798695E+03  0.68194798697E+03  0.50400001928E-02 0.  1.
       -1   -1    0    0    0  501  0.00000000000E+00  0.00000000000E+00 -0.23493000956E+03  0.23493000961E+03  0.50400001928E-02 0. -1.
    10030    2    1    2    0    0  0.00000000000E+00  0.00000000000E+00  0.44701797740E+03  0.91687799659E+03  0.80052494559E+03 0.  0.
        1    1    3    3  502    0 -0.58938601672E+02 -0.14595350543E+02 -0.22962446768E+03  0.23751669248E+03  0.50400001928E-02 0. -1.
       -1    1    3    3    0  502  0.58938601672E+02  0.14595350543E+02  0.67664244507E+03  0.67936130411E+03  0.50400001928E-02 0.  1.
</event>
<event>
 5   0  0.1049780E-02  0.7928901E+03  0.7818609E-02  0.9570366E-01
       -1   -1    0    0    0  501  0.00000000000E+00  0.00000000000E+00  0.22427480659E+03  0.22427480664E+03  0.50400001928E-02 0. -1.
        1   -1    0    0  501    0  0.00000000000E+00  0.00000000000E+00 -0.70078620841E+03  0.70078620843E+03  0.50400001928E-02 0.  1.
    10030    2    1    2    0    0  0.00000000000E+00  0.00000000000E+00 -0.47651140182E+03  0.92506101507E+03  0.79289013459E+03 0.  0.
        5    1    3    3  502    0  0.75949596302E+02  0.28691087645E+03 -0.54485555101E+03  0.62046422432E+03  0.46999998093E+01 0.  1.
       -5    1    3    3    0  502 -0.75949596302E+02 -0.28691087645E+03  0.68344149184E+02  0.30459679074E+03  0.46999998093E+01 0. -1.
</event>
<event>
 5   0  0.6872500E-03  0.8674225E+03  0.7818609E-02  0.9467247E-01
       -4   -1    0    0    0  501  0.00000000000E+00  0.00000000000E+00  0.39358285028E+03  0.39358489927E+03  0.12699999809E+01 0. -1.
        4   -1    0    0  501    0  0.00000000000E+00  0.00000000000E+00 -0.47792687969E+03  0.47792856708E+03  0.12699999809E+01 0.  1.
    10030    2    1    2    0    0  0.00000000000E+00  0.00000000000E+00 -0.84344029415E+02  0.87151346635E+03  0.86742250762E+03 0.  0.
        5    1    3    3  502    0  0.27033699659E+03 -0.10405253234E+02 -0.38272932035E+03  0.46871546131E+03  0.46999998093E+01 0.  1.
       -5    1    3    3    0  502 -0.27033699659E+03  0.10405253234E+02  0.29838529094E+03  0.40279800504E+03  0.46999998093E+01 0. -1.
</event>
<event>
 5   0  0.1747544E-02  0.7994670E+03  0.7818609E-02  0.9560789E-01
        2   -1    0    0  501    0  0.00000000000E+00  0.00000000000E+00  0.79674424975E+03  0.79674424976E+03  0.25500000920E-02 0. -1.
       -2   -1    0    0    0  501  0.00000000000E+00  0.00000000000E+00 -0.20054974966E+03  0.20054974968E+03  0.25500000920E-02 0.  1.
    10030    2    1    2    0    0  0.00000000000E+00  0.00000000000E+00  0.59619450009E+03  0.99729399944E+03  0.79946697204E+03 0.  0.
        1    1    3    3  502    0 -0.24112513201E+03  0.27921524536E+02  0.69427939977E+03  0.73548951439E+03  0.50400001928E-02 0. -1.
       -1    1    3    3    0  502  0.24112513201E+03 -0.27921524536E+02 -0.98084899673E+02  0.26180448504E+03  0.50400001928E-02 0.  1.
</event>
<event>
 5   0  0.1818665E-02  0.8090813E+03  0.7818609E-02  0.9546965E-01
        2   -1    0    0  501    0  0.00000000000E+00  0.00000000000E+00  0.16782718736E+04  0.16782718736E+04  0.25500000920E-02 0. -1.
       -2   -1    0    0    0  501  0.00000000000E+00  0.00000000000E+00 -0.97512877081E+02  0.97512877115E+02  0.25500000920E-02 0.  1.
    10030    2    1    2    0    0  0.00000000000E+00  0.00000000000E+00  0.15807589965E+04  0.17757847507E+04  0.80908125414E+03 0.  0.
        3    1    3    3  502    0  0.16417138913E+03 -0.18847601597E+03  0.92242766910E+02  0.26642858678E+03  0.10100000352E+00 0.  1.
       -3    1    3    3    0  502 -0.16417138913E+03  0.18847601597E+03  0.14885162296E+04  0.15093561639E+04  0.10100000352E+00 0. -1.
</event>
<event>
 5   0  0.1025900E-02  0.7967106E+03  0.7818609E-02  0.9564791E-01
        1   -1    0    0  501    0  0.00000000000E+00  0.00000000000E+00  0.62511440475E+03  0.62511440477E+03  0.50400001928E-02 0. -1.
       -1   -1    0    0    0  501  0.00000000000E+00  0.00000000000E+00 -0.25385264003E+03  0.25385264008E+03  0.50400001928E-02 0.  1.
    10030    2    1    2    0    0  0.00000000000E+00  0.00000000000E+00  0.37126176472E+03  0.87896704484E+03  0.79671059236E+03 0.  0.
        1    1    3    3  502    0  0.71563759617E+02 -0.23239834454E+03  0.53373325640E+03  0.58651645437E+03  0.50400001928E-02 0. -1.
       -1    1    3    3    0  502 -0.71563759617E+02  0.23239834454E+03 -0.16247149168E+03  0.29245059047E+03  0.50400001928E-02 0.  1.
</event>
<event>
 5   0  0.1038912E-02  0.7985120E+03  0.7818609E-02  0.9562173E-01
        1   -1    0    0  501    0  0.00000000000E+00  0.00000000000E+00  0.14740092126E+04  0.14740092126E+04  0.50400001928E-02 0. -1.
       -1   -1    0    0    0  501  0.00000000000E+00  0.00000000000E+00 -0.10814407861E+03  0.10814407873E+03  0.50400001928E-02 0.  1.
    10030    2    1    2    0    0  0.00000000000E+00  0.00000000000E+00  0.13658651340E+04  0.15821532913E+04  0.79851203686E+03 0.  0.
        2    1    3    3  502    0 -0.13980108219E+03  0.25272371608E+03  0.13673430736E+03  0.31954638171E+03  0.25500000920E-02 0.  1.
       -2    1    3    3    0  502  0.13980108219E+03 -0.25272371608E+03  0.12291308266E+04  0.12626069096E+04  0.25500000920E-02 0. -1.
</event>
<event>
 5   0  0.6872500E-03  0.7570592E+03  0.7818609E-02  0.9624340E-01
        3   -1    0    0  501    0  0.00000000000E+00  0.00000000000E+00  0.12539438885E+03  0.12539442952E+03  0.10100000352E+00 0.  1.
       -3   -1    0    0    0  501  0.00000000000E+00  0.00000000000E+00 -0.11426718316E+04  0.11426718361E+04  0.10100000352E+00 0. -1.
    10030    2    1    2    0    0  0.00000000000E+00  0.00000000000E+00 -0.10172774428E+04  0.12680662656E+04  0.75705921723E+03 0.  0.
        1    1    3    3  502    0  0.35919885410E+03 -0.95953693667E+02 -0.38956432382E+03  0.53850839412E+03  0.50400001928E-02 0. -1.
       -1    1    3    3    0  502 -0.35919885410E+03  0.95953693667E+02 -0.62771311894E+03  0.72955787148E+03  0.50400001928E-02 0.  1.
</event>
<event>
 5   0  0.1025900E-02  0.8009847E+03  0.7818609E-02  0.9558593E-01
        1   -1    0    0  501    0  0.00000000000E+00  0.00000000000E+00  0.60528529562E+03  0.60528529564E+03  0.50400001928E-02 0.  1.
       -1   -1    0    0    0  501  0.00000000000E+00  0.00000000000E+00 -0.26498931338E+03  0.26498931343E+03  0.50400001928E-02 0. -1.
    10030    2    1    2    0    0  0.00000000000E+00  0.00000000000E+00  0.34029598223E+03  0.87027460907E+03  0.80098473123E+03 0.  0.
        1    1    3    3  502    0 -0.31207021727E+03  0.20564578482E+03  0.32652983977E+03  0.49628595145E+03  0.50400001928E-02 0.  1.
       -1    1    3    3    0  502  0.31207021727E+03 -0.20564578482E+03  0.13766142465E+02  0.37398865762E+03  0.50400001928E-02 0. -1.
</event>
<event>
 5   0  0.1038912E-02  0.8083954E+03  0.7818609E-02  0.9547944E-01
       -1   -1    0    0    0  501  0.00000000000E+00  0.00000000000E+00  0.26493665354E+03  0.26493665358E+03  0.50400001928E-02 0. -1.
        1   -1    0    0  501    0  0.00000000000E+00  0.00000000000E+00 -0.61665973154E+03  0.61665973157E+03  0.50400001928E-02 0.  1.
    10030    2    1    2    0    0  0.00000000000E+00  0.00000000000E+00 -0.35172307801E+03  0.88159638515E+03  0.80839536287E+03 0.  0.
        2    1    3    3  502    0 -0.18996230436E+03 -0.35295599856E+03 -0.23265560658E+03  0.46345684295E+03  0.25500000920E-02 0.  1.
       -2    1    3    3    0  502  0.18996230436E+03  0.35295599856E+03 -0.11906747143E+03  0.41813954220E+03  0.25500000920E-02 0. -1.
</event>
<event>
 5   0  0.1030323E-02  0.8118472E+03  0.7818609E-02  0.9543025E-01
        1   -1    0    0  501    0  0.00000000000E+00  0.00000000000E+00  0.13806329137E+03  0.13806329146E+03  0.50400001928E-02 0. -1.
       -1   -1    0    0    0  501  0.00000000000E+00  0.00000000000E+00 -0.11934667727E+04  0.11934667728E+04  0.50400001928E-02 0.  1.
    10030    2    1    2    0    0  0.00000000000E+00  0.00000000000E+00 -0.10554034814E+04  0.13315300642E+04  0.81184715520E+03 0.  0.
        3    1    3    3  502    0 -0.10887918755E+03  0.93964487283E+02 -0.11502793984E+04  0.11592353975E+04  0.10100000352E+00 0.  1.
       -3    1    3    3    0  502  0.10887918755E+03 -0.93964487283E+02  0.94875916979E+02  0.17229466671E+03  0.10100000352E+00 0. -1.
</event>
<event>
 5   0  0.1747544E-02  0.8063219E+03  0.7818609E-02  0.9550911E-01
       -2   -1    0    0    0  501  0.00000000000E+00  0.00000000000E+00  0.31154793816E+03  0.31154793817E+03  0.25500000920E-02 0.  1.
        2   -1    0    0  501    0  0.00000000000E+00  0.00000000000E+00 -0.52171343870E+03  0.52171343870E+03  0.25500000920E-02 0. -1.
    10030    2    1    2    0    0  0.00000000000E+00  0.00000000000E+00 -0.21016550053E+03  0.83326137688E+03  0.80632188646E+03 0.  0.
        1    1    3    3  502    0 -0.37907597748E+03 -0.51223114731E+02 -0.23668073855E+03  0.44982238296E+03  0.50400001928E-02 0. -1.
       -1    1    3    3    0  502  0.37907597748E+03  0.51223114731E+02  0.26515238016E+02  0.38343899392E+03  0.50400001928E-02 0.  1.
</event>
<event>
 5   0  0.1049780E-02  0.8111114E+03  0.7818609E-02  0.9544072E-01
       -1   -1    0    0    0  501  0.00000000000E+00  0.00000000000E+00  0.17356690886E+03  0.17356690894E+03  0.50400001928E-02 0. -1.
        1   -1    0    0  501    0  0.00000000000E+00  0.00000000000E+00 -0.94761963533E+03  0.94761963534E+03  0.50400001928E-02 0.  1.
    10030    2    1    2    0    0  0.00000000000E+00  0.00000000000E+00 -0.77405272647E+03  0.11211865443E+04  0.81111136333E+03 0.  0.
        5    1    3    3  502    0  0.88922433774E+02  0.19701452162E+03  0.87263175295E+02  0.23314989324E+03  0.46999998093E+01 0. -1.
       -5    1    3    3    0  502 -0.88922433774E+02 -0.19701452162E+03 -0.86131590176E+03  0.88803665104E+03  0.46999998093E+01 0.  1.
</event>
<event>
 5   0  0.1817089E-02  0.7886208E+03  0.7818609E-02  0.9576636E-01
       -2   -1    0    0    0  501  0.00000000000E+00  0.00000000000E+00  0.30118057029E+03  0.30118057030E+03  0.25500000920E-02 0.  1.
        2   -1    0    0  501    0  0.00000000000E+00  0.00000000000E+00 -0.51623741426E+03  0.51623741426E+03  0.25500000920E-02 0. -1.
    10030    2    1    2    0    0  0.00000000000E+00  0.00000000000E+00 -0.21505684396E+03  0.81741798457E+03  0.78862076777E+03 0.  0.
        2    1    3    3  502    0 -0.12992156692E+03  0.89528547696E+01  0.27824619572E+03  0.30721444074E+03  0.25500000920E-02 0.  1.
       -2    1    3    3    0  502  0.12992156692E+03 -0.89528547696E+01 -0.49330303969E+03  0.51020354383E+03  0.25500000920E-02 0. -1.
</event>
<event>
 5   0  0.1038912E-02  0.6940967E+03  0.7818609E-02  0.9727381E-01
       -1   -1    0    0    0  501  0.00000000000E+00  0.00000000000E+00  0.36541107586E+03  0.36541107590E+03  0.50400001928E-02 0. -1.
        1   -1    0    0  501    0  0.00000000000E+00  0.00000000000E+00 -0.32960843317E+03  0.32960843321E+03  0.50400001928E-02 0.  1.
    10030    2    1    2    0    0  0.00000000000E+00  0.00000000000E+00  0.35802642687E+02  0.69501950911E+03  0.69409674313E+03 0.  0.
        2    1    3    3  502    0  0.47033919385E+02  0.24229622323E+03  0.26219887224E+03  0.36009429040E+03  0.25500000920E-02 0. -1.
       -2    1    3    3    0  502 -0.47033919385E+02 -0.24229622323E+03 -0.22639622955E+03  0.33492521871E+03  0.25500000920E-02 0.  1.
</event>
<event>
 5   0  0.1818665E-02  0.8067459E+03  0.7818609E-02  0.9550304E-01
        2   -1    0    0  501    0  0.00000000000E+00  0.00000000000E+00  0.60729459682E+03  0.60729459682E+03  0.25500000920E-02 0.  1.
       -2   -1    0    0    0  501  0.00000000000E+00  0.00000000000E+00 -0.26792555872E+03  0.26792555873E+03  0.25500000920E-02 0. -1.
    10030    2    1    2    0    0  0.00000000000E+00  0.00000000000E+00  0.33936903809E+03  0.87522015555E+03  0.80674591829E+03 0.  0.
        3    1    3    3  502    0  0.38524998246E+03  0.10741662064E+03  0.11275322753E+03  0.41553481189E+03  0.10100000352E+00 0. -1.
       -3    1    3    3    0  502 -0.38524998246E+03 -0.10741662064E+03  0.22661581057E+03  0.45968534366E+03  0.10100000352E+00 0.  1.
</event>
<event>
 5   0  0.1025900E-02  0.8011458E+03  0.7818609E-02  0.9558360E-01
        1   -1    0    0  501    0  0.00000000000E+00  0.00000000000E+00  0.55788506107E+03  0.55788506109E+03  0.50400001928E-02 0.  1.
       -1   -1    0    0    0  501  0.00000000000E+00  0.00000000000E+00 -0.28761956564E+03  0.28761956568E+03  0.50400001928E-02 0. -1.
    10030    2    1    2    0    0  0.00000000000E+00  0.00000000000E+00  0.27026549543E+03  0.84550462677E+03  0.80114582685E+03 0.  0.
        1    1    3    3  502    0 -0.82056629833E+02  0.17642595532E+03 -0.23439607780E+03  0.30463244989E+03  0.50400001928E-02 0. -1.
       -1    1    3    3    0  502  0.82056629833E+02 -0.17642595532E+03  0.50466157323E+03  0.54087217689E+03  0.50400001928E-02 0.  1.
</event>
<event>
 5   0  0.1818665E-02  0.8040161E+03  0.7818609E-02  0.9554222E-01
       -2   -1    0    0    0  501  0.00000000000E+00  0.00000000000E+00  0.26426566220E+03  0.26426566221E+03  0.25500000920E-02 0.  1.
        2   -1    0    0  501    0  0.00000000000E+00  0.00000000000E+00 -0.61154553133E+03  0.61154553134E+03  0.25500000920E-02 0. -1.
    10030    2    1    2    0    0  0.00000000000E+00  0.00000000000E+00 -0.34727986913E+03  0.87581119355E+03  0.80401613121E+03 0.  0.
        3    1    3    3  502    0  0.39802318461E+02 -0.33539087531E+03 -0.41114436381E+03  0.53208172482E+03  0.10100000352E+00 0. -1.
       -3    1    3    3    0  502 -0.39802318461E+02  0.33539087531E+03  0.63864494676E+02  0.34372946873E+03  0.10100000352E+00 0.  1.
</event>
<event>
 5   0  0.1030323E-02  0.8038597E+03  0.7818609E-02  0.9554447E-01
        1   -1    0    0  501    0  0.00000000000E+00  0.00000000000E+00  0.83961929977E+03  0.83961929979E+03  0.50400001928E-02 0. -1.
       -1   -1    0    0    0  501  0.00000000000E+00  0.00000000000E+00 -0.19240578400E+03  0.19240578407E+03  0.50400001928E-02 0.  1.
    10030    2    1    2    0    0  0.00000000000E+00  0.00000000000E+00  0.64721351577E+03  0.10320250839E+04  0.80385971332E+03 0.  0.
        3    1    3    3  502    0 -0.35525368472E+03  0.32317780233E+02  0.56136975192E+03  0.66512076197E+03  0.10100000352E+00 0. -1.
       -3    1    3    3    0  502  0.35525368472E+03 -0.32317780233E+02  0.85843763847E+02  0.36690432188E+03  0.10100000352E+00 0.  1.
</event>
<event>
 5   0  0.1049780E-02  0.8015238E+03  0.7818609E-02  0.9557814E-01
        1   -1    0    0  501    0  0.00000000000E+00  0.00000000000E+00  0.14744340365E+04  0.14744340365E+04  0.50400001928E-02 0. -1.
       -1   -1    0    0    0  501  0.00000000000E+00  0.00000000000E+00 -0.10893001347E+03  0.10893001358E+03  0.50400001928E-02 0.  1.
    10030    2    1    2    0    0  0.00000000000E+00  0.00000000000E+00  0.13655040230E+04  0.15833640501E+04  0.80152384756E+03 0.  0.
        5    1    3    3  502    0 -0.25700659727E+03  0.27675604829E+03  0.94735605048E+03  0.10198783642E+04  0.46999998093E+01 0. -1.
       -5    1    3    3    0  502  0.25700659727E+03 -0.27675604829E+03  0.41814797255E+03  0.56348568593E+03  0.46999998093E+01 0.  1.
</event>
<event>
 5   0  0.1030323E-02  0.8103678E+03  0.7818609E-02  0.9545130E-01
        1   -1    0    0  501    0  0.00000000000E+00  0.00000000000E+00  0.10374753931E+04  0.10374753931E+04  0.50400001928E-02 0. -1.
       -1   -1    0    0    0  501  0.00000000000E+00  0.00000000000E+00 -0.15824375791E+03  0.15824375799E+03  0.50400001928E-02 0.  1.
    10030    2    1    2    0    0  0.00000000000E+00  0.00000000000E+00  0.87923163519E+03  0.11957191511E+04  0.81036783004E+03 0.  0.
        3    1    3    3  502    0 -0.31127160147E+03 -0.25293011844E+03  0.35472058542E+03  0.53543473796E+03  0.10100000352E+00 0.  1.
       -3    1    3    3    0  502  0.31127160147E+03  0.25293011844E+03  0.52451104977E+03  0.66028441313E+03  0.10100000352E+00 0. -1.
</event>
<event>
 5   0  0.1673727E-02  0.7505567E+03  0.7818609E-02  0.9634477E-01
        2   -1    0    0  501    0  0.00000000000E+00  0.00000000000E+00  0.19807526916E+04  0.19807526916E+04  0.25500000920E-02 0. -1.
       -2   -1    0    0    0  501  0.00000000000E+00  0.00000000000E+00 -0.71101166184E+02  0.71101166230E+02  0.25500000920E-02 0.  1.
    10030    2    1    2    0    0  0.00000000000E+00  0.00000000000E+00  0.19096515255E+04  0.20518538579E+04  0.75055666367E+03 0.  0.
        5    1    3    3  502    0 -0.14780859106E+03  0.12013729594E+03  0.18386914946E+04  0.18485369490E+04  0.46999998093E+01 0. -1.
       -5    1    3    3    0  502  0.14780859106E+03 -0.12013729594E+03  0.70960030878E+02  0.20331690890E+03  0.46999998093E+01 0.  1.
</event>
<event>
 5   0  0.1747544E-02  0.8270701E+03  0.7818609E-02  0.9521640E-01
        2   -1    0    0  501    0  0.00000000000E+00  0.00000000000E+00  0.86289998991E+03  0.86289998992E+03  0.25500000920E-02 0.  1.
       -2   -1    0    0    0  501  0.00000000000E+00  0.00000000000E+00 -0.19818199782E+03  0.19818199783E+03  0.25500000920E-02 0. -1.
    10030    2    1    2    0    0  0.00000000000E+00  0.00000000000E+00  0.66471799209E+03  0.10610819877E+04  0.82707011535E+03 0.  0.
        1    1    3    3  502    0  0.29889242406E+03 -0.28469673084E+03  0.30035395099E+03  0.51049133745E+03  0.50400001928E-02 0.  1.
       -1    1    3    3    0  502 -0.29889242406E+03  0.28469673084E+03  0.36436404111E+03  0.55059065030E+03  0.50400001928E-02 0. -1.
</event>
<event>
 5   0  0.1747544E-02  0.7782674E+03  0.7818609E-02  0.9592018E-01
        2   -1    0    0  501    0  0.00000000000E+00  0.00000000000E+00  0.47386964061E+03  0.47386964061E+03  0.25500000920E-02 0. -1.
       -2   -1    0    0    0  501  0.00000000000E+00  0.00000000000E+00 -0.31954994431E+03  0.31954994432E+03  0.25500000920E-02 0.  1.
    10030    2    1    2    0    0  0.00000000000E+00  0.00000000000E+00  0.15431969630E+03  0.79341958493E+03  0.77826735065E+03 0.  0.
        1    1    3    3  502    0  0.38840007688E+03  0.79834848531E+01  0.54212470902E+02  0.39224653953E+03  0.50400001928E-02 0.  1.
       -1    1    3    3    0  502 -0.38840007688E+03 -0.79834848531E+01  0.10010722540E+03  0.40117304540E+03  0.50400001928E-02 0. -1.
</event>
<event>
 5   0  0.1038912E-02  0.8109434E+03  0.7818609E-02  0.9544311E-01
       -1   -1    0    0    0  501  0.00000000000E+00  0.00000000000E+00  0.34655597335E+03  0.34655597339E+03  0.50400001928E-02 0.  1.
        1   -1    0    0  501    0  0.00000000000E+00  0.00000000000E+00 -0.47440328443E+03  0.47440328445E+03  0.50400001928E-02 0. -1.
    10030    2    1    2    0    0  0.00000000000E+00  0.00000000000E+00 -0.12784731108E+03  0.82095925784E+03  0.81094338155E+03 0.  0.
        2    1    3    3  502    0  0.37610439662E+02 -0.33687235794E+03 -0.28917971747E+03  0.44555857047E+03  0.25500000920E-02 0. -1.
       -2    1    3    3    0  502 -0.37610439662E+02  0.33687235794E+03  0.16133240639E+03  0.37540068737E+03  0.25500000920E-02 0.  1.
</event>
<event>
 5   0  0.6872500E-03  0.8048114E+03  0.7818609E-02  0.9553079E-01
       -4   -1    0    0    0  501  0.00000000000E+00  0.00000000000E+00  0.16235313507E+03  0.16235810225E+03  0.12699999809E+01 0. -1.
        4   -1    0    0  501    0  0.00000000000E+00  0.00000000000E+00 -0.99737522114E+03  0.99737602971E+03  0.12699999809E+01 0.  1.
    10030    2    1    2    0    0  0.00000000000E+00  0.00000000000E+00 -0.83502208607E+03  0.11597341320E+04  0.80481138946E+03 0.  0.
        4    1    3    3  502    0 -0.51059384338E+02  0.31172853695E+03 -0.77674250892E+03  0.83851790651E+03  0.12699999809E+01 0.  1.
       -4    1    3    3    0  502  0.51059384338E+02 -0.31172853695E+03 -0.58279577154E+02  0.32121622545E+03  0.12699999809E+01 0. -1.
</event>
<event>
 5   0  0.1817089E-02  0.8075459E+03  0.7818609E-02  0.9549158E-01
        2   -1    0    0  501    0  0.00000000000E+00  0.00000000000E+00  0.12338483095E+04  0.12338483095E+04  0.25500000920E-02 0.  1.
       -2   -1    0    0    0  501  0.00000000000E+00  0.00000000000E+00 -0.13213342869E+03  0.13213342872E+03  0.25500000920E-02 0. -1.
    10030    2    1    2    0    0  0.00000000000E+00  0.00000000000E+00  0.11017148808E+04  0.13659817382E+04  0.80754593094E+03 0.  0.
        2    1    3    3  502    0  0.18637434034E+03 -0.13784657050E+03  0.11100725177E+04  0.11340185476E+04  0.25500000920E-02 0.  1.
       -2    1    3    3    0  502 -0.18637434034E+03  0.13784657050E+03 -0.83576368251E+01  0.23196319069E+03  0.25500000920E-02 0. -1.
</event>
<event>
 5   0  0.1049780E-02  0.8181080E+03  0.7818609E-02  0.9534170E-01
        1   -1    0    0  501    0  0.00000000000E+00  0.00000000000E+00  0.23110220723E+03  0.23110220728E+03  0.50400001928E-02 0. -1.
       -1   -1    0    0    0  501  0.00000000000E+00  0.00000000000E+00 -0.72403096674E+03  0.72403096676E+03  0.50400001928E-02 0.  1.
    10030    2    1    2    0    0  0.00000000000E+00  0.00000000000E+00 -0.49292875952E+03  0.95513317404E+03  0.81810795021E+03 0.  0.
        5    1    3    3  502    0 -0.59971135342E+02 -0.37423865541E+02  0.22388500397E+03  0.23482688897E+03  0.46999998093E+01 0. -1.
       -5    1    3    3    0  502  0.59971135342E+02  0.37423865541E+02 -0.71681376349E+03  0.72030628507E+03  0.46999998093E+01 0.  1.
</event>
<event>
 5   0  0.1146083E-02  0.8045749E+03  0.7818609E-02  0.9553419E-01
       -1   -1    0    0    0  501  0.00000000000E+00  0.00000000000E+00  0.12111114277E+03  0.12111114287E+03  0.50400001928E-02 0.  1.
        1   -1    0    0  501    0  0.00000000000E+00  0.00000000000E+00 -0.13362535390E+04  0.13362535390E+04  0.50400001928E-02 0. -1.
    10030    2    1    2    0    0  0.00000000000E+00  0.00000000000E+00 -0.12151423963E+04  0.14573646819E+04  0.80457490198E+03 0.  0.
        4    1    3    3  502    0  0.30636967025E+03  0.25981337553E+03 -0.64676564980E+03  0.76136245220E+03  0.12699999809E+01 0. -1.
       -4    1    3    3    0  502 -0.30636967025E+03 -0.25981337553E+03 -0.56837674646E+03  0.69600222972E+03  0.12699999809E+01 0.  1.
</event>
<event>
 5   0  0.1030323E-02  0.8009072E+03  0.7818609E-02  0.9558705E-01
        1   -1    0    0  501    0  0.00000000000E+00  0.00000000000E+00  0.26676942921E+03  0.26676942925E+03  0.50400001928E-02 0.  1.
       -1   -1    0    0    0  501  0.00000000000E+00  0.00000000000E+00 -0.60112985040E+03  0.60112985042E+03  0.50400001928E-02 0. -1.
    10030    2    1    2    0    0  0.00000000000E+00  0.00000000000E+00 -0.33436042119E+03  0.86789927967E+03  0.80090715342E+03 0.  0.
        3    1    3    3  502    0 -0.24667114211E+03 -0.18599325572E+03 -0.44329276605E+03  0.54032270927E+03  0.10100000352E+00 0. -1.
       -3    1    3    3    0  502  0.24667114211E+03  0.18599325572E+03  0.10893234485E+03  0.32757657040E+03  0.10100000352E+00 0.  1.
</event>
<event>
 5   0  0.1049780E-02  0.8054932E+03  0.7818609E-02  0.9552100E-01
        1   -1    0    0  501    0  0.00000000000E+00  0.00000000000E+00  0.45274187976E+03  0.45274187979E+03  0.50400001928E-02 0.  1.
       -1   -1    0    0    0  501  0.00000000000E+00  0.00000000000E+00 -0.35827215448E+03  0.35827215452E+03  0.50400001928E-02 0. -1.
    10030    2    1    2    0    0  0.00000000000E+00  0.00000000000E+00  0.94469725277E+02  0.81101403431E+03  0.80549316251E+03 0.  0.
        5    1    3    3  502    0  0.19614583812E+03  0.17635379530E+03 -0.25916798604E+03  0.36981615150E+03  0.46999998093E+01 0. -1.
       -5    1    3    3    0  502 -0.19614583812E+03 -0.17635379530E+03  0.35363771132E+03  0.44119788280E+03  0.46999998093E+01 0.  1.
</event>
<event>
 5   0  0.1817089E-02  0.7966197E+03  0.7818609E-02  0.9564923E-01
       -2   -1    0    0    0  501  0.00000000000E+00  0.00000000000E+00  0.35287758295E+03  0.35287758296E+03  0.25500000920E-02 0.  1.
        2   -1    0    0  501    0  0.00000000000E+00  0.00000000000E+00 -0.44959137890E+03  0.44959137891E+03  0.25500000920E-02 0. -1.
    10030    2    1    2    0    0  0.00000000000E+00  0.00000000000E+00 -0.96713795950E+02  0.80246896188E+03  0.79661965608E+03 0.  0.
        2    1    3    3  502    0 -0.37109297187E+02 -0.37738952382E+03 -0.17111542255E+03  0.41602937452E+03  0.25500000920E-02 0. -1.
       -2    1    3    3    0  502  0.37109297187E+02  0.37738952382E+03  0.74401626598E+02  0.38643958735E+03  0.25500000920E-02 0.  1.
</event>
<event>
 5   0  0.1817089E-02  0.7985660E+03  0.7818609E-02  0.9562095E-01
       -2   -1    0    0    0  501  0.00000000000E+00  0.00000000000E+00  0.13338624061E+03  0.13338624063E+03  0.25500000920E-02 0.  1.
        2   -1    0    0  501    0  0.00000000000E+00  0.00000000000E+00 -0.11952276590E+04  0.11952276590E+04  0.25500000920E-02 0. -1.
    10030    2    1    2    0    0  0.00000000000E+00  0.00000000000E+00 -0.10618414184E+04  0.13286138997E+04  0.79856602514E+03 0.  0.
        2    1    3    3  502    0  0.56976589779E+02 -0.14656928565E+02  0.12613562248E+03  0.13918100662E+03  0.25500000920E-02 0.  1.
       -2    1    3    3    0  502 -0.56976589779E+02  0.14656928565E+02 -0.11879770409E+04  0.11894328931E+04  0.25500000920E-02 0. -1.
</event>
<event>
 5   0  0.1146083E-02  0.7981250E+03  0.7818609E-02  0.9562735E-01
        1   -1    0    0  501    0  0.00000000000E+00  0.00000000000E+00  0.29663061293E+03  0.29663061297E+03  0.50400001928E-02 0.  1.
       -1   -1    0    0    0  501  0.00000000000E+00  0.00000000000E+00 -0.53686589878E+03  0.53686589881E+03  0.50400001928E-02 0. -1.
    10030    2    1    2    0    0  0.00000000000E+00  0.00000000000E+00 -0.24023528586E+03  0.83349651178E+03  0.79812495423E+03 0.  0.
        4    1    3    3  502    0  0.10067812018E+03  0.11498056992E+03 -0.50509115817E+03  0.52770759546E+03  0.12699999809E+01 0. -1.
       -4    1    3    3    0  502 -0.10067812018E+03 -0.11498056992E+03  0.26485587231E+03  0.30578891632E+03  0.12699999809E+01 0.  1.
</event>
<event>
 5   0  0.1025900E-02  0.7922999E+03  0.7818609E-02  0.9571230E-01
        1   -1    0    0  501    0  0.00000000000E+00  0.00000000000E+00  0.78459750012E+03  0.78459750013E+03  0.50400001928E-02 0. -1.
       -1   -1    0    0    0  501  0.00000000000E+00  0.00000000000E+00 -0.20001949931E+03  0.20001949937E+03  0.50400001928E-02 0.  1.
    10030    2    1    2    0    0  0.00000000000E+00  0.00000000000E+00  0.58457800081E+03  0.98461699950E+03  0.79229994111E+03 0.  0.
        1    1    3    3  502    0 -0.11589388805E+03  0.32130440693E+03  0.54166331392E+03  0.64036478735E+03  0.50400001928E-02 0. -1.
       -1    1    3    3    0  502  0.11589388805E+03 -0.32130440693E+03  0.42914686890E+02  0.34425221216E+03  0.50400001928E-02 0.  1.
</event>
<event>
 5   0  0.1025900E-02  0.8028061E+03  0.7818609E-02  0.9555964E-01
        1   -1    0    0  501    0  0.00000000000E+00  0.00000000000E+00  0.71201839106E+03  0.71201839108E+03  0.50400001928E-02 0.  1.
       -1   -1    0    0    0  501  0.00000000000E+00  0.00000000000E+00 -0.22629246504E+03  0.22629246510E+03  0.50400001928E-02 0. -1.
    10030    2    1    2    0    0  0.00000000000E+00  0.00000000000E+00  0.48572592602E+03  0.93831085618E+03  0.80280607099E+03 0.  0.
        1    1    3    3  502    0  0.28366824620E+03  0.28365175733E+03  0.25932603223E+03  0.47767769924E+03  0.50400001928E-02 0.  1.
       -1    1    3    3    0  502 -0.28366824620E+03 -0.28365175733E+03  0.22639989379E+03  0.46063315694E+03  0.50400001928E-02 0. -1.
</event>
<event>
 5   0  0.6872500E-03  0.7979756E+03  0.7818609E-02  0.9562952E-01
        3   -1    0    0  501    0  0.00000000000E+00  0.00000000000E+00  0.75794309624E+02  0.75794376918E+02  0.10100000352E+00 0.  1.
       -3   -1    0    0    0  501  0.00000000000E+00  0.00000000000E+00 -0.21003053893E+04  0.21003053918E+04  0.10100000352E+00 0. -1.
    10030    2    1    2    0    0  0.00000000000E+00  0.00000000000E+00 -0.20245110797E+04  0.21760997687E+04  0.79797562079E+03 0.  0.
        1    1    3    3  502    0 -0.21575724194E+03 -0.16548232541E+03 -0.21600295632E+03  0.34726483357E+03  0.50400001928E-02 0.  1.
       -1    1    3    3    0  502  0.21575724194E+03  0.16548232541E+03 -0.18085081234E+04  0.18288349351E+04  0.50400001928E-02 0. -1.
</event>
<event>
 5   0  0.1049780E-02  0.7958202E+03  0.7818609E-02  0.9566087E-01
        1   -1    0    0  501    0  0.00000000000E+00  0.00000000000E+00  0.61455699548E+03  0.61455699551E+03  0.50400001928E-02 0. -1.
       -1   -1    0    0    0  501  0.00000000000E+00  0.00000000000E+00 -0.25763673043E+03  0.25763673047E+03  0.50400001928E-02 0.  1.
    10030    2    1    2    0    0  0.00000000000E+00  0.00000000000E+00  0.35692026506E+03  0.87219372598E+03  0.79582021841E+03 0.  0.
        5    1    3    3  502    0  0.21422882249E+03  0.28134107325E+03  0.37834617303E+03  0.51789449170E+03  0.46999998093E+01 0.  1.
       -5    1    3    3    0  502 -0.21422882249E+03 -0.28134107325E+03 -0.21425907973E+02  0.35429923428E+03  0.46999998093E+01 0. -1.
</event>
<event>
 5   0  0.1747544E-02  0.7903686E+03  0.7818609E-02  0.9574064E-01
       -2   -1    0    0    0  501  0.00000000000E+00  0.00000000000E+00  0.10049622143E+03  0.10049622147E+03  0.25500000920E-02 0. -1.
        2   -1    0    0  501    0  0.00000000000E+00  0.00000000000E+00 -0.15539950861E+04  0.15539950861E+04  0.25500000920E-02 0.  1.
    10030    2    1    2    0    0  0.00000000000E+00  0.00000000000E+00 -0.14534988646E+04  0.16544913075E+04  0.79036860844E+03 0.  0.
        1    1    3    3  502    0  0.24199560412E+03 -0.16945030268E+03 -0.12762014642E+04  0.13099486459E+04  0.50400001928E-02 0.  1.
       -1    1    3    3    0  502 -0.24199560412E+03  0.16945030268E+03 -0.17729740042E+03  0.34454266168E+03  0.50400001928E-02 0. -1.
</event>
<event>
 5   0  0.1818665E-02  0.8020091E+03  0.7818609E-02  0.9557114E-01
       -2   -1    0    0    0  501  0.00000000000E+00  0.00000000000E+00  0.13817049975E+03  0.13817049977E+03  0.25500000920E-02 0.  1.
        2   -1    0    0  501    0  0.00000000000E+00  0.00000000000E+00 -0.11638131045E+04  0.11638131045E+04  0.25500000920E-02 0. -1.
    10030    2    1    2    0    0  0.00000000000E+00  0.00000000000E+00 -0.10256426047E+04  0.13019836042E+04  0.80200907295E+03 0.  0.
        3    1    3    3  502    0 -0.27315993959E+03  0.24856598693E+03 -0.76642165400E+03  0.85076645701E+03  0.10100000352E+00 0. -1.
       -3    1    3    3    0  502  0.27315993959E+03 -0.24856598693E+03 -0.25922095072E+03  0.45121714723E+03  0.10100000352E+00 0.  1.
</event>
<event>
 5   0  0.1747544E-02  0.8177005E+03  0.7818609E-02  0.9534744E-01
       -2   -1    0    0    0  501  0.00000000000E+00  0.00000000000E+00  0.15401110403E+04  0.15401110403E+04  0.25500000920E-02 0.  1.
        2   -1    0    0  501    0  0.00000000000E+00  0.00000000000E+00 -0.10853667432E+03  0.10853667435E+03  0.25500000920E-02 0. -1.
    10030    2    1    2    0    0  0.00000000000E+00  0.00000000000E+00  0.14315743659E+04  0.16486477146E+04  0.81770050856E+03 0.  0.
        1    1    3    3  502    0 -0.31743138607E+03  0.14850710545E+03  0.11403468311E+04  0.11929827913E+04  0.50400001928E-02 0.  1.
       -1    1    3    3    0  502  0.31743138607E+03 -0.14850710545E+03  0.29122753486E+03  0.45566492329E+03  0.50400001928E-02 0. -1.
</event>
<event>
 5   0  0.1818665E-02  0.8021831E+03  0.7818609E-02  0.9556863E-01
       -2   -1    0    0    0  501  0.00000000000E+00  0.00000000000E+00  0.14504048633E+03  0.14504048635E+03  0.25500000920E-02 0. -1.
        2   -1    0    0  501    0  0.00000000000E+00  0.00000000000E+00 -0.11091690515E+04  0.11091690515E+04  0.25500000920E-02 0.  1.
    10030    2    1    2    0    0  0.00000000000E+00  0.00000000000E+00 -0.96412856517E+03  0.12542095379E+04  0.80218306806E+03 0.  0.
        3    1    3    3  502    0  0.23235489851E+03  0.21889905968E+03 -0.86173560481E+03  0.91896347044E+03  0.10100000352E+00 0.  1.
       -3    1    3    3    0  502 -0.23235489851E+03 -0.21889905968E+03 -0.10239296036E+03  0.33524606742E+03  0.10100000352E+00 0. -1.
</event>
<event>
 5   0  0.1673727E-02  0.7887962E+03  0.7818609E-02  0.9576377E-01
       -2   -1    0    0    0  501  0.00000000000E+00  0.00000000000E+00  0.85279267066E+02  0.85279267104E+02  0.25500000920E-02 0.  1.
        2   -1    0    0  501    0  0.00000000000E+00  0.00000000000E+00 -0.18240054667E+04  0.18240054667E+04  0.25500000920E-02 0. -1.
    10030    2    1    2    0    0  0.00000000000E+00  0.00000000000E+00 -0.17387261996E+04  0.19092847338E+04  0.78879616977E+03 0.  0.
        5    1    3    3  502    0  0.79494630406E+02  0.20933208066E+03 -0.16551456882E+04  0.16702301205E+04  0.46999998093E+01 0. -1.
       -5    1    3    3    0  502 -0.79494630406E+02 -0.20933208066E+03 -0.83580511453E+02  0.23905461332E+03  0.46999998093E+01 0.  1.
</event>
<event>
 5   0  0.6872500E-03  0.7922921E+03  0.7818609E-02  0.9571241E-01
       -4   -1    0    0    0  501  0.00000000000E+00  0.00000000000E+00  0.47832064259E+03  0.47832232859E+03  0.12699999809E+01 0.  1.
        4   -1    0    0  501    0  0.00000000000E+00  0.00000000000E+00 -0.32808542333E+03  0.32808788137E+03  0.12699999809E+01 0. -1.
    10030    2    1    2    0    0  0.00000000000E+00  0.00000000000E+00  0.15023521926E+03  0.80641020996E+03  0.79229212139E+03 0.  0.
        4    1    3    3  502    0  0.23225942588E+03 -0.12529307597E+03  0.37582644753E+03  0.45922753331E+03  0.12699999809E+01 0.  1.
       -4    1    3    3    0  502 -0.23225942588E+03  0.12529307597E+03 -0.22559122827E+03  0.34718267665E+03  0.12699999809E+01 0. -1.
</event>
<event>
 5   0  0.1025900E-02  0.7968615E+03  0.7818609E-02  0.9564571E-01
       -1   -1    0    0    0  501  0.00000000000E+00  0.00000000000E+00  0.10259216161E+04  0.10259216161E+04  0.50400001928E-02 0. -1.
        1   -1    0    0  501    0  0.00000000000E+00  0.00000000000E+00 -0.15473603779E+03  0.15473603787E+03  0.50400001928E-02 0.  1.
    10030    2    1    2    0    0  0.00000000000E+00  0.00000000000E+00  0.87118557834E+03  0.11806576540E+04  0.79686145851E+03 0.  0.
        1    1    3    3  502    0  0.49263128024E+02 -0.14868671166E+03  0.97838995368E+03  0.99084887622E+03  0.50400001928E-02 0. -1.
       -1    1    3    3    0  502 -0.49263128024E+02  0.14868671166E+03 -0.10720437535E+03  0.18980877779E+03  0.50400001928E-02 0.  1.
</event>
<event>
 5   0  0.1747544E-02  0.8022579E+03  0.7818609E-02  0.9556755E-01
        2   -1    0    0  501    0  0.00000000000E+00  0.00000000000E+00  0.24973038713E+04  0.24973038713E+04  0.25500000920E-02 0. -1.
       -2   -1    0    0    0  501  0.00000000000E+00  0.00000000000E+00 -0.64431263134E+02  0.64431263185E+02  0.25500000920E-02 0.  1.
    10030    2    1    2    0    0  0.00000000000E+00  0.00000000000E+00  0.24328726082E+04  0.25617351345E+04  0.80225792093E+03 0.  0.
        1    1    3    3  502    0 -0.19033182086E+03 -0.25604093971E+03  0.19928480875E+04  0.20182236409E+04  0.50400001928E-02 0. -1.
       -1    1    3    3    0  502  0.19033182086E+03  0.25604093971E+03  0.44002452066E+03  0.54351149357E+03  0.50400001928E-02 0.  1.
</event>
<event>
 5   0  0.1030323E-02  0.7870863E+03  0.7818609E-02  0.9578899E-01
       -1   -1    0    0    0  501  0.00000000000E+00  0.00000000000E+00  0.36661550161E+03  0.36661550165E+03  0.50400001928E-02 0.  1.
        1   -1    0    0  501    0  0.00000000000E+00  0.00000000000E+00 -0.42244866362E+03  0.42244866365E+03  0.50400001928E-02 0. -1.
    10030    2    1    2    0    0  0.00000000000E+00  0.00000000000E+00 -0.55833162007E+02  0.78906416530E+03  0.78708634531E+03 0.  0.
        3    1    3    3  502    0 -0.11009072337E+03 -0.34330806273E+03  0.13026401439E+03  0.38333942786E+03  0.10100000352E+00 0. -1.
       -3    1    3    3    0  502  0.11009072337E+03  0.34330806273E+03 -0.18609717640E+03  0.40572473744E+03  0.10100000352E+00 0.  1.
</event>
<event>
 5   0  0.1038912E-02  0.7970914E+03  0.7818609E-02  0.9564237E-01
        1   -1    0    0  501    0  0.00000000000E+00  0.00000000000E+00  0.12873410163E+04  0.12873410163E+04  0.50400001928E-02 0.  1.
       -1   -1    0    0    0  501  0.00000000000E+00  0.00000000000E+00 -0.12338508761E+03  0.12338508771E+03  0.50400001928E-02 0. -1.
    10030    2    1    2    0    0  0.00000000000E+00  0.00000000000E+00  0.11639559287E+04  0.14107261040E+04  0.79709142301E+03 0.  0.
        2    1    3    3  502    0 -0.23158018281E+03 -0.29118933252E+03  0.32908195780E+03  0.49670468429E+03  0.25500000920E-02 0.  1.
       -2    1    3    3    0  502  0.23158018281E+03  0.29118933252E+03  0.83487397090E+03  0.91402141974E+03  0.25500000920E-02 0. -1.
</event>
<event>
 5   0  0.1146083E-02  0.7925871E+03  0.7818609E-02  0.9570809E-01
        1   -1    0    0  501    0  0.00000000000E+00  0.00000000000E+00  0.27305940365E+03  0.27305940370E+03  0.50400001928E-02 0. -1.
       -1   -1    0    0    0  501  0.00000000000E+00  0.00000000000E+00 -0.57514432171E+03  0.57514432173E+03  0.50400001928E-02 0.  1.
    10030    2    1    2    0    0  0.00000000000E+00  0.00000000000E+00 -0.30208491806E+03  0.84820372543E+03  0.79258706911E+03 0.  0.
        4    1    3    3  502    0 -0.15784558344E+02 -0.84807756156E+02 -0.56497244894E+03  0.57152164329E+03  0.12699999809E+01 0.  1.
       -4    1    3    3    0  502  0.15784558344E+02  0.84807756156E+02  0.26288753088E+03  0.27668208214E+03  0.12699999809E+01 0. -1.
</event>
<event>
 5   0  0.1731337E-02  0.7962286E+03  0.7818609E-02  0.9565492E-01
       -2   -1    0    0    0  501  0.00000000000E+00  0.00000000000E+00  0.16483048705E+03  0.16483048707E+03  0.25500000920E-02 0.  1.
        2   -1    0    0  501    0  0.00000000000E+00  0.00000000000E+00 -0.96156363701E+03  0.96156363701E+03  0.25500000920E-02 0. -1.
    10030    2    1    2    0    0  0.00000000000E+00  0.00000000000E+00 -0.79673314996E+03  0.11263941241E+04  0.79622861700E+03 0.  0.
        4    1    3    3  502    0  0.55939200984E+02  0.39268889957E+03 -0.35019274981E+03  0.52912223632E+03  0.12699999809E+01 0. -1.
       -4    1    3    3    0  502 -0.55939200984E+02 -0.39268889957E+03 -0.44654040015E+03  0.59727188777E+03  0.12699999809E+01 0.  1.
</event>
<event>
 5   0  0.1049780E-02  0.7963772E+03  0.7818609E-02  0.9565276E-01
        1   -1    0    0  501    0  0.00000000000E+00  0.00000000000E+00  0.11422944773E+04  0.11422944773E+04  0.50400001928E-02 0.  1.
       -1   -1    0    0    0  501  0.00000000000E+00  0.00000000000E+00 -0.13880321918E+03  0.13880321927E+03  0.50400001928E-02 0. -1.
    10030    2    1    2    0    0  0.00000000000E+00  0.00000000000E+00  0.10034912581E+04  0.12810976965E+04  0.79637717386E+03 0.  0.
        5    1    3    3  502    0 -0.29785864199E+03 -0.19188671346E+03  0.20955497787E+03  0.41167421605E+03  0.46999998093E+01 0. -1.
       -5    1    3    3    0  502  0.29785864199E+03  0.19188671346E+03  0.79393628021E+03  0.86942348049E+03  0.46999998093E+01 0.  1.
</event>
<event>
 5   0  0.1049780E-02  0.8028929E+03  0.7818609E-02  0.9555839E-01
       -1   -1    0    0    0  501  0.00000000000E+00  0.00000000000E+00  0.23186519913E+03  0.23186519918E+03  0.50400001928E-02 0. -1.
        1   -1    0    0  501    0  0.00000000000E+00  0.00000000000E+00 -0.69505582162E+03  0.69505582164E+03  0.50400001928E-02 0.  1.
    10030    2    1    2    0    0  0.00000000000E+00  0.00000000000E+00 -0.46319062250E+03  0.92692102082E+03  0.80289291071E+03 0.  0.
        5    1    3    3  502    0  0.71184469077E+02 -0.26996854471E+02 -0.68661302803E+03  0.69083688310E+03  0.46999998093E+01 0.  1.
       -5    1    3    3    0  502 -0.71184469077E+02  0.26996854471E+02  0.22342240554E+03  0.23608413772E+03  0.46999998093E+01 0. -1.
</event>
<event>
 5   0  0.1049780E-02  0.7602662E+03  0.7818609E-02  0.9619381E-01
       -1   -1    0    0    0  501  0.00000000000E+00  0.00000000000E+00  0.12155820841E+03  0.12155820852E+03  0.50400001928E-02 0. -1.
        1   -1    0    0  501    0  0.00000000000E+00  0.00000000000E+00 -0.11887405215E+04  0.11887405215E+04  0.50400001928E-02 0.  1.
    10030    2    1    2    0    0  0.00000000000E+00  0.00000000000E+00 -0.10671823131E+04  0.13102987300E+04  0.76026618533E+03 0.  0.
        5    1    3    3  502    0  0.17250484936E+03 -0.32316834306E+03 -0.70836342663E+03  0.79749390919E+03  0.46999998093E+01 0.  1.
       -5    1    3    3    0  502 -0.17250484936E+03  0.32316834306E+03 -0.35881888647E+03  0.51280482085E+03  0.46999998093E+01 0. -1.
</event>
<event>
 5   0  0.1673727E-02  0.7997582E+03  0.7818609E-02  0.9560367E-01
        2   -1    0    0  501    0  0.00000000000E+00  0.00000000000E+00  0.29172149515E+03  0.29172149517E+03  0.25500000920E-02 0.  1.
       -2   -1    0    0    0  501  0.00000000000E+00  0.00000000000E+00 -0.54813687726E+03  0.54813687726E+03  0.25500000920E-02 0. -1.
    10030    2    1    2    0    0  0.00000000000E+00  0.00000000000E+00 -0.25641538210E+03  0.83985837243E+03  0.79975823694E+03 0.  0.
        5    1    3    3  502    0 -0.16532853147E+02 -0.39012713908E+03 -0.21859726195E+03  0.44752583479E+03  0.46999998093E+01 0. -1.
       -5    1    3    3    0  502  0.16532853147E+02  0.39012713908E+03 -0.37818120150E+02  0.39233253763E+03  0.46999998093E+01 0.  1.
</event>
<event>
 5   0  0.1747544E-02  0.7957903E+03  0.7818609E-02  0.9566131E-01
        2   -1    0    0  501    0  0.00000000000E+00  0.00000000000E+00  0.19072589103E+04  0.19072589103E+04  0.25500000920E-02 0. -1.
       -2   -1    0    0    0  501  0.00000000000E+00  0.00000000000E+00 -0.83009463953E+02  0.83009463993E+02  0.25500000920E-02 0.  1.
    10030    2    1    2    0    0  0.00000000000E+00  0.00000000000E+00  0.18242494463E+04  0.19902683743E+04  0.79579027339E+03 0.  0.
        1    1    3    3  502    0 -0.13421058290E+01  0.29529698283E+03  0.24515810621E+03  0.38380282227E+03  0.50400001928E-02 0.  1.
       -1    1    3    3    0  502  0.13421058290E+01 -0.29529698283E+03  0.15790913401E+04  0.16064655520E+04  0.50400001928E-02 0. -1.
</event>
<event>
 5   0  0.1038912E-02  0.7864769E+03  0.7818609E-02  0.9579800E-01
       -1   -1    0    0    0  501  0.00000000000E+00  0.00000000000E+00  0.18803399349E+03  0.18803399356E+03  0.50400001928E-02 0.  1.
        1   -1    0    0  501    0  0.00000000000E+00  0.00000000000E+00 -0.82238577185E+03  0.82238577187E+03  0.50400001928E-02 0. -1.
    10030    2    1    2    0    0  0.00000000000E+00  0.00000000000E+00 -0.63435177836E+03  0.10104197654E+04  0.78647690599E+03 0.  0.
        2    1    3    3  502    0  0.37180982092E+03 -0.12261660175E+03 -0.26981251046E+03  0.47547467310E+03  0.25500000920E-02 0.  1.
       -2    1    3    3    0  502 -0.37180982092E+03  0.12261660175E+03 -0.36453926790E+03  0.53494509232E+03  0.25500000920E-02 0. -1.
</event>
<event>
 5   0  0.6872500E-03  0.8005810E+03  0.7818609E-02  0.9559177E-01
        4   -1    0    0  501    0  0.00000000000E+00  0.00000000000E+00  0.90414072327E+03  0.90414161522E+03  0.12699999809E+01 0. -1.
       -4   -1    0    0    0  501  0.00000000000E+00  0.00000000000E+00 -0.17721747520E+03  0.17722202577E+03  0.12699999809E+01 0.  1.
    10030    2    1    2    0    0  0.00000000000E+00  0.00000000000E+00  0.72692324807E+03  0.10813636410E+04  0.80058098620E+03 0.  0.
        4    1    3    3  502    0  0.14487229876E+03  0.30568515384E+03  0.65252742683E+03  0.73500003530E+03  0.12699999809E+01 0. -1.
       -4    1    3    3    0  502 -0.14487229876E+03 -0.30568515384E+03  0.74395821244E+02  0.34636360569E+03  0.12699999809E+01 0.  1.
</event>
<event>
 5   0  0.1747544E-02  0.7983094E+03  0.7818609E-02  0.9562467E-01
        2   -1    0    0  501    0  0.00000000000E+00  0.00000000000E+00  0.41915587190E+03  0.41915587191E+03  0.25500000920E-02 0.  1.
       -2   -1    0    0    0  501  0.00000000000E+00  0.00000000000E+00 -0.38010793630E+03  0.38010793631E+03  0.25500000920E-02 0. -1.
    10030    2    1    2    0    0  0.00000000000E+00  0.00000000000E+00  0.39047935605E+02  0.79926380822E+03  0.79830939732E+03 0.  0.
        1    1    3    3  502    0  0.17448170877E+03 -0.35081707944E+03 -0.56777271866E+02  0.39590421638E+03  0.50400001928E-02 0. -1.
       -1    1    3    3    0  502 -0.17448170877E+03  0.35081707944E+03  0.95825207471E+02  0.40335959184E+03  0.50400001928E-02 0.  1.
</event>
<event>
 5   0  0.6872500E-03  0.8000253E+03  0.7818609E-02  0.9559980E-01
       -3   -1    0    0    0  501  0.00000000000E+00  0.00000000000E+00  0.10837716612E+04  0.10837716659E+04  0.10100000352E+00 0. -1.
        3   -1    0    0  501    0  0.00000000000E+00  0.00000000000E+00 -0.14764190226E+03  0.14764193681E+03  0.10100000352E+00 0.  1.
    10030    2    1    2    0    0  0.00000000000E+00  0.00000000000E+00  0.93612975898E+03  0.12314136028E+04  0.80002533422E+03 0.  0.
        4    1    3    3  502    0  0.43462722204E+02  0.16911583190E+03 -0.85881249387E+02  0.19459284344E+03  0.12699999809E+01 0.  1.
       -4    1    3    3    0  502 -0.43462722204E+02 -0.16911583190E+03  0.10220110084E+04  0.10368207593E+04  0.12699999809E+01 0. -1.
</event>
<event>
 5   0  0.1747544E-02  0.7980173E+03  0.7818609E-02  0.9562891E-01
       -2   -1    0    0    0  501  0.00000000000E+00  0.00000000000E+00  0.11700885558E+03  0.11700885561E+03  0.25500000920E-02 0.  1.
        2   -1    0    0  501    0  0.00000000000E+00  0.00000000000E+00 -0.13606483451E+04  0.13606483451E+04  0.25500000920E-02 0. -1.
    10030    2    1    2    0    0  0.00000000000E+00  0.00000000000E+00 -0.12436394896E+04  0.14776572008E+04  0.79801730743E+03 0.  0.
        1    1    3    3  502    0  0.11742692205E+03  0.23464550329E+03 -0.65210719947E+02  0.27037017635E+03  0.50400001928E-02 0.  1.
       -1    1    3    3    0  502 -0.11742692205E+03 -0.23464550329E+03 -0.11784287696E+04  0.12072870244E+04  0.50400001928E-02 0. -1.
</event>
<event>
 5   0  0.1818665E-02  0.8061956E+03  0.7818609E-02  0.9551092E-01
        2   -1    0    0  501    0  0.00000000000E+00  0.00000000000E+00  0.42473535851E+03  0.42473535852E+03  0.25500000920E-02 0.  1.
       -2   -1    0    0    0  501  0.00000000000E+00  0.00000000000E+00 -0.38256253178E+03  0.38256253179E+03  0.25500000920E-02 0. -1.
    10030    2    1    2    0    0  0.00000000000E+00  0.00000000000E+00  0.42172826735E+02  0.80729789030E+03  0.80619559437E+03 0.  0.
        3    1    3    3  502    0 -0.18358619793E+03  0.33593115397E+03 -0.10531688738E+03  0.39704570171E+03  0.10100000352E+00 0.  1.
       -3    1    3    3    0  502  0.18358619793E+03 -0.33593115397E+03  0.14748971412E+03  0.41025218860E+03  0.10100000352E+00 0. -1.
</event>
<event>
 5   0  0.1146083E-02  0.7968084E+03  0.7818609E-02  0.9564648E-01
       -1   -1    0    0    0  501  0.00000000000E+00  0.00000000000E+00  0.11470271118E+03  0.11470271129E+03  0.50400001928E-02 0. -1.
        1   -1    0    0  501    0  0.00000000000E+00  0.00000000000E+00 -0.13838025827E+04  0.13838025827E+04  0.50400001928E-02 0.  1.
    10030    2    1    2    0    0  0.00000000000E+00  0.00000000000E+00 -0.12690998715E+04  0.14985052940E+04  0.79680840371E+03 0.  0.
        4    1    3    3  502    0  0.20290191408E+03 -0.33669877608E+03 -0.51282998600E+03  0.64616674319E+03  0.12699999809E+01 0. -1.
       -4    1    3    3    0  502 -0.20290191408E+03  0.33669877608E+03 -0.75626988549E+03  0.85233855079E+03  0.12699999809E+01 0.  1.
</event>
<event>
 5   0  0.1146083E-02  0.7943695E+03  0.7818609E-02  0.9568203E-01
       -1   -1    0    0    0  501  0.00000000000E+00  0.00000000000E+00  0.52640629470E+03  0.52640629472E+03  0.50400001928E-02 0.  1.
        1   -1    0    0  501    0  0.00000000000E+00  0.00000000000E+00 -0.29968436964E+03  0.29968436968E+03  0.50400001928E-02 0. -1.
    10030    2    1    2    0    0  0.00000000000E+00  0.00000000000E+00  0.22672192506E+03  0.82609066440E+03  0.79436953272E+03 0.  0.
        4    1    3    3  502    0 -0.12269760152E+03 -0.50083257467E+02 -0.27601159893E+03  0.30618140006E+03  0.12699999809E+01 0. -1.
       -4    1    3    3    0  502  0.12269760152E+03  0.50083257467E+02  0.50273352399E+03  0.51990926434E+03  0.12699999809E+01 0.  1.
</event>
<event>
 5   0  0.1025900E-02  0.8010130E+03  0.7818609E-02  0.9558552E-01
        1   -1    0    0  501    0  0.00000000000E+00  0.00000000000E+00  0.55071139928E+03  0.55071139930E+03  0.50400001928E-02 0. -1.
       -1   -1    0    0    0  501  0.00000000000E+00  0.00000000000E+00 -0.29126952805E+03  0.29126952809E+03  0.50400001928E-02 0.  1.
    10030    2    1    2    0    0  0.00000000000E+00  0.00000000000E+00  0.25944187123E+03  0.84198092739E+03  0.80101298213E+03 0.  0.
        1    1    3    3  502    0 -0.22640889987E+03 -0.21943715501E+03  0.38931717960E+03  0.50098055980E+03  0.50400001928E-02 0. -1.
       -1    1    3    3    0  502  0.22640889987E+03  0.21943715501E+03 -0.12987530837E+03  0.34100036758E+03  0.50400001928E-02 0.  1.
</event>
<event>
 5   0  0.1673727E-02  0.7893971E+03  0.7818609E-02  0.9575492E-01
       -2   -1    0    0    0  501  0.00000000000E+00  0.00000000000E+00  0.11485319033E+03  0.11485319036E+03  0.25500000920E-02 0. -1.
        2   -1    0    0  501    0  0.00000000000E+00  0.00000000000E+00 -0.13564007641E+04  0.13564007642E+04  0.25500000920E-02 0.  1.
    10030    2    1    2    0    0  0.00000000000E+00  0.00000000000E+00 -0.12415475738E+04  0.14712539545E+04  0.78939712478E+03 0.  0.
        5    1    3    3  502    0  0.16003695242E+03 -0.81791056764E+02 -0.12756526550E+04  0.12882598298E+04  0.46999998093E+01 0.  1.
       -5    1    3    3    0  502 -0.16003695242E+03  0.81791056764E+02  0.34105081132E+02  0.18299412467E+03  0.46999998093E+01 0. -1.
</event>
<event>
 5   0  0.1025900E-02  0.8136536E+03  0.7818609E-02  0.9540462E-01
        1   -1    0    0  501    0  0.00000000000E+00  0.00000000000E+00  0.10365597864E+04  0.10365597864E+04  0.50400001928E-02 0. -1.
       -1   -1    0    0    0  501  0.00000000000E+00  0.00000000000E+00 -0.15967053120E+03  0.15967053128E+03  0.50400001928E-02 0.  1.
    10030    2    1    2    0    0  0.00000000000E+00  0.00000000000E+00  0.87688925517E+03  0.11962303177E+04  0.81365361615E+03 0.  0.
        1    1    3    3  502    0 -0.34348564955E+02  0.29741198781E+03  0.84341448742E+03  0.89497581645E+03  0.50400001928E-02 0. -1.
       -1    1    3    3    0  502  0.34348564955E+02 -0.29741198781E+03  0.33474767743E+02  0.30125450122E+03  0.50400001928E-02 0.  1.
</event>
<event>
 5   0  0.6872500E-03  0.8462551E+03  0.7818609E-02  0.9495377E-01
       -3   -1    0    0    0  501  0.00000000000E+00  0.00000000000E+00  0.21254680403E+03  0.21254682802E+03  0.10100000352E+00 0.  1.
        3   -1    0    0  501    0  0.00000000000E+00  0.00000000000E+00 -0.84234108583E+03  0.84234109189E+03  0.10100000352E+00 0. -1.
    10030    2    1    2    0    0  0.00000000000E+00  0.00000000000E+00 -0.62979428181E+03  0.10548879199E+04  0.84625509521E+03 0.  0.
        1    1    3    3  502    0  0.40035160490E+03  0.43655946165E+02 -0.15308885682E+03  0.43084039654E+03  0.50400001928E-02 0. -1.
       -1    1    3    3    0  502 -0.40035160490E+03 -0.43655946165E+02 -0.47670542498E+03  0.62404752337E+03  0.50400001928E-02 0.  1.
</event>
<event>
 5   0  0.1673727E-02  0.7857234E+03  0.7818609E-02  0.9580915E-01
        2   -1    0    0  501    0  0.00000000000E+00  0.00000000000E+00  0.63545828205E+03  0.63545828206E+03  0.25500000920E-02 0.  1.
       -2   -1    0    0    0  501  0.00000000000E+00  0.00000000000E+00 -0.24288032280E+03  0.24288032281E+03  0.25500000920E-02 0. -1.
    10030    2    1    2    0    0  0.00000000000E+00  0.00000000000E+00  0.39257795925E+03  0.87833860487E+03  0.78572339326E+03 0.  0.
        5    1    3    3  502    0  0.14867052310E+03  0.35576299230E+03  0.28030058950E+03  0.47671872378E+03  0.46999998093E+01 0. -1.
       -5    1    3    3    0  502 -0.14867052310E+03 -0.35576299230E+03  0.11227736975E+03  0.40161988109E+03  0.46999998093E+01 0.  1.
</event>
<event>
 5   0  0.1747544E-02  0.7999660E+03  0.7818609E-02  0.9560066E-01
        2   -1    0    0  501    0  0.00000000000E+00  0.00000000000E+00  0.51107111076E+03  0.51107111076E+03  0.25500000920E-02 0.  1.
       -2   -1    0    0    0  501  0.00000000000E+00  0.00000000000E+00 -0.31304138126E+03  0.31304138127E+03  0.25500000920E-02 0. -1.
    10030    2    1    2    0    0  0.00000000000E+00  0.00000000000E+00  0.19802972950E+03  0.82411249204E+03  0.79996601538E+03 0.  0.
        1    1    3    3  502    0 -0.23054518202E+03  0.56622416873E+02  0.43064660505E+03  0.49174554142E+03  0.50400001928E-02 0.  1.
       -1    1    3    3    0  502  0.23054518202E+03 -0.56622416873E+02 -0.23261687555E+03  0.33236695061E+03  0.50400001928E-02 0. -1.
</event>
<event>
 5   0  0.1731337E-02  0.7978501E+03  0.7818609E-02  0.9563134E-01
        2   -1    0    0  501    0  0.00000000000E+00  0.00000000000E+00  0.40073106510E+03  0.40073106511E+03  0.25500000920E-02 0.  1.
       -2   -1    0    0    0  501  0.00000000000E+00  0.00000000000E+00 -0.39712715788E+03  0.39712715789E+03  0.25500000920E-02 0. -1.
    10030    2    1    2    0    0  0.00000000000E+00  0.00000000000E+00  0.36039072236E+01  0.79785822300E+03  0.79785008357E+03 0.  0.
        4    1    3    3  502    0  0.37817743672E+03 -0.31223747809E+01 -0.12513102843E+03  0.39835575814E+03  0.12699999809E+01 0. -1.
       -4    1    3    3    0  502 -0.37817743672E+03  0.31223747809E+01  0.12873493565E+03  0.39950246486E+03  0.12699999809E+01 0.  1.
</event>
<event>
 5   0  0.1673727E-02  0.8522137E+03  0.7818609E-02  0.9487371E-01
       -2   -1    0    0    0  501  0.00000000000E+00  0.00000000000E+00  0.20340838026E+03  0.20340838028E+03  0.25500000920E-02 0.  1.
        2   -1    0    0  501    0  0.00000000000E+00  0.00000000000E+00 -0.89262327524E+03  0.89262327524E+03  0.25500000920E-02 0. -1.
    10030    2    1    2    0    0  0.00000000000E+00  0.00000000000E+00 -0.68921489498E+03  0.10960316555E+04  0.85221371642E+03 0.  0.
        5    1    3    3  502    0 -0.14082891965E+03 -0.19648478856E+03 -0.79585413339E+03  0.83177217336E+03  0.46999998093E+01 0. -1.
       -5    1    3    3    0  502  0.14082891965E+03  0.19648478856E+03  0.10663923842E+03  0.26425948216E+03  0.46999998093E+01 0.  1.
</event>
<event>
 5   0  0.1146083E-02  0.8035993E+03  0.7818609E-02  0.9554822E-01
        1   -1    0    0  501    0  0.00000000000E+00  0.00000000000E+00  0.56008973887E+03  0.56008973889E+03  0.50400001928E-02 0. -1.
       -1   -1    0    0    0  501  0.00000000000E+00  0.00000000000E+00 -0.28824482854E+03  0.28824482858E+03  0.50400001928E-02 0.  1.
    10030    2    1    2    0    0  0.00000000000E+00  0.00000000000E+00  0.27184491033E+03  0.84833456747E+03  0.80359932995E+03 0.  0.
        4    1    3    3  502    0 -0.17324510396E+03 -0.22775183983E+03 -0.16183708235E+03  0.32875160945E+03  0.12699999809E+01 0.  1.
       -4    1    3    3    0  502  0.17324510396E+03  0.22775183983E+03  0.43368199268E+03  0.51958295802E+03  0.12699999809E+01 0. -1.
</event>
<event>
 5   0  0.1747544E-02  0.7992389E+03  0.7818609E-02  0.9561119E-01
       -2   -1    0    0    0  501  0.00000000000E+00  0.00000000000E+00  0.47441775229E+03  0.47441775230E+03  0.25500000920E-02 0. -1.
        2   -1    0    0  501    0  0.00000000000E+00  0.00000000000E+00 -0.33661412989E+03  0.33661412990E+03  0.25500000920E-02 0.  1.
    10030    2    1    2    0    0  0.00000000000E+00  0.00000000000E+00  0.13780362241E+03  0.81103188220E+03  0.79923893523E+03 0.  0.
        1    1    3    3  502    0  0.36672040442E+03  0.15282658408E+03  0.25186007246E+02  0.39808812442E+03  0.50400001928E-02 0.  1.
       -1    1    3    3    0  502 -0.36672040442E+03 -0.15282658408E+03  0.11261761516E+03  0.41294375778E+03  0.50400001928E-02 0. -1.
</event>
<event>
 5   0  0.1146083E-02  0.7865185E+03  0.7818609E-02  0.9579739E-01
       -1   -1    0    0    0  501  0.00000000000E+00  0.00000000000E+00  0.27319828479E+03  0.27319828484E+03  0.50400001928E-02 0. -1.
        1   -1    0    0  501    0  0.00000000000E+00  0.00000000000E+00 -0.56608275839E+03  0.56608275841E+03  0.50400001928E-02 0.  1.
    10030    2    1    2    0    0  0.00000000000E+00  0.00000000000E+00 -0.29288447360E+03  0.83928104325E+03  0.78651850244E+03 0.  0.
        4    1    3    3  502    0  0.99151242359E+01  0.38367613174E+03 -0.54986617745E+02  0.38772519236E+03  0.12699999809E+01 0.  1.
       -4    1    3    3    0  502 -0.99151242359E+01 -0.38367613174E+03 -0.23789785585E+03  0.45155585089E+03  0.12699999809E+01 0. -1.
</event>
<event>
 5   0  0.1038912E-02  0.8116501E+03  0.7818609E-02  0.9543306E-01
        1   -1    0    0  501    0  0.00000000000E+00  0.00000000000E+00  0.83700144198E+03  0.83700144200E+03  0.50400001928E-02 0. -1.
       -1   -1    0    0    0  501  0.00000000000E+00  0.00000000000E+00 -0.19676662875E+03  0.19676662881E+03  0.50400001928E-02 0.  1.
    10030    2    1    2    0    0  0.00000000000E+00  0.00000000000E+00  0.64023481323E+03  0.10337680708E+04  0.81165005277E+03 0.  0.
        2    1    3    3  502    0  0.14899065814E+03 -0.37188508032E+02  0.79856835733E+03  0.81319900558E+03  0.25500000920E-02 0. -1.
       -2    1    3    3    0  502 -0.14899065814E+03  0.37188508032E+02 -0.15833354410E+03  0.22056906523E+03  0.25500000920E-02 0.  1.
</event>
<event>
 5   0  0.6872500E-03  0.8095206E+03  0.7818609E-02  0.9546338E-01
       -4   -1    0    0    0  501  0.00000000000E+00  0.00000000000E+00  0.28090515607E+03  0.28090802695E+03  0.12699999809E+01 0.  1.
        4   -1    0    0  501    0  0.00000000000E+00  0.00000000000E+00 -0.58321846756E+03  0.58321985031E+03  0.12699999809E+01 0. -1.
    10030    2    1    2    0    0  0.00000000000E+00  0.00000000000E+00 -0.30231331149E+03  0.86412787727E+03  0.80952062974E+03 0.  0.
        3    1    3    3  502    0  0.21229709730E+03 -0.23727915637E+03 -0.41793413314E+03  0.52539547525E+03  0.10100000352E+00 0. -1.
       -3    1    3    3    0  502 -0.21229709730E+03  0.23727915637E+03  0.11562082166E+03  0.33873240201E+03  0.10100000352E+00 0.  1.
</event>
<event>
 5   0  0.1025900E-02  0.7965430E+03  0.7818609E-02  0.9565034E-01
        1   -1    0    0  501    0  0.00000000000E+00  0.00000000000E+00  0.11569677176E+04  0.11569677176E+04  0.50400001928E-02 0.  1.
       -1   -1    0    0    0  501  0.00000000000E+00  0.00000000000E+00 -0.13709992626E+03  0.13709992635E+03  0.50400001928E-02 0. -1.
    10030    2    1    2    0    0  0.00000000000E+00  0.00000000000E+00  0.10198677913E+04  0.12940676439E+04  0.79654300280E+03 0.  0.
        1    1    3    3  502    0 -0.25243897672E+03 -0.46994660177E+02  0.15332410560E+02  0.25723339186E+03  0.50400001928E-02 0. -1.
       -1    1    3    3    0  502  0.25243897672E+03  0.46994660177E+02  0.10045353808E+04  0.10368342521E+04  0.50400001928E-02 0.  1.
</event>
<event>
 5   0  0.1146083E-02  0.8006414E+03  0.7818609E-02  0.9559089E-01
       -1   -1    0    0    0  501  0.00000000000E+00  0.00000000000E+00  0.15956559709E+03  0.15956559717E+03  0.50400001928E-02 0. -1.
        1   -1    0    0  501    0  0.00000000000E+00  0.00000000000E+00 -0.10043310066E+04  0.10043310066E+04  0.50400001928E-02 0.  1.
    10030    2    1    2    0    0  0.00000000000E+00  0.00000000000E+00 -0.84476540954E+03  0.11638966038E+04  0.80064143487E+03 0.  0.
        4    1    3    3  502    0 -0.12023855965E+03 -0.86994158931E+02 -0.96285959623E+03  0.97423072723E+03  0.12699999809E+01 0.  1.
       -4    1    3    3    0  502  0.12023855965E+03  0.86994158931E+02  0.11809418669E+03  0.18966587659E+03  0.12699999809E+01 0. -1.
</event>
<event>
 5   0  0.1731337E-02  0.7988946E+03  0.7818609E-02  0.9561619E-01
        2   -1    0    0  501    0  0.00000000000E+00  0.00000000000E+00  0.20184576397E+04  0.20184576397E+04  0.25500000920E-02 0.  1.
       -2   -1    0    0    0  501  0.00000000000E+00  0.00000000000E+00 -0.79049533698E+02  0.79049533739E+02  0.25500000920E-02 0. -1.
    10030    2    1    2    0    0  0.00000000000E+00  0.00000000000E+00  0.19394081060E+04  0.20975071735E+04  0.79889457441E+03 0.  0.
        4    1    3    3  502    0 -0.35917199652E+02  0.38773284614E+03  0.12035031510E+04  0.12649301374E+04  0.12699999809E+01 0.  1.
       -4    1    3    3    0  502  0.35917199652E+02 -0.38773284614E+03  0.73590495501E+03  0.83257703602E+03  0.12699999809E+01 0. -1.
</event>
<event>
 5   0  0.1731337E-02  0.8652643E+03  0.7818609E-02  0.9470076E-01
        2   -1    0    0  501    0  0.00000000000E+00  0.00000000000E+00  0.49326945725E+03  0.49326945726E+03  0.25500000920E-02 0.  1.
       -2   -1    0    0    0  501  0.00000000000E+00  0.00000000000E+00 -0.37944891002E+03  0.37944891003E+03  0.25500000920E-02 0. -1.
    10030    2    1    2    0    0  0.00000000000E+00  0.00000000000E+00  0.11382054723E+03  0.87271836729E+03  0.86526425537E+03 0.  0.
        4    1    3    3  502    0  0.38474361629E+02  0.33227176996E+03  0.33365356271E+03  0.47245223931E+03  0.12699999809E+01 0.  1.
       -4    1    3    3    0  502 -0.38474361629E+02 -0.33227176996E+03 -0.21983301548E+03  0.40026612798E+03  0.12699999809E+01 0. -1.
</event>
<event>
 5   0  0.1049780E-02  0.7978834E+03  0.7818609E-02  0.9563086E-01
       -1   -1    0    0    0  501  0.00000000000E+00  0.00000000000E+00  0.11242332092E+03  0.11242332103E+03  0.50400001928E-02 0. -1.
        1   -1    0    0  501    0  0.00000000000E+00  0.00000000000E+00 -0.14156713348E+04  0.14156713348E+04  0.50400001928E-02 0.  1.
    10030    2    1    2    0    0  0.00000000000E+00  0.00000000000E+00 -0.13032480139E+04  0.15280946558E+04  0.79788338215E+03 0.  0.
        5    1    3    3  502    0  0.94876575633E+02  0.32201673634E+03 -0.23892024820E+03  0.41206955492E+03  0.46999998093E+01 0. -1.
       -5    1    3    3    0  502 -0.94876575633E+02 -0.32201673634E+03 -0.10643277657E+04  0.11160251009E+04  0.46999998093E+01 0.  1.
</event>
<event>
 5   0  0.1817089E-02  0.8072362E+03  0.7818609E-02  0.9549602E-01
        2   -1    0    0  501    0  0.00000000000E+00  0.00000000000E+00  0.25256146843E+03  0.25256146845E+03  0.25500000920E-02 0. -1.
       -2   -1    0    0    0  501  0.00000000000E+00  0.00000000000E+00 -0.64502151942E+03  0.64502151943E+03  0.25500000920E-02 0.  1.
    10030    2    1    2    0    0  0.00000000000E+00  0.00000000000E+00 -0.39246005099E+03  0.89758298787E+03  0.80723622843E+03 0.  0.
        2    1    3    3  502    0  0.18342998656E+03  0.30305172308E+03  0.18864708638E+02  0.35474326501E+03  0.25500000920E-02 0.  1.
       -2    1    3    3    0  502 -0.18342998656E+03 -0.30305172308E+03 -0.41132475963E+03  0.54283972287E+03  0.25500000920E-02 0. -1.
</event>
<event>
 5   0  0.1049780E-02  0.7919418E+03  0.7818609E-02  0.9571755E-01
        1   -1    0    0  501    0  0.00000000000E+00  0.00000000000E+00  0.43029607453E+03  0.43029607456E+03  0.50400001928E-02 0.  1.
       -1   -1    0    0    0  501  0.00000000000E+00  0.00000000000E+00 -0.36438384599E+03  0.36438384603E+03  0.50400001928E-02 0. -1.
    10030    2    1    2    0    0  0.00000000000E+00  0.00000000000E+00  0.65912228538E+02  0.79467992059E+03  0.79194176195E+03 0.  0.
        5    1    3    3  502    0 -0.18037381588E+03  0.24713686037E+03 -0.21922836898E+03  0.37642331088E+03  0.46999998093E+01 0. -1.
       -5    1    3    3    0  502  0.18037381588E+03 -0.24713686037E+03  0.28514059752E+03  0.41825660971E+03  0.46999998093E+01 0.  1.
</event>
<event>
 5   0  0.1747544E-02  0.7997126E+03  0.7818609E-02  0.9560433E-01
        2   -1    0    0  501    0  0.00000000000E+00  0.00000000000E+00  0.15299846437E+03  0.15299846439E+03  0.25500000920E-02 0.  1.
       -2   -1    0    0    0  501  0.00000000000E+00  0.00000000000E+00 -0.10450109685E+04  0.10450109685E+04  0.25500000920E-02 0. -1.
    10030    2    1    2    0    0  0.00000000000E+00  0.00000000000E+00 -0.89201250414E+03  0.11980094329E+04  0.79971263200E+03 0.  0.
        1    1    3    3  502    0 -0.56821453970E+02  0.39579666741E+03 -0.44777487399E+03  0.60032159496E+03  0.50400001928E-02 0.  1.
       -1    1    3    3    0  502  0.56821453970E+02 -0.39579666741E+03 -0.44423763014E+03  0.59768783794E+03  0.50400001928E-02 0. -1.
</event>
<event>
 5   0  0.1731337E-02  0.8017627E+03  0.7818609E-02  0.9557469E-01
       -2   -1    0    0    0  501  0.00000000000E+00  0.00000000000E+00  0.40890833142E+03  0.40890833143E+03  0.25500000920E-02 0. -1.
        2   -1    0    0  501    0  0.00000000000E+00  0.00000000000E+00 -0.39301195467E+03  0.39301195468E+03  0.25500000920E-02 0.  1.
    10030    2    1    2    0    0  0.00000000000E+00  0.00000000000E+00  0.15896376751E+02  0.80192028611E+03  0.80176271457E+03 0.  0.
        4    1    3    3  502    0 -0.19418909992E+03 -0.29033242225E+03  0.20471490703E+03  0.40486062786E+03  0.12699999809E+01 0. -1.
       -4    1    3    3    0  502  0.19418909992E+03  0.29033242225E+03 -0.18881853027E+03  0.39705965825E+03  0.12699999809E+01 0.  1.
</event>
<event>
 5   0  0.1030323E-02  0.8361945E+03  0.7818609E-02  0.9509056E-01
        1   -1    0    0  501    0  0.00000000000E+00  0.00000000000E+00  0.57874378489E+03  0.57874378492E+03  0.50400001928E-02 0.  1.
       -1   -1    0    0    0  501  0.00000000000E+00  0.00000000000E+00 -0.30204263651E+03  0.30204263655E+03  0.50400001928E-02 0. -1.
    10030    2    1    2    0    0  0.00000000000E+00  0.00000000000E+00  0.27670114839E+03  0.88078642147E+03  0.83619447183E+03 0.  0.
        3    1    3    3  502    0  0.95623861010E+02  0.53799172844E+02 -0.28660792325E+03  0.30689148842E+03  0.10100000352E+00 0. -1.
       -3    1    3    3    0  502 -0.95623861010E+02 -0.53799172844E+02  0.56330907163E+03  0.57389493305E+03  0.10100000352E+00 0.  1.
</event>
<event>
 5   0  0.1731337E-02  0.7998838E+03  0.7818609E-02  0.9560185E-01
        2   -1    0    0  501    0  0.00000000000E+00  0.00000000000E+00  0.11647813857E+04  0.11647813857E+04  0.25500000920E-02 0. -1.
       -2   -1    0    0    0  501  0.00000000000E+00  0.00000000000E+00 -0.13732494483E+03  0.13732494485E+03  0.25500000920E-02 0.  1.
    10030    2    1    2    0    0  0.00000000000E+00  0.00000000000E+00  0.10274564409E+04  0.13021063306E+04  0.79988384043E+03 0.  0.
        4    1    3    3  502    0 -0.26480687861E+03  0.29942234913E+03  0.53529368083E+03  0.66806987940E+03  0.12699999809E+01 0.  1.
       -4    1    3    3    0  502  0.26480687861E+03 -0.29942234913E+03  0.49216276005E+03  0.63403645116E+03  0.12699999809E+01 0. -1.
</event>
<event>
 5   0  0.1673727E-02  0.7984293E+03  0.7818609E-02  0.9562293E-01
       -2   -1    0    0    0  501  0.00000000000E+00  0.00000000000E+00  0.20973779744E+03  0.20973779745E+03  0.25500000920E-02 0.  1.
        2   -1    0    0  501    0  0.00000000000E+00  0.00000000000E+00 -0.75986464907E+03  0.75986464908E+03  0.25500000920E-02 0. -1.
    10030    2    1    2    0    0  0.00000000000E+00  0.00000000000E+00 -0.55012685164E+03  0.96960244653E+03  0.79842930271E+03 0.  0.
        5    1    3    3  502    0  0.14728789340E+03  0.22378380821E+03 -0.63444275135E+03  0.68870357273E+03  0.46999998093E+01 0. -1.
       -5    1    3    3    0  502 -0.14728789340E+03 -0.22378380821E+03  0.84315899715E+02  0.28089887380E+03  0.46999998093E+01 0.  1.
</event>
<event>
 5   0  0.1747544E-02  0.8005605E+03  0.7818609E-02  0.9559206E-01
        2   -1    0    0  501    0  0.00000000000E+00  0.00000000000E+00  0.11548587777E+04  0.11548587777E+04  0.25500000920E-02 0.  1.
       -2   -1    0    0    0  501  0.00000000000E+00  0.00000000000E+00 -0.13873927224E+03  0.13873927226E+03  0.25500000920E-02 0. -1.
    10030    2    1    2    0    0  0.00000000000E+00  0.00000000000E+00  0.10161195054E+04  0.12935980499E+04  0.80056046960E+03 0.  0.
        1    1    3    3  502    0 -0.12111066222E+03  0.26817555069E+03  0.94654726414E+03  0.99123036766E+03  0.50400001928E-02 0.  1.
       -1    1    3    3    0  502  0.12111066222E+03 -0.26817555069E+03  0.69572241267E+02  0.30236768226E+03  0.50400001928E-02 0. -1.
</event>
<event>
 5   0  0.1146083E-02  0.8051790E+03  0.7818609E-02  0.9552551E-01
        1   -1    0    0  501    0  0.00000000000E+00  0.00000000000E+00  0.10255629498E+04  0.10255629498E+04  0.50400001928E-02 0. -1.
       -1   -1    0    0    0  501  0.00000000000E+00  0.00000000000E+00 -0.15803838989E+03  0.15803838997E+03  0.50400001928E-02 0.  1.
    10030    2    1    2    0    0  0.00000000000E+00  0.00000000000E+00  0.86752455991E+03  0.11836013398E+04  0.80517902946E+03 0.  0.
        4    1    3    3  502    0  0.43876574543E+02  0.24565217735E+03 -0.30638064214E+02  0.25141688470E+03  0.12699999809E+01 0.  1.
       -4    1    3    3    0  502 -0.43876574543E+02 -0.24565217735E+03  0.89816262412E+03  0.93218445508E+03  0.12699999809E+01 0. -1.
</event>
<event>
 5   0  0.1747544E-02  0.8037200E+03  0.7818609E-02  0.9554648E-01
       -2   -1    0    0    0  501  0.00000000000E+00  0.00000000000E+00  0.11814479474E+03  0.11814479477E+03  0.25500000920E-02 0. -1.
        2   -1    0    0  501    0  0.00000000000E+00  0.00000000000E+00 -0.13668942588E+04  0.13668942588E+04  0.25500000920E-02 0.  1.
    10030    2    1    2    0    0  0.00000000000E+00  0.00000000000E+00 -0.12487494641E+04  0.14850390536E+04  0.80371995537E+03 0.  0.
        1    1    3    3  502    0  0.21783541601E+03 -0.26476403180E+03 -0.23706438401E+03  0.41683543899E+03  0.50400001928E-02 0. -1.
       -1    1    3    3    0  502 -0.21783541601E+03  0.26476403180E+03 -0.10116850801E+04  0.10682036146E+04  0.50400001928E-02 0.  1.
</event>
<event>
 5   0  0.1038912E-02  0.8084726E+03  0.7818609E-02  0.9547834E-01
       -1   -1    0    0    0  501  0.00000000000E+00  0.00000000000E+00  0.12504475497E+03  0.12504475507E+03  0.50400001928E-02 0. -1.
        1   -1    0    0  501    0  0.00000000000E+00  0.00000000000E+00 -0.13067880559E+04  0.13067880559E+04  0.50400001928E-02 0.  1.
    10030    2    1    2    0    0  0.00000000000E+00  0.00000000000E+00 -0.11817433010E+04  0.14318328110E+04  0.80847261506E+03 0.  0.
        2    1    3    3  502    0 -0.33584642106E+02 -0.14795054430E+03 -0.12544536859E+04  0.12635946113E+04  0.25500000920E-02 0.  1.
       -2    1    3    3    0  502  0.33584642106E+02  0.14795054430E+03  0.72710384930E+02  0.16823819967E+03  0.25500000920E-02 0. -1.
</event>
<event>
 5   0  0.1818665E-02  0.8063783E+03  0.7818609E-02  0.9550830E-01
        2   -1    0    0  501    0  0.00000000000E+00  0.00000000000E+00  0.51281678781E+03  0.51281678782E+03  0.25500000920E-02 0. -1.
       -2   -1    0    0    0  501  0.00000000000E+00  0.00000000000E+00 -0.31699721786E+03  0.31699721787E+03  0.25500000920E-02 0.  1.
    10030    2    1    2    0    0  0.00000000000E+00  0.00000000000E+00  0.19581956995E+03  0.82981400569E+03  0.80637831076E+03 0.  0.
        3    1    3    3  502    0 -0.13657185267E+03 -0.22517463767E+03  0.41207916099E+03  0.48904471525E+03  0.10100000352E+00 0. -1.
       -3    1    3    3    0  502  0.13657185267E+03  0.22517463767E+03 -0.21625959104E+03  0.34076929044E+03  0.10100000352E+00 0.  1.
</event>
<event>
 5   0  0.1146083E-02  0.7971593E+03  0.7818609E-02  0.9564138E-01
        1   -1    0    0  501    0  0.00000000000E+00  0.00000000000E+00  0.92308550118E+03  0.92308550119E+03  0.50400001928E-02 0. -1.
       -1   -1    0    0    0  501  0.00000000000E+00  0.00000000000E+00 -0.17210294841E+03  0.17210294849E+03  0.50400001928E-02 0.  1.
    10030    2    1    2    0    0  0.00000000000E+00  0.00000000000E+00  0.75098255276E+03  0.10951884497E+04  0.79715929760E+03 0.  0.
        4    1    3    3  502    0 -0.30106526798E+03 -0.24462537544E+02  0.18219506226E+02  0.30260911195E+03  0.12699999809E+01 0.  1.
       -4    1    3    3    0  502  0.30106526798E+03  0.24462537544E+02  0.73276304654E+03  0.79257933773E+03  0.12699999809E+01 0. -1.
</event>
<event>
 5   0  0.1146083E-02  0.7912044E+03  0.7818609E-02  0.9572836E-01
        1   -1    0    0  501    0  0.00000000000E+00  0.00000000000E+00  0.20586240619E+03  0.20586240625E+03  0.50400001928E-02 0.  1.
       -1   -1    0    0    0  501  0.00000000000E+00  0.00000000000E+00 -0.76022183593E+03  0.76022183594E+03  0.50400001928E-02 0. -1.
    10030    2    1    2    0    0  0.00000000000E+00  0.00000000000E+00 -0.55435942974E+03  0.96608424219E+03  0.79120438931E+03 0.  0.
        4    1    3    3  502    0  0.22334956340E+03  0.19457517048E+03 -0.59734801075E+03  0.66676141407E+03  0.12699999809E+01 0.  1.
       -4    1    3    3    0  502 -0.22334956340E+03 -0.19457517048E+03  0.42988581014E+02  0.29932282812E+03  0.12699999809E+01 0. -1.
</event>
<event>
 5   0  0.1747544E-02  0.7608295E+03  0.7818609E-02  0.9618512E-01
        2   -1    0    0  501    0  0.00000000000E+00  0.00000000000E+00  0.43986227955E+03  0.43986227956E+03  0.25500000920E-02 0.  1.
       -2   -1    0    0    0  501  0.00000000000E+00  0.00000000000E+00 -0.32900160551E+03  0.32900160552E+03  0.25500000920E-02 0. -1.
    10030    2    1    2    0    0  0.00000000000E+00  0.00000000000E+00  0.11086067405E+03  0.76886388508E+03  0.76082953724E+03 0.  0.
        1    1    3    3  502    0 -0.25635775354E+03  0.16207012649E+02  0.33898819442E+03  0.42531748264E+03  0.50400001928E-02 0.  1.
       -1    1    3    3    0  502  0.25635775354E+03 -0.16207012649E+02 -0.22812752037E+03  0.34354640244E+03  0.50400001928E-02 0. -1.
</event>
<event>
 5   0  0.1731337E-02  0.8041589E+03  0.7818609E-02  0.9554017E-01
        2   -1    0    0  501    0  0.00000000000E+00  0.00000000000E+00  0.12830795757E+04  0.12830795757E+04  0.25500000920E-02 0.  1.
       -2   -1    0    0    0  501  0.00000000000E+00  0.00000000000E+00 -0.12599988087E+03  0.12599988090E+03  0.25500000920E-02 0. -1.
    10030    2    1    2    0    0  0.00000000000E+00  0.00000000000E+00  0.11570796948E+04  0.14090794566E+04  0.80415887411E+03 0.  0.
        4    1    3    3  502    0  0.25569715669E+03 -0.26505340639E+02  0.11202703041E+04  0.11493871133E+04  0.12699999809E+01 0.  1.
       -4    1    3    3    0  502 -0.25569715669E+03  0.26505340639E+02  0.36809390699E+02  0.25969234329E+03  0.12699999809E+01 0. -1.
</event>
<event>
 5   0  0.1049780E-02  0.8078978E+03  0.7818609E-02  0.9548655E-01
       -1   -1    0    0    0  501  0.00000000000E+00  0.00000000000E+00  0.24735129363E+03  0.24735129368E+03  0.50400001928E-02 0. -1.
        1   -1    0    0  501    0  0.00000000000E+00  0.00000000000E+00 -0.65968805498E+03  0.65968805500E+03  0.50400001928E-02 0.  1.
    10030    2    1    2    0    0  0.00000000000E+00  0.00000000000E+00 -0.41233676135E+03  0.90703934868E+03  0.80789775052E+03 0.  0.
        5    1    3    3  502    0  0.26926353778E+02 -0.12560845651E+03  0.22377463391E+03  0.25806915672E+03  0.46999998093E+01 0. -1.
       -5    1    3    3    0  502 -0.26926353778E+02  0.12560845651E+03 -0.63611139525E+03  0.64897019195E+03  0.46999998093E+01 0.  1.
</event>
<event>
 5   0  0.1747544E-02  0.7995754E+03  0.7818609E-02  0.9560632E-01
        2   -1    0    0  501    0  0.00000000000E+00  0.00000000000E+00  0.73289829840E+03  0.73289829841E+03  0.25500000920E-02 0. -1.
       -2   -1    0    0    0  501  0.00000000000E+00  0.00000000000E+00 -0.21807965920E+03  0.21807965922E+03  0.25500000920E-02 0.  1.
    10030    2    1    2    0    0  0.00000000000E+00  0.00000000000E+00  0.51481863920E+03  0.95097795763E+03  0.79957541522E+03 0.  0.
        1    1    3    3  502    0 -0.87824297699E+02  0.19396804790E+03  0.65984959245E+03  0.69335286511E+03  0.50400001928E-02 0. -1.
       -1    1    3    3    0  502  0.87824297699E+02 -0.19396804790E+03 -0.14503095325E+03  0.25762509252E+03  0.50400001928E-02 0.  1.
</event>
<event>
 5   0  0.1818665E-02  0.8021080E+03  0.7818609E-02  0.9556971E-01
       -2   -1    0    0    0  501  0.00000000000E+00  0.00000000000E+00  0.12711816738E+04  0.12711816738E+04  0.25500000920E-02 0. -1.
        2   -1    0    0  501    0  0.00000000000E+00  0.00000000000E+00 -0.12653133337E+03  0.12653133340E+03  0.25500000920E-02 0.  1.
    10030    2    1    2    0    0  0.00000000000E+00  0.00000000000E+00  0.11446503404E+04  0.13977130072E+04  0.80210800310E+03 0.  0.
        3    1    3    3  502    0  0.25456950609E+03 -0.15548669778E+03  0.10519654074E+03  0.31630376066E+03  0.10100000352E+00 0.  1.
       -3    1    3    3    0  502 -0.25456950609E+03  0.15548669778E+03  0.10394537997E+04  0.10814092465E+04  0.10100000352E+00 0. -1.
</event>
<event>
 5   0  0.1025900E-02  0.7980973E+03  0.7818609E-02  0.9562775E-01
       -1   -1    0    0    0  501  0.00000000000E+00  0.00000000000E+00  0.13281452539E+03  0.13281452549E+03  0.50400001928E-02 0. -1.
        1   -1    0    0  501    0  0.00000000000E+00  0.00000000000E+00 -0.11989639469E+04  0.11989639470E+04  0.50400001928E-02 0.  1.
    10030    2    1    2    0    0  0.00000000000E+00  0.00000000000E+00 -0.10661494216E+04  0.13317784724E+04  0.79809730647E+03 0.  0.
        1    1    3    3  502    0 -0.20997772998E+03 -0.85312332089E+02 -0.10811351705E+04  0.11046366362E+04  0.50400001928E-02 0.  1.
       -1    1    3    3    0  502  0.20997772998E+03  0.85312332089E+02  0.14985748923E+02  0.22714183628E+03  0.50400001928E-02 0. -1.
</event>
<event>
 5   0  0.1146083E-02  0.8057682E+03  0.7818609E-02  0.9551705E-01
       -1   -1    0    0    0  501  0.00000000000E+00  0.00000000000E+00  0.10720138204E+03  0.10720138216E+03  0.50400001928E-02 0. -1.
        1   -1    0    0  501    0  0.00000000000E+00  0.00000000000E+00 -0.15141184544E+04  0.15141184545E+04  0.50400001928E-02 0.  1.
    10030    2    1    2    0    0  0.00000000000E+00  0.00000000000E+00 -0.14069170724E+04  0.16213198366E+04  0.80576818254E+03 0.  0.
        4    1    3    3  502    0  0.19354235956E+03 -0.30004292359E+03 -0.10789781996E+04  0.11365209936E+04  0.12699999809E+01 0.  1.
       -4    1    3    3    0  502 -0.19354235956E+03  0.30004292359E+03 -0.32793887285E+03  0.48479884299E+03  0.12699999809E+01 0. -1.
</event>
<event>
 5   0  0.1030323E-02  0.8171361E+03  0.7818609E-02  0.9535539E-01
       -1   -1    0    0    0  501  0.00000000000E+00  0.00000000000E+00  0.26164558681E+03  0.26164558686E+03  0.50400001928E-02 0. -1.
        1   -1    0    0  501    0  0.00000000000E+00  0.00000000000E+00 -0.63799229968E+03  0.63799229970E+03  0.50400001928E-02 0.  1.
    10030    2    1    2    0    0  0.00000000000E+00  0.00000000000E+00 -0.37634671287E+03  0.89963788656E+03  0.81713614450E+03 0.  0.
        3    1    3    3  502    0  0.26866663205E+02  0.40758511285E+03 -0.19804635360E+03  0.45394912731E+03  0.10100000352E+00 0. -1.
       -3    1    3    3    0  502 -0.26866663205E+02 -0.40758511285E+03 -0.17830035927E+03  0.44568875925E+03  0.10100000352E+00 0.  1.
</event>
<event>
 5   0  0.1049780E-02  0.8140725E+03  0.7818609E-02  0.9539868E-01
        1   -1    0    0  501    0  0.00000000000E+00  0.00000000000E+00  0.35272267833E+03  0.35272267836E+03  0.50400001928E-02 0. -1.
       -1   -1    0    0    0  501  0.00000000000E+00  0.00000000000E+00 -0.46971320761E+03  0.46971320764E+03  0.50400001928E-02 0.  1.
    10030    2    1    2    0    0  0.00000000000E+00  0.00000000000E+00 -0.11699052929E+03  0.82243588601E+03  0.81407247997E+03 0.  0.
        5    1    3    3  502    0 -0.21741049475E+03 -0.34288328836E+03 -0.29562998974E+02  0.40710236253E+03  0.46999998093E+01 0. -1.
       -5    1    3    3    0  502  0.21741049475E+03  0.34288328836E+03 -0.87427530313E+02  0.41533352348E+03  0.46999998093E+01 0.  1.
</event>
<event>
 5   0  0.6872500E-03  0.8012032E+03  0.7818609E-02  0.9558277E-01
        3   -1    0    0  501    0  0.00000000000E+00  0.00000000000E+00  0.11448344029E+04  0.11448344074E+04  0.10100000352E+00 0.  1.
       -3   -1    0    0    0  501  0.00000000000E+00  0.00000000000E+00 -0.14017887634E+03  0.14017891272E+03  0.10100000352E+00 0. -1.
    10030    2    1    2    0    0  0.00000000000E+00  0.00000000000E+00  0.10046555266E+04  0.12850133201E+04  0.80120316134E+03 0.  0.
        3    1    3    3  502    0 -0.19741918898E+03  0.23214038456E+03  0.91938583152E+03  0.96857308022E+03  0.10100000352E+00 0.  1.
       -3    1    3    3    0  502  0.19741918898E+03 -0.23214038456E+03  0.85269695082E+02  0.31644023990E+03  0.10100000352E+00 0. -1.
</event>
<event>
 5   0  0.1030323E-02  0.8103224E+03  0.7818609E-02  0.9545195E-01
        1   -1    0    0  501    0  0.00000000000E+00  0.00000000000E+00  0.15702816007E+04  0.15702816007E+04  0.50400001928E-02 0.  1.
       -1   -1    0    0    0  501  0.00000000000E+00  0.00000000000E+00 -0.10453895940E+03  0.10453895952E+03  0.50400001928E-02 0. -1.
    10030    2    1    2    0    0  0.00000000000E+00  0.00000000000E+00  0.14657426413E+04  0.16748205603E+04  0.81032241636E+03 0.  0.
        3    1    3    3  502    0  0.11913737514E+03  0.38457034530E+03  0.63889113114E+03  0.75516220264E+03  0.10100000352E+00 0.  1.
       -3    1    3    3    0  502 -0.11913737514E+03 -0.38457034530E+03  0.82685151019E+03  0.91965835762E+03  0.10100000352E+00 0. -1.
</event>
<event>
 5   0  0.1731337E-02  0.8033599E+03  0.7818609E-02  0.9555166E-01
       -2   -1    0    0    0  501  0.00000000000E+00  0.00000000000E+00  0.14759567893E+03  0.14759567895E+03  0.25500000920E-02 0.  1.
        2   -1    0    0  501    0  0.00000000000E+00  0.00000000000E+00 -0.10931675037E+04  0.10931675037E+04  0.25500000920E-02 0. -1.
    10030    2    1    2    0    0  0.00000000000E+00  0.00000000000E+00 -0.94557182474E+03  0.12407631826E+04  0.80335994398E+03 0.  0.
        4    1    3    3  502    0 -0.33711592176E+03  0.13715201866E+03 -0.73528796086E+03  0.82043148356E+03  0.12699999809E+01 0. -1.
       -4    1    3    3    0  502  0.33711592176E+03 -0.13715201866E+03 -0.21028386388E+03  0.42033169906E+03  0.12699999809E+01 0.  1.
</event>
<event>
 5   0  0.1747544E-02  0.7984758E+03  0.7818609E-02  0.9562226E-01
       -2   -1    0    0    0  501  0.00000000000E+00  0.00000000000E+00  0.17450573406E+03  0.17450573408E+03  0.25500000920E-02 0. -1.
        2   -1    0    0  501    0  0.00000000000E+00  0.00000000000E+00 -0.91338481173E+03  0.91338481174E+03  0.25500000920E-02 0.  1.
    10030    2    1    2    0    0  0.00000000000E+00  0.00000000000E+00 -0.73887907768E+03  0.10878905458E+04  0.79847576560E+03 0.  0.
        1    1    3    3  502    0 -0.18287539063E+03 -0.11205199519E+03 -0.82822996133E+03  0.85554890392E+03  0.50400001928E-02 0.  1.
       -1    1    3    3    0  502  0.18287539063E+03  0.11205199519E+03  0.89350883658E+02  0.23234164190E+03  0.50400001928E-02 0. -1.
</event>
<event>
 5   0  0.1038912E-02  0.6586741E+03  0.7818609E-02  0.9790638E-01
        1   -1    0    0  501    0  0.00000000000E+00  0.00000000000E+00  0.61750124480E+03  0.61750124482E+03  0.50400001928E-02 0.  1.
       -1   -1    0    0    0  501  0.00000000000E+00  0.00000000000E+00 -0.17564804550E+03  0.17564804557E+03  0.50400001928E-02 0. -1.
    10030    2    1    2    0    0  0.00000000000E+00  0.00000000000E+00  0.44185319930E+03  0.79314929039E+03  0.65867408263E+03 0.  0.
        2    1    3    3  502    0 -0.28496265329E+03 -0.16374216469E+03  0.24640466902E+03  0.41076814773E+03  0.25500000920E-02 0. -1.
       -2    1    3    3    0  502  0.28496265329E+03  0.16374216469E+03  0.19544853028E+03  0.38238114266E+03  0.25500000920E-02 0.  1.
</event>
<event>
 5   0  0.1673727E-02  0.7945576E+03  0.7818609E-02  0.9567928E-01
        2   -1    0    0  501    0  0.00000000000E+00  0.00000000000E+00  0.15243897634E+03  0.15243897636E+03  0.25500000920E-02 0.  1.
       -2   -1    0    0    0  501  0.00000000000E+00  0.00000000000E+00 -0.10353679291E+04  0.10353679291E+04  0.25500000920E-02 0. -1.
    10030    2    1    2    0    0  0.00000000000E+00  0.00000000000E+00 -0.88292895272E+03  0.11878069054E+04  0.79455755551E+03 0.  0.
        5    1    3    3  502    0 -0.44651888279E+02  0.13597137533E+03  0.11251974191E+03  0.18211202144E+03  0.46999998093E+01 0.  1.
       -5    1    3    3    0  502  0.44651888279E+02 -0.13597137533E+03 -0.99544869463E+03  0.10056948840E+04  0.46999998093E+01 0. -1.
</event>
<event>
 5   0  0.1038912E-02  0.7960022E+03  0.7818609E-02  0.9565822E-01
        1   -1    0    0  501    0  0.00000000000E+00  0.00000000000E+00  0.50964703999E+03  0.50964704001E+03  0.50400001928E-02 0.  1.
       -1   -1    0    0    0  501  0.00000000000E+00  0.00000000000E+00 -0.31081289783E+03  0.31081289787E+03  0.50400001928E-02 0. -1.
    10030    2    1    2    0    0  0.00000000000E+00  0.00000000000E+00  0.19883414216E+03  0.82045993789E+03  0.79600219446E+03 0.  0.
        2    1    3    3  502    0 -0.36643553945E+02 -0.20439284635E+02 -0.30852687704E+03  0.31136690297E+03  0.25500000920E-02 0. -1.
       -2    1    3    3    0  502  0.36643553945E+02  0.20439284635E+02  0.50736101919E+03  0.50909303492E+03  0.25500000920E-02 0.  1.
</event>
<event>
 5   0  0.1817089E-02  0.7958000E+03  0.7818609E-02  0.9566116E-01
       -2   -1    0    0    0  501  0.00000000000E+00  0.00000000000E+00  0.14260713198E+03  0.14260713200E+03  0.25500000920E-02 0.  1.
        2   -1    0    0  501    0  0.00000000000E+00  0.00000000000E+00 -0.11102138191E+04  0.11102138191E+04  0.25500000920E-02 0. -1.
    10030    2    1    2    0    0  0.00000000000E+00  0.00000000000E+00 -0.96760668711E+03  0.12528209511E+04  0.79579999659E+03 0.  0.
        2    1    3    3  502    0 -0.25324525267E+03  0.28713463844E+03 -0.65441577078E+03  0.75818167984E+03  0.25500000920E-02 0. -1.
       -2    1    3    3    0  502  0.25324525267E+03 -0.28713463844E+03 -0.31319091633E+03  0.49463927126E+03  0.25500000920E-02 0.  1.
</event>
<event>
 5   0  0.1818665E-02  0.7994066E+03  0.7818609E-02  0.9560876E-01
        2   -1    0    0  501    0  0.00000000000E+00  0.00000000000E+00  0.18318399123E+04  0.18318399123E+04  0.25500000920E-02 0. -1.
       -2   -1    0    0    0  501  0.00000000000E+00  0.00000000000E+00 -0.87214351324E+02  0.87214351361E+02  0.25500000920E-02 0.  1.
    10030    2    1    2    0    0  0.00000000000E+00  0.00000000000E+00  0.17446255610E+04  0.19190542637E+04  0.79940660423E+03 0.  0.
        3    1    3    3  502    0 -0.11553514398E+03 -0.29889498145E+03  0.14458304742E+04  0.14809160508E+04  0.10100000352E+00 0. -1.
       -3    1    3    3    0  502  0.11553514398E+03  0.29889498145E+03  0.29879508684E+03  0.43813821285E+03  0.10100000352E+00 0.  1.
</event>
<event>
 5   0  0.6872500E-03  0.7968732E+03  0.7818609E-02  0.9564554E-01
        3   -1    0    0  501    0  0.00000000000E+00  0.00000000000E+00  0.18456665885E+04  0.18456665912E+04  0.10100000352E+00 0. -1.
       -3   -1    0    0    0  501  0.00000000000E+00  0.00000000000E+00 -0.86013184676E+02  0.86013243975E+02  0.10100000352E+00 0.  1.
    10030    2    1    2    0    0  0.00000000000E+00  0.00000000000E+00  0.17596534038E+04  0.19316798352E+04  0.79687319208E+03 0.  0.
        4    1    3    3  502    0  0.24595694282E+03  0.28854209799E+02  0.12320975242E+03  0.27660375836E+03  0.12699999809E+01 0.  1.
       -4    1    3    3    0  502 -0.24595694282E+03 -0.28854209799E+02  0.16364436514E+04  0.16550760768E+04  0.12699999809E+01 0. -1.
</event>
<event>
 5   0  0.1747544E-02  0.8143410E+03  0.7818609E-02  0.9539488E-01
        2   -1    0    0  501    0  0.00000000000E+00  0.00000000000E+00  0.12989448792E+03  0.12989448795E+03  0.25500000920E-02 0. -1.
       -2   -1    0    0    0  501  0.00000000000E+00  0.00000000000E+00 -0.12763269010E+04  0.12763269010E+04  0.25500000920E-02 0.  1.
    10030    2    1    2    0    0  0.00000000000E+00  0.00000000000E+00 -0.11464324131E+04  0.14062213890E+04  0.81434103236E+03 0.  0.
        1    1    3    3  502    0  0.34810147337E+02  0.23875443289E+03 -0.11395830458E+04  0.11648454593E+04  0.50400001928E-02 0.  1.
       -1    1    3    3    0  502 -0.34810147337E+02 -0.23875443289E+03 -0.68493672509E+01  0.24137592970E+03  0.50400001928E-02 0. -1.
</event>
<event>
 5   0  0.1731337E-02  0.8009281E+03  0.7818609E-02  0.9558675E-01
        2   -1    0    0  501    0  0.00000000000E+00  0.00000000000E+00  0.62001405999E+03  0.62001405999E+03  0.25500000920E-02 0.  1.
       -2   -1    0    0    0  501  0.00000000000E+00  0.00000000000E+00 -0.25865775507E+03  0.25865775508E+03  0.25500000920E-02 0. -1.
    10030    2    1    2    0    0  0.00000000000E+00  0.00000000000E+00  0.36135630492E+03  0.87867181508E+03  0.80092807387E+03 0.  0.
        4    1    3    3  502    0 -0.16813186545E+03  0.17811430287E+03 -0.16689790974E+03  0.29639425474E+03  0.12699999809E+01 0. -1.
       -4    1    3    3    0  502  0.16813186545E+03 -0.17811430287E+03  0.52825421466E+03  0.58227756034E+03  0.12699999809E+01 0.  1.
</event>
<event>
 5   0  0.1049780E-02  0.7890808E+03  0.7818609E-02  0.9575958E-01
       -1   -1    0    0    0  501  0.00000000000E+00  0.00000000000E+00  0.78395000387E+02  0.78395000549E+02  0.50400001928E-02 0.  1.
        1   -1    0    0  501    0  0.00000000000E+00  0.00000000000E+00 -0.19856128126E+04  0.19856128126E+04  0.50400001928E-02 0. -1.
    10030    2    1    2    0    0  0.00000000000E+00  0.00000000000E+00 -0.19072178122E+04  0.20640078131E+04  0.78908077504E+03 0.  0.
        5    1    3    3  502    0  0.31189418300E+03  0.22621522420E+03 -0.11753854484E+04  0.12369334466E+04  0.46999998093E+01 0.  1.
       -5    1    3    3    0  502 -0.31189418300E+03 -0.22621522420E+03 -0.73183236375E+03  0.82707436648E+03  0.46999998093E+01 0. -1.
</event>
<event>
 5   0  0.1038912E-02  0.8105569E+03  0.7818609E-02  0.9544861E-01
       -1   -1    0    0    0  501  0.00000000000E+00  0.00000000000E+00  0.14796801279E+03  0.14796801287E+03  0.50400001928E-02 0. -1.
        1   -1    0    0  501    0  0.00000000000E+00  0.00000000000E+00 -0.11100414614E+04  0.11100414615E+04  0.50400001928E-02 0.  1.
    10030    2    1    2    0    0  0.00000000000E+00  0.00000000000E+00 -0.96207344866E+03  0.12580094743E+04  0.81055691773E+03 0.  0.
        2    1    3    3  502    0 -0.17414497980E+03 -0.28084814303E+03 -0.11689281994E+03  0.35052258814E+03  0.25500000920E-02 0. -1.
       -2    1    3    3    0  502  0.17414497980E+03  0.28084814303E+03 -0.84518062872E+03  0.90748688619E+03  0.25500000920E-02 0.  1.
</event>
<event>
 5   0  0.1049780E-02  0.7893203E+03  0.7818609E-02  0.9575605E-01
        1   -1    0    0  501    0  0.00000000000E+00  0.00000000000E+00  0.21563545066E+04  0.21563545066E+04  0.50400001928E-02 0.  1.
       -1   -1    0    0    0  501  0.00000000000E+00  0.00000000000E+00 -0.72231463831E+02  0.72231464007E+02  0.50400001928E-02 0. -1.
    10030    2    1    2    0    0  0.00000000000E+00  0.00000000000E+00  0.20841230427E+04  0.22285859706E+04  0.78932032217E+03 0.  0.
        5    1    3    3  502    0 -0.37016361909E+03  0.12095222478E+03  0.12224959281E+04  0.12830311492E+04  0.46999998093E+01 0.  1.
       -5    1    3    3    0  502  0.37016361909E+03 -0.12095222478E+03  0.86162711467E+03  0.94555482142E+03  0.46999998093E+01 0. -1.
</event>
<event>
 5   0  0.1818665E-02  0.8233561E+03  0.7818609E-02  0.9526812E-01
       -2   -1    0    0    0  501  0.00000000000E+00  0.00000000000E+00  0.11145003777E+03  0.11145003780E+03  0.25500000920E-02 0. -1.
        2   -1    0    0  501    0  0.00000000000E+00  0.00000000000E+00 -0.15206707187E+04  0.15206707187E+04  0.25500000920E-02 0.  1.
    10030    2    1    2    0    0  0.00000000000E+00  0.00000000000E+00 -0.14092206809E+04  0.16321207565E+04  0.82335608107E+03 0.  0.
        3    1    3    3  502    0 -0.16316505946E+03  0.63868739259E+02 -0.14430634798E+04  0.14536623644E+04  0.10100000352E+00 0.  1.
       -3    1    3    3    0  502  0.16316505946E+03 -0.63868739259E+02  0.33842798924E+02  0.17845839214E+03  0.10100000352E+00 0. -1.
</event>
<event>
 5   0  0.1817089E-02  0.7973541E+03  0.7818609E-02  0.9563855E-01
        2   -1    0    0  501    0  0.00000000000E+00  0.00000000000E+00  0.51512098440E+03  0.51512098441E+03  0.25500000920E-02 0.  1.
       -2   -1    0    0    0  501  0.00000000000E+00  0.00000000000E+00 -0.30855546285E+03  0.30855546286E+03  0.25500000920E-02 0. -1.
    10030    2    1    2    0    0  0.00000000000E+00  0.00000000000E+00  0.20656552155E+03  0.82367644727E+03  0.79735410897E+03 0.  0.
        2    1    3    3  502    0 -0.31532980835E+02  0.28000859969E+02 -0.30624500554E+03  0.30913489040E+03  0.25500000920E-02 0. -1.
       -2    1    3    3    0  502  0.31532980835E+02 -0.28000859969E+02  0.51281052709E+03  0.51454155687E+03  0.25500000920E-02 0.  1.
</event>
<event>
 5   0  0.1673727E-02  0.7962082E+03  0.7818609E-02  0.9565522E-01
        2   -1    0    0  501    0  0.00000000000E+00  0.00000000000E+00  0.20519489395E+04  0.20519489395E+04  0.25500000920E-02 0.  1.
       -2   -1    0    0    0  501  0.00000000000E+00  0.00000000000E+00 -0.77237234113E+02  0.77237234155E+02  0.25500000920E-02 0. -1.
    10030    2    1    2    0    0  0.00000000000E+00  0.00000000000E+00  0.19747117054E+04  0.21291861736E+04  0.79620816542E+03 0.  0.
        5    1    3    3  502    0  0.39332447428E+03 -0.46170091997E+02  0.10952855721E+04  0.11646924031E+04  0.46999998093E+01 0. -1.
       -5    1    3    3    0  502 -0.39332447428E+03  0.46170091997E+02  0.87942613324E+03  0.96449377047E+03  0.46999998093E+01 0.  1.
</event>
<event>
 5   0  0.1146083E-02  0.8036934E+03  0.7818609E-02  0.9554686E-01
       -1   -1    0    0    0  501  0.00000000000E+00  0.00000000000E+00  0.52573474852E+03  0.52573474854E+03  0.50400001928E-02 0. -1.
        1   -1    0    0  501    0  0.00000000000E+00  0.00000000000E+00 -0.30715257510E+03  0.30715257514E+03  0.50400001928E-02 0.  1.
    10030    2    1    2    0    0  0.00000000000E+00  0.00000000000E+00  0.21858217342E+03  0.83288732368E+03  0.80369342875E+03 0.  0.
        4    1    3    3  502    0 -0.89116149214E+02  0.38884196438E+03  0.15941544054E+03  0.42959825057E+03  0.12699999809E+01 0. -1.
       -4    1    3    3    0  502  0.89116149214E+02 -0.38884196438E+03  0.59166732884E+02  0.40328907311E+03  0.12699999809E+01 0.  1.
</event>
<event>
 5   0  0.1025900E-02  0.8058734E+03  0.7818609E-02  0.9551554E-01
        1   -1    0    0  501    0  0.00000000000E+00  0.00000000000E+00  0.58479211533E+03  0.58479211536E+03  0.50400001928E-02 0. -1.
       -1   -1    0    0    0  501  0.00000000000E+00  0.00000000000E+00 -0.27763365757E+03  0.27763365762E+03  0.50400001928E-02 0.  1.
    10030    2    1    2    0    0  0.00000000000E+00  0.00000000000E+00  0.30715845776E+03  0.86242577297E+03  0.80587337449E+03 0.  0.
        1    1    3    3  502    0  0.10850207554E+03 -0.21488420464E+03 -0.19222163639E+03  0.30805369552E+03  0.50400001928E-02 0.  1.
       -1    1    3    3    0  502 -0.10850207554E+03  0.21488420464E+03  0.49938009415E+03  0.55437207745E+03  0.50400001928E-02 0. -1.
</event>
<event>
 5   0  0.1817089E-02  0.8024326E+03  0.7818609E-02  0.9556503E-01
        2   -1    0    0  501    0  0.00000000000E+00  0.00000000000E+00  0.15547472394E+04  0.15547472394E+04  0.25500000920E-02 0.  1.
       -2   -1    0    0    0  501  0.00000000000E+00  0.00000000000E+00 -0.10353742955E+03  0.10353742958E+03  0.25500000920E-02 0. -1.
    10030    2    1    2    0    0  0.00000000000E+00  0.00000000000E+00  0.14512098098E+04  0.16582846690E+04  0.80243263342E+03 0.  0.
        2    1    3    3  502    0  0.17876905158E+03  0.25052749769E+03  0.19367986822E+03  0.36364033366E+03  0.25500000920E-02 0. -1.
       -2    1    3    3    0  502 -0.17876905158E+03 -0.25052749769E+03  0.12575299416E+04  0.12946443353E+04  0.25500000920E-02 0.  1.
</event>
<event>
 5   0  0.6872500E-03  0.7949548E+03  0.7818609E-02  0.9567349E-01
        3   -1    0    0  501    0  0.00000000000E+00  0.00000000000E+00  0.39092639537E+03  0.39092640842E+03  0.10100000352E+00 0. -1.
       -3   -1    0    0    0  501  0.00000000000E+00  0.00000000000E+00 -0.40413815191E+03  0.40413816453E+03  0.10100000352E+00 0.  1.
    10030    2    1    2    0    0  0.00000000000E+00  0.00000000000E+00 -0.13211756540E+02  0.79506457294E+03  0.79495479409E+03 0.  0.
        4    1    3    3  502    0  0.20802358978E+03  0.25255526383E+03  0.21909915043E+03  0.39378169817E+03  0.12699999809E+01 0. -1.
       -4    1    3    3    0  502 -0.20802358978E+03 -0.25255526383E+03 -0.23231090697E+03  0.40128287478E+03  0.12699999809E+01 0.  1.
</event>
<event>
 5   0  0.1146083E-02  0.8005878E+03  0.7818609E-02  0.9559167E-01
       -1   -1    0    0    0  501  0.00000000000E+00  0.00000000000E+00  0.17648328978E+03  0.17648328985E+03  0.50400001928E-02 0. -1.
        1   -1    0    0  501    0  0.00000000000E+00  0.00000000000E+00 -0.90793425577E+03  0.90793425578E+03  0.50400001928E-02 0.  1.
    10030    2    1    2    0    0  0.00000000000E+00  0.00000000000E+00 -0.73145096599E+03  0.10844175456E+04  0.80058784503E+03 0.  0.
        4    1    3    3  502    0 -0.12245216555E+03  0.50407815747E+02 -0.87740341373E+03  0.88734088380E+03  0.12699999809E+01 0.  1.
       -4    1    3    3    0  502  0.12245216555E+03 -0.50407815747E+02  0.14595244774E+03  0.19707666183E+03  0.12699999809E+01 0. -1.
</event>
<event>
 5   0  0.1731337E-02  0.7994279E+03  0.7818609E-02  0.9560846E-01
       -2   -1    0    0    0  501  0.00000000000E+00  0.00000000000E+00  0.97218922749E+02  0.97218922783E+02  0.25500000920E-02 0. -1.
        2   -1    0    0  501    0  0.00000000000E+00  0.00000000000E+00 -0.16434172022E+04  0.16434172022E+04  0.25500000920E-02 0.  1.
    10030    2    1    2    0    0  0.00000000000E+00  0.00000000000E+00 -0.15461982795E+04  0.17406361250E+04  0.79942792060E+03 0.  0.
        4    1    3    3  502    0 -0.30818844736E+03 -0.24460889204E+02 -0.22144564979E+03  0.38028705328E+03  0.12699999809E+01 0. -1.
       -4    1    3    3    0  502  0.30818844736E+03  0.24460889204E+02 -0.13247526297E+04  0.13603490717E+04  0.12699999809E+01 0.  1.
</event>
<event>
 5   0  0.1049780E-02  0.7556237E+03  0.7818609E-02  0.9626569E-01
       -1   -1    0    0    0  501  0.00000000000E+00  0.00000000000E+00  0.21777599094E+03  0.21777599100E+03  0.50400001928E-02 0. -1.
        1   -1    0    0  501    0  0.00000000000E+00  0.00000000000E+00 -0.65545236000E+03  0.65545236002E+03  0.50400001928E-02 0.  1.
    10030    2    1    2    0    0  0.00000000000E+00  0.00000000000E+00 -0.43767636906E+03  0.87322835103E+03  0.75562368213E+03 0.  0.
        5    1    3    3  502    0 -0.22103112625E+03 -0.21657518455E+03  0.31592131936E+02  0.31109439425E+03  0.46999998093E+01 0. -1.
       -5    1    3    3    0  502  0.22103112625E+03  0.21657518455E+03 -0.46926850099E+03  0.56213395677E+03  0.46999998093E+01 0.  1.
</event>
<event>
 5   0  0.1673727E-02  0.7954549E+03  0.7818609E-02  0.9566619E-01
       -2   -1    0    0    0  501  0.00000000000E+00  0.00000000000E+00  0.14115112345E+03  0.14115112347E+03  0.25500000920E-02 0.  1.
        2   -1    0    0  501    0  0.00000000000E+00  0.00000000000E+00 -0.11206934089E+04  0.11206934089E+04  0.25500000920E-02 0. -1.
    10030    2    1    2    0    0  0.00000000000E+00  0.00000000000E+00 -0.97954228542E+03  0.12618445323E+04  0.79545492321E+03 0.  0.
        5    1    3    3  502    0 -0.24205161862E+03 -0.70284231140E+02 -0.17721930538E+01  0.25209936511E+03  0.46999998093E+01 0.  1.
       -5    1    3    3    0  502  0.24205161862E+03  0.70284231140E+02 -0.97777009237E+03  0.10097451672E+04  0.46999998093E+01 0. -1.
</event>
<event>
 5   0  0.1747544E-02  0.8115558E+03  0.7818609E-02  0.9543440E-01
        2   -1    0    0  501    0  0.00000000000E+00  0.00000000000E+00  0.14640871082E+04  0.14640871082E+04  0.25500000920E-02 0.  1.
       -2   -1    0    0    0  501  0.00000000000E+00  0.00000000000E+00 -0.11246305279E+03  0.11246305282E+03  0.25500000920E-02 0. -1.
    10030    2    1    2    0    0  0.00000000000E+00  0.00000000000E+00  0.13516240554E+04  0.15765501610E+04  0.81155580405E+03 0.  0.
        1    1    3    3  502    0 -0.18174648499E+02 -0.23002866834E+02 -0.11040309018E+03  0.11422912097E+03  0.50400001928E-02 0. -1.
       -1    1    3    3    0  502  0.18174648499E+02  0.23002866834E+02  0.14620271456E+04  0.14623210401E+04  0.50400001928E-02 0.  1.
</event>
<event>
 5   0  0.1030323E-02  0.7955246E+03  0.7818609E-02  0.9566518E-01
        1   -1    0    0  501    0  0.00000000000E+00  0.00000000000E+00  0.60672744454E+03  0.60672744456E+03  0.50400001928E-02 0. -1.
       -1   -1    0    0    0  501  0.00000000000E+00  0.00000000000E+00 -0.26076759032E+03  0.26076759037E+03  0.50400001928E-02 0.  1.
    10030    2    1    2    0    0  0.00000000000E+00  0.00000000000E+00  0.34595985422E+03  0.86749503493E+03  0.79552461615E+03 0.  0.
        3    1    3    3  502    0  0.35402706281E+03 -0.49979366528E+02  0.36305262275E+03  0.50954912949E+03  0.10100000352E+00 0. -1.
       -3    1    3    3    0  502 -0.35402706281E+03  0.49979366528E+02 -0.17092768530E+02  0.35794590544E+03  0.10100000352E+00 0.  1.
</event>
<event>
 5   0  0.6872500E-03  0.7956755E+03  0.7818609E-02  0.9566298E-01
       -3   -1    0    0    0  501  0.00000000000E+00  0.00000000000E+00  0.15076137359E+03  0.15076140742E+03  0.10100000352E+00 0.  1.
        3   -1    0    0  501    0  0.00000000000E+00  0.00000000000E+00 -0.10498368808E+04  0.10498368857E+04  0.10100000352E+00 0. -1.
    10030    2    1    2    0    0  0.00000000000E+00  0.00000000000E+00 -0.89907550721E+03  0.12005982931E+04  0.79567549521E+03 0.  0.
        3    1    3    3  502    0  0.38174207694E+03 -0.87773151886E+02 -0.34452273339E+03  0.52165799478E+03  0.10100000352E+00 0.  1.
       -3    1    3    3    0  502 -0.38174207694E+03  0.87773151886E+02 -0.55455277383E+03  0.67894029830E+03  0.10100000352E+00 0. -1.
</event>
<event>
 5   0  0.1038912E-02  0.7642450E+03  0.7818609E-02  0.9613263E-01
       -1   -1    0    0    0  501  0.00000000000E+00  0.00000000000E+00  0.12706201803E+03  0.12706201813E+03  0.50400001928E-02 0. -1.
        1   -1    0    0  501    0  0.00000000000E+00  0.00000000000E+00 -0.11491837894E+04  0.11491837894E+04  0.50400001928E-02 0.  1.
    10030    2    1    2    0    0  0.00000000000E+00  0.00000000000E+00 -0.10221217713E+04  0.12762458075E+04  0.76424501684E+03 0.  0.
        2    1    3    3  502    0 -0.35738123157E+02  0.10809338050E+03  0.98082176223E+02  0.15027143992E+03  0.25500000920E-02 0. -1.
       -2    1    3    3    0  502  0.35738123157E+02 -0.10809338050E+03 -0.11202039476E+04  0.11259743676E+04  0.25500000920E-02 0.  1.
</event>
<event>
 5   0  0.1146083E-02  0.8245285E+03  0.7818609E-02  0.9525176E-01
        1   -1    0    0  501    0  0.00000000000E+00  0.00000000000E+00  0.35091238223E+03  0.35091238227E+03  0.50400001928E-02 0.  1.
       -1   -1    0    0    0  501  0.00000000000E+00  0.00000000000E+00 -0.48434262081E+03  0.48434262083E+03  0.50400001928E-02 0. -1.
    10030    2    1    2    0    0  0.00000000000E+00  0.00000000000E+00 -0.13343023858E+03  0.83525500310E+03  0.82452852688E+03 0.  0.
        4    1    3    3  502    0 -0.30326785729E+02  0.69477140086E+02  0.34378919607E+03  0.35205029635E+03  0.12699999809E+01 0.  1.
       -4    1    3    3    0  502  0.30326785729E+02 -0.69477140086E+02 -0.47721943464E+03  0.48320470675E+03  0.12699999809E+01 0. -1.
</event>
<event>
 5   0  0.1146083E-02  0.7783296E+03  0.7818609E-02  0.9591925E-01
        1   -1    0    0  501    0  0.00000000000E+00  0.00000000000E+00  0.13672706796E+04  0.13672706796E+04  0.50400001928E-02 0.  1.
       -1   -1    0    0    0  501  0.00000000000E+00  0.00000000000E+00 -0.11076757071E+03  0.11076757082E+03  0.50400001928E-02 0. -1.
    10030    2    1    2    0    0  0.00000000000E+00  0.00000000000E+00  0.12565031088E+04  0.14780382504E+04  0.77832962623E+03 0.  0.
        4    1    3    3  502    0  0.35088558674E+03  0.15675910742E+03  0.51190813250E+03  0.64011378814E+03  0.12699999809E+01 0.  1.
       -4    1    3    3    0  502 -0.35088558674E+03 -0.15675910742E+03  0.74459497635E+03  0.83792446225E+03  0.12699999809E+01 0. -1.
</event>
<event>
 5   0  0.1025900E-02  0.7954050E+03  0.7818609E-02  0.9566692E-01
        1   -1    0    0  501    0  0.00000000000E+00  0.00000000000E+00  0.12327511749E+04  0.12327511750E+04  0.50400001928E-02 0. -1.
       -1   -1    0    0    0  501  0.00000000000E+00  0.00000000000E+00 -0.12830428773E+03  0.12830428783E+03  0.50400001928E-02 0.  1.
    10030    2    1    2    0    0  0.00000000000E+00  0.00000000000E+00  0.11044468872E+04  0.13610554628E+04  0.79540495729E+03 0.  0.
        1    1    3    3  502    0 -0.12023855596E+03  0.57776526825E+02 -0.88879102090E+02  0.16029638862E+03  0.50400001928E-02 0.  1.
       -1    1    3    3    0  502  0.12023855596E+03 -0.57776526825E+02  0.11933259893E+04  0.12007590742E+04  0.50400001928E-02 0. -1.
</event>
<event>
 5   0  0.1673727E-02  0.7942406E+03  0.7818609E-02  0.9568391E-01
        2   -1    0    0  501    0  0.00000000000E+00  0.00000000000E+00  0.83376038624E+03  0.83376038625E+03  0.25500000920E-02 0.  1.
       -2   -1    0    0    0  501  0.00000000000E+00  0.00000000000E+00 -0.18914852144E+03  0.18914852146E+03  0.25500000920E-02 0. -1.
    10030    2    1    2    0    0  0.00000000000E+00  0.00000000000E+00  0.64461186480E+03  0.10229089077E+04  0.79424062929E+03 0.  0.
        5    1    3    3  502    0 -0.11709145932E+03 -0.13557922702E+03 -0.13411225345E+03  0.22383101476E+03  0.46999998093E+01 0. -1.
       -5    1    3    3    0  502  0.11709145932E+03  0.13557922702E+03  0.77872411825E+03  0.79907789294E+03  0.46999998093E+01 0.  1.
</event>
<event>
 5   0  0.1817089E-02  0.8022776E+03  0.7818609E-02  0.9556726E-01
       -2   -1    0    0    0  501  0.00000000000E+00  0.00000000000E+00  0.70576126435E+03  0.70576126435E+03  0.25500000920E-02 0.  1.
        2   -1    0    0  501    0  0.00000000000E+00  0.00000000000E+00 -0.22799825798E+03  0.22799825799E+03  0.25500000920E-02 0. -1.
    10030    2    1    2    0    0  0.00000000000E+00  0.00000000000E+00  0.47776300637E+03  0.93375952234E+03  0.80227760489E+03 0.  0.
        2    1    3    3  502    0 -0.22296570761E+03 -0.13752094605E+03 -0.11469202966E+03  0.28597198997E+03  0.25500000920E-02 0. -1.
       -2    1    3    3    0  502  0.22296570761E+03  0.13752094605E+03  0.59245503604E+03  0.64778753238E+03  0.25500000920E-02 0.  1.
</event>
<event>
 5   0  0.1038912E-02  0.7896145E+03  0.7818609E-02  0.9575173E-01
        1   -1    0    0  501    0  0.00000000000E+00  0.00000000000E+00  0.10563485543E+04  0.10563485543E+04  0.50400001928E-02 0. -1.
       -1   -1    0    0    0  501  0.00000000000E+00  0.00000000000E+00 -0.14755806465E+03  0.14755806474E+03  0.50400001928E-02 0.  1.
    10030    2    1    2    0    0  0.00000000000E+00  0.00000000000E+00  0.90879048962E+03  0.12039066190E+04  0.78961445864E+03 0.  0.
        2    1    3    3  502    0 -0.94222924780E+02  0.19388982589E+03  0.95869574208E+03  0.98263357872E+03  0.25500000920E-02 0. -1.
       -2    1    3    3    0  502  0.94222924780E+02 -0.19388982589E+03 -0.49905252454E+02  0.22127304031E+03  0.25500000920E-02 0.  1.
</event>
<event>
 5   0  0.1025900E-02  0.8138324E+03  0.7818609E-02  0.9540208E-01
       -1   -1    0    0    0  501  0.00000000000E+00  0.00000000000E+00  0.78487471301E+02  0.78487471463E+02  0.50400001928E-02 0. -1.
        1   -1    0    0  501    0  0.00000000000E+00  0.00000000000E+00 -0.21096464130E+04  0.21096464130E+04  0.50400001928E-02 0.  1.
    10030    2    1    2    0    0  0.00000000000E+00  0.00000000000E+00 -0.20311589417E+04  0.21881338845E+04  0.81383244585E+03 0.  0.
        1    1    3    3  502    0 -0.31446986314E+02  0.98342150334E+02 -0.20738425530E+04  0.20764110928E+04  0.50400001928E-02 0.  1.
       -1    1    3    3    0  502  0.31446986314E+02 -0.98342150334E+02  0.42683611325E+02  0.11172279168E+03  0.50400001928E-02 0. -1.
</event>
<event>
 5   0  0.1030323E-02  0.8026172E+03  0.7818609E-02  0.9556236E-01
        1   -1    0    0  501    0  0.00000000000E+00  0.00000000000E+00  0.71239587198E+03  0.71239587200E+03  0.50400001928E-02 0.  1.
       -1   -1    0    0    0  501  0.00000000000E+00  0.00000000000E+00 -0.22606617365E+03  0.22606617371E+03  0.50400001928E-02 0. -1.
    10030    2    1    2    0    0  0.00000000000E+00  0.00000000000E+00  0.48632969833E+03  0.93846204570E+03  0.80261724112E+03 0.  0.
        3    1    3    3  502    0 -0.18273450195E+03 -0.14384939109E+03  0.62557301206E+03  0.66740253906E+03  0.10100000352E+00 0.  1.
       -3    1    3    3    0  502  0.18273450195E+03  0.14384939109E+03 -0.13924331373E+03  0.27105950664E+03  0.10100000352E+00 0. -1.
</event>
<event>
 5   0  0.1025900E-02  0.7853863E+03  0.7818609E-02  0.9581414E-01
        1   -1    0    0  501    0  0.00000000000E+00  0.00000000000E+00  0.17222471416E+04  0.17222471416E+04  0.50400001928E-02 0.  1.
       -1   -1    0    0    0  501  0.00000000000E+00  0.00000000000E+00 -0.89538772765E+02  0.89538772907E+02  0.50400001928E-02 0. -1.
    10030    2    1    2    0    0  0.00000000000E+00  0.00000000000E+00  0.16327083688E+04  0.18117859145E+04  0.78538626317E+03 0.  0.
        1    1    3    3  502    0  0.31982959340E+03 -0.20674730728E+03  0.59541796920E+03  0.70679415388E+03  0.50400001928E-02 0. -1.
       -1    1    3    3    0  502 -0.31982959340E+03  0.20674730728E+03  0.10372903996E+04  0.11049917606E+04  0.50400001928E-02 0.  1.
</event>
<event>
 5   0  0.1146083E-02  0.7993105E+03  0.7818609E-02  0.9561016E-01
        1   -1    0    0  501    0  0.00000000000E+00  0.00000000000E+00  0.50627953625E+03  0.50627953628E+03  0.50400001928E-02 0. -1.
       -1   -1    0    0    0  501  0.00000000000E+00  0.00000000000E+00 -0.31548645167E+03  0.31548645171E+03  0.50400001928E-02 0.  1.
    10030    2    1    2    0    0  0.00000000000E+00  0.00000000000E+00  0.19079308458E+03  0.82176598799E+03  0.79931053908E+03 0.  0.
        4    1    3    3  502    0 -0.18275310880E+03 -0.10817989803E+03  0.44346524175E+03  0.49169566060E+03  0.12699999809E+01 0. -1.
       -4    1    3    3    0  502  0.18275310880E+03  0.10817989803E+03 -0.25267215716E+03  0.33007032739E+03  0.12699999809E+01 0.  1.
</event>
<event>
 5   0  0.1146083E-02  0.7701283E+03  0.7818609E-02  0.9604291E-01
        1   -1    0    0  501    0  0.00000000000E+00  0.00000000000E+00  0.41712900402E+03  0.41712900405E+03  0.50400001928E-02 0.  1.
       -1   -1    0    0    0  501  0.00000000000E+00  0.00000000000E+00 -0.35546414096E+03  0.35546414099E+03  0.50400001928E-02 0. -1.
    10030    2    1    2    0    0  0.00000000000E+00  0.00000000000E+00  0.61664863063E+02  0.77259314505E+03  0.77012830907E+03 0.  0.
        4    1    3    3  502    0  0.18225392063E+03 -0.28316583541E+03  0.21817434847E+03  0.40124935036E+03  0.12699999809E+01 0.  1.
       -4    1    3    3    0  502 -0.18225392063E+03  0.28316583541E+03 -0.15650948541E+03  0.37134379469E+03  0.12699999809E+01 0. -1.
</event>
<event>
 5   0  0.1030323E-02  0.7617975E+03  0.7818609E-02  0.9617022E-01
        1   -1    0    0  501    0  0.00000000000E+00  0.00000000000E+00  0.19915289367E+04  0.19915289367E+04  0.50400001928E-02 0.  1.
       -1   -1    0    0    0  501  0.00000000000E+00  0.00000000000E+00 -0.72850487119E+02  0.72850487294E+02  0.50400001928E-02 0. -1.
    10030    2    1    2    0    0  0.00000000000E+00  0.00000000000E+00  0.19186784496E+04  0.20643794240E+04  0.76179748841E+03 0.  0.
        3    1    3    3  502    0 -0.25217200342E+03  0.20233182066E+03  0.41361659389E+03  0.52498341107E+03  0.10100000352E+00 0. -1.
       -3    1    3    3    0  502  0.25217200342E+03 -0.20233182066E+03  0.15050618557E+04  0.15393960129E+04  0.10100000352E+00 0.  1.
</event>
<event>
 5   0  0.1817089E-02  0.7975616E+03  0.7818609E-02  0.9563553E-01
        2   -1    0    0  501    0  0.00000000000E+00  0.00000000000E+00  0.67078751313E+03  0.67078751313E+03  0.25500000920E-02 0.  1.
       -2   -1    0    0    0  501  0.00000000000E+00  0.00000000000E+00 -0.23707379344E+03  0.23707379346E+03  0.25500000920E-02 0. -1.
    10030    2    1    2    0    0  0.00000000000E+00  0.00000000000E+00  0.43371371969E+03  0.90786130659E+03  0.79756163484E+03 0.  0.
        2    1    3    3  502    0 -0.15165844115E+03 -0.13751804080E+03  0.60640475029E+03  0.64002985516E+03  0.25500000920E-02 0.  1.
       -2    1    3    3    0  502  0.15165844115E+03  0.13751804080E+03 -0.17269103061E+03  0.26783145143E+03  0.25500000920E-02 0. -1.
</event>
<event>
 5   0  0.1049780E-02  0.8043811E+03  0.7818609E-02  0.9553697E-01
        1   -1    0    0  501    0  0.00000000000E+00  0.00000000000E+00  0.51741295612E+03  0.51741295615E+03  0.50400001928E-02 0. -1.
       -1   -1    0    0    0  501  0.00000000000E+00  0.00000000000E+00 -0.31262693388E+03  0.31262693392E+03  0.50400001928E-02 0.  1.
    10030    2    1    2    0    0  0.00000000000E+00  0.00000000000E+00  0.20478602224E+03  0.83003989007E+03  0.80438106902E+03 0.  0.
        5    1    3    3  502    0 -0.95415154593E+02  0.25521864165E+02  0.50467440058E+03  0.51427012151E+03  0.46999998093E+01 0. -1.
       -5    1    3    3    0  502  0.95415154593E+02 -0.25521864165E+02 -0.29988837834E+03  0.31576976856E+03  0.46999998093E+01 0.  1.
</event>
<event>
 5   0  0.1747544E-02  0.7863075E+03  0.7818609E-02  0.9580051E-01
        2   -1    0    0  501    0  0.00000000000E+00  0.00000000000E+00  0.26615223887E+04  0.26615223887E+04  0.25500000920E-02 0.  1.
       -2   -1    0    0    0  501  0.00000000000E+00  0.00000000000E+00 -0.58075742147E+02  0.58075742203E+02  0.25500000920E-02 0. -1.
    10030    2    1    2    0    0  0.00000000000E+00  0.00000000000E+00  0.26034466466E+04  0.27195981309E+04  0.78630754300E+03 0.  0.
        1    1    3    3  502    0 -0.10106041370E+03 -0.33216283676E+03  0.66374141416E+03  0.74906476505E+03  0.50400001928E-02 0. -1.
       -1    1    3    3    0  502  0.10106041370E+03  0.33216283676E+03  0.19397052324E+04  0.19705333658E+04  0.50400001928E-02 0.  1.
</event>
<event>
 5   0  0.1030323E-02  0.8061708E+03  0.7818609E-02  0.9551128E-01
       -1   -1    0    0    0  501  0.00000000000E+00  0.00000000000E+00  0.45230726169E+03  0.45230726172E+03  0.50400001928E-02 0.  1.
        1   -1    0    0  501    0  0.00000000000E+00  0.00000000000E+00 -0.35922002096E+03  0.35922002100E+03  0.50400001928E-02 0. -1.
    10030    2    1    2    0    0  0.00000000000E+00  0.00000000000E+00  0.93087240733E+02  0.81152728272E+03  0.80617076120E+03 0.  0.
        3    1    3    3  502    0  0.35726145783E+02  0.43590714025E+02 -0.35523400750E+03  0.35967724160E+03  0.10100000352E+00 0. -1.
       -3    1    3    3    0  502 -0.35726145783E+02 -0.43590714025E+02  0.44832124823E+03  0.45185004112E+03  0.10100000352E+00 0.  1.
</event>
<event>
 5   0  0.1747544E-02  0.7966209E+03  0.7818609E-02  0.9564921E-01
       -2   -1    0    0    0  501  0.00000000000E+00  0.00000000000E+00  0.16668233543E+03  0.16668233545E+03  0.25500000920E-02 0. -1.
        2   -1    0    0  501    0  0.00000000000E+00  0.00000000000E+00 -0.95181783513E+03  0.95181783513E+03  0.25500000920E-02 0.  1.
    10030    2    1    2    0    0  0.00000000000E+00  0.00000000000E+00 -0.78513549970E+03  0.11185001706E+04  0.79662091279E+03 0.  0.
        1    1    3    3  502    0  0.26373831124E+03  0.10362653514E+03 -0.78559017587E+03  0.83513368993E+03  0.50400001928E-02 0.  1.
       -1    1    3    3    0  502 -0.26373831124E+03 -0.10362653514E+03  0.45467617049E+00  0.28336648065E+03  0.50400001928E-02 0. -1.
</event>
<event>
 5   0  0.1025900E-02  0.7937521E+03  0.7818609E-02  0.9569105E-01
        1   -1    0    0  501    0  0.00000000000E+00  0.00000000000E+00  0.31046958418E+03  0.31046958422E+03  0.50400001928E-02 0. -1.
       -1   -1    0    0    0  501  0.00000000000E+00  0.00000000000E+00 -0.50733020829E+03  0.50733020832E+03  0.50400001928E-02 0.  1.
    10030    2    1    2    0    0  0.00000000000E+00  0.00000000000E+00 -0.19686062412E+03  0.81779979254E+03  0.79375209943E+03 0.  0.
        1    1    3    3  502    0  0.31611783015E+02 -0.32309506847E+03 -0.33364689697E+03  0.46552119176E+03  0.50400001928E-02 0.  1.
       -1    1    3    3    0  502 -0.31611783015E+02  0.32309506847E+03  0.13678627286E+03  0.35227860077E+03  0.50400001928E-02 0. -1.
</event>
<event>
 5   0  0.1673727E-02  0.8115799E+03  0.7818609E-02  0.9543405E-01
       -2   -1    0    0    0  501  0.00000000000E+00  0.00000000000E+00  0.14080046523E+03  0.14080046525E+03  0.25500000920E-02 0. -1.
        2   -1    0    0  501    0  0.00000000000E+00  0.00000000000E+00 -0.11694952098E+04  0.11694952098E+04  0.25500000920E-02 0.  1.
    10030    2    1    2    0    0  0.00000000000E+00  0.00000000000E+00 -0.10286947445E+04  0.13102956750E+04  0.81157986579E+03 0.  0.
        5    1    3    3  502    0 -0.21388352068E+03  0.20102046872E+03 -0.96666097422E+03  0.10102528982E+04  0.46999998093E+01 0.  1.
       -5    1    3    3    0  502  0.21388352068E+03 -0.20102046872E+03 -0.62033770316E+02  0.30004277682E+03  0.46999998093E+01 0. -1.
</event>
<event>
 5   0  0.1038912E-02  0.7940027E+03  0.7818609E-02  0.9568739E-01
        1   -1    0    0  501    0  0.00000000000E+00  0.00000000000E+00  0.82330741633E+03  0.82330741634E+03  0.50400001928E-02 0.  1.
       -1   -1    0    0    0  501  0.00000000000E+00  0.00000000000E+00 -0.19143525602E+03  0.19143525609E+03  0.50400001928E-02 0. -1.
    10030    2    1    2    0    0  0.00000000000E+00  0.00000000000E+00  0.63187216030E+03  0.10147426724E+04  0.79400268531E+03 0.  0.
        2    1    3    3  502    0 -0.24161606391E+03 -0.31284630146E+03  0.36304827715E+03  0.53670772514E+03  0.25500000920E-02 0.  1.
       -2    1    3    3    0  502  0.24161606391E+03  0.31284630146E+03  0.26882388315E+03  0.47803494729E+03  0.25500000920E-02 0. -1.
</event>
<event>
 5   0  0.1818665E-02  0.7987140E+03  0.7818609E-02  0.9561880E-01
        2   -1    0    0  501    0  0.00000000000E+00  0.00000000000E+00  0.71901406162E+03  0.71901406163E+03  0.25500000920E-02 0.  1.
       -2   -1    0    0    0  501  0.00000000000E+00  0.00000000000E+00 -0.22181206935E+03  0.22181206937E+03  0.25500000920E-02 0. -1.
    10030    2    1    2    0    0  0.00000000000E+00  0.00000000000E+00  0.49720199227E+03  0.94082613099E+03  0.79871395859E+03 0.  0.
        3    1    3    3  502    0  0.23776789746E+03 -0.11934575955E+03 -0.10223322337E+03  0.28500636053E+03  0.10100000352E+00 0. -1.
       -3    1    3    3    0  502 -0.23776789746E+03  0.11934575955E+03  0.59943521564E+03  0.65581977046E+03  0.10100000352E+00 0.  1.
</event>
<event>
 5   0  0.1817089E-02  0.8074881E+03  0.7818609E-02  0.9549241E-01
       -2   -1    0    0    0  501  0.00000000000E+00  0.00000000000E+00  0.13116139266E+03  0.13116139268E+03  0.25500000920E-02 0.  1.
        2   -1    0    0  501    0  0.00000000000E+00  0.00000000000E+00 -0.12428144740E+04  0.12428144740E+04  0.25500000920E-02 0. -1.
    10030    2    1    2    0    0  0.00000000000E+00  0.00000000000E+00 -0.11116530814E+04  0.13739758667E+04  0.80748814788E+03 0.  0.
        2    1    3    3  502    0  0.83412725429E+01 -0.38751967559E+03 -0.36355818554E+03  0.53142791616E+03  0.25500000920E-02 0.  1.
       -2    1    3    3    0  502 -0.83412725429E+01  0.38751967559E+03 -0.74809489581E+03  0.84254795053E+03  0.25500000920E-02 0. -1.
</event>
<event>
 5   0  0.6872500E-03  0.8030739E+03  0.7818609E-02  0.9555578E-01
       -4   -1    0    0    0  501  0.00000000000E+00  0.00000000000E+00  0.13642501490E+03  0.13643092608E+03  0.12699999809E+01 0.  1.
        4   -1    0    0  501    0  0.00000000000E+00  0.00000000000E+00 -0.11818037456E+04  0.11818044280E+04  0.12699999809E+01 0. -1.
    10030    2    1    2    0    0  0.00000000000E+00  0.00000000000E+00 -0.10453787307E+04  0.13182353541E+04  0.80307394312E+03 0.  0.
        3    1    3    3  502    0 -0.27543709844E+03 -0.34250754988E+01 -0.43120595629E+02  0.27881305979E+03  0.10100000352E+00 0.  1.
       -3    1    3    3    0  502  0.27543709844E+03  0.34250754988E+01 -0.10022581351E+04  0.10394222943E+04  0.10100000352E+00 0. -1.
</event>
<event>
 5   0  0.1673727E-02  0.8015010E+03  0.7818609E-02  0.9557847E-01
       -2   -1    0    0    0  501  0.00000000000E+00  0.00000000000E+00  0.28347687274E+03  0.28347687276E+03  0.25500000920E-02 0.  1.
        2   -1    0    0  501    0  0.00000000000E+00  0.00000000000E+00 -0.56653992958E+03  0.56653992958E+03  0.25500000920E-02 0. -1.
    10030    2    1    2    0    0  0.00000000000E+00  0.00000000000E+00 -0.28306305683E+03  0.85001680234E+03  0.80150101068E+03 0.  0.
        5    1    3    3  502    0 -0.11424791354E+03 -0.68998792500E+02 -0.54224598271E+03  0.55844983202E+03  0.46999998093E+01 0. -1.
       -5    1    3    3    0  502  0.11424791354E+03  0.68998792500E+02  0.25918292588E+03  0.29156697032E+03  0.46999998093E+01 0.  1.
</event>
<event>
 5   0  0.1673727E-02  0.7932445E+03  0.7818609E-02  0.9569847E-01
       -2   -1    0    0    0  501  0.00000000000E+00  0.00000000000E+00  0.25915303620E+03  0.25915303621E+03  0.25500000920E-02 0.  1.
        2   -1    0    0  501    0  0.00000000000E+00  0.00000000000E+00 -0.60701279391E+03  0.60701279392E+03  0.25500000920E-02 0. -1.
    10030    2    1    2    0    0  0.00000000000E+00  0.00000000000E+00 -0.34785975772E+03  0.86616583013E+03  0.79324449840E+03 0.  0.
        5    1    3    3  502    0 -0.26237773068E+03  0.28077771729E+03 -0.28096621451E+03  0.47606964173E+03  0.46999998093E+01 0. -1.
       -5    1    3    3    0  502  0.26237773068E+03 -0.28077771729E+03 -0.66893543207E+02  0.39009618840E+03  0.46999998093E+01 0.  1.
</event>
<event>
 5   0  0.1818665E-02  0.8494506E+03  0.7818609E-02  0.9491075E-01
       -2   -1    0    0    0  501  0.00000000000E+00  0.00000000000E+00  0.17379199620E+03  0.17379199621E+03  0.25500000920E-02 0. -1.
        2   -1    0    0  501    0  0.00000000000E+00  0.00000000000E+00 -0.10379739493E+04  0.10379739493E+04  0.25500000920E-02 0.  1.
    10030    2    1    2    0    0  0.00000000000E+00  0.00000000000E+00 -0.86418195313E+03  0.12117659455E+04  0.84945056281E+03 0.  0.
        3    1    3    3  502    0 -0.29834766925E+03 -0.14697698301E+03 -0.55265844622E+02  0.33714668776E+03  0.10100000352E+00 0. -1.
       -3    1    3    3    0  502  0.29834766925E+03  0.14697698301E+03 -0.80891610850E+03  0.87461925778E+03  0.10100000352E+00 0.  1.
</event>
<event>
 5   0  0.1747544E-02  0.8044669E+03  0.7818609E-02  0.9553574E-01
       -2   -1    0    0    0  501  0.00000000000E+00  0.00000000000E+00  0.21957052834E+03  0.21957052835E+03  0.25500000920E-02 0. -1.
        2   -1    0    0  501    0  0.00000000000E+00  0.00000000000E+00 -0.73685546002E+03  0.73685546002E+03  0.25500000920E-02 0.  1.
    10030    2    1    2    0    0  0.00000000000E+00  0.00000000000E+00 -0.51728493168E+03  0.95642598837E+03  0.80446688601E+03 0.  0.
        1    1    3    3  502    0 -0.32599830505E+02 -0.29273389919E+03 -0.58431236723E+03  0.65435221953E+03  0.50400001928E-02 0.  1.
       -1    1    3    3    0  502  0.32599830505E+02  0.29273389919E+03  0.67027435544E+02  0.30207376885E+03  0.50400001928E-02 0. -1.
</event>
<event>
 5   0  0.1049780E-02  0.8016761E+03  0.7818609E-02  0.9557594E-01
       -1   -1    0    0    0  501  0.00000000000E+00  0.00000000000E+00  0.15417585737E+03  0.15417585745E+03  0.50400001928E-02 0.  1.
        1   -1    0    0  501    0  0.00000000000E+00  0.00000000000E+00 -0.10421291320E+04  0.10421291320E+04  0.50400001928E-02 0. -1.
    10030    2    1    2    0    0  0.00000000000E+00  0.00000000000E+00 -0.88795327466E+03  0.11963049895E+04  0.80167612531E+03 0.  0.
        5    1    3    3  502    0  0.26950505746E+03  0.22355375010E+02 -0.25205630433E+01  0.27048323797E+03  0.46999998093E+01 0.  1.
       -5    1    3    3    0  502 -0.26950505746E+03 -0.22355375010E+02 -0.88543271162E+03  0.92582175152E+03  0.46999998093E+01 0. -1.
</event>
<event>
 5   0  0.1025900E-02  0.8034815E+03  0.7818609E-02  0.9554991E-01
       -1   -1    0    0    0  501  0.00000000000E+00  0.00000000000E+00  0.76057812478E+03  0.76057812480E+03  0.50400001928E-02 0. -1.
        1   -1    0    0  501    0  0.00000000000E+00  0.00000000000E+00 -0.21220127471E+03  0.21220127477E+03  0.50400001928E-02 0.  1.
    10030    2    1    2    0    0  0.00000000000E+00  0.00000000000E+00  0.54837685007E+03  0.97277939957E+03  0.80348154337E+03 0.  0.
        1    1    3    3  502    0  0.12741364323E+03 -0.38074598998E+03  0.29104734998E+03  0.49589344150E+03  0.50400001928E-02 0. -1.
       -1    1    3    3    0  502 -0.12741364323E+03  0.38074598998E+03  0.25732950009E+03  0.47688595807E+03  0.50400001928E-02 0.  1.
</event>
<event>
 5   0  0.6872500E-03  0.8079363E+03  0.7818609E-02  0.9548600E-01
        3   -1    0    0  501    0  0.00000000000E+00  0.00000000000E+00  0.37093493531E+03  0.37093494906E+03  0.10100000352E+00 0.  1.
       -3   -1    0    0    0  501  0.00000000000E+00  0.00000000000E+00 -0.43994305140E+03  0.43994306300E+03  0.10100000352E+00 0. -1.
    10030    2    1    2    0    0  0.00000000000E+00  0.00000000000E+00 -0.69008116097E+02  0.81087801206E+03  0.80793627864E+03 0.  0.
        3    1    3    3  502    0  0.14854320496E+03 -0.33275812425E+03  0.14047866269E+03  0.39054745918E+03  0.10100000352E+00 0.  1.
       -3    1    3    3    0  502 -0.14854320496E+03  0.33275812425E+03 -0.20948677879E+03  0.42033055288E+03  0.10100000352E+00 0. -1.
</event>
<event>
 5   0  0.1817089E-02  0.8106093E+03  0.7818609E-02  0.9544786E-01
        2   -1    0    0  501    0  0.00000000000E+00  0.00000000000E+00  0.43929753410E+03  0.43929753410E+03  0.25500000920E-02 0. -1.
       -2   -1    0    0    0  501  0.00000000000E+00  0.00000000000E+00 -0.37394211111E+03  0.37394211112E+03  0.25500000920E-02 0.  1.
    10030    2    1    2    0    0  0.00000000000E+00  0.00000000000E+00  0.65355422990E+02  0.81323964522E+03  0.81060927039E+03 0.  0.
        2    1    3    3  502    0  0.81367051072E+02  0.17652400937E+02  0.43062546406E+03  0.43860060939E+03  0.25500000920E-02 0. -1.
       -2    1    3    3    0  502 -0.81367051072E+02 -0.17652400937E+02 -0.36527004107E+03  0.37463903583E+03  0.25500000920E-02 0.  1.
</event>
<event>
 5   0  0.1038912E-02  0.8090348E+03  0.7818609E-02  0.9547031E-01
        1   -1    0    0  501    0  0.00000000000E+00  0.00000000000E+00  0.63133544026E+03  0.63133544028E+03  0.50400001928E-02 0. -1.
       -1   -1    0    0    0  501  0.00000000000E+00  0.00000000000E+00 -0.25918763371E+03  0.25918763376E+03  0.50400001928E-02 0.  1.
    10030    2    1    2    0    0  0.00000000000E+00  0.00000000000E+00  0.37214780655E+03  0.89052307404E+03  0.80903482958E+03 0.  0.
        2    1    3    3  502    0  0.24125264291E+03 -0.66077904076E+02 -0.16385418423E+03  0.29902729109E+03  0.25500000920E-02 0.  1.
       -2    1    3    3    0  502 -0.24125264291E+03  0.66077904076E+02  0.53600199078E+03  0.59149578295E+03  0.25500000920E-02 0. -1.
</event>
<event>
 5   0  0.1818665E-02  0.7847383E+03  0.7818609E-02  0.9582374E-01
        2   -1    0    0  501    0  0.00000000000E+00  0.00000000000E+00  0.10892835471E+04  0.10892835471E+04  0.25500000920E-02 0. -1.
       -2   -1    0    0    0  501  0.00000000000E+00  0.00000000000E+00 -0.14133469727E+03  0.14133469730E+03  0.25500000920E-02 0.  1.
    10030    2    1    2    0    0  0.00000000000E+00  0.00000000000E+00  0.94794884984E+03  0.12306182444E+04  0.78473832682E+03 0.  0.
        3    1    3    3  502    0  0.28849804527E+03 -0.10183888335E+03  0.88725272707E+02  0.31855056820E+03  0.10100000352E+00 0.  1.
       -3    1    3    3    0  502 -0.28849804527E+03  0.10183888335E+03  0.85922357713E+03  0.91206767621E+03  0.10100000352E+00 0. -1.
</event>
<event>
 5   0  0.1673727E-02  0.7928821E+03  0.7818609E-02  0.9570378E-01
       -2   -1    0    0    0  501  0.00000000000E+00  0.00000000000E+00  0.21640782634E+03  0.21640782635E+03  0.25500000920E-02 0. -1.
        2   -1    0    0  501    0  0.00000000000E+00  0.00000000000E+00 -0.72624685116E+03  0.72624685116E+03  0.25500000920E-02 0.  1.
    10030    2    1    2    0    0  0.00000000000E+00  0.00000000000E+00 -0.50983902482E+03  0.94265467751E+03  0.79288209073E+03 0.  0.
        5    1    3    3  502    0 -0.11569145894E+03 -0.35908101965E+03 -0.39965133106E+03  0.54960619425E+03  0.46999998093E+01 0.  1.
       -5    1    3    3    0  502  0.11569145894E+03  0.35908101965E+03 -0.11018769376E+03  0.39304848326E+03  0.46999998093E+01 0. -1.
</event>
<event>
 5   0  0.6872500E-03  0.8004763E+03  0.7818609E-02  0.9559328E-01
       -3   -1    0    0    0  501  0.00000000000E+00  0.00000000000E+00  0.26327803787E+03  0.26327805724E+03  0.10100000352E+00 0.  1.
        3   -1    0    0  501    0  0.00000000000E+00  0.00000000000E+00 -0.60844641607E+03  0.60844642445E+03  0.10100000352E+00 0. -1.
    10030    2    1    2    0    0  0.00000000000E+00  0.00000000000E+00 -0.34516837820E+03  0.87172448169E+03  0.80047633486E+03 0.  0.
        3    1    3    3  502    0 -0.27846941084E+03 -0.55737526752E+02  0.13454421193E+03  0.31425155501E+03  0.10100000352E+00 0.  1.
       -3    1    3    3    0  502  0.27846941084E+03  0.55737526752E+02 -0.47971259013E+03  0.55747292669E+03  0.10100000352E+00 0. -1.
</event>
<event>
 5   0  0.1030323E-02  0.7890465E+03  0.7818609E-02  0.9576009E-01
        1   -1    0    0  501    0  0.00000000000E+00  0.00000000000E+00  0.95830988415E+03  0.95830988416E+03  0.50400001928E-02 0. -1.
       -1   -1    0    0    0  501  0.00000000000E+00  0.00000000000E+00 -0.16241989250E+03  0.16241989258E+03  0.50400001928E-02 0.  1.
    10030    2    1    2    0    0  0.00000000000E+00  0.00000000000E+00  0.79588999165E+03  0.11207297767E+04  0.78904648384E+03 0.  0.
        3    1    3    3  502    0  0.16461204565E+03 -0.35650958522E+03  0.45207483053E+03  0.59880537116E+03  0.10100000352E+00 0.  1.
       -3    1    3    3    0  502 -0.16461204565E+03  0.35650958522E+03  0.34381516112E+03  0.52192440558E+03  0.10100000352E+00 0. -1.
</event>
<event>
 5   0  0.1049780E-02  0.8262786E+03  0.7818609E-02  0.9522740E-01
       -1   -1    0    0    0  501  0.00000000000E+00  0.00000000000E+00  0.53083878994E+03  0.53083878997E+03  0.50400001928E-02 0. -1.
        1   -1    0    0  501    0  0.00000000000E+00  0.00000000000E+00 -0.32153659786E+03  0.32153659790E+03  0.50400001928E-02 0.  1.
    10030    2    1    2    0    0  0.00000000000E+00  0.00000000000E+00  0.20930219208E+03  0.85237538786E+03  0.82627864200E+03 0.  0.
        5    1    3    3  502    0  0.26665759491E+03  0.25427654282E+03 -0.88062323113E+02  0.37886659381E+03  0.46999998093E+01 0.  1.
       -5    1    3    3    0  502 -0.26665759491E+03 -0.25427654282E+03  0.29736451520E+03  0.47350879406E+03  0.46999998093E+01 0. -1.
</event>
<event>
 5   0  0.1747544E-02  0.8030807E+03  0.7818609E-02  0.9555569E-01
        2   -1    0    0  501    0  0.00000000000E+00  0.00000000000E+00  0.11942736564E+04  0.11942736564E+04  0.25500000920E-02 0. -1.
       -2   -1    0    0    0  501  0.00000000000E+00  0.00000000000E+00 -0.13500645053E+03  0.13500645056E+03  0.25500000920E-02 0.  1.
    10030    2    1    2    0    0  0.00000000000E+00  0.00000000000E+00  0.10592672058E+04  0.13292801069E+04  0.80308068668E+03 0.  0.
        1    1    3    3  502    0 -0.10797225730E+03  0.84350683783E+02 -0.95116353194E+02  0.16679378547E+03  0.50400001928E-02 0.  1.
       -1    1    3    3    0  502  0.10797225730E+03 -0.84350683783E+02  0.11543835590E+04  0.11624863215E+04  0.50400001928E-02 0. -1.
</event>
<event>
 5   0  0.1731337E-02  0.7862127E+03  0.7818609E-02  0.9580191E-01
        2   -1    0    0  501    0  0.00000000000E+00  0.00000000000E+00  0.91562906272E+03  0.91562906272E+03  0.25500000920E-02 0.  1.
       -2   -1    0    0    0  501  0.00000000000E+00  0.00000000000E+00 -0.16877205731E+03  0.16877205733E+03  0.25500000920E-02 0. -1.
    10030    2    1    2    0    0  0.00000000000E+00  0.00000000000E+00  0.74685700541E+03  0.10844011200E+04  0.78621269554E+03 0.  0.
        4    1    3    3  502    0  0.19659500207E+03 -0.20504435763E+03 -0.13636319980E+01  0.28407086410E+03  0.12699999809E+01 0. -1.
       -4    1    3    3    0  502 -0.19659500207E+03  0.20504435763E+03  0.74822063741E+03  0.80033025594E+03  0.12699999809E+01 0.  1.
</event>
<event>
 5   0  0.6872500E-03  0.8922740E+03  0.7818609E-02  0.9435291E-01
       -4   -1    0    0    0  501  0.00000000000E+00  0.00000000000E+00  0.33505556799E+03  0.33505797490E+03  0.12699999809E+01 0.  1.
        4   -1    0    0  501    0  0.00000000000E+00  0.00000000000E+00 -0.59404015434E+03  0.59404151190E+03  0.12699999809E+01 0. -1.
    10030    2    1    2    0    0  0.00000000000E+00  0.00000000000E+00 -0.25898458634E+03  0.92909948680E+03  0.89227397161E+03 0.  0.
        1    1    3    3  502    0 -0.73542016648E+02  0.43068568242E+03 -0.35548911474E+02  0.43836321742E+03  0.50400001928E-02 0.  1.
       -1    1    3    3    0  502  0.73542016648E+02 -0.43068568242E+03 -0.22343567487E+03  0.49073626938E+03  0.50400001928E-02 0. -1.
</event>
<event>
 5   0  0.1146083E-02  0.8137411E+03  0.7818609E-02  0.9540338E-01
        1   -1    0    0  501    0  0.00000000000E+00  0.00000000000E+00  0.33614487448E+03  0.33614487451E+03  0.50400001928E-02 0.  1.
       -1   -1    0    0    0  501  0.00000000000E+00  0.00000000000E+00 -0.49247710440E+03  0.49247710443E+03  0.50400001928E-02 0. -1.
    10030    2    1    2    0    0  0.00000000000E+00  0.00000000000E+00 -0.15633222993E+03  0.82862197894E+03  0.81374112460E+03 0.  0.
        4    1    3    3  502    0 -0.99192085775E+02 -0.36641459922E+02  0.32190582901E+03  0.33883128857E+03  0.12699999809E+01 0.  1.
       -4    1    3    3    0  502  0.99192085775E+02  0.36641459922E+02 -0.47823805893E+03  0.48979069037E+03  0.12699999809E+01 0. -1.
</event>
<event>
 5   0  0.1673727E-02  0.8003639E+03  0.7818609E-02  0.9559490E-01
        2   -1    0    0  501    0  0.00000000000E+00  0.00000000000E+00  0.22090536328E+04  0.22090536328E+04  0.25500000920E-02 0.  1.
       -2   -1    0    0    0  501  0.00000000000E+00  0.00000000000E+00 -0.72495116832E+02  0.72495116877E+02  0.25500000920E-02 0. -1.
    10030    2    1    2    0    0  0.00000000000E+00  0.00000000000E+00  0.21365585159E+04  0.22815487496E+04  0.80036392035E+03 0.  0.
        5    1    3    3  502    0 -0.37120524899E+03 -0.14558402309E+03  0.97222216698E+03  0.10508216198E+04  0.46999998093E+01 0.  1.
       -5    1    3    3    0  502  0.37120524899E+03  0.14558402309E+03  0.11643363489E+04  0.12307271298E+04  0.46999998093E+01 0. -1.
</event>
<event>
 5   0  0.1025900E-02  0.8028859E+03  0.7818609E-02  0.9555849E-01
       -1   -1    0    0    0  501  0.00000000000E+00  0.00000000000E+00  0.45407191149E+03  0.45407191152E+03  0.50400001928E-02 0.  1.
        1   -1    0    0  501    0  0.00000000000E+00  0.00000000000E+00 -0.35491388643E+03  0.35491388646E+03  0.50400001928E-02 0. -1.
    10030    2    1    2    0    0  0.00000000000E+00  0.00000000000E+00  0.99158025063E+02  0.80898579798E+03  0.80288586200E+03 0.  0.
        1    1    3    3  502    0 -0.35763182301E+03  0.15158392830E+03 -0.52572785105E+02  0.39197207287E+03  0.50400001928E-02 0.  1.
       -1    1    3    3    0  502  0.35763182301E+03 -0.15158392830E+03  0.15173081017E+03  0.41701372511E+03  0.50400001928E-02 0. -1.
</event>
<event>
 5   0  0.1673727E-02  0.8011218E+03  0.7818609E-02  0.9558395E-01
       -2   -1    0    0    0  501  0.00000000000E+00  0.00000000000E+00  0.13690646397E+03  0.13690646399E+03  0.25500000920E-02 0. -1.
        2   -1    0    0  501    0  0.00000000000E+00  0.00000000000E+00 -0.11719609028E+04  0.11719609028E+04  0.25500000920E-02 0.  1.
    10030    2    1    2    0    0  0.00000000000E+00  0.00000000000E+00 -0.10350544388E+04  0.13088673668E+04  0.80112177133E+03 0.  0.
        5    1    3    3  502    0  0.31789982121E+03  0.31481714662E+02 -0.91226850867E+03  0.96659573586E+03  0.46999998093E+01 0.  1.
       -5    1    3    3    0  502 -0.31789982121E+03 -0.31481714662E+02 -0.12278593013E+03  0.34227163090E+03  0.46999998093E+01 0. -1.
</event>
<event>
 5   0  0.1038912E-02  0.7952794E+03  0.7818609E-02  0.9566875E-01
        1   -1    0    0  501    0  0.00000000000E+00  0.00000000000E+00  0.71354548646E+03  0.71354548648E+03  0.50400001928E-02 0. -1.
       -1   -1    0    0    0  501  0.00000000000E+00  0.00000000000E+00 -0.22159393134E+03  0.22159393140E+03  0.50400001928E-02 0.  1.
    10030    2    1    2    0    0  0.00000000000E+00  0.00000000000E+00  0.49195155512E+03  0.93513941788E+03  0.79527944667E+03 0.  0.
        2    1    3    3  502    0 -0.70254959549E+02  0.82883525630E+02 -0.20380039772E+03  0.23095462818E+03  0.25500000920E-02 0.  1.
       -2    1    3    3    0  502  0.70254959549E+02 -0.82883525630E+02  0.69575195284E+03  0.70418478970E+03  0.25500000920E-02 0. -1.
</event>
<event>
 5   0  0.1747544E-02  0.7033287E+03  0.7818609E-02  0.9711557E-01
        2   -1    0    0  501    0  0.00000000000E+00  0.00000000000E+00  0.14839815644E+04  0.14839815644E+04  0.25500000920E-02 0. -1.
       -2   -1    0    0    0  501  0.00000000000E+00  0.00000000000E+00 -0.83335134044E+02  0.83335134083E+02  0.25500000920E-02 0.  1.
    10030    2    1    2    0    0  0.00000000000E+00  0.00000000000E+00  0.14006464303E+04  0.15673166985E+04  0.70332866462E+03 0.  0.
        1    1    3    3  502    0  0.13830783124E+03 -0.31896255658E+03  0.58237153382E+03  0.67824978592E+03  0.50400001928E-02 0.  1.
       -1    1    3    3    0  502 -0.13830783124E+03  0.31896255658E+03  0.81827489651E+03  0.88906691254E+03  0.50400001928E-02 0. -1.
</event>
<event>
 5   0  0.1817089E-02  0.7902193E+03  0.7818609E-02  0.9574283E-01
       -2   -1    0    0    0  501  0.00000000000E+00  0.00000000000E+00  0.54482595050E+03  0.54482595050E+03  0.25500000920E-02 0.  1.
        2   -1    0    0  501    0  0.00000000000E+00  0.00000000000E+00 -0.28653487126E+03  0.28653487127E+03  0.25500000920E-02 0. -1.
    10030    2    1    2    0    0  0.00000000000E+00  0.00000000000E+00  0.25829107923E+03  0.83136082178E+03  0.79021929512E+03 0.  0.
        2    1    3    3  502    0  0.26747133575E+03 -0.19986513804E+03  0.35138916367E+03  0.48472810234E+03  0.25500000920E-02 0.  1.
       -2    1    3    3    0  502 -0.26747133575E+03  0.19986513804E+03 -0.93098084434E+02  0.34663271943E+03  0.25500000920E-02 0. -1.
</event>
<event>
 5   0  0.6872500E-03  0.7809899E+03  0.7818609E-02  0.9587948E-01
       -3   -1    0    0    0  501  0.00000000000E+00  0.00000000000E+00  0.13148389864E+03  0.13148393743E+03  0.10100000352E+00 0.  1.
        3   -1    0    0  501    0  0.00000000000E+00  0.00000000000E+00 -0.11597334836E+04  0.11597334880E+04  0.10100000352E+00 0. -1.
    10030    2    1    2    0    0  0.00000000000E+00  0.00000000000E+00 -0.10282495849E+04  0.12912174254E+04  0.78098990439E+03 0.  0.
        2    1    3    3  502    0  0.15332032956E+03  0.31058298598E+03 -0.81225900645E+03  0.88302525910E+03  0.25500000920E-02 0. -1.
       -2    1    3    3    0  502 -0.15332032956E+03 -0.31058298598E+03 -0.21599057849E+03  0.40819216631E+03  0.25500000920E-02 0.  1.
</event>
<event>
 5   0  0.1146083E-02  0.7991872E+03  0.7818609E-02  0.9561194E-01
       -1   -1    0    0    0  501  0.00000000000E+00  0.00000000000E+00  0.60805408811E+03  0.60805408813E+03  0.50400001928E-02 0. -1.
        1   -1    0    0  501    0  0.00000000000E+00  0.00000000000E+00 -0.26260009431E+03  0.26260009436E+03  0.50400001928E-02 0.  1.
    10030    2    1    2    0    0  0.00000000000E+00  0.00000000000E+00  0.34545399380E+03  0.87065418249E+03  0.79918723942E+03 0.  0.
        4    1    3    3  502    0 -0.14062544917E+03 -0.12670761070E+02  0.57996983208E+03  0.59691095162E+03  0.12699999809E+01 0. -1.
       -4    1    3    3    0  502  0.14062544917E+03  0.12670761070E+02 -0.23451583828E+03  0.27374323087E+03  0.12699999809E+01 0.  1.
</event>
<event>
 5   0  0.6872500E-03  0.7960895E+03  0.7818609E-02  0.9565695E-01
       -3   -1    0    0    0  501  0.00000000000E+00  0.00000000000E+00  0.36889854954E+03  0.36889856337E+03  0.10100000352E+00 0.  1.
        3   -1    0    0  501    0  0.00000000000E+00  0.00000000000E+00 -0.42949369354E+03  0.42949370541E+03  0.10100000352E+00 0. -1.
    10030    2    1    2    0    0  0.00000000000E+00  0.00000000000E+00 -0.60595143998E+02  0.79839226878E+03  0.79608946945E+03 0.  0.
        1    1    3    3  502    0  0.10084002397E+03 -0.17830375625E+03 -0.37257451684E+03  0.42517374160E+03  0.50400001928E-02 0. -1.
       -1    1    3    3    0  502 -0.10084002397E+03  0.17830375625E+03  0.31197937284E+03  0.37321852718E+03  0.50400001928E-02 0.  1.
</event>
<event>
 5   0  0.1731337E-02  0.7918642E+03  0.7818609E-02  0.9571868E-01
       -2   -1    0    0    0  501  0.00000000000E+00  0.00000000000E+00  0.85337182496E+02  0.85337182534E+02  0.25500000920E-02 0.  1.
        2   -1    0    0  501    0  0.00000000000E+00  0.00000000000E+00 -0.18369747052E+04  0.18369747052E+04  0.25500000920E-02 0. -1.
    10030    2    1    2    0    0  0.00000000000E+00  0.00000000000E+00 -0.17516375227E+04  0.19223118878E+04  0.79186424518E+03 0.  0.
        4    1    3    3  502    0 -0.12444809120E+02 -0.34050810722E+03 -0.13653233230E+04  0.14071993581E+04  0.12699999809E+01 0. -1.
       -4    1    3    3    0  502  0.12444809120E+02  0.34050810722E+03 -0.38631419978E+03  0.51511252966E+03  0.12699999809E+01 0.  1.
</event>
<event>
 5   0  0.1673727E-02  0.8024349E+03  0.7818609E-02  0.9556499E-01
        2   -1    0    0  501    0  0.00000000000E+00  0.00000000000E+00  0.24395691093E+04  0.24395691093E+04  0.25500000920E-02 0.  1.
       -2   -1    0    0    0  501  0.00000000000E+00  0.00000000000E+00 -0.65985198398E+02  0.65985198447E+02  0.25500000920E-02 0. -1.
    10030    2    1    2    0    0  0.00000000000E+00  0.00000000000E+00  0.23735839109E+04  0.25055543077E+04  0.80243492383E+03 0.  0.
        5    1    3    3  502    0  0.20648402760E+03 -0.21787095287E+03  0.20179120658E+04  0.20401212222E+04  0.46999998093E+01 0.  1.
       -5    1    3    3    0  502 -0.20648402760E+03  0.21787095287E+03  0.35567184504E+03  0.46543308554E+03  0.46999998093E+01 0. -1.
</event>
<event>
 5   0  0.1025900E-02  0.7971347E+03  0.7818609E-02  0.9564174E-01
        1   -1    0    0  501    0  0.00000000000E+00  0.00000000000E+00  0.48843426459E+03  0.48843426462E+03  0.50400001928E-02 0. -1.
       -1   -1    0    0    0  501  0.00000000000E+00  0.00000000000E+00 -0.32523505998E+03  0.32523506002E+03  0.50400001928E-02 0.  1.
    10030    2    1    2    0    0  0.00000000000E+00  0.00000000000E+00  0.16319920461E+03  0.81366932464E+03  0.79713473734E+03 0.  0.
        1    1    3    3  502    0 -0.50103386810E+01  0.83449024944E+02 -0.31618508783E+03  0.32705023016E+03  0.50400001928E-02 0.  1.
       -1    1    3    3    0  502  0.50103386810E+01 -0.83449024944E+02  0.47938429243E+03  0.48661909448E+03  0.50400001928E-02 0. -1.
</event>
<event>
 5   0  0.1731337E-02  0.7942030E+03  0.7818609E-02  0.9568446E-01
        2   -1    0    0  501    0  0.00000000000E+00  0.00000000000E+00  0.96845369480E+03  0.96845369480E+03  0.25500000920E-02 0. -1.
       -2   -1    0    0    0  501  0.00000000000E+00  0.00000000000E+00 -0.16282615028E+03  0.16282615030E+03  0.25500000920E-02 0.  1.
    10030    2    1    2    0    0  0.00000000000E+00  0.00000000000E+00  0.80562754452E+03  0.11312798451E+04  0.79420296362E+03 0.  0.
        4    1    3    3  502    0  0.28112577953E+03 -0.47921744263E+02  0.79642807471E+03  0.84594768667E+03  0.12699999809E+01 0. -1.
       -4    1    3    3    0  502 -0.28112577953E+03  0.47921744263E+02  0.91994698108E+01  0.28533215843E+03  0.12699999809E+01 0.  1.
</event>
<event>
 5   0  0.6872500E-03  0.8023742E+03  0.7818609E-02  0.9556587E-01
        3   -1    0    0  501    0  0.00000000000E+00  0.00000000000E+00  0.31270459329E+03  0.31270460960E+03  0.10100000352E+00 0.  1.
       -3   -1    0    0    0  501  0.00000000000E+00  0.00000000000E+00 -0.51470641929E+03  0.51470642920E+03  0.10100000352E+00 0. -1.
    10030    2    1    2    0    0  0.00000000000E+00  0.00000000000E+00 -0.20200182600E+03  0.82741103879E+03  0.80237415799E+03 0.  0.
        1    1    3    3  502    0 -0.37904933196E+03 -0.13118543356E+03 -0.10918962272E+03  0.41570468817E+03  0.50400001928E-02 0.  1.
       -1    1    3    3    0  502  0.37904933196E+03  0.13118543356E+03 -0.92812203279E+02  0.41170635062E+03  0.50400001928E-02 0. -1.
</event>
<event>
 5   0  0.1030323E-02  0.7931820E+03  0.7818609E-02  0.9569939E-01
        1   -1    0    0  501    0  0.00000000000E+00  0.00000000000E+00  0.10677047141E+04  0.10677047141E+04  0.50400001928E-02 0. -1.
       -1   -1    0    0    0  501  0.00000000000E+00  0.00000000000E+00 -0.14731080142E+03  0.14731080151E+03  0.50400001928E-02 0.  1.
    10030    2    1    2    0    0  0.00000000000E+00  0.00000000000E+00  0.92039391267E+03  0.12150155156E+04  0.79318204007E+03 0.  0.
        3    1    3    3  502    0 -0.34792502898E+03  0.10047398317E+02  0.75137113229E+03  0.82807690744E+03  0.10100000352E+00 0. -1.
       -3    1    3    3    0  502  0.34792502898E+03 -0.10047398317E+02  0.16902278039E+03  0.38693860817E+03  0.10100000352E+00 0.  1.
</event>
<event>
 5   0  0.1038912E-02  0.8090558E+03  0.7818609E-02  0.9547001E-01
       -1   -1    0    0    0  501  0.00000000000E+00  0.00000000000E+00  0.25660069612E+03  0.25660069617E+03  0.50400001928E-02 0. -1.
        1   -1    0    0  501    0  0.00000000000E+00  0.00000000000E+00 -0.63773331723E+03  0.63773331725E+03  0.50400001928E-02 0.  1.
    10030    2    1    2    0    0  0.00000000000E+00  0.00000000000E+00 -0.38113262111E+03  0.89433401342E+03  0.80905577848E+03 0.  0.
        2    1    3    3  502    0  0.15703619125E+03 -0.23648832058E+03  0.12800456062E+03  0.31140369086E+03  0.25500000920E-02 0. -1.
       -2    1    3    3    0  502 -0.15703619125E+03  0.23648832058E+03 -0.50913718173E+03  0.58293032256E+03  0.25500000920E-02 0.  1.
</event>
<event>
 5   0  0.1038912E-02  0.8022372E+03  0.7818609E-02  0.9556784E-01
       -1   -1    0    0    0  501  0.00000000000E+00  0.00000000000E+00  0.73938031319E+03  0.73938031320E+03  0.50400001928E-02 0.  1.
        1   -1    0    0  501    0  0.00000000000E+00  0.00000000000E+00 -0.21760944654E+03  0.21760944660E+03  0.50400001928E-02 0. -1.
    10030    2    1    2    0    0  0.00000000000E+00  0.00000000000E+00  0.52177086665E+03  0.95698975980E+03  0.80223722369E+03 0.  0.
        2    1    3    3  502    0 -0.33360250388E+03 -0.12959141367E+02  0.52612178334E+03  0.62310729482E+03  0.25500000920E-02 0.  1.
       -2    1    3    3    0  502  0.33360250388E+03  0.12959141367E+02 -0.43509166976E+01  0.33388246498E+03  0.25500000920E-02 0. -1.
</event>
<event>
 5   0  0.1025900E-02  0.7649340E+03  0.7818609E-02  0.9612208E-01
        1   -1    0    0  501    0  0.00000000000E+00  0.00000000000E+00  0.28857272774E+03  0.28857272779E+03  0.50400001928E-02 0.  1.
       -1   -1    0    0    0  501  0.00000000000E+00  0.00000000000E+00 -0.50691210671E+03  0.50691210673E+03  0.50400001928E-02 0. -1.
    10030    2    1    2    0    0  0.00000000000E+00  0.00000000000E+00 -0.21833937896E+03  0.79548483452E+03  0.76493400862E+03 0.  0.
        1    1    3    3  502    0 -0.23246846714E+03  0.17202499392E+03 -0.36945967487E+03  0.46918507876E+03  0.50400001928E-02 0. -1.
       -1    1    3    3    0  502  0.23246846714E+03 -0.17202499392E+03  0.15112029590E+03  0.32629975576E+03  0.50400001928E-02 0.  1.
</event>
<event>
 5   0  0.1049780E-02  0.8011558E+03  0.7818609E-02  0.9558346E-01
       -1   -1    0    0    0  501  0.00000000000E+00  0.00000000000E+00  0.18397675596E+03  0.18397675603E+03  0.50400001928E-02 0. -1.
        1   -1    0    0  501    0  0.00000000000E+00  0.00000000000E+00 -0.87218985117E+03  0.87218985119E+03  0.50400001928E-02 0.  1.
    10030    2    1    2    0    0  0.00000000000E+00  0.00000000000E+00 -0.68821309521E+03  0.10561666072E+04  0.80115581367E+03 0.  0.
        5    1    3    3  502    0  0.37790792884E+03  0.10660859870E+03 -0.44841738649E+03  0.59605372116E+03  0.46999998093E+01 0.  1.
       -5    1    3    3    0  502 -0.37790792884E+03 -0.10660859870E+03 -0.23979570872E+03  0.46011288606E+03  0.46999998093E+01 0. -1.
</event>
<event>
 5   0  0.1038912E-02  0.8208227E+03  0.7818609E-02  0.9530357E-01
       -1   -1    0    0    0  501  0.00000000000E+00  0.00000000000E+00  0.10149293620E+04  0.10149293620E+04  0.50400001928E-02 0.  1.
        1   -1    0    0  501    0  0.00000000000E+00  0.00000000000E+00 -0.16595980510E+03  0.16595980517E+03  0.50400001928E-02 0. -1.
    10030    2    1    2    0    0  0.00000000000E+00  0.00000000000E+00  0.84896955689E+03  0.11808891672E+04  0.82082270717E+03 0.  0.
        2    1    3    3  502    0 -0.22679336825E+02  0.16071110932E+03 -0.11782729814E+03  0.20056341933E+03  0.25500000920E-02 0. -1.
       -2    1    3    3    0  502  0.22679336825E+02 -0.16071110932E+03  0.96679685503E+03  0.98032574784E+03  0.25500000920E-02 0.  1.
</event>
<event>
 5   0  0.1731337E-02  0.7579349E+03  0.7818609E-02  0.9622983E-01
        2   -1    0    0  501    0  0.00000000000E+00  0.00000000000E+00  0.10566296737E+04  0.10566296737E+04  0.25500000920E-02 0. -1.
       -2   -1    0    0    0  501  0.00000000000E+00  0.00000000000E+00 -0.13591924911E+03  0.13591924913E+03  0.25500000920E-02 0.  1.
    10030    2    1    2    0    0  0.00000000000E+00  0.00000000000E+00  0.92071042462E+03  0.11925489229E+04  0.75793485698E+03 0.  0.
        4    1    3    3  502    0 -0.11933431403E+03 -0.30195765327E+03  0.15285107026E+03  0.35886510760E+03  0.12699999809E+01 0.  1.
       -4    1    3    3    0  502  0.11933431403E+03  0.30195765327E+03  0.76785935436E+03  0.83368381527E+03  0.12699999809E+01 0. -1.
</event>
<event>
 5   0  0.1731337E-02  0.8029936E+03  0.7818609E-02  0.9555694E-01
       -2   -1    0    0    0  501  0.00000000000E+00  0.00000000000E+00  0.40758022754E+03  0.40758022755E+03  0.25500000920E-02 0.  1.
        2   -1    0    0  501    0  0.00000000000E+00  0.00000000000E+00 -0.39550420569E+03  0.39550420569E+03  0.25500000920E-02 0. -1.
    10030    2    1    2    0    0  0.00000000000E+00  0.00000000000E+00  0.12076021857E+02  0.80308443325E+03  0.80299363423E+03 0.  0.
        4    1    3    3  502    0 -0.34553171280E+03  0.20432784630E+03 -0.14493525256E+01  0.40142962875E+03  0.12699999809E+01 0.  1.
       -4    1    3    3    0  502  0.34553171280E+03 -0.20432784630E+03  0.13525374383E+02  0.40165480449E+03  0.12699999809E+01 0. -1.
</event>
<event>
 5   0  0.1747544E-02  0.8040402E+03  0.7818609E-02  0.9554187E-01
        2   -1    0    0  501    0  0.00000000000E+00  0.00000000000E+00  0.42361671559E+03  0.42361671560E+03  0.25500000920E-02 0.  1.
       -2   -1    0    0    0  501  0.00000000000E+00  0.00000000000E+00 -0.38152449175E+03  0.38152449176E+03  0.25500000920E-02 0. -1.
    10030    2    1    2    0    0  0.00000000000E+00  0.00000000000E+00  0.42092223839E+02  0.80514120736E+03  0.80404017840E+03 0.  0.
        1    1    3    3  502    0  0.21319703271E+03  0.11588413935E+03 -0.29992056726E+03  0.38579068833E+03  0.50400001928E-02 0. -1.
       -1    1    3    3    0  502 -0.21319703271E+03 -0.11588413935E+03  0.34201279110E+03  0.41935051903E+03  0.50400001928E-02 0.  1.
</event>
<event>
 5   0  0.1146083E-02  0.7914075E+03  0.7818609E-02  0.9572538E-01
       -1   -1    0    0    0  501  0.00000000000E+00  0.00000000000E+00  0.47944535740E+03  0.47944535743E+03  0.50400001928E-02 0. -1.
        1   -1    0    0  501    0  0.00000000000E+00  0.00000000000E+00 -0.32658874896E+03  0.32658874900E+03  0.50400001928E-02 0.  1.
    10030    2    1    2    0    0  0.00000000000E+00  0.00000000000E+00  0.15285660844E+03  0.80603410643E+03  0.79140750437E+03 0.  0.
        4    1    3    3  502    0  0.36859959052E+03 -0.11335816027E+03 -0.13890506256E+02  0.38588896032E+03  0.12699999809E+01 0.  1.
       -4    1    3    3    0  502 -0.36859959052E+03  0.11335816027E+03  0.16674711470E+03  0.42014514610E+03  0.12699999809E+01 0. -1.
</event>
<event>
 5   0  0.1146083E-02  0.8021661E+03  0.7818609E-02  0.9556887E-01
       -1   -1    0    0    0  501  0.00000000000E+00  0.00000000000E+00  0.20518214444E+03  0.20518214451E+03  0.50400001928E-02 0. -1.
        1   -1    0    0  501    0  0.00000000000E+00  0.00000000000E+00 -0.78402349179E+03  0.78402349181E+03  0.50400001928E-02 0.  1.
    10030    2    1    2    0    0  0.00000000000E+00  0.00000000000E+00 -0.57884134735E+03  0.98920563632E+03  0.80216612090E+03 0.  0.
        4    1    3    3  502    0 -0.45553553729E+02  0.37596762923E+03 -0.12657139310E+03  0.39931029907E+03  0.12699999809E+01 0.  1.
       -4    1    3    3    0  502  0.45553553729E+02 -0.37596762923E+03 -0.45226995425E+03  0.58989533725E+03  0.12699999809E+01 0. -1.
</event>
<event>
 5   0  0.1673727E-02  0.7981194E+03  0.7818609E-02  0.9562743E-01
       -2   -1    0    0    0  501  0.00000000000E+00  0.00000000000E+00  0.61480788392E+02  0.61480788445E+02  0.25500000920E-02 0.  1.
        2   -1    0    0  501    0  0.00000000000E+00  0.00000000000E+00 -0.25902177115E+04  0.25902177115E+04  0.25500000920E-02 0. -1.
    10030    2    1    2    0    0  0.00000000000E+00  0.00000000000E+00 -0.25287369231E+04  0.26516985000E+04  0.79811935720E+03 0.  0.
        5    1    3    3  502    0 -0.37963416839E+03  0.27358543527E+02 -0.16624501470E+04  0.17054715397E+04  0.46999998093E+01 0. -1.
       -5    1    3    3    0  502  0.37963416839E+03 -0.27358543527E+02 -0.86628677618E+03  0.94622696025E+03  0.46999998093E+01 0.  1.
</event>
<event>
 5   0  0.1049780E-02  0.7799610E+03  0.7818609E-02  0.9589484E-01
       -1   -1    0    0    0  501  0.00000000000E+00  0.00000000000E+00  0.22206838707E+03  0.22206838713E+03  0.50400001928E-02 0. -1.
        1   -1    0    0  501    0  0.00000000000E+00  0.00000000000E+00 -0.68485564091E+03  0.68485564093E+03  0.50400001928E-02 0.  1.
    10030    2    1    2    0    0  0.00000000000E+00  0.00000000000E+00 -0.46278725384E+03  0.90692402806E+03  0.77996099284E+03 0.  0.
        5    1    3    3  502    0 -0.20173894521E+02 -0.14406218058E+03 -0.65209200100E+03  0.66813693631E+03  0.46999998093E+01 0.  1.
       -5    1    3    3    0  502  0.20173894521E+02  0.14406218058E+03  0.18930474716E+03  0.23878709175E+03  0.46999998093E+01 0. -1.
</event>
<event>
 5   0  0.1049780E-02  0.8002708E+03  0.7818609E-02  0.9559625E-01
       -1   -1    0    0    0  501  0.00000000000E+00  0.00000000000E+00  0.52337108766E+03  0.52337108768E+03  0.50400001928E-02 0.  1.
        1   -1    0    0  501    0  0.00000000000E+00  0.00000000000E+00 -0.30591744568E+03  0.30591744572E+03  0.50400001928E-02 0. -1.
    10030    2    1    2    0    0  0.00000000000E+00  0.00000000000E+00  0.21745364198E+03  0.82928853340E+03  0.80027081993E+03 0.  0.
        5    1    3    3  502    0 -0.95177037200E+02 -0.36739217895E+03 -0.22557835766E+02  0.38021918352E+03  0.46999998093E+01 0. -1.
       -5    1    3    3    0  502  0.95177037200E+02  0.36739217895E+03  0.24001147774E+03  0.44906934989E+03  0.46999998093E+01 0.  1.
</event>
<event>
 5   0  0.1817089E-02  0.7997099E+03  0.7818609E-02  0.9560437E-01
       -2   -1    0    0    0  501  0.00000000000E+00  0.00000000000E+00  0.12893252357E+04  0.12893252357E+04  0.25500000920E-02 0. -1.
        2   -1    0    0  501    0  0.00000000000E+00  0.00000000000E+00 -0.12400594338E+03  0.12400594340E+03  0.25500000920E-02 0.  1.
    10030    2    1    2    0    0  0.00000000000E+00  0.00000000000E+00  0.11653192923E+04  0.14133311791E+04  0.79970992790E+03 0.  0.
        2    1    3    3  502    0 -0.37366963571E+03  0.30565060940E+02  0.82831356503E+03  0.90921206636E+03  0.25500000920E-02 0. -1.
       -2    1    3    3    0  502  0.37366963571E+03 -0.30565060940E+02  0.33700572729E+03  0.50411911275E+03  0.25500000920E-02 0.  1.
</event>
<event>
 5   0  0.1030323E-02  0.7790710E+03  0.7818609E-02  0.9590815E-01
       -1   -1    0    0    0  501  0.00000000000E+00  0.00000000000E+00  0.35135205682E+03  0.35135205685E+03  0.50400001928E-02 0.  1.
        1   -1    0    0  501    0  0.00000000000E+00  0.00000000000E+00 -0.43186856394E+03  0.43186856397E+03  0.50400001928E-02 0. -1.
    10030    2    1    2    0    0  0.00000000000E+00  0.00000000000E+00 -0.80516507126E+02  0.78322062082E+03  0.77907100637E+03 0.  0.
        3    1    3    3  502    0 -0.59768453759E+02 -0.34246248794E+03  0.13641930793E+03  0.37344753512E+03  0.10100000352E+00 0.  1.
       -3    1    3    3    0  502  0.59768453759E+02  0.34246248794E+03 -0.21693581505E+03  0.40977308570E+03  0.10100000352E+00 0. -1.
</event>
<event>
 5   0  0.1818665E-02  0.7996429E+03  0.7818609E-02  0.9560534E-01
        2   -1    0    0  501    0  0.00000000000E+00  0.00000000000E+00  0.63910908238E+03  0.63910908239E+03  0.25500000920E-02 0.  1.
       -2   -1    0    0    0  501  0.00000000000E+00  0.00000000000E+00 -0.25012507486E+03  0.25012507487E+03  0.25500000920E-02 0. -1.
    10030    2    1    2    0    0  0.00000000000E+00  0.00000000000E+00  0.38898400752E+03  0.88923415726E+03  0.79964293802E+03 0.  0.
        3    1    3    3  502    0 -0.71645291247E+02 -0.21514791720E+03 -0.17169743883E+03  0.28443223223E+03  0.10100000352E+00 0. -1.
       -3    1    3    3    0  502  0.71645291247E+02  0.21514791720E+03  0.56068144635E+03  0.60480192503E+03  0.10100000352E+00 0.  1.
</event>
<event>
 5   0  0.6872500E-03  0.8202601E+03  0.7818609E-02  0.9531146E-01
        3   -1    0    0  501    0  0.00000000000E+00  0.00000000000E+00  0.40889108805E+03  0.40889110052E+03  0.10100000352E+00 0. -1.
       -3   -1    0    0    0  501  0.00000000000E+00  0.00000000000E+00 -0.41137273092E+03  0.41137274332E+03  0.10100000352E+00 0.  1.
    10030    2    1    2    0    0  0.00000000000E+00  0.00000000000E+00 -0.24816428777E+01  0.82026384384E+03  0.82026008983E+03 0.  0.
        1    1    3    3  502    0  0.17104809683E+03  0.21831948065E+03 -0.30337761532E+03  0.41104601271E+03  0.50400001928E-02 0.  1.
       -1    1    3    3    0  502 -0.17104809683E+03 -0.21831948065E+03  0.30089597244E+03  0.40921783113E+03  0.50400001928E-02 0. -1.
</event>
<event>
 5   0  0.1731337E-02  0.7977052E+03  0.7818609E-02  0.9563345E-01
        2   -1    0    0  501    0  0.00000000000E+00  0.00000000000E+00  0.42290408942E+03  0.42290408943E+03  0.25500000920E-02 0.  1.
       -2   -1    0    0    0  501  0.00000000000E+00  0.00000000000E+00 -0.37616893090E+03  0.37616893091E+03  0.25500000920E-02 0. -1.
    10030    2    1    2    0    0  0.00000000000E+00  0.00000000000E+00  0.46735158526E+02  0.79907302034E+03  0.79770515655E+03 0.  0.
        4    1    3    3  502    0  0.30283859935E+03  0.23322980558E+03  0.13746815189E+03  0.40620987820E+03  0.12699999809E+01 0.  1.
       -4    1    3    3    0  502 -0.30283859935E+03 -0.23322980558E+03 -0.90732993359E+02  0.39286314214E+03  0.12699999809E+01 0. -1.
</event>
<event>
 5   0  0.1731337E-02  0.7880041E+03  0.7818609E-02  0.9577545E-01
       -2   -1    0    0    0  501  0.00000000000E+00  0.00000000000E+00  0.16565496471E+03  0.16565496473E+03  0.25500000920E-02 0.  1.
        2   -1    0    0  501    0  0.00000000000E+00  0.00000000000E+00 -0.93711421166E+03  0.93711421166E+03  0.25500000920E-02 0. -1.
    10030    2    1    2    0    0  0.00000000000E+00  0.00000000000E+00 -0.77145924695E+03  0.11027691764E+04  0.78800411592E+03 0.  0.
        4    1    3    3  502    0 -0.14535600090E+03  0.18980259873E+03 -0.82401012647E+03  0.85799049815E+03  0.12699999809E+01 0. -1.
       -4    1    3    3    0  502  0.14535600090E+03 -0.18980259873E+03  0.52550879528E+02  0.24477867824E+03  0.12699999809E+01 0.  1.
</event>
<event>
 5   0  0.1038912E-02  0.8039874E+03  0.7818609E-02  0.9554263E-01
       -1   -1    0    0    0  501  0.00000000000E+00  0.00000000000E+00  0.49474792713E+03  0.49474792715E+03  0.50400001928E-02 0.  1.
        1   -1    0    0  501    0  0.00000000000E+00  0.00000000000E+00 -0.32662879782E+03  0.32662879786E+03  0.50400001928E-02 0. -1.
    10030    2    1    2    0    0  0.00000000000E+00  0.00000000000E+00  0.16811912930E+03  0.82137672501E+03  0.80398736480E+03 0.  0.
        2    1    3    3  502    0 -0.26672403541E+03  0.27181836942E+03 -0.47456988139E+02  0.38376959592E+03  0.25500000920E-02 0. -1.
       -2    1    3    3    0  502  0.26672403541E+03 -0.27181836942E+03  0.21557611744E+03  0.43760712910E+03  0.25500000920E-02 0.  1.
</event>
<event>
 5   0  0.1747544E-02  0.8123634E+03  0.7818609E-02  0.9542292E-01
       -2   -1    0    0    0  501  0.00000000000E+00  0.00000000000E+00  0.35867279708E+03  0.35867279709E+03  0.25500000920E-02 0. -1.
        2   -1    0    0  501    0  0.00000000000E+00  0.00000000000E+00 -0.45998355540E+03  0.45998355541E+03  0.25500000920E-02 0.  1.
    10030    2    1    2    0    0  0.00000000000E+00  0.00000000000E+00 -0.10131075832E+03  0.81865635250E+03  0.81236343698E+03 0.  0.
        1    1    3    3  502    0  0.37397549623E+03  0.25905521241E+02 -0.20824714010E+03  0.42883054835E+03  0.50400001928E-02 0.  1.
       -1    1    3    3    0  502 -0.37397549623E+03 -0.25905521241E+02  0.10693638177E+03  0.38982580415E+03  0.50400001928E-02 0. -1.
</event>
<event>
 5   0  0.1025900E-02  0.8041034E+03  0.7818609E-02  0.9554097E-01
       -1   -1    0    0    0  501  0.00000000000E+00  0.00000000000E+00  0.32205928508E+03  0.32205928512E+03  0.50400001928E-02 0. -1.
        1   -1    0    0  501    0  0.00000000000E+00  0.00000000000E+00 -0.50191247164E+03  0.50191247167E+03  0.50400001928E-02 0.  1.
    10030    2    1    2    0    0  0.00000000000E+00  0.00000000000E+00 -0.17985318656E+03  0.82397175679E+03  0.80410340583E+03 0.  0.
        1    1    3    3  502    0  0.34969793096E+03  0.34334535557E+02 -0.29014656732E+03  0.45568907580E+03  0.50400001928E-02 0. -1.
       -1    1    3    3    0  502 -0.34969793096E+03 -0.34334535557E+02  0.11029338076E+03  0.36828268099E+03  0.50400001928E-02 0.  1.
</event>
<event>
 5   0  0.1049780E-02  0.8094564E+03  0.7818609E-02  0.9546429E-01
       -1   -1    0    0    0  501  0.00000000000E+00  0.00000000000E+00  0.18907020593E+03  0.18907020600E+03  0.50400001928E-02 0.  1.
        1   -1    0    0  501    0  0.00000000000E+00  0.00000000000E+00 -0.86637081396E+03  0.86637081397E+03  0.50400001928E-02 0. -1.
    10030    2    1    2    0    0  0.00000000000E+00  0.00000000000E+00 -0.67730060802E+03  0.10554410200E+04  0.80945638116E+03 0.  0.
        5    1    3    3  502    0 -0.14738924943E+03 -0.26678667775E+03  0.84978982291E+01  0.30494757999E+03  0.46999998093E+01 0.  1.
       -5    1    3    3    0  502  0.14738924943E+03  0.26678667775E+03 -0.68579850625E+03  0.75049343998E+03  0.46999998093E+01 0. -1.
</event>
<event>
 5   0  0.1747544E-02  0.8127650E+03  0.7818609E-02  0.9541722E-01
        2   -1    0    0  501    0  0.00000000000E+00  0.00000000000E+00  0.43963925489E+03  0.43963925490E+03  0.25500000920E-02 0.  1.
       -2   -1    0    0    0  501  0.00000000000E+00  0.00000000000E+00 -0.37564146878E+03  0.37564146879E+03  0.25500000920E-02 0. -1.
    10030    2    1    2    0    0  0.00000000000E+00  0.00000000000E+00  0.63997786107E+02  0.81528072369E+03  0.81276499789E+03 0.  0.
        1    1    3    3  502    0 -0.78333578032E+02  0.39565042397E+03 -0.17867433412E+02  0.40372596230E+03  0.50400001928E-02 0.  1.
       -1    1    3    3    0  502  0.78333578032E+02 -0.39565042397E+03  0.81865219519E+02  0.41155476139E+03  0.50400001928E-02 0. -1.
</event>
<event>
 5   0  0.1049780E-02  0.7817629E+03  0.7818609E-02  0.9586796E-01
        1   -1    0    0  501    0  0.00000000000E+00  0.00000000000E+00  0.20732457247E+03  0.20732457253E+03  0.50400001928E-02 0.  1.
       -1   -1    0    0    0  501  0.00000000000E+00  0.00000000000E+00 -0.73695215196E+03  0.73695215198E+03  0.50400001928E-02 0. -1.
    10030    2    1    2    0    0  0.00000000000E+00  0.00000000000E+00 -0.52962757950E+03  0.94427672451E+03  0.78176285374E+03 0.  0.
        5    1    3    3  502    0  0.10481782612E+03  0.22509668548E+03  0.99780141473E+02  0.26764428093E+03  0.46999998093E+01 0.  1.
       -5    1    3    3    0  502 -0.10481782612E+03 -0.22509668548E+03 -0.62940772097E+03  0.67663244358E+03  0.46999998093E+01 0. -1.
</event>
<event>
 5   0  0.1030323E-02  0.8021317E+03  0.7818609E-02  0.9556937E-01
        1   -1    0    0  501    0  0.00000000000E+00  0.00000000000E+00  0.14320798068E+04  0.14320798069E+04  0.50400001928E-02 0.  1.
       -1   -1    0    0    0  501  0.00000000000E+00  0.00000000000E+00 -0.11232183625E+03  0.11232183637E+03  0.50400001928E-02 0. -1.
    10030    2    1    2    0    0  0.00000000000E+00  0.00000000000E+00  0.13197579706E+04  0.15444016432E+04  0.80213174394E+03 0.  0.
        3    1    3    3  502    0  0.29062902719E+03  0.15741291632E+03  0.22247725625E+03  0.39842213470E+03  0.10100000352E+00 0. -1.
       -3    1    3    3    0  502 -0.29062902719E+03 -0.15741291632E+03  0.10972807143E+04  0.11459795085E+04  0.10100000352E+00 0.  1.
</event>
<event>
 5   0  0.1146083E-02  0.7997280E+03  0.7818609E-02  0.9560411E-01
       -1   -1    0    0    0  501  0.00000000000E+00  0.00000000000E+00  0.18940243116E+03  0.18940243123E+03  0.50400001928E-02 0. -1.
        1   -1    0    0  501    0  0.00000000000E+00  0.00000000000E+00 -0.84418772149E+03  0.84418772151E+03  0.50400001928E-02 0.  1.
    10030    2    1    2    0    0  0.00000000000E+00  0.00000000000E+00 -0.65478529033E+03  0.10335901527E+04  0.79972797088E+03 0.  0.
        4    1    3    3  502    0 -0.19528786490E+03  0.91246133402E+02 -0.76266704586E+03  0.79254390590E+03  0.12699999809E+01 0.  1.
       -4    1    3    3    0  502  0.19528786490E+03 -0.91246133402E+02  0.10788175553E+03  0.24104624684E+03  0.12699999809E+01 0. -1.
</event>
<event>
 5   0  0.1673727E-02  0.7866441E+03  0.7818609E-02  0.9579553E-01
        2   -1    0    0  501    0  0.00000000000E+00  0.00000000000E+00  0.10650540577E+04  0.10650540577E+04  0.25500000920E-02 0. -1.
       -2   -1    0    0    0  501  0.00000000000E+00  0.00000000000E+00 -0.14525295513E+03  0.14525295515E+03  0.25500000920E-02 0.  1.
    10030    2    1    2    0    0  0.00000000000E+00  0.00000000000E+00  0.91980110261E+03  0.12103070129E+04  0.78664413624E+03 0.  0.
        5    1    3    3  502    0 -0.28434649516E+02  0.13169162346E+02  0.10630870821E+04  0.10635592086E+04  0.46999998093E+01 0. -1.
       -5    1    3    3    0  502  0.28434649516E+02 -0.13169162346E+02 -0.14328597951E+03  0.14674780425E+03  0.46999998093E+01 0.  1.
</event>
<event>
 5   0  0.1747544E-02  0.7999967E+03  0.7818609E-02  0.9560022E-01
       -2   -1    0    0    0  501  0.00000000000E+00  0.00000000000E+00  0.99005520134E+02  0.99005520166E+02  0.25500000920E-02 0.  1.
        2   -1    0    0  501    0  0.00000000000E+00  0.00000000000E+00 -0.16160580297E+04  0.16160580297E+04  0.25500000920E-02 0. -1.
    10030    2    1    2    0    0  0.00000000000E+00  0.00000000000E+00 -0.15170525095E+04  0.17150635498E+04  0.79999666455E+03 0.  0.
        1    1    3    3  502    0 -0.68090250691E+02 -0.20712535746E+03 -0.14774683589E+04  0.14934690983E+04  0.50400001928E-02 0. -1.
       -1    1    3    3    0  502  0.68090250691E+02  0.20712535746E+03 -0.39584150607E+02  0.22159445153E+03  0.50400001928E-02 0.  1.
</event>
<event>
 5   0  0.1038912E-02  0.8184596E+03  0.7818609E-02  0.9533675E-01
       -1   -1    0    0    0  501  0.00000000000E+00  0.00000000000E+00  0.89897205225E+02  0.89897205366E+02  0.50400001928E-02 0.  1.
        1   -1    0    0  501    0  0.00000000000E+00  0.00000000000E+00 -0.18628947878E+04  0.18628947878E+04  0.50400001928E-02 0. -1.
    10030    2    1    2    0    0  0.00000000000E+00  0.00000000000E+00 -0.17729975826E+04  0.19527919932E+04  0.81845961463E+03 0.  0.
        2    1    3    3  502    0 -0.31536976440E+02 -0.32576348980E+03 -0.14726460442E+04  0.15085764163E+04  0.25500000920E-02 0. -1.
       -2    1    3    3    0  502  0.31536976440E+02  0.32576348980E+03 -0.30035153837E+03  0.44421557691E+03  0.25500000920E-02 0.  1.
</event>
<event>
 5   0  0.1049780E-02  0.7962480E+03  0.7818609E-02  0.9565464E-01
        1   -1    0    0  501    0  0.00000000000E+00  0.00000000000E+00  0.36912192174E+03  0.36912192177E+03  0.50400001928E-02 0.  1.
       -1   -1    0    0    0  501  0.00000000000E+00  0.00000000000E+00 -0.42940481348E+03  0.42940481351E+03  0.50400001928E-02 0. -1.
    10030    2    1    2    0    0  0.00000000000E+00  0.00000000000E+00 -0.60282891749E+02  0.79852673528E+03  0.79624802664E+03 0.  0.
        5    1    3    3  502    0 -0.15150457041E+03  0.32471022632E+03 -0.20410335445E+03  0.41239621147E+03  0.46999998093E+01 0. -1.
       -5    1    3    3    0  502  0.15150457041E+03 -0.32471022632E+03  0.14382046270E+03  0.38613052382E+03  0.46999998093E+01 0.  1.
</event>
<event>
 5   0  0.1818665E-02  0.8008780E+03  0.7818609E-02  0.9558747E-01
        2   -1    0    0  501    0  0.00000000000E+00  0.00000000000E+00  0.10900442384E+04  0.10900442384E+04  0.25500000920E-02 0. -1.
       -2   -1    0    0    0  501  0.00000000000E+00  0.00000000000E+00 -0.14710540801E+03  0.14710540804E+03  0.25500000920E-02 0.  1.
    10030    2    1    2    0    0  0.00000000000E+00  0.00000000000E+00  0.94293883035E+03  0.12371496464E+04  0.80087802430E+03 0.  0.
        3    1    3    3  502    0  0.23914152133E+03 -0.27896088228E+03  0.22555182589E+03  0.43113974235E+03  0.10100000352E+00 0. -1.
       -3    1    3    3    0  502 -0.23914152133E+03  0.27896088228E+03  0.71738700446E+03  0.80600990406E+03  0.10100000352E+00 0.  1.
</event>
<event>
 5   0  0.1747544E-02  0.8027736E+03  0.7818609E-02  0.9556011E-01
        2   -1    0    0  501    0  0.00000000000E+00  0.00000000000E+00  0.98736307485E+03  0.98736307485E+03  0.25500000920E-02 0. -1.
       -2   -1    0    0    0  501  0.00000000000E+00  0.00000000000E+00 -0.16317339237E+03  0.16317339239E+03  0.25500000920E-02 0.  1.
    10030    2    1    2    0    0  0.00000000000E+00  0.00000000000E+00  0.82418968248E+03  0.11505364672E+04  0.80277364789E+03 0.  0.
        1    1    3    3  502    0 -0.81831655678E+02  0.39169148477E+03  0.45725191202E+03  0.60761661448E+03  0.50400001928E-02 0. -1.
       -1    1    3    3    0  502  0.81831655678E+02 -0.39169148477E+03  0.36693777046E+03  0.54291985277E+03  0.50400001928E-02 0.  1.
</event>
<event>
 5   0  0.6872500E-03  0.7969417E+03  0.7818609E-02  0.9564454E-01
       -3   -1    0    0    0  501  0.00000000000E+00  0.00000000000E+00  0.53650790856E+03  0.53650791806E+03  0.10100000352E+00 0. -1.
        3   -1    0    0  501    0  0.00000000000E+00  0.00000000000E+00 -0.29594903675E+03  0.29594905399E+03  0.10100000352E+00 0.  1.
    10030    2    1    2    0    0  0.00000000000E+00  0.00000000000E+00  0.24055887180E+03  0.83245697205E+03  0.79694167886E+03 0.  0.
        3    1    3    3  502    0 -0.24033940659E+02 -0.20851270247E+03 -0.23352401016E+03  0.31398829742E+03  0.10100000352E+00 0.  1.
       -3    1    3    3    0  502  0.24033940659E+02  0.20851270247E+03  0.47408288197E+03  0.51846867463E+03  0.10100000352E+00 0. -1.
</event>
<event>
 5   0  0.1049780E-02  0.8290338E+03  0.7818609E-02  0.9518917E-01
        1   -1    0    0  501    0  0.00000000000E+00  0.00000000000E+00  0.87894249949E+03  0.87894249950E+03  0.50400001928E-02 0.  1.
       -1   -1    0    0    0  501  0.00000000000E+00  0.00000000000E+00 -0.19548977868E+03  0.19548977874E+03  0.50400001928E-02 0. -1.
    10030    2    1    2    0    0  0.00000000000E+00  0.00000000000E+00  0.68345272081E+03  0.10744322782E+04  0.82903383462E+03 0.  0.
        5    1    3    3  502    0  0.21946123899E+02 -0.24979191156E+03  0.76945633446E+03  0.80929770299E+03  0.46999998093E+01 0.  1.
       -5    1    3    3    0  502 -0.21946123899E+02  0.24979191156E+03 -0.86003613651E+02  0.26513457525E+03  0.46999998093E+01 0. -1.
</event>
<event>
 5   0  0.1038912E-02  0.7905466E+03  0.7818609E-02  0.9573802E-01
       -1   -1    0    0    0  501  0.00000000000E+00  0.00000000000E+00  0.36842756608E+03  0.36842756612E+03  0.50400001928E-02 0. -1.
        1   -1    0    0  501    0  0.00000000000E+00  0.00000000000E+00 -0.42407514283E+03  0.42407514286E+03  0.50400001928E-02 0.  1.
    10030    2    1    2    0    0  0.00000000000E+00  0.00000000000E+00 -0.55647576747E+02  0.79250270898E+03  0.79054657734E+03 0.  0.
        2    1    3    3  502    0 -0.31550498671E+03 -0.14853106275E+03  0.15874448053E+03  0.38315099288E+03  0.25500000920E-02 0.  1.
       -2    1    3    3    0  502  0.31550498671E+03  0.14853106275E+03 -0.21439205728E+03  0.40935171610E+03  0.25500000920E-02 0. -1.
</event>
<event>
 5   0  0.1049780E-02  0.7950556E+03  0.7818609E-02  0.9567202E-01
        1   -1    0    0  501    0  0.00000000000E+00  0.00000000000E+00  0.84683953744E+03  0.84683953745E+03  0.50400001928E-02 0. -1.
       -1   -1    0    0    0  501  0.00000000000E+00  0.00000000000E+00 -0.18660956529E+03  0.18660956536E+03  0.50400001928E-02 0.  1.
    10030    2    1    2    0    0  0.00000000000E+00  0.00000000000E+00  0.66022997215E+03  0.10334491028E+04  0.79505561565E+03 0.  0.
        5    1    3    3  502    0  0.33813876169E+03 -0.20708716219E+03  0.36649562861E+03  0.53996671257E+03  0.46999998093E+01 0.  1.
       -5    1    3    3    0  502 -0.33813876169E+03  0.20708716219E+03  0.29373434354E+03  0.49348239024E+03  0.46999998093E+01 0. -1.
</event>
<event>
 5   0  0.1038912E-02  0.7806250E+03  0.7818609E-02  0.9588493E-01
        1   -1    0    0  501    0  0.00000000000E+00  0.00000000000E+00  0.13950475296E+03  0.13950475305E+03  0.50400001928E-02 0. -1.
       -1   -1    0    0    0  501  0.00000000000E+00  0.00000000000E+00 -0.10920333740E+04  0.10920333740E+04  0.50400001928E-02 0.  1.
    10030    2    1    2    0    0  0.00000000000E+00  0.00000000000E+00 -0.95252862105E+03  0.12315381271E+04  0.78062499609E+03 0.  0.
        2    1    3    3  502    0 -0.49751390773E+02  0.32189464289E+02  0.13236697498E+03  0.14502544110E+03  0.25500000920E-02 0. -1.
       -2    1    3    3    0  502  0.49751390773E+02 -0.32189464289E+02 -0.10848955960E+04  0.10865126860E+04  0.25500000920E-02 0.  1.
</event>
<event>
 5   0  0.1049780E-02  0.7460900E+03  0.7818609E-02  0.9641505E-01
        1   -1    0    0  501    0  0.00000000000E+00  0.00000000000E+00  0.15053922310E+03  0.15053922319E+03  0.50400001928E-02 0. -1.
       -1   -1    0    0    0  501  0.00000000000E+00  0.00000000000E+00 -0.92442722542E+03  0.92442722543E+03  0.50400001928E-02 0.  1.
    10030    2    1    2    0    0  0.00000000000E+00  0.00000000000E+00 -0.77388800232E+03  0.10749664486E+04  0.74608995806E+03 0.  0.
        5    1    3    3  502    0  0.55028549141E+01  0.29958700074E+03 -0.70704105219E+03  0.76792694438E+03  0.46999998093E+01 0.  1.
       -5    1    3    3    0  502 -0.55028549141E+01 -0.29958700074E+03 -0.66846950127E+02  0.30703950424E+03  0.46999998093E+01 0. -1.
</event>
<event>
 5   0  0.6872500E-03  0.8094099E+03  0.7818609E-02  0.9546496E-01
       -4   -1    0    0    0  501  0.00000000000E+00  0.00000000000E+00  0.38334045505E+03  0.38334255879E+03  0.12699999809E+01 0.  1.
        4   -1    0    0  501    0  0.00000000000E+00  0.00000000000E+00 -0.42725596899E+03  0.42725785649E+03  0.12699999809E+01 0. -1.
    10030    2    1    2    0    0  0.00000000000E+00  0.00000000000E+00 -0.43915513936E+02  0.81060041529E+03  0.80940994613E+03 0.  0.
        3    1    3    3  502    0 -0.37806733538E+03 -0.13566544944E+03  0.27572853605E+02  0.40261681126E+03  0.10100000352E+00 0. -1.
       -3    1    3    3    0  502  0.37806733538E+03  0.13566544944E+03 -0.71488367541E+02  0.40798360402E+03  0.10100000352E+00 0.  1.
</event>
<event>
 5   0  0.1818665E-02  0.8742491E+03  0.7818609E-02  0.9458356E-01
        2   -1    0    0  501    0  0.00000000000E+00  0.00000000000E+00  0.18220590957E+04  0.18220590957E+04  0.25500000920E-02 0.  1.
       -2   -1    0    0    0  501  0.00000000000E+00  0.00000000000E+00 -0.10486919263E+03  0.10486919266E+03  0.25500000920E-02 0. -1.
    10030    2    1    2    0    0  0.00000000000E+00  0.00000000000E+00  0.17171899031E+04  0.19269282884E+04  0.87424908653E+03 0.  0.
        3    1    3    3  502    0  0.17995362956E+03 -0.11660320900E+03  0.19016205172E+02  0.21527016374E+03  0.10100000352E+00 0. -1.
       -3    1    3    3    0  502 -0.17995362956E+03  0.11660320900E+03  0.16981736979E+04  0.17116581246E+04  0.10100000352E+00 0.  1.
</event>
<event>
 5   0  0.1817089E-02  0.8204130E+03  0.7818609E-02  0.9530931E-01
       -2   -1    0    0    0  501  0.00000000000E+00  0.00000000000E+00  0.15359989150E+03  0.15359989152E+03  0.25500000920E-02 0. -1.
        2   -1    0    0  501    0  0.00000000000E+00  0.00000000000E+00 -0.10955044410E+04  0.10955044410E+04  0.25500000920E-02 0.  1.
    10030    2    1    2    0    0  0.00000000000E+00  0.00000000000E+00 -0.94190454950E+03  0.12491043325E+04  0.82041297719E+03 0.  0.
        2    1    3    3  502    0  0.28515471045E+03 -0.59942946995E+02 -0.31357163020E+02  0.29306933900E+03  0.25500000920E-02 0.  1.
       -2    1    3    3    0  502 -0.28515471045E+03  0.59942946995E+02 -0.91054738648E+03  0.95603499351E+03  0.25500000920E-02 0. -1.
</event>
<event>
 5   0  0.1747544E-02  0.7978166E+03  0.7818609E-02  0.9563183E-01
        2   -1    0    0  501    0  0.00000000000E+00  0.00000000000E+00  0.12812427410E+04  0.12812427410E+04  0.25500000920E-02 0. -1.
       -2   -1    0    0    0  501  0.00000000000E+00  0.00000000000E+00 -0.12419804606E+03  0.12419804608E+03  0.25500000920E-02 0.  1.
    10030    2    1    2    0    0  0.00000000000E+00  0.00000000000E+00  0.11570446949E+04  0.14054407871E+04  0.79781663300E+03 0.  0.
        1    1    3    3  502    0 -0.37318380311E+03 -0.30374170049E+01  0.33031380713E+03  0.49837996349E+03  0.50400001928E-02 0. -1.
       -1    1    3    3    0  502  0.37318380311E+03  0.30374170049E+01  0.82673088781E+03  0.90706082359E+03  0.50400001928E-02 0.  1.
</event>
<event>
 5   0  0.1038912E-02  0.8046430E+03  0.7818609E-02  0.9553321E-01
        1   -1    0    0  501    0  0.00000000000E+00  0.00000000000E+00  0.25457737752E+03  0.25457737757E+03  0.50400001928E-02 0. -1.
       -1   -1    0    0    0  501  0.00000000000E+00  0.00000000000E+00 -0.63580906330E+03  0.63580906331E+03  0.50400001928E-02 0.  1.
    10030    2    1    2    0    0  0.00000000000E+00  0.00000000000E+00 -0.38123168578E+03  0.89038644088E+03  0.80464303630E+03 0.  0.
        2    1    3    3  502    0  0.16430183395E+03 -0.36287996191E+03 -0.12815987541E+03  0.41845180495E+03  0.25500000920E-02 0.  1.
       -2    1    3    3    0  502 -0.16430183395E+03  0.36287996191E+03 -0.25307181036E+03  0.47193463594E+03  0.25500000920E-02 0. -1.
</event>
<event>
 5   0  0.1731337E-02  0.8005262E+03  0.7818609E-02  0.9559256E-01
       -2   -1    0    0    0  501  0.00000000000E+00  0.00000000000E+00  0.34021954334E+03  0.34021954335E+03  0.25500000920E-02 0. -1.
        2   -1    0    0  501    0  0.00000000000E+00  0.00000000000E+00 -0.47090344878E+03  0.47090344879E+03  0.25500000920E-02 0.  1.
    10030    2    1    2    0    0  0.00000000000E+00  0.00000000000E+00 -0.13068390544E+03  0.81112299214E+03  0.80052621771E+03 0.  0.
        4    1    3    3  502    0 -0.38892508710E+01  0.31483075325E+03  0.18506383449E+03  0.36521742182E+03  0.12699999809E+01 0. -1.
       -4    1    3    3    0  502  0.38892508710E+01 -0.31483075325E+03 -0.31574773993E+03  0.44590557032E+03  0.12699999809E+01 0.  1.
</event>
<event>
 5   0  0.1025900E-02  0.7912221E+03  0.7818609E-02  0.9572810E-01
       -1   -1    0    0    0  501  0.00000000000E+00  0.00000000000E+00  0.16603826910E+03  0.16603826918E+03  0.50400001928E-02 0.  1.
        1   -1    0    0  501    0  0.00000000000E+00  0.00000000000E+00 -0.94260251427E+03  0.94260251428E+03  0.50400001928E-02 0. -1.
    10030    2    1    2    0    0  0.00000000000E+00  0.00000000000E+00 -0.77656424516E+03  0.11086407835E+04  0.79122206737E+03 0.  0.
        1    1    3    3  502    0 -0.21811966935E+03 -0.31623976098E+03 -0.25591508012E+03  0.46160188999E+03  0.50400001928E-02 0.  1.
       -1    1    3    3    0  502  0.21811966935E+03  0.31623976098E+03 -0.52064916504E+03  0.64703889347E+03  0.50400001928E-02 0. -1.
</event>
<event>
 5   0  0.1038912E-02  0.8666356E+03  0.7818609E-02  0.9468277E-01
       -1   -1    0    0    0  501  0.00000000000E+00  0.00000000000E+00  0.17346986557E+03  0.17346986565E+03  0.50400001928E-02 0. -1.
        1   -1    0    0  501    0  0.00000000000E+00  0.00000000000E+00 -0.10824030527E+04  0.10824030527E+04  0.50400001928E-02 0.  1.
    10030    2    1    2    0    0  0.00000000000E+00  0.00000000000E+00 -0.90893318713E+03  0.12558729184E+04  0.86663559147E+03 0.  0.
        2    1    3    3  502    0 -0.83285651571E+02  0.42281971094E+03 -0.52009989161E+03  0.67543830583E+03  0.25500000920E-02 0.  1.
       -2    1    3    3    0  502  0.83285651571E+02 -0.42281971094E+03 -0.38883329551E+03  0.58043461253E+03  0.25500000920E-02 0. -1.
</event>
<event>
 5   0  0.1818665E-02  0.7905591E+03  0.7818609E-02  0.9573784E-01
        2   -1    0    0  501    0  0.00000000000E+00  0.00000000000E+00  0.42591277663E+03  0.42591277664E+03  0.25500000920E-02 0.  1.
       -2   -1    0    0    0  501  0.00000000000E+00  0.00000000000E+00 -0.36684961944E+03  0.36684961945E+03  0.25500000920E-02 0. -1.
    10030    2    1    2    0    0  0.00000000000E+00  0.00000000000E+00  0.59063157193E+02  0.79276239608E+03  0.79055914396E+03 0.  0.
        3    1    3    3  502    0 -0.10950251660E+03 -0.69310734543E+02 -0.34494074592E+03  0.36848189571E+03  0.10100000352E+00 0. -1.
       -3    1    3    3    0  502  0.10950251660E+03  0.69310734543E+02  0.40400390311E+03  0.42428050037E+03  0.10100000352E+00 0.  1.
</event>
<event>
 5   0  0.1049780E-02  0.8009321E+03  0.7818609E-02  0.9558669E-01
        1   -1    0    0  501    0  0.00000000000E+00  0.00000000000E+00  0.74599344522E+03  0.74599344523E+03  0.50400001928E-02 0. -1.
       -1   -1    0    0    0  501  0.00000000000E+00  0.00000000000E+00 -0.21497917781E+03  0.21497917787E+03  0.50400001928E-02 0.  1.
    10030    2    1    2    0    0  0.00000000000E+00  0.00000000000E+00  0.53101426740E+03  0.96097262311E+03  0.80093210085E+03 0.  0.
        5    1    3    3  502    0  0.17230932612E+03 -0.25729529344E+03  0.57012761750E+03  0.64881350335E+03  0.46999998093E+01 0. -1.
       -5    1    3    3    0  502 -0.17230932612E+03  0.25729529344E+03 -0.39113350098E+02  0.31215911976E+03  0.46999998093E+01 0.  1.
</event>
<event>
 5   0  0.1818665E-02  0.8003986E+03  0.7818609E-02  0.9559440E-01
        2   -1    0    0  501    0  0.00000000000E+00  0.00000000000E+00  0.26579973764E+03  0.26579973766E+03  0.25500000920E-02 0.  1.
       -2   -1    0    0    0  501  0.00000000000E+00  0.00000000000E+00 -0.60255695274E+03  0.60255695275E+03  0.25500000920E-02 0. -1.
    10030    2    1    2    0    0  0.00000000000E+00  0.00000000000E+00 -0.33675721510E+03  0.86835669040E+03  0.80039860060E+03 0.  0.
        3    1    3    3  502    0 -0.37234026178E+03 -0.37925038653E+02 -0.32212883192E+03  0.49380418554E+03  0.10100000352E+00 0. -1.
       -3    1    3    3    0  502  0.37234026178E+03  0.37925038653E+02 -0.14628383176E+02  0.37455250486E+03  0.10100000352E+00 0.  1.
</event>
<event>
 5   0  0.6872500E-03  0.7983024E+03  0.7818609E-02  0.9562478E-01
        3   -1    0    0  501    0  0.00000000000E+00  0.00000000000E+00  0.31488222878E+03  0.31488224498E+03  0.10100000352E+00 0. -1.
       -3   -1    0    0    0  501  0.00000000000E+00  0.00000000000E+00 -0.50597226252E+03  0.50597227260E+03  0.10100000352E+00 0.  1.
    10030    2    1    2    0    0  0.00000000000E+00  0.00000000000E+00 -0.19109003373E+03  0.82085451758E+03  0.79830241014E+03 0.  0.
        5    1    3    3  502    0  0.81003477512E+02  0.22189914488E+03 -0.42634570996E+03  0.48743568629E+03  0.46999998093E+01 0.  1.
       -5    1    3    3    0  502 -0.81003477512E+02 -0.22189914488E+03  0.23525567622E+03  0.33341883129E+03  0.46999998093E+01 0. -1.
</event>
<event>
 5   0  0.1146083E-02  0.8046712E+03  0.7818609E-02  0.9553280E-01
       -1   -1    0    0    0  501  0.00000000000E+00  0.00000000000E+00  0.66443709977E+03  0.66443709979E+03  0.50400001928E-02 0. -1.
        1   -1    0    0  501    0  0.00000000000E+00  0.00000000000E+00 -0.24362570132E+03  0.24362570137E+03  0.50400001928E-02 0.  1.
    10030    2    1    2    0    0  0.00000000000E+00  0.00000000000E+00  0.42081139845E+03  0.90806280115E+03  0.80467124826E+03 0.  0.
        4    1    3    3  502    0  0.11428264584E+03 -0.36858974667E+02 -0.22293008405E+03  0.25321639447E+03  0.12699999809E+01 0.  1.
       -4    1    3    3    0  502 -0.11428264584E+03  0.36858974667E+02  0.64374148250E+03  0.65484640668E+03  0.12699999809E+01 0. -1.
</event>
<event>
 5   0  0.1049780E-02  0.7930757E+03  0.7818609E-02  0.9570094E-01
       -1   -1    0    0    0  501  0.00000000000E+00  0.00000000000E+00  0.60837885725E+03  0.60837885727E+03  0.50400001928E-02 0. -1.
        1   -1    0    0  501    0  0.00000000000E+00  0.00000000000E+00 -0.25846107708E+03  0.25846107713E+03  0.50400001928E-02 0.  1.
    10030    2    1    2    0    0  0.00000000000E+00  0.00000000000E+00  0.34991778017E+03  0.86683993439E+03  0.79307567040E+03 0.  0.
        5    1    3    3  502    0  0.12675563069E+03  0.36237100078E+03  0.66533403515E+02  0.38965178801E+03  0.46999998093E+01 0.  1.
       -5    1    3    3    0  502 -0.12675563069E+03 -0.36237100078E+03  0.28338437665E+03  0.47718814638E+03  0.46999998093E+01 0. -1.
</event>
<event>
 5   0  0.1673727E-02  0.7989447E+03  0.7818609E-02  0.9561546E-01
       -2   -1    0    0    0  501  0.00000000000E+00  0.00000000000E+00  0.70716702429E+03  0.70716702430E+03  0.25500000920E-02 0. -1.
        2   -1    0    0  501    0  0.00000000000E+00  0.00000000000E+00 -0.22565838494E+03  0.22565838495E+03  0.25500000920E-02 0.  1.
    10030    2    1    2    0    0  0.00000000000E+00  0.00000000000E+00  0.48150863936E+03  0.93282540925E+03  0.79894472547E+03 0.  0.
        5    1    3    3  502    0  0.15137824832E+03  0.15238868406E+03 -0.15245642726E+03  0.26344399273E+03  0.46999998093E+01 0.  1.
       -5    1    3    3    0  502 -0.15137824832E+03 -0.15238868406E+03  0.63396506661E+03  0.66938141652E+03  0.46999998093E+01 0. -1.
</event>
<event>
 5   0  0.1025900E-02  0.7987868E+03  0.7818609E-02  0.9561775E-01
       -1   -1    0    0    0  501  0.00000000000E+00  0.00000000000E+00  0.30647005171E+03  0.30647005175E+03  0.50400001928E-02 0. -1.
        1   -1    0    0  501    0  0.00000000000E+00  0.00000000000E+00 -0.52049157011E+03  0.52049157013E+03  0.50400001928E-02 0.  1.
    10030    2    1    2    0    0  0.00000000000E+00  0.00000000000E+00 -0.21402151839E+03  0.82696162188E+03  0.79878677614E+03 0.  0.
        1    1    3    3  502    0  0.68982458100E+02  0.10098868495E+03 -0.50062901278E+03  0.51535104781E+03  0.50400001928E-02 0.  1.
       -1    1    3    3    0  502 -0.68982458100E+02 -0.10098868495E+03  0.28660749438E+03  0.31161057408E+03  0.50400001928E-02 0. -1.
</event>
<event>
 5   0  0.1673727E-02  0.7876596E+03  0.7818609E-02  0.9578053E-01
       -2   -1    0    0    0  501  0.00000000000E+00  0.00000000000E+00  0.12126102419E+03  0.12126102422E+03  0.25500000920E-02 0.  1.
        2   -1    0    0  501    0  0.00000000000E+00  0.00000000000E+00 -0.12790745719E+04  0.12790745719E+04  0.25500000920E-02 0. -1.
    10030    2    1    2    0    0  0.00000000000E+00  0.00000000000E+00 -0.11578135477E+04  0.14003355961E+04  0.78765955241E+03 0.  0.
        5    1    3    3  502    0 -0.14731118417E+03  0.12278035055E+03  0.32589298114E+02  0.19457582535E+03  0.46999998093E+01 0.  1.
       -5    1    3    3    0  502  0.14731118417E+03 -0.12278035055E+03 -0.11904028458E+04  0.12057597707E+04  0.46999998093E+01 0. -1.
</event>
<event>
 5   0  0.1038912E-02  0.8255113E+03  0.7818609E-02  0.9523807E-01
        1   -1    0    0  501    0  0.00000000000E+00  0.00000000000E+00  0.26581935648E+03  0.26581935652E+03  0.50400001928E-02 0.  1.
       -1   -1    0    0    0  501  0.00000000000E+00  0.00000000000E+00 -0.64091350135E+03  0.64091350137E+03  0.50400001928E-02 0. -1.
    10030    2    1    2    0    0  0.00000000000E+00  0.00000000000E+00 -0.37509414488E+03  0.90673285790E+03  0.82551127071E+03 0.  0.
        2    1    3    3  502    0  0.26097871803E+03  0.31547588367E+03 -0.24496132933E+03  0.47711736221E+03  0.25500000920E-02 0.  1.
       -2    1    3    3    0  502 -0.26097871803E+03 -0.31547588367E+03 -0.13013281555E+03  0.42961549569E+03  0.25500000920E-02 0. -1.
</event>
<event>
 5   0  0.1030323E-02  0.8046826E+03  0.7818609E-02  0.9553264E-01
        1   -1    0    0  501    0  0.00000000000E+00  0.00000000000E+00  0.28785854914E+03  0.28785854919E+03  0.50400001928E-02 0. -1.
       -1   -1    0    0    0  501  0.00000000000E+00  0.00000000000E+00 -0.56235445210E+03  0.56235445212E+03  0.50400001928E-02 0.  1.
    10030    2    1    2    0    0  0.00000000000E+00  0.00000000000E+00 -0.27449590296E+03  0.85021300131E+03  0.80468263735E+03 0.  0.
        3    1    3    3  502    0 -0.21298401541E+03 -0.12665253806E+03  0.19766591960E+03  0.31697773138E+03  0.10100000352E+00 0. -1.
       -3    1    3    3    0  502  0.21298401541E+03  0.12665253806E+03 -0.47216182256E+03  0.53323526993E+03  0.10100000352E+00 0.  1.
</event>
<event>
 5   0  0.6872500E-03  0.7611211E+03  0.7818609E-02  0.9618063E-01
       -3   -1    0    0    0  501  0.00000000000E+00  0.00000000000E+00  0.29720167103E+03  0.29720168819E+03  0.10100000352E+00 0. -1.
        3   -1    0    0  501    0  0.00000000000E+00  0.00000000000E+00 -0.48729984751E+03  0.48729985797E+03  0.10100000352E+00 0.  1.
    10030    2    1    2    0    0  0.00000000000E+00  0.00000000000E+00 -0.19009817647E+03  0.78450154617E+03  0.76112111995E+03 0.  0.
        5    1    3    3  502    0  0.66323498857E+02  0.22359953945E+03 -0.40496588687E+03  0.46734892753E+03  0.46999998093E+01 0.  1.
       -5    1    3    3    0  502 -0.66323498857E+02 -0.22359953945E+03  0.21486771039E+03  0.31715261864E+03  0.46999998093E+01 0. -1.
</event>
<event>
 5   0  0.1049780E-02  0.7908497E+03  0.7818609E-02  0.9573357E-01
        1   -1    0    0  501    0  0.00000000000E+00  0.00000000000E+00  0.73431669034E+03  0.73431669035E+03  0.50400001928E-02 0.  1.
       -1   -1    0    0    0  501  0.00000000000E+00  0.00000000000E+00 -0.21293375273E+03  0.21293375279E+03  0.50400001928E-02 0. -1.
    10030    2    1    2    0    0  0.00000000000E+00  0.00000000000E+00  0.52138293761E+03  0.94725044314E+03  0.79084969141E+03 0.  0.
        5    1    3    3  502    0 -0.83946781347E+02  0.13977471838E+01 -0.20210047941E+03  0.21889657277E+03  0.46999998093E+01 0. -1.
       -5    1    3    3    0  502  0.83946781347E+02 -0.13977471838E+01  0.72348341701E+03  0.72835387037E+03  0.46999998093E+01 0.  1.
</event>
<event>
 5   0  0.1817089E-02  0.7894915E+03  0.7818609E-02  0.9575353E-01
        2   -1    0    0  501    0  0.00000000000E+00  0.00000000000E+00  0.10176610849E+04  0.10176610849E+04  0.25500000920E-02 0.  1.
       -2   -1    0    0    0  501  0.00000000000E+00  0.00000000000E+00 -0.15311995039E+03  0.15311995041E+03  0.25500000920E-02 0. -1.
    10030    2    1    2    0    0  0.00000000000E+00  0.00000000000E+00  0.86454113449E+03  0.11707810353E+04  0.78949151951E+03 0.  0.
        2    1    3    3  502    0  0.70614236320E+02  0.32408835114E+03  0.74965285520E+03  0.81975547149E+03  0.25500000920E-02 0. -1.
       -2    1    3    3    0  502 -0.70614236320E+02 -0.32408835114E+03  0.11488827929E+03  0.35102556380E+03  0.25500000920E-02 0.  1.
</event>
<event>
 5   0  0.1747544E-02  0.7688210E+03  0.7818609E-02  0.9606277E-01
       -2   -1    0    0    0  501  0.00000000000E+00  0.00000000000E+00  0.11347990728E+03  0.11347990730E+03  0.25500000920E-02 0. -1.
        2   -1    0    0  501    0  0.00000000000E+00  0.00000000000E+00 -0.13021815775E+04  0.13021815775E+04  0.25500000920E-02 0.  1.
    10030    2    1    2    0    0  0.00000000000E+00  0.00000000000E+00 -0.11887016702E+04  0.14156614848E+04  0.76882103169E+03 0.  0.
        1    1    3    3  502    0  0.23001439618E+03  0.29959961596E+03 -0.72591192264E+03  0.81829986667E+03  0.50400001928E-02 0.  1.
       -1    1    3    3    0  502 -0.23001439618E+03 -0.29959961596E+03 -0.46278974757E+03  0.59736161813E+03  0.50400001928E-02 0. -1.
</event>
<event>
 5   0  0.1025900E-02  0.7977788E+03  0.7818609E-02  0.9563238E-01
       -1   -1    0    0    0  501  0.00000000000E+00  0.00000000000E+00  0.21664752406E+03  0.21664752412E+03  0.50400001928E-02 0.  1.
        1   -1    0    0  501    0  0.00000000000E+00  0.00000000000E+00 -0.73443149665E+03  0.73443149667E+03  0.50400001928E-02 0. -1.
    10030    2    1    2    0    0  0.00000000000E+00  0.00000000000E+00 -0.51778397259E+03  0.95107902078E+03  0.79777882994E+03 0.  0.
        1    1    3    3  502    0 -0.97781104493E+02  0.16191720810E+03 -0.67756625960E+03  0.70347307187E+03  0.50400001928E-02 0. -1.
       -1    1    3    3    0  502  0.97781104493E+02 -0.16191720810E+03  0.15978228700E+03  0.24760594892E+03  0.50400001928E-02 0.  1.
</event>
<event>
 5   0  0.1030323E-02  0.7991804E+03  0.7818609E-02  0.9561204E-01
       -1   -1    0    0    0  501  0.00000000000E+00  0.00000000000E+00  0.62084271230E+03  0.62084271232E+03  0.50400001928E-02 0.  1.
        1   -1    0    0  501    0  0.00000000000E+00  0.00000000000E+00 -0.25718642221E+03  0.25718642226E+03  0.50400001928E-02 0. -1.
    10030    2    1    2    0    0  0.00000000000E+00  0.00000000000E+00  0.36365629009E+03  0.87802913458E+03  0.79918037003E+03 0.  0.
        3    1    3    3  502    0  0.13491016416E+03  0.87572770817E+02  0.58370809120E+03  0.60546254096E+03  0.10100000352E+00 0.  1.
       -3    1    3    3    0  502 -0.13491016416E+03 -0.87572770817E+02 -0.22005180111E+03  0.27256659361E+03  0.10100000352E+00 0. -1.
</event>
<event>
 5   0  0.1030323E-02  0.8671400E+03  0.7818609E-02  0.9467617E-01
       -1   -1    0    0    0  501  0.00000000000E+00  0.00000000000E+00  0.91525990802E+02  0.91525990940E+02  0.50400001928E-02 0.  1.
        1   -1    0    0  501    0  0.00000000000E+00  0.00000000000E+00 -0.20538749338E+04  0.20538749338E+04  0.50400001928E-02 0. -1.
    10030    2    1    2    0    0  0.00000000000E+00  0.00000000000E+00 -0.19623489430E+04  0.21454009247E+04  0.86713998513E+03 0.  0.
        3    1    3    3  502    0  0.87441606338E+02 -0.42285336801E+03 -0.10780106638E+04  0.11612743030E+04  0.10100000352E+00 0. -1.
       -3    1    3    3    0  502 -0.87441606338E+02  0.42285336801E+03 -0.88433827921E+03  0.98412662175E+03  0.10100000352E+00 0.  1.
</event>
<event>
 5   0  0.1038912E-02  0.8027363E+03  0.7818609E-02  0.9556065E-01
       -1   -1    0    0    0  501  0.00000000000E+00  0.00000000000E+00  0.10715611610E+03  0.10715611622E+03  0.50400001928E-02 0.  1.
        1   -1    0    0  501    0  0.00000000000E+00  0.00000000000E+00 -0.15033803305E+04  0.15033803305E+04  0.50400001928E-02 0. -1.
    10030    2    1    2    0    0  0.00000000000E+00  0.00000000000E+00 -0.13962242144E+04  0.16105364467E+04  0.80273631370E+03 0.  0.
        2    1    3    3  502    0  0.99347601104E+02 -0.35348230339E+03 -0.10233365391E+04  0.10872154142E+04  0.25500000920E-02 0. -1.
       -2    1    3    3    0  502 -0.99347601104E+02  0.35348230339E+03 -0.37288767529E+03  0.52332103249E+03  0.25500000920E-02 0.  1.
</event>
<event>
 5   0  0.1747544E-02  0.7692381E+03  0.7818609E-02  0.9605643E-01
       -2   -1    0    0    0  501  0.00000000000E+00  0.00000000000E+00  0.43367084087E+03  0.43367084087E+03  0.25500000920E-02 0. -1.
        2   -1    0    0  501    0  0.00000000000E+00  0.00000000000E+00 -0.34111538422E+03  0.34111538423E+03  0.25500000920E-02 0.  1.
    10030    2    1    2    0    0  0.00000000000E+00  0.00000000000E+00  0.92555456650E+02  0.77478622510E+03  0.76923805291E+03 0.  0.
        1    1    3    3  502    0 -0.70106590244E+02  0.37220711454E+03 -0.21128239339E+02  0.37934083966E+03  0.50400001928E-02 0. -1.
       -1    1    3    3    0  502  0.70106590244E+02 -0.37220711454E+03  0.11368369599E+03  0.39544538544E+03  0.50400001928E-02 0.  1.
</event>
<event>
 5   0  0.1818665E-02  0.7971003E+03  0.7818609E-02  0.9564224E-01
       -2   -1    0    0    0  501  0.00000000000E+00  0.00000000000E+00  0.10378545646E+03  0.10378545649E+03  0.25500000920E-02 0. -1.
        2   -1    0    0  501    0  0.00000000000E+00  0.00000000000E+00 -0.15304864764E+04  0.15304864764E+04  0.25500000920E-02 0.  1.
    10030    2    1    2    0    0  0.00000000000E+00  0.00000000000E+00 -0.14267010199E+04  0.16342719328E+04  0.79710033892E+03 0.  0.
        3    1    3    3  502    0  0.39564152550E+03  0.41621443813E+02 -0.66407288529E+03  0.77411715422E+03  0.10100000352E+00 0.  1.
       -3    1    3    3    0  502 -0.39564152550E+03 -0.41621443813E+02 -0.76262813461E+03  0.86015477862E+03  0.10100000352E+00 0. -1.
</event>
<event>
 5   0  0.1030323E-02  0.7792680E+03  0.7818609E-02  0.9590520E-01
        1   -1    0    0  501    0  0.00000000000E+00  0.00000000000E+00  0.31792764313E+03  0.31792764317E+03  0.50400001928E-02 0.  1.
       -1   -1    0    0    0  501  0.00000000000E+00  0.00000000000E+00 -0.47751316427E+03  0.47751316429E+03  0.50400001928E-02 0. -1.
    10030    2    1    2    0    0  0.00000000000E+00  0.00000000000E+00 -0.15958552114E+03  0.79544080746E+03  0.77926795110E+03 0.  0.
        3    1    3    3  502    0  0.25775638214E+03  0.24422530214E+03  0.83942892763E+02  0.36487089523E+03  0.10100000352E+00 0.  1.
       -3    1    3    3    0  502 -0.25775638214E+03 -0.24422530214E+03 -0.24352841390E+03  0.43056991223E+03  0.10100000352E+00 0. -1.
</event>
<event>
 5   0  0.1731337E-02  0.8024794E+03  0.7818609E-02  0.9556435E-01
       -2   -1    0    0    0  501  0.00000000000E+00  0.00000000000E+00  0.11358913587E+03  0.11358913589E+03  0.25500000920E-02 0. -1.
        2   -1    0    0  501    0  0.00000000000E+00  0.00000000000E+00 -0.14173301935E+04  0.14173301935E+04  0.25500000920E-02 0.  1.
    10030    2    1    2    0    0  0.00000000000E+00  0.00000000000E+00 -0.13037410576E+04  0.15309193294E+04  0.80247943759E+03 0.  0.
        4    1    3    3  502    0 -0.31323117714E+03 -0.23468586492E+03 -0.48337868740E+03  0.62197089470E+03  0.12699999809E+01 0. -1.
       -4    1    3    3    0  502  0.31323117714E+03  0.23468586492E+03 -0.82036237024E+03  0.90894843469E+03  0.12699999809E+01 0.  1.
</event>
<event>
 5   0  0.1030323E-02  0.7973272E+03  0.7818609E-02  0.9563894E-01
        1   -1    0    0  501    0  0.00000000000E+00  0.00000000000E+00  0.32010120289E+03  0.32010120293E+03  0.50400001928E-02 0. -1.
       -1   -1    0    0    0  501  0.00000000000E+00  0.00000000000E+00 -0.49650752525E+03  0.49650752527E+03  0.50400001928E-02 0.  1.
    10030    2    1    2    0    0  0.00000000000E+00  0.00000000000E+00 -0.17640632236E+03  0.81660872820E+03  0.79732717526E+03 0.  0.
        3    1    3    3  502    0  0.12784939590E+03 -0.93756371287E+02 -0.46283139974E+03  0.48923270534E+03  0.10100000352E+00 0.  1.
       -3    1    3    3    0  502 -0.12784939590E+03  0.93756371287E+02  0.28642507738E+03  0.32737602286E+03  0.10100000352E+00 0. -1.
</event>
<event>
 5   0  0.1030323E-02  0.7955593E+03  0.7818609E-02  0.9566467E-01
       -1   -1    0    0    0  501  0.00000000000E+00  0.00000000000E+00  0.18917638432E+03  0.18917638439E+03  0.50400001928E-02 0. -1.
        1   -1    0    0  501    0  0.00000000000E+00  0.00000000000E+00 -0.83640809112E+03  0.83640809114E+03  0.50400001928E-02 0.  1.
    10030    2    1    2    0    0  0.00000000000E+00  0.00000000000E+00 -0.64723170681E+03  0.10255844755E+04  0.79555932157E+03 0.  0.
        3    1    3    3  502    0  0.30466849907E+02  0.10690853370E+03  0.16874478597E+03  0.20207047413E+03  0.10100000352E+00 0. -1.
       -3    1    3    3    0  502 -0.30466849907E+02 -0.10690853370E+03 -0.81597649278E+03  0.82351400139E+03  0.10100000352E+00 0.  1.
</event>
<event>
 5   0  0.1673727E-02  0.7861304E+03  0.7818609E-02  0.9580313E-01
        2   -1    0    0  501    0  0.00000000000E+00  0.00000000000E+00  0.18718660025E+03  0.18718660027E+03  0.25500000920E-02 0.  1.
       -2   -1    0    0    0  501  0.00000000000E+00  0.00000000000E+00 -0.82538093021E+03  0.82538093022E+03  0.25500000920E-02 0. -1.
    10030    2    1    2    0    0  0.00000000000E+00  0.00000000000E+00 -0.63819432996E+03  0.10125675305E+04  0.78613039694E+03 0.  0.
        5    1    3    3  502    0 -0.19612448885E+03 -0.45289356268E+02 -0.75391751051E+03  0.78033944125E+03  0.46999998093E+01 0. -1.
       -5    1    3    3    0  502  0.19612448885E+03  0.45289356268E+02  0.11572318054E+03  0.23222808924E+03  0.46999998093E+01 0.  1.
</event>
<event>
 5   0  0.1146083E-02  0.7979408E+03  0.7818609E-02  0.9563002E-01
        1   -1    0    0  501    0  0.00000000000E+00  0.00000000000E+00  0.98954026897E+03  0.98954026898E+03  0.50400001928E-02 0.  1.
       -1   -1    0    0    0  501  0.00000000000E+00  0.00000000000E+00 -0.16085994722E+03  0.16085994730E+03  0.50400001928E-02 0. -1.
    10030    2    1    2    0    0  0.00000000000E+00  0.00000000000E+00  0.82868032174E+03  0.11504002163E+04  0.79794083865E+03 0.  0.
        4    1    3    3  502    0  0.17520406868E+03 -0.24212717284E+03  0.33297920680E+02  0.30071979970E+03  0.12699999809E+01 0. -1.
       -4    1    3    3    0  502 -0.17520406868E+03  0.24212717284E+03  0.79538240106E+03  0.84968041659E+03  0.12699999809E+01 0.  1.
</event>
<event>
 5   0  0.1030323E-02  0.7994473E+03  0.7818609E-02  0.9560817E-01
       -1   -1    0    0    0  501  0.00000000000E+00  0.00000000000E+00  0.19249282884E+03  0.19249282891E+03  0.50400001928E-02 0.  1.
        1   -1    0    0  501    0  0.00000000000E+00  0.00000000000E+00 -0.83005170699E+03  0.83005170700E+03  0.50400001928E-02 0. -1.
    10030    2    1    2    0    0  0.00000000000E+00  0.00000000000E+00 -0.63755887815E+03  0.10225445359E+04  0.79944731210E+03 0.  0.
        3    1    3    3  502    0 -0.23862611036E+03 -0.61925869544E+02  0.83672326561E+02  0.26034266323E+03  0.10100000352E+00 0.  1.
       -3    1    3    3    0  502  0.23862611036E+03  0.61925869544E+02 -0.72123120471E+03  0.76220187268E+03  0.10100000352E+00 0. -1.
</event>
<event>
 5   0  0.1817089E-02  0.7993309E+03  0.7818609E-02  0.9560986E-01
       -2   -1    0    0    0  501  0.00000000000E+00  0.00000000000E+00  0.50277294717E+03  0.50277294718E+03  0.25500000920E-02 0.  1.
        2   -1    0    0  501    0  0.00000000000E+00  0.00000000000E+00 -0.31770302108E+03  0.31770302109E+03  0.25500000920E-02 0. -1.
    10030    2    1    2    0    0  0.00000000000E+00  0.00000000000E+00  0.18506992610E+03  0.82047596826E+03  0.79933093081E+03 0.  0.
        2    1    3    3  502    0  0.88394637511E+02 -0.22727432976E+03 -0.23248831774E+03  0.33692439924E+03  0.25500000920E-02 0. -1.
       -2    1    3    3    0  502 -0.88394637511E+02  0.22727432976E+03  0.41755824383E+03  0.48355156903E+03  0.25500000920E-02 0.  1.
</event>
<event>
 5   0  0.1146083E-02  0.7932609E+03  0.7818609E-02  0.9569823E-01
        1   -1    0    0  501    0  0.00000000000E+00  0.00000000000E+00  0.30991249422E+03  0.30991249426E+03  0.50400001928E-02 0. -1.
       -1   -1    0    0    0  501  0.00000000000E+00  0.00000000000E+00 -0.50761336405E+03  0.50761336408E+03  0.50400001928E-02 0.  1.
    10030    2    1    2    0    0  0.00000000000E+00  0.00000000000E+00 -0.19770086983E+03  0.81752585834E+03  0.79326092499E+03 0.  0.
        4    1    3    3  502    0  0.69015317013E+01 -0.23251506456E+03  0.23222889655E+03  0.32869858485E+03  0.12699999809E+01 0. -1.
       -4    1    3    3    0  502 -0.69015317013E+01  0.23251506456E+03 -0.42992976638E+03  0.48882727349E+03  0.12699999809E+01 0.  1.
</event>
<event>
 5   0  0.1747544E-02  0.7995500E+03  0.7818609E-02  0.9560669E-01
        2   -1    0    0  501    0  0.00000000000E+00  0.00000000000E+00  0.98489876679E+03  0.98489876679E+03  0.25500000920E-02 0.  1.
       -2   -1    0    0    0  501  0.00000000000E+00  0.00000000000E+00 -0.16227054486E+03  0.16227054488E+03  0.25500000920E-02 0. -1.
    10030    2    1    2    0    0  0.00000000000E+00  0.00000000000E+00  0.82262822193E+03  0.11471693117E+04  0.79955002229E+03 0.  0.
        1    1    3    3  502    0 -0.24162150932E+02  0.20740248895E+03 -0.77814617314E+02  0.22283338317E+03  0.50400001928E-02 0.  1.
       -1    1    3    3    0  502  0.24162150932E+02 -0.20740248895E+03  0.90044283924E+03  0.92433592851E+03  0.50400001928E-02 0. -1.
</event>
<event>
 5   0  0.6872500E-03  0.8474541E+03  0.7818609E-02  0.9493760E-01
        4   -1    0    0  501    0  0.00000000000E+00  0.00000000000E+00  0.38196573959E+03  0.38196785090E+03  0.12699999809E+01 0. -1.
       -4   -1    0    0    0  501  0.00000000000E+00  0.00000000000E+00 -0.47004999395E+03  0.47005170962E+03  0.12699999809E+01 0.  1.
    10030    2    1    2    0    0  0.00000000000E+00  0.00000000000E+00 -0.88084254361E+02  0.85201956052E+03  0.84745412598E+03 0.  0.
        5    1    3    3  502    0  0.60154916516E+02 -0.33671730378E+03  0.20735570436E+03  0.40001954299E+03  0.46999998093E+01 0. -1.
       -5    1    3    3    0  502 -0.60154916516E+02  0.33671730378E+03 -0.29543995872E+03  0.45200001753E+03  0.46999998093E+01 0.  1.
</event>
<event>
 5   0  0.1146083E-02  0.8059757E+03  0.7818609E-02  0.9551408E-01
       -1   -1    0    0    0  501  0.00000000000E+00  0.00000000000E+00  0.20131056556E+03  0.20131056562E+03  0.50400001928E-02 0.  1.
        1   -1    0    0  501    0  0.00000000000E+00  0.00000000000E+00 -0.80670985853E+03  0.80670985855E+03  0.50400001928E-02 0. -1.
    10030    2    1    2    0    0  0.00000000000E+00  0.00000000000E+00 -0.60539929297E+03  0.10080204242E+04  0.80597572644E+03 0.  0.
        4    1    3    3  502    0 -0.17928369725E+03 -0.17072998326E+03  0.94982721219E+02  0.26516919412E+03  0.12699999809E+01 0.  1.
       -4    1    3    3    0  502  0.17928369725E+03  0.17072998326E+03 -0.70038201419E+03  0.74285123005E+03  0.12699999809E+01 0. -1.
</event>
<event>
 5   0  0.1818665E-02  0.8306928E+03  0.7818609E-02  0.9516623E-01
        2   -1    0    0  501    0  0.00000000000E+00  0.00000000000E+00  0.18407287746E+03  0.18407287748E+03  0.25500000920E-02 0. -1.
       -2   -1    0    0    0  501  0.00000000000E+00  0.00000000000E+00 -0.93719749807E+03  0.93719749808E+03  0.25500000920E-02 0.  1.
    10030    2    1    2    0    0  0.00000000000E+00  0.00000000000E+00 -0.75312462062E+03  0.11212703756E+04  0.83069281983E+03 0.  0.
        3    1    3    3  502    0 -0.13512359560E+03  0.29254456465E+01  0.15356039333E+03  0.20456722348E+03  0.10100000352E+00 0. -1.
       -3    1    3    3    0  502  0.13512359560E+03 -0.29254456465E+01 -0.90668501394E+03  0.91670315208E+03  0.10100000352E+00 0.  1.
</event>
<event>
 5   0  0.1030323E-02  0.7913825E+03  0.7818609E-02  0.9572575E-01
        1   -1    0    0  501    0  0.00000000000E+00  0.00000000000E+00  0.18541120854E+04  0.18541120855E+04  0.50400001928E-02 0.  1.
       -1   -1    0    0    0  501  0.00000000000E+00  0.00000000000E+00 -0.84445577975E+02  0.84445578126E+02  0.50400001928E-02 0. -1.
    10030    2    1    2    0    0  0.00000000000E+00  0.00000000000E+00  0.17696665075E+04  0.19385576636E+04  0.79138250382E+03 0.  0.
        3    1    3    3  502    0  0.16531549243E+03  0.21275954617E+03  0.17497906765E+03  0.32126861166E+03  0.10100000352E+00 0. -1.
       -3    1    3    3    0  502 -0.16531549243E+03 -0.21275954617E+03  0.15946874398E+04  0.16172890519E+04  0.10100000352E+00 0.  1.
</event>
<event>
 5   0  0.1817089E-02  0.8053524E+03  0.7818609E-02  0.9552302E-01
        2   -1    0    0  501    0  0.00000000000E+00  0.00000000000E+00  0.70869251972E+03  0.70869251972E+03  0.25500000920E-02 0.  1.
       -2   -1    0    0    0  501  0.00000000000E+00  0.00000000000E+00 -0.22879898285E+03  0.22879898287E+03  0.25500000920E-02 0. -1.
    10030    2    1    2    0    0  0.00000000000E+00  0.00000000000E+00  0.47989353686E+03  0.93749150259E+03  0.80535241398E+03 0.  0.
        2    1    3    3  502    0 -0.42796651267E+02 -0.32535586405E+03 -0.31710128860E+02  0.32968700901E+03  0.25500000920E-02 0. -1.
       -2    1    3    3    0  502  0.42796651267E+02  0.32535586405E+03  0.51160366572E+03  0.60780449358E+03  0.25500000920E-02 0.  1.
</event>
<event>
 5   0  0.1818665E-02  0.7994092E+03  0.7818609E-02  0.9560873E-01
        2   -1    0    0  501    0  0.00000000000E+00  0.00000000000E+00  0.49956605038E+03  0.49956605039E+03  0.25500000920E-02 0.  1.
       -2   -1    0    0    0  501  0.00000000000E+00  0.00000000000E+00 -0.31980509765E+03  0.31980509766E+03  0.25500000920E-02 0. -1.
    10030    2    1    2    0    0  0.00000000000E+00  0.00000000000E+00  0.17976095273E+03  0.81937114805E+03  0.79940920568E+03 0.  0.
        3    1    3    3  502    0 -0.94541337909E+02 -0.33199441010E+03 -0.11665918143E+03  0.36437306119E+03  0.10100000352E+00 0. -1.
       -3    1    3    3    0  502  0.94541337909E+02  0.33199441010E+03  0.29642013416E+03  0.45499808686E+03  0.10100000352E+00 0.  1.
</event>
<event>
 5   0  0.1817089E-02  0.7916207E+03  0.7818609E-02  0.9572226E-01
       -2   -1    0    0    0  501  0.00000000000E+00  0.00000000000E+00  0.15570614208E+03  0.15570614210E+03  0.25500000920E-02 0.  1.
        2   -1    0    0  501    0  0.00000000000E+00  0.00000000000E+00 -0.10061634943E+04  0.10061634943E+04  0.25500000920E-02 0. -1.
    10030    2    1    2    0    0  0.00000000000E+00  0.00000000000E+00 -0.85045735226E+03  0.11618696364E+04  0.79162070719E+03 0.  0.
        2    1    3    3  502    0  0.38144629516E+03  0.79962827600E+01 -0.57986583514E+03  0.69412506322E+03  0.25500000920E-02 0. -1.
       -2    1    3    3    0  502 -0.38144629516E+03 -0.79962827600E+01 -0.27059151712E+03  0.46774457321E+03  0.25500000920E-02 0.  1.
</event>
<event>
 5   0  0.1731337E-02  0.7963810E+03  0.7818609E-02  0.9565270E-01
        2   -1    0    0  501    0  0.00000000000E+00  0.00000000000E+00  0.16752997036E+04  0.16752997036E+04  0.25500000920E-02 0.  1.
       -2   -1    0    0    0  501  0.00000000000E+00  0.00000000000E+00 -0.94643176745E+02  0.94643176779E+02  0.25500000920E-02 0. -1.
    10030    2    1    2    0    0  0.00000000000E+00  0.00000000000E+00  0.15806565268E+04  0.17699428803E+04  0.79638102935E+03 0.  0.
        4    1    3    3  502    0  0.21626945541E+03 -0.24411493896E+03  0.28260170535E+03  0.43154364499E+03  0.12699999809E+01 0. -1.
       -4    1    3    3    0  502 -0.21626945541E+03  0.24411493896E+03  0.12980548215E+04  0.13383992353E+04  0.12699999809E+01 0.  1.
</event>
<event>
 5   0  0.1049780E-02  0.8003027E+03  0.7818609E-02  0.9559579E-01
       -1   -1    0    0    0  501  0.00000000000E+00  0.00000000000E+00  0.36203792130E+03  0.36203792133E+03  0.50400001928E-02 0.  1.
        1   -1    0    0  501    0  0.00000000000E+00  0.00000000000E+00 -0.44227717701E+03  0.44227717703E+03  0.50400001928E-02 0. -1.
    10030    2    1    2    0    0  0.00000000000E+00  0.00000000000E+00 -0.80239255709E+02  0.80431509837E+03  0.80030271729E+03 0.  0.
        5    1    3    3  502    0  0.14021211231E+03 -0.10124461206E+03  0.32250664147E+03  0.36598160022E+03  0.46999998093E+01 0.  1.
       -5    1    3    3    0  502 -0.14021211231E+03  0.10124461206E+03 -0.40274589718E+03  0.43833349815E+03  0.46999998093E+01 0. -1.
</event>
<event>
 5   0  0.1146083E-02  0.8196703E+03  0.7818609E-02  0.9531974E-01
        1   -1    0    0  501    0  0.00000000000E+00  0.00000000000E+00  0.14636510566E+04  0.14636510566E+04  0.50400001928E-02 0. -1.
       -1   -1    0    0    0  501  0.00000000000E+00  0.00000000000E+00 -0.11475744224E+03  0.11475744235E+03  0.50400001928E-02 0.  1.
    10030    2    1    2    0    0  0.00000000000E+00  0.00000000000E+00  0.13488936144E+04  0.15784084990E+04  0.81967030368E+03 0.  0.
        4    1    3    3  502    0 -0.23495062924E+03  0.33236612782E+03  0.76668178079E+03  0.86802742296E+03  0.12699999809E+01 0. -1.
       -4    1    3    3    0  502  0.23495062924E+03 -0.33236612782E+03  0.58221183356E+03  0.71038107600E+03  0.12699999809E+01 0.  1.
</event>
<event>
 5   0  0.1817089E-02  0.7951151E+03  0.7818609E-02  0.9567115E-01
        2   -1    0    0  501    0  0.00000000000E+00  0.00000000000E+00  0.24459372594E+04  0.24459372594E+04  0.25500000920E-02 0. -1.
       -2   -1    0    0    0  501  0.00000000000E+00  0.00000000000E+00 -0.64618181680E+02  0.64618181730E+02  0.25500000920E-02 0.  1.
    10030    2    1    2    0    0  0.00000000000E+00  0.00000000000E+00  0.23813190777E+04  0.25105554411E+04  0.79511513197E+03 0.  0.
        2    1    3    3  502    0  0.22649472459E+03 -0.11745067767E+03  0.21533396663E+04  0.21684017710E+04  0.25500000920E-02 0. -1.
       -2    1    3    3    0  502 -0.22649472459E+03  0.11745067767E+03  0.22797941141E+03  0.34215367014E+03  0.25500000920E-02 0.  1.
</event>
<event>
 5   0  0.1817089E-02  0.7988218E+03  0.7818609E-02  0.9561724E-01
       -2   -1    0    0    0  501  0.00000000000E+00  0.00000000000E+00  0.75377518184E+03  0.75377518184E+03  0.25500000920E-02 0. -1.
        2   -1    0    0  501    0  0.00000000000E+00  0.00000000000E+00 -0.21164009979E+03  0.21164009981E+03  0.25500000920E-02 0.  1.
    10030    2    1    2    0    0  0.00000000000E+00  0.00000000000E+00  0.54213508205E+03  0.96541528165E+03  0.79882176914E+03 0.  0.
        2    1    3    3  502    0 -0.13199320723E+03 -0.22000993681E+03 -0.98879714735E+02  0.27496141009E+03  0.25500000920E-02 0.  1.
       -2    1    3    3    0  502  0.13199320723E+03  0.22000993681E+03  0.64101479678E+03  0.69045387156E+03  0.25500000920E-02 0. -1.
</event>
<event>
 5   0  0.6872500E-03  0.7992074E+03  0.7818609E-02  0.9561165E-01
       -3   -1    0    0    0  501  0.00000000000E+00  0.00000000000E+00  0.38245682296E+03  0.38245683630E+03  0.10100000352E+00 0. -1.
        3   -1    0    0  501    0  0.00000000000E+00  0.00000000000E+00 -0.41751935459E+03  0.41751936681E+03  0.10100000352E+00 0.  1.
    10030    2    1    2    0    0  0.00000000000E+00  0.00000000000E+00 -0.35062531632E+02  0.79997620311E+03  0.79920744767E+03 0.  0.
        4    1    3    3  502    0  0.37999824199E+03  0.37695677868E+02  0.10031853444E+03  0.39482280747E+03  0.12699999809E+01 0. -1.
       -4    1    3    3    0  502 -0.37999824199E+03 -0.37695677868E+02 -0.13538106607E+03  0.40515339564E+03  0.12699999809E+01 0.  1.
</event>
<event>
 5   0  0.1818665E-02  0.7898435E+03  0.7818609E-02  0.9574836E-01
        2   -1    0    0  501    0  0.00000000000E+00  0.00000000000E+00  0.10847659787E+04  0.10847659787E+04  0.25500000920E-02 0. -1.
       -2   -1    0    0    0  501  0.00000000000E+00  0.00000000000E+00 -0.14377587796E+03  0.14377587798E+03  0.25500000920E-02 0.  1.
    10030    2    1    2    0    0  0.00000000000E+00  0.00000000000E+00  0.94099010073E+03  0.12285418567E+04  0.78984348065E+03 0.  0.
        3    1    3    3  502    0 -0.28583318747E+03 -0.12110412921E+03  0.85021092099E+03  0.90511073441E+03  0.10100000352E+00 0. -1.
       -3    1    3    3    0  502  0.28583318747E+03  0.12110412921E+03  0.90779179744E+02  0.32343112226E+03  0.10100000352E+00 0.  1.
</event>
<event>
 5   0  0.6872500E-03  0.7602699E+03  0.7818609E-02  0.9619375E-01
        4   -1    0    0  501    0  0.00000000000E+00  0.00000000000E+00  0.18839671952E+03  0.18840100006E+03  0.12699999809E+01 0.  1.
       -4   -1    0    0    0  501  0.00000000000E+00  0.00000000000E+00 -0.76699857955E+03  0.76699963099E+03  0.12699999809E+01 0. -1.
    10030    2    1    2    0    0  0.00000000000E+00  0.00000000000E+00 -0.57860186003E+03  0.95540063105E+03  0.76026985563E+03 0.  0.
        1    1    3    3  502    0 -0.23363672446E+03  0.18647528534E+03 -0.58439777812E+03  0.65641443781E+03  0.50400001928E-02 0. -1.
       -1    1    3    3    0  502  0.23363672446E+03 -0.18647528534E+03  0.57959180916E+01  0.29898619324E+03  0.50400001928E-02 0.  1.
</event>
<event>
 5   0  0.1025900E-02  0.8025642E+03  0.7818609E-02  0.9556313E-01
        1   -1    0    0  501    0  0.00000000000E+00  0.00000000000E+00  0.10500917628E+04  0.10500917628E+04  0.50400001928E-02 0. -1.
       -1   -1    0    0    0  501  0.00000000000E+00  0.00000000000E+00 -0.15334594411E+03  0.15334594420E+03  0.50400001928E-02 0.  1.
    10030    2    1    2    0    0  0.00000000000E+00  0.00000000000E+00  0.89674581864E+03  0.12034377070E+04  0.80256417270E+03 0.  0.
        1    1    3    3  502    0 -0.26013420637E+03  0.24884743281E+03  0.18252512159E+03  0.40362144415E+03  0.50400001928E-02 0.  1.
       -1    1    3    3    0  502  0.26013420637E+03 -0.24884743281E+03  0.71422069706E+03  0.79981626282E+03  0.50400001928E-02 0. -1.
</event>
<event>
 5   0  0.1817089E-02  0.7990493E+03  0.7818609E-02  0.9561394E-01
       -2   -1    0    0    0  501  0.00000000000E+00  0.00000000000E+00  0.27723116135E+03  0.27723116136E+03  0.25500000920E-02 0. -1.
        2   -1    0    0  501    0  0.00000000000E+00  0.00000000000E+00 -0.57576487245E+03  0.57576487246E+03  0.25500000920E-02 0.  1.
    10030    2    1    2    0    0  0.00000000000E+00  0.00000000000E+00 -0.29853371111E+03  0.85299603382E+03  0.79904934582E+03 0.  0.
        2    1    3    3  502    0  0.29951054310E+03 -0.26408990060E+03 -0.13535132458E+03  0.42162782416E+03  0.25500000920E-02 0.  1.
       -2    1    3    3    0  502 -0.29951054310E+03  0.26408990060E+03 -0.16318238652E+03  0.43136820966E+03  0.25500000920E-02 0. -1.
</event>
<event>
 5   0  0.1673727E-02  0.7997171E+03  0.7818609E-02  0.9560427E-01
        2   -1    0    0  501    0  0.00000000000E+00  0.00000000000E+00  0.13583311884E+04  0.13583311884E+04  0.25500000920E-02 0.  1.
       -2   -1    0    0    0  501  0.00000000000E+00  0.00000000000E+00 -0.11770829388E+03  0.11770829391E+03  0.25500000920E-02 0. -1.
    10030    2    1    2    0    0  0.00000000000E+00  0.00000000000E+00  0.12406228945E+04  0.14760394823E+04  0.79971706682E+03 0.  0.
        5    1    3    3  502    0 -0.30439410272E+02  0.27392545376E+03  0.11549379339E+04  0.11873775444E+04  0.46999998093E+01 0.  1.
       -5    1    3    3    0  502  0.30439410272E+02 -0.27392545376E+03  0.85684960672E+02  0.28866193791E+03  0.46999998093E+01 0. -1.
</event>
<event>
 5   0  0.6872500E-03  0.7996774E+03  0.7818609E-02  0.9560484E-01
        4   -1    0    0  501    0  0.00000000000E+00  0.00000000000E+00  0.69574208637E+03  0.69574324550E+03  0.12699999809E+01 0. -1.
       -4   -1    0    0    0  501  0.00000000000E+00  0.00000000000E+00 -0.22978173385E+03  0.22978524346E+03  0.12699999809E+01 0.  1.
    10030    2    1    2    0    0  0.00000000000E+00  0.00000000000E+00  0.46596035252E+03  0.92552848896E+03  0.79967739354E+03 0.  0.
        1    1    3    3  502    0 -0.34361574733E+03 -0.16431701244E+03  0.37377702457E+03  0.53364887942E+03  0.50400001928E-02 0.  1.
       -1    1    3    3    0  502  0.34361574733E+03  0.16431701244E+03  0.92183327954E+02  0.39187960953E+03  0.50400001928E-02 0. -1.
</event>
<event>
 5   0  0.1049780E-02  0.7452937E+03  0.7818609E-02  0.9642763E-01
        1   -1    0    0  501    0  0.00000000000E+00  0.00000000000E+00  0.10161771662E+04  0.10161771662E+04  0.50400001928E-02 0. -1.
       -1   -1    0    0    0  501  0.00000000000E+00  0.00000000000E+00 -0.13665499406E+03  0.13665499415E+03  0.50400001928E-02 0.  1.
    10030    2    1    2    0    0  0.00000000000E+00  0.00000000000E+00  0.87952217211E+03  0.11528321603E+04  0.74529372644E+03 0.  0.
        5    1    3    3  502    0  0.30202020496E+03 -0.16024437825E+03  0.66892554839E+03  0.75125091963E+03  0.46999998093E+01 0. -1.
       -5    1    3    3    0  502 -0.30202020496E+03  0.16024437825E+03  0.21059662372E+03  0.40158124070E+03  0.46999998093E+01 0.  1.
</event>
<event>
 5   0  0.1731337E-02  0.7230530E+03  0.7818609E-02  0.9678601E-01
       -2   -1    0    0    0  501  0.00000000000E+00  0.00000000000E+00  0.35937810805E+03  0.35937810805E+03  0.25500000920E-02 0. -1.
        2   -1    0    0  501    0  0.00000000000E+00  0.00000000000E+00 -0.36368777962E+03  0.36368777963E+03  0.25500000920E-02 0.  1.
    10030    2    1    2    0    0  0.00000000000E+00  0.00000000000E+00 -0.43096715729E+01  0.72306588768E+03  0.72305304415E+03 0.  0.
        4    1    3    3  502    0  0.29780764174E+03 -0.19447198410E+03 -0.66894453363E+02  0.36191880977E+03  0.12699999809E+01 0.  1.
       -4    1    3    3    0  502 -0.29780764174E+03  0.19447198410E+03  0.62584781790E+02  0.36114707791E+03  0.12699999809E+01 0. -1.
</event>
<event>
 5   0  0.1030323E-02  0.8084341E+03  0.7818609E-02  0.9547889E-01
        1   -1    0    0  501    0  0.00000000000E+00  0.00000000000E+00  0.24461056799E+03  0.24461056804E+03  0.50400001928E-02 0. -1.
       -1   -1    0    0    0  501  0.00000000000E+00  0.00000000000E+00 -0.66796553285E+03  0.66796553287E+03  0.50400001928E-02 0.  1.
    10030    2    1    2    0    0  0.00000000000E+00  0.00000000000E+00 -0.42335496486E+03  0.91257610091E+03  0.80843411214E+03 0.  0.
        3    1    3    3  502    0 -0.30698507529E+03 -0.84224512229E+02 -0.49288225997E+03  0.58674230911E+03  0.10100000352E+00 0.  1.
       -3    1    3    3    0  502  0.30698507529E+03  0.84224512229E+02  0.69527295103E+02  0.32583379180E+03  0.10100000352E+00 0. -1.
</event>
<event>
 5   0  0.1038912E-02  0.8022854E+03  0.7818609E-02  0.9556715E-01
       -1   -1    0    0    0  501  0.00000000000E+00  0.00000000000E+00  0.84910520204E+03  0.84910520206E+03  0.50400001928E-02 0. -1.
        1   -1    0    0  501    0  0.00000000000E+00  0.00000000000E+00 -0.18951179166E+03  0.18951179173E+03  0.50400001928E-02 0.  1.
    10030    2    1    2    0    0  0.00000000000E+00  0.00000000000E+00  0.65959341038E+03  0.10386169938E+04  0.80228535619E+03 0.  0.
        2    1    3    3  502    0  0.29527316519E+03 -0.96147475593E+02  0.65853891491E+03  0.72808246895E+03  0.25500000920E-02 0. -1.
       -2    1    3    3    0  502 -0.29527316519E+03  0.96147475593E+02  0.10544954742E+01  0.31053452483E+03  0.25500000920E-02 0.  1.
</event>
<event>
 5   0  0.1817089E-02  0.7766165E+03  0.7818609E-02  0.9594494E-01
       -2   -1    0    0    0  501  0.00000000000E+00  0.00000000000E+00  0.23875744685E+03  0.23875744686E+03  0.25500000920E-02 0. -1.
        2   -1    0    0  501    0  0.00000000000E+00  0.00000000000E+00 -0.63153340557E+03  0.63153340557E+03  0.25500000920E-02 0.  1.
    10030    2    1    2    0    0  0.00000000000E+00  0.00000000000E+00 -0.39277595872E+03  0.87029085244E+03  0.77661651675E+03 0.  0.
        2    1    3    3  502    0  0.10546740196E+03  0.32938507324E+03 -0.39421890256E+03  0.52442963541E+03  0.25500000920E-02 0.  1.
       -2    1    3    3    0  502 -0.10546740196E+03 -0.32938507324E+03  0.14429438428E+01  0.34586121703E+03  0.25500000920E-02 0. -1.
</event>
<event>
 5   0  0.1673727E-02  0.8009169E+03  0.7818609E-02  0.9558691E-01
        2   -1    0    0  501    0  0.00000000000E+00  0.00000000000E+00  0.50224569814E+03  0.50224569815E+03  0.25500000920E-02 0. -1.
       -2   -1    0    0    0  501  0.00000000000E+00  0.00000000000E+00 -0.31929982023E+03  0.31929982024E+03  0.25500000920E-02 0.  1.
    10030    2    1    2    0    0  0.00000000000E+00  0.00000000000E+00  0.18294587791E+03  0.82154551838E+03  0.80091687742E+03 0.  0.
        5    1    3    3  502    0 -0.23678418117E+03  0.30666371594E+03  0.19524930581E+03  0.43388220123E+03  0.46999998093E+01 0.  1.
       -5    1    3    3    0  502  0.23678418117E+03 -0.30666371594E+03 -0.12303427898E+02  0.38766331715E+03  0.46999998093E+01 0. -1.
</event>
<event>
 5   0  0.1146083E-02  0.7794982E+03  0.7818609E-02  0.9590176E-01
        1   -1    0    0  501    0  0.00000000000E+00  0.00000000000E+00  0.74826489199E+03  0.74826489201E+03  0.50400001928E-02 0.  1.
       -1   -1    0    0    0  501  0.00000000000E+00  0.00000000000E+00 -0.20300878892E+03  0.20300878899E+03  0.50400001928E-02 0. -1.
    10030    2    1    2    0    0  0.00000000000E+00  0.00000000000E+00  0.54525610307E+03  0.95127368099E+03  0.77949817076E+03 0.  0.
        4    1    3    3  502    0 -0.12923971468E+03 -0.34105002091E+03  0.10492320622E+03  0.37951088616E+03  0.12699999809E+01 0. -1.
       -4    1    3    3    0  502  0.12923971468E+03  0.34105002091E+03  0.44033289684E+03  0.57176279483E+03  0.12699999809E+01 0.  1.
</event>
<event>
 5   0  0.1673727E-02  0.8128796E+03  0.7818609E-02  0.9541559E-01
       -2   -1    0    0    0  501  0.00000000000E+00  0.00000000000E+00  0.85085069138E+02  0.85085069176E+02  0.25500000920E-02 0. -1.
        2   -1    0    0  501    0  0.00000000000E+00  0.00000000000E+00 -0.19415074333E+04  0.19415074333E+04  0.25500000920E-02 0.  1.
    10030    2    1    2    0    0  0.00000000000E+00  0.00000000000E+00 -0.18564223642E+04  0.20265925025E+04  0.81287955870E+03 0.  0.
        5    1    3    3  502    0 -0.16333897040E+02  0.17919637744E+03 -0.19704912427E+02  0.18107598253E+03  0.46999998093E+01 0. -1.
       -5    1    3    3    0  502  0.16333897040E+02 -0.17919637744E+03 -0.18367174518E+04  0.18455165200E+04  0.46999998093E+01 0.  1.
</event>
<event>
 5   0  0.1030323E-02  0.7920957E+03  0.7818609E-02  0.9571529E-01
        1   -1    0    0  501    0  0.00000000000E+00  0.00000000000E+00  0.85156137117E+03  0.85156137118E+03  0.50400001928E-02 0. -1.
       -1   -1    0    0    0  501  0.00000000000E+00  0.00000000000E+00 -0.18419565225E+03  0.18419565232E+03  0.50400001928E-02 0.  1.
    10030    2    1    2    0    0  0.00000000000E+00  0.00000000000E+00  0.66736571891E+03  0.10357570235E+04  0.79209570694E+03 0.  0.
        3    1    3    3  502    0  0.26850136315E+03 -0.24674014851E+03  0.53575167252E+03  0.64807680695E+03  0.10100000352E+00 0. -1.
       -3    1    3    3    0  502 -0.26850136315E+03  0.24674014851E+03  0.13161404639E+03  0.38768021655E+03  0.10100000352E+00 0.  1.
</event>
<event>
 5   0  0.1817089E-02  0.8010248E+03  0.7818609E-02  0.9558535E-01
       -2   -1    0    0    0  501  0.00000000000E+00  0.00000000000E+00  0.38794422721E+03  0.38794422722E+03  0.25500000920E-02 0.  1.
        2   -1    0    0  501    0  0.00000000000E+00  0.00000000000E+00 -0.41348772246E+03  0.41348772246E+03  0.25500000920E-02 0. -1.
    10030    2    1    2    0    0  0.00000000000E+00  0.00000000000E+00 -0.25543495245E+02  0.80143194968E+03  0.80102478103E+03 0.  0.
        2    1    3    3  502    0 -0.75705966898E+02  0.10780858006E+03 -0.39119157024E+03  0.41277709237E+03  0.25500000920E-02 0. -1.
       -2    1    3    3    0  502  0.75705966898E+02 -0.10780858006E+03  0.36564807499E+03  0.38865485731E+03  0.25500000920E-02 0.  1.
</event>
<event>
 5   0  0.1818665E-02  0.7879379E+03  0.7818609E-02  0.9577642E-01
        2   -1    0    0  501    0  0.00000000000E+00  0.00000000000E+00  0.12481028134E+04  0.12481028134E+04  0.25500000920E-02 0. -1.
       -2   -1    0    0    0  501  0.00000000000E+00  0.00000000000E+00 -0.12435798201E+03  0.12435798204E+03  0.25500000920E-02 0.  1.
    10030    2    1    2    0    0  0.00000000000E+00  0.00000000000E+00  0.11237448314E+04  0.13724607955E+04  0.78793793472E+03 0.  0.
        3    1    3    3  502    0 -0.10778437494E+03  0.48551152883E+02  0.12164813841E+04  0.12222117877E+04  0.10100000352E+00 0. -1.
       -3    1    3    3    0  502  0.10778437494E+03 -0.48551152883E+02 -0.92736552691E+02  0.15024900776E+03  0.10100000352E+00 0.  1.
</event>
<event>
 5   0  0.1747544E-02  0.8078710E+03  0.7818609E-02  0.9548694E-01
       -2   -1    0    0    0  501  0.00000000000E+00  0.00000000000E+00  0.16877918648E+03  0.16877918650E+03  0.25500000920E-02 0.  1.
        2   -1    0    0  501    0  0.00000000000E+00  0.00000000000E+00 -0.96672983559E+03  0.96672983559E+03  0.25500000920E-02 0. -1.
    10030    2    1    2    0    0  0.00000000000E+00  0.00000000000E+00 -0.79795064911E+03  0.11355090221E+04  0.80787096793E+03 0.  0.
        1    1    3    3  502    0  0.25390802596E+03 -0.50125721899E+02  0.36933331462E+02  0.26143057327E+03  0.50400001928E-02 0.  1.
       -1    1    3    3    0  502 -0.25390802596E+03  0.50125721899E+02 -0.83488398057E+03  0.87407844881E+03  0.50400001928E-02 0. -1.
</event>
<event>
 5   0  0.1025900E-02  0.7989191E+03  0.7818609E-02  0.9561583E-01
        1   -1    0    0  501    0  0.00000000000E+00  0.00000000000E+00  0.67991856646E+03  0.67991856648E+03  0.50400001928E-02 0.  1.
       -1   -1    0    0    0  501  0.00000000000E+00  0.00000000000E+00 -0.23468679990E+03  0.23468679996E+03  0.50400001928E-02 0. -1.
    10030    2    1    2    0    0  0.00000000000E+00  0.00000000000E+00  0.44523176656E+03  0.91460536644E+03  0.79891905120E+03 0.  0.
        1    1    3    3  502    0 -0.13615351033E+03  0.36472336614E+03  0.12017675069E+03  0.40743510356E+03  0.50400001928E-02 0.  1.
       -1    1    3    3    0  502  0.13615351033E+03 -0.36472336614E+03  0.32505501587E+03  0.50717026288E+03  0.50400001928E-02 0. -1.
</event>
<event>
 5   0  0.1818665E-02  0.8027677E+03  0.7818609E-02  0.9556020E-01
       -2   -1    0    0    0  501  0.00000000000E+00  0.00000000000E+00  0.58677567652E+02  0.58677567707E+02  0.25500000920E-02 0. -1.
        2   -1    0    0  501    0  0.00000000000E+00  0.00000000000E+00 -0.27456655834E+04  0.27456655834E+04  0.25500000920E-02 0.  1.
    10030    2    1    2    0    0  0.00000000000E+00  0.00000000000E+00 -0.26869880157E+04  0.28043431511E+04  0.80276765779E+03 0.  0.
        3    1    3    3  502    0  0.17718332023E+03  0.98304867360E+01 -0.85801087143E+02  0.19711013214E+03  0.10100000352E+00 0. -1.
       -3    1    3    3    0  502 -0.17718332023E+03 -0.98304867360E+01 -0.26011869286E+04  0.26072330189E+04  0.10100000352E+00 0.  1.
</event>
<event>
 5   0  0.1146083E-02  0.8076715E+03  0.7818609E-02  0.9548979E-01
       -1   -1    0    0    0  501  0.00000000000E+00  0.00000000000E+00  0.13575446672E+04  0.13575446672E+04  0.50400001928E-02 0. -1.
        1   -1    0    0  501    0  0.00000000000E+00  0.00000000000E+00 -0.12013108119E+03  0.12013108129E+03  0.50400001928E-02 0.  1.
    10030    2    1    2    0    0  0.00000000000E+00  0.00000000000E+00  0.12374135860E+04  0.14776757485E+04  0.80767148943E+03 0.  0.
        4    1    3    3  502    0  0.32767284612E+03  0.16938096183E+03  0.91945668516E+03  0.99068744471E+03  0.12699999809E+01 0. -1.
       -4    1    3    3    0  502 -0.32767284612E+03 -0.16938096183E+03  0.31795690080E+03  0.48698830374E+03  0.12699999809E+01 0.  1.
</event>
<event>
 5   0  0.1673727E-02  0.8222155E+03  0.7818609E-02  0.9528406E-01
       -2   -1    0    0    0  501  0.00000000000E+00  0.00000000000E+00  0.23791808888E+03  0.23791808890E+03  0.25500000920E-02 0.  1.
        2   -1    0    0  501    0  0.00000000000E+00  0.00000000000E+00 -0.71036885581E+03  0.71036885581E+03  0.25500000920E-02 0. -1.
    10030    2    1    2    0    0  0.00000000000E+00  0.00000000000E+00 -0.47245076692E+03  0.94828694471E+03  0.82221554494E+03 0.  0.
        5    1    3    3  502    0  0.32657968725E+03  0.13998597134E+03  0.22023926063E+01  0.35535518123E+03  0.46999998093E+01 0.  1.
       -5    1    3    3    0  502 -0.32657968725E+03 -0.13998597134E+03 -0.47465315953E+03  0.59293176348E+03  0.46999998093E+01 0. -1.
</event>
<event>
 5   0  0.1146083E-02  0.8020123E+03  0.7818609E-02  0.9557109E-01
        1   -1    0    0  501    0  0.00000000000E+00  0.00000000000E+00  0.35737794568E+03  0.35737794571E+03  0.50400001928E-02 0.  1.
       -1   -1    0    0    0  501  0.00000000000E+00  0.00000000000E+00 -0.44996040201E+03  0.44996040204E+03  0.50400001928E-02 0. -1.
    10030    2    1    2    0    0  0.00000000000E+00  0.00000000000E+00 -0.92582456338E+02  0.80733834775E+03  0.80201227954E+03 0.  0.
        4    1    3    3  502    0  0.36782670764E+03 -0.10792457710E+03  0.72219564465E+02  0.39007881202E+03  0.12699999809E+01 0.  1.
       -4    1    3    3    0  502 -0.36782670764E+03  0.10792457710E+03 -0.16480202080E+03  0.41725953573E+03  0.12699999809E+01 0. -1.
</event>
<event>
 5   0  0.1030323E-02  0.8022975E+03  0.7818609E-02  0.9556698E-01
       -1   -1    0    0    0  501  0.00000000000E+00  0.00000000000E+00  0.14562587049E+03  0.14562587058E+03  0.50400001928E-02 0.  1.
        1   -1    0    0  501    0  0.00000000000E+00  0.00000000000E+00 -0.11050256117E+04  0.11050256117E+04  0.50400001928E-02 0. -1.
    10030    2    1    2    0    0  0.00000000000E+00  0.00000000000E+00 -0.95939974119E+03  0.12506514823E+04  0.80229749264E+03 0.  0.
        3    1    3    3  502    0  0.33501491245E+02 -0.39863955163E+03 -0.52605961722E+03  0.66088922908E+03  0.10100000352E+00 0.  1.
       -3    1    3    3    0  502 -0.33501491245E+02  0.39863955163E+03 -0.43334012397E+03  0.58976225319E+03  0.10100000352E+00 0. -1.
</event>
<event>
 5   0  0.1747544E-02  0.7982034E+03  0.7818609E-02  0.9562621E-01
       -2   -1    0    0    0  501  0.00000000000E+00  0.00000000000E+00  0.31057015286E+03  0.31057015287E+03  0.25500000920E-02 0.  1.
        2   -1    0    0  501    0  0.00000000000E+00  0.00000000000E+00 -0.51287014312E+03  0.51287014313E+03  0.25500000920E-02 0. -1.
    10030    2    1    2    0    0  0.00000000000E+00  0.00000000000E+00 -0.20229999026E+03  0.82344029600E+03  0.79820337948E+03 0.  0.
        1    1    3    3  502    0  0.10880110430E+03  0.97833749024E+02 -0.48420242636E+03  0.50582715671E+03  0.50400001928E-02 0. -1.
       -1    1    3    3    0  502 -0.10880110430E+03 -0.97833749024E+02  0.28190243610E+03  0.31761313929E+03  0.50400001928E-02 0.  1.
</event>
<event>
 5   0  0.1731337E-02  0.8187089E+03  0.7818609E-02  0.9533325E-01
       -2   -1    0    0    0  501  0.00000000000E+00  0.00000000000E+00  0.13930057631E+03  0.13930057633E+03  0.25500000920E-02 0. -1.
        2   -1    0    0  501    0  0.00000000000E+00  0.00000000000E+00 -0.12029458867E+04  0.12029458867E+04  0.25500000920E-02 0.  1.
    10030    2    1    2    0    0  0.00000000000E+00  0.00000000000E+00 -0.10636453104E+04  0.13422464631E+04  0.81870887452E+03 0.  0.
        4    1    3    3  502    0  0.15478915719E+02 -0.40212284936E+03 -0.40884009566E+03  0.57366734222E+03  0.12699999809E+01 0. -1.
       -4    1    3    3    0  502 -0.15478915719E+02  0.40212284936E+03 -0.65480521476E+03  0.76857912084E+03  0.12699999809E+01 0.  1.
</event>
<event>
 5   0  0.1818665E-02  0.8160399E+03  0.7818609E-02  0.9537086E-01
       -2   -1    0    0    0  501  0.00000000000E+00  0.00000000000E+00  0.20396054453E+03  0.20396054454E+03  0.25500000920E-02 0.  1.
        2   -1    0    0  501    0  0.00000000000E+00  0.00000000000E+00 -0.81623760392E+03  0.81623760392E+03  0.25500000920E-02 0. -1.
    10030    2    1    2    0    0  0.00000000000E+00  0.00000000000E+00 -0.61227705939E+03  0.10201981485E+04  0.81603986708E+03 0.  0.
        3    1    3    3  502    0  0.29471198629E+03  0.15075875502E+03 -0.79317913305E+01  0.33112879759E+03  0.10100000352E+00 0.  1.
       -3    1    3    3    0  502 -0.29471198629E+03 -0.15075875502E+03 -0.60434526806E+03  0.68906935087E+03  0.10100000352E+00 0. -1.
</event>
<event>
 5   0  0.1038912E-02  0.7942852E+03  0.7818609E-02  0.9568326E-01
        1   -1    0    0  501    0  0.00000000000E+00  0.00000000000E+00  0.80326532246E+03  0.80326532248E+03  0.50400001928E-02 0. -1.
       -1   -1    0    0    0  501  0.00000000000E+00  0.00000000000E+00 -0.19635138786E+03  0.19635138792E+03  0.50400001928E-02 0.  1.
    10030    2    1    2    0    0  0.00000000000E+00  0.00000000000E+00  0.60691393460E+03  0.99961671040E+03  0.79428524077E+03 0.  0.
        2    1    3    3  502    0  0.34168484749E+03 -0.44963786542E+02  0.55074003247E+02  0.34900347125E+03  0.25500000920E-02 0.  1.
       -2    1    3    3    0  502 -0.34168484749E+03  0.44963786542E+02  0.55183993136E+03  0.65061323915E+03  0.25500000920E-02 0. -1.
</event>
<event>
 5   0  0.1038912E-02  0.7883166E+03  0.7818609E-02  0.9577084E-01
        1   -1    0    0  501    0  0.00000000000E+00  0.00000000000E+00  0.12685282263E+04  0.12685282263E+04  0.50400001928E-02 0.  1.
       -1   -1    0    0    0  501  0.00000000000E+00  0.00000000000E+00 -0.12247323193E+03  0.12247323203E+03  0.50400001928E-02 0. -1.
    10030    2    1    2    0    0  0.00000000000E+00  0.00000000000E+00  0.11460549944E+04  0.13910014584E+04  0.78831656522E+03 0.  0.
        2    1    3    3  502    0 -0.10150730702E+03 -0.38081696738E+03  0.56252070629E+03  0.68684411698E+03  0.25500000920E-02 0. -1.
       -2    1    3    3    0  502  0.10150730702E+03  0.38081696738E+03  0.58353428810E+03  0.70415734138E+03  0.25500000920E-02 0.  1.
</event>
<event>
 5   0  0.1673727E-02  0.7919983E+03  0.7818609E-02  0.9571672E-01
       -2   -1    0    0    0  501  0.00000000000E+00  0.00000000000E+00  0.11268069463E+04  0.11268069463E+04  0.25500000920E-02 0. -1.
        2   -1    0    0  501    0  0.00000000000E+00  0.00000000000E+00 -0.13916787355E+03  0.13916787357E+03  0.25500000920E-02 0.  1.
    10030    2    1    2    0    0  0.00000000000E+00  0.00000000000E+00  0.98763907277E+03  0.12659748199E+04  0.79199829958E+03 0.  0.
        5    1    3    3  502    0  0.12649840352E+03 -0.56234667690E+02 -0.99182082309E+02  0.17036243539E+03  0.46999998093E+01 0.  1.
       -5    1    3    3    0  502 -0.12649840352E+03  0.56234667690E+02  0.10868211551E+04  0.10956123845E+04  0.46999998093E+01 0. -1.
</event>
<event>
 5   0  0.1025900E-02  0.8004882E+03  0.7818609E-02  0.9559311E-01
       -1   -1    0    0    0  501  0.00000000000E+00  0.00000000000E+00  0.16577300423E+03  0.16577300431E+03  0.50400001928E-02 0.  1.
        1   -1    0    0  501    0  0.00000000000E+00  0.00000000000E+00 -0.96635350966E+03  0.96635350967E+03  0.50400001928E-02 0. -1.
    10030    2    1    2    0    0  0.00000000000E+00  0.00000000000E+00 -0.80058050543E+03  0.11321265140E+04  0.80048816230E+03 0.  0.
        1    1    3    3  502    0 -0.49118544886E+01 -0.36585865221E+03 -0.17084883966E+03  0.40381432089E+03  0.50400001928E-02 0.  1.
       -1    1    3    3    0  502  0.49118544886E+01  0.36585865221E+03 -0.62973166577E+03  0.72831219310E+03  0.50400001928E-02 0. -1.
</event>
<event>
 5   0  0.1818665E-02  0.7958540E+03  0.7818609E-02  0.9566038E-01
        2   -1    0    0  501    0  0.00000000000E+00  0.00000000000E+00  0.15069922995E+04  0.15069922995E+04  0.25500000920E-02 0. -1.
       -2   -1    0    0    0  501  0.00000000000E+00  0.00000000000E+00 -0.10507412801E+03  0.10507412804E+03  0.25500000920E-02 0.  1.
    10030    2    1    2    0    0  0.00000000000E+00  0.00000000000E+00  0.14019181715E+04  0.16120664275E+04  0.79585401127E+03 0.  0.
        3    1    3    3  502    0 -0.20334553928E+03  0.13074994999E+03  0.60731625095E+02  0.24926551758E+03  0.10100000352E+00 0.  1.
       -3    1    3    3    0  502  0.20334553928E+03 -0.13074994999E+03  0.13411865464E+04  0.13628009099E+04  0.10100000352E+00 0. -1.
</event>
<event>
 5   0  0.6872500E-03  0.7916892E+03  0.7818609E-02  0.9572125E-01
        4   -1    0    0  501    0  0.00000000000E+00  0.00000000000E+00  0.47005563143E+03  0.47005734708E+03  0.12699999809E+01 0. -1.
       -4   -1    0    0    0  501  0.00000000000E+00  0.00000000000E+00 -0.33334624882E+03  0.33334866807E+03  0.12699999809E+01 0.  1.
    10030    2    1    2    0    0  0.00000000000E+00  0.00000000000E+00  0.13670938261E+03  0.80340601514E+03  0.79168918767E+03 0.  0.
        5    1    3    3  502    0  0.23335426030E+03  0.31968456413E+03  0.63999187173E+02  0.40096186515E+03  0.46999998093E+01 0. -1.
       -5    1    3    3    0  502 -0.23335426030E+03 -0.31968456413E+03  0.72710195436E+02  0.40244415000E+03  0.46999998093E+01 0.  1.
</event>
<event>
 5   0  0.1146083E-02  0.7748489E+03  0.7818609E-02  0.9597153E-01
        1   -1    0    0  501    0  0.00000000000E+00  0.00000000000E+00  0.68968590558E+03  0.68968590560E+03  0.50400001928E-02 0.  1.
       -1   -1    0    0    0  501  0.00000000000E+00  0.00000000000E+00 -0.21763194649E+03  0.21763194655E+03  0.50400001928E-02 0. -1.
    10030    2    1    2    0    0  0.00000000000E+00  0.00000000000E+00  0.47205395909E+03  0.90731785215E+03  0.77484885270E+03 0.  0.
        4    1    3    3  502    0  0.22569027861E+03 -0.23391023104E+03 -0.10837543258E+02  0.32522171405E+03  0.12699999809E+01 0.  1.
       -4    1    3    3    0  502 -0.22569027861E+03  0.23391023104E+03  0.48289150235E+03  0.58209613809E+03  0.12699999809E+01 0. -1.
</event>
<event>
 5   0  0.1049780E-02  0.8131658E+03  0.7818609E-02  0.9541153E-01
       -1   -1    0    0    0  501  0.00000000000E+00  0.00000000000E+00  0.30593206169E+03  0.30593206173E+03  0.50400001928E-02 0. -1.
        1   -1    0    0  501    0  0.00000000000E+00  0.00000000000E+00 -0.54034760845E+03  0.54034760847E+03  0.50400001928E-02 0.  1.
    10030    2    1    2    0    0  0.00000000000E+00  0.00000000000E+00 -0.23441554676E+03  0.84627967020E+03  0.81316580820E+03 0.  0.
        5    1    3    3  502    0  0.16219861009E+03  0.36724379684E+03 -0.18393723910E+03  0.44162358786E+03  0.46999998093E+01 0.  1.
       -5    1    3    3    0  502 -0.16219861009E+03 -0.36724379684E+03 -0.50478307664E+02  0.40465608234E+03  0.46999998093E+01 0. -1.
</event>
<event>
 5   0  0.1731337E-02  0.8045738E+03  0.7818609E-02  0.9553420E-01
       -2   -1    0    0    0  501  0.00000000000E+00  0.00000000000E+00  0.54403068746E+03  0.54403068747E+03  0.25500000920E-02 0. -1.
        2   -1    0    0  501    0  0.00000000000E+00  0.00000000000E+00 -0.29747357707E+03  0.29747357708E+03  0.25500000920E-02 0.  1.
    10030    2    1    2    0    0  0.00000000000E+00  0.00000000000E+00  0.24655711040E+03  0.84150426455E+03  0.80457381175E+03 0.  0.
        4    1    3    3  502    0  0.25664918377E+03  0.12071824815E+03 -0.17510837895E+03  0.33332605095E+03  0.12699999809E+01 0.  1.
       -4    1    3    3    0  502 -0.25664918377E+03 -0.12071824815E+03  0.42166548934E+03  0.50817821359E+03  0.12699999809E+01 0. -1.
</event>
<event>
 5   0  0.1049780E-02  0.7958758E+03  0.7818609E-02  0.9566006E-01
       -1   -1    0    0    0  501  0.00000000000E+00  0.00000000000E+00  0.17532410037E+03  0.17532410044E+03  0.50400001928E-02 0. -1.
        1   -1    0    0  501    0  0.00000000000E+00  0.00000000000E+00 -0.90321052133E+03  0.90321052135E+03  0.50400001928E-02 0.  1.
    10030    2    1    2    0    0  0.00000000000E+00  0.00000000000E+00 -0.72788642097E+03  0.10785346218E+04  0.79587579971E+03 0.  0.
        5    1    3    3  502    0  0.92922398075E+02 -0.38017037974E+03 -0.26651908117E+03  0.47351726507E+03  0.46999998093E+01 0. -1.
       -5    1    3    3    0  502 -0.92922398075E+02  0.38017037974E+03 -0.46136733980E+03  0.60501735672E+03  0.46999998093E+01 0.  1.
</event>
<event>
 5   0  0.1817089E-02  0.8006143E+03  0.7818609E-02  0.9559128E-01
        2   -1    0    0  501    0  0.00000000000E+00  0.00000000000E+00  0.39671816803E+03  0.39671816803E+03  0.25500000920E-02 0.  1.
       -2   -1    0    0    0  501  0.00000000000E+00  0.00000000000E+00 -0.40392858702E+03  0.40392858703E+03  0.25500000920E-02 0. -1.
    10030    2    1    2    0    0  0.00000000000E+00  0.00000000000E+00 -0.72104189910E+01  0.80064675506E+03  0.80061428681E+03 0.  0.
        2    1    3    3  502    0 -0.88537915419E+02 -0.11660678080E+02  0.38662962476E+03  0.39680902286E+03  0.25500000920E-02 0.  1.
       -2    1    3    3    0  502  0.88537915419E+02  0.11660678080E+02 -0.39384004375E+03  0.40383773220E+03  0.25500000920E-02 0. -1.
</event>
<event>
 5   0  0.1038912E-02  0.7746019E+03  0.7818609E-02  0.9597525E-01
       -1   -1    0    0    0  501  0.00000000000E+00  0.00000000000E+00  0.13431897804E+03  0.13431897813E+03  0.50400001928E-02 0. -1.
        1   -1    0    0  501    0  0.00000000000E+00  0.00000000000E+00 -0.11167597909E+04  0.11167597909E+04  0.50400001928E-02 0.  1.
    10030    2    1    2    0    0  0.00000000000E+00  0.00000000000E+00 -0.98244081288E+03  0.12510787691E+04  0.77460192073E+03 0.  0.
        2    1    3    3  502    0 -0.76990486872E+02 -0.27476011922E+01 -0.11042596333E+04  0.11069437303E+04  0.25500000920E-02 0.  1.
       -2    1    3    3    0  502  0.76990486872E+02  0.27476011922E+01  0.12181882041E+03  0.14413503874E+03  0.25500000920E-02 0. -1.
</event>
<event>
 5   0  0.1025900E-02  0.8067940E+03  0.7818609E-02  0.9550235E-01
        1   -1    0    0  501    0  0.00000000000E+00  0.00000000000E+00  0.70639776437E+03  0.70639776438E+03  0.50400001928E-02 0. -1.
       -1   -1    0    0    0  501  0.00000000000E+00  0.00000000000E+00 -0.23036472669E+03  0.23036472675E+03  0.50400001928E-02 0.  1.
    10030    2    1    2    0    0  0.00000000000E+00  0.00000000000E+00  0.47603303767E+03  0.93676249113E+03  0.80679397112E+03 0.  0.
        1    1    3    3  502    0 -0.52438942402E+02  0.41289547720E+02 -0.22390933134E+03  0.23364515427E+03  0.50400001928E-02 0.  1.
       -1    1    3    3    0  502  0.52438942402E+02 -0.41289547720E+02  0.69994236901E+03  0.70311733686E+03  0.50400001928E-02 0. -1.
</event>
<event>
 5   0  0.1817089E-02  0.8006670E+03  0.7818609E-02  0.9559052E-01
       -2   -1    0    0    0  501  0.00000000000E+00  0.00000000000E+00  0.81738170393E+02  0.81738170433E+02  0.25500000920E-02 0.  1.
        2   -1    0    0  501    0  0.00000000000E+00  0.00000000000E+00 -0.19607353137E+04  0.19607353137E+04  0.25500000920E-02 0. -1.
    10030    2    1    2    0    0  0.00000000000E+00  0.00000000000E+00 -0.18789971433E+04  0.20424734841E+04  0.80066701496E+03 0.  0.
        2    1    3    3  502    0 -0.73342177635E+02 -0.63294925656E+02  0.51384987158E+02  0.10966193298E+03  0.25500000920E-02 0.  1.
       -2    1    3    3    0  502  0.73342177635E+02  0.63294925656E+02 -0.19303821305E+04  0.19328115512E+04  0.25500000920E-02 0. -1.
</event>
<event>
 5   0  0.1747544E-02  0.8000916E+03  0.7818609E-02  0.9559885E-01
        2   -1    0    0  501    0  0.00000000000E+00  0.00000000000E+00  0.65168457683E+03  0.65168457683E+03  0.25500000920E-02 0.  1.
       -2   -1    0    0    0  501  0.00000000000E+00  0.00000000000E+00 -0.24557375715E+03  0.24557375716E+03  0.25500000920E-02 0. -1.
    10030    2    1    2    0    0  0.00000000000E+00  0.00000000000E+00  0.40611081968E+03  0.89725833400E+03  0.80009156980E+03 0.  0.
        1    1    3    3  502    0  0.62145930008E+02 -0.30519003604E+03 -0.78499890890E+02  0.32119356720E+03  0.50400001928E-02 0. -1.
       -1    1    3    3    0  502 -0.62145930008E+02  0.30519003604E+03  0.48461071057E+03  0.57606476679E+03  0.50400001928E-02 0.  1.
</event>
<event>
 5   0  0.1038912E-02  0.8212401E+03  0.7818609E-02  0.9529772E-01
        1   -1    0    0  501    0  0.00000000000E+00  0.00000000000E+00  0.33566632089E+03  0.33566632093E+03  0.50400001928E-02 0.  1.
       -1   -1    0    0    0  501  0.00000000000E+00  0.00000000000E+00 -0.50231079752E+03  0.50231079754E+03  0.50400001928E-02 0. -1.
    10030    2    1    2    0    0  0.00000000000E+00  0.00000000000E+00 -0.16664447662E+03  0.83797711847E+03  0.82124008030E+03 0.  0.
        2    1    3    3  502    0 -0.10965896072E+03  0.29064562442E+03 -0.35732586437E+03  0.47347834165E+03  0.25500000920E-02 0. -1.
       -2    1    3    3    0  502  0.10965896072E+03 -0.29064562442E+03  0.19068138775E+03  0.36449877682E+03  0.25500000920E-02 0.  1.
</event>
<event>
 5   0  0.1025900E-02  0.7983975E+03  0.7818609E-02  0.9562340E-01
       -1   -1    0    0    0  501  0.00000000000E+00  0.00000000000E+00  0.26603889421E+03  0.26603889426E+03  0.50400001928E-02 0.  1.
        1   -1    0    0  501    0  0.00000000000E+00  0.00000000000E+00 -0.59900885617E+03  0.59900885619E+03  0.50400001928E-02 0. -1.
    10030    2    1    2    0    0  0.00000000000E+00  0.00000000000E+00 -0.33296996196E+03  0.86504775045E+03  0.79839752943E+03 0.  0.
        1    1    3    3  502    0 -0.75059262373E+01 -0.21793097356E+03 -0.52877808360E+03  0.57197596967E+03  0.50400001928E-02 0. -1.
       -1    1    3    3    0  502  0.75059262373E+01  0.21793097356E+03  0.19580812164E+03  0.29307178078E+03  0.50400001928E-02 0.  1.
</event>
<event>
 5   0  0.1146083E-02  0.7849024E+03  0.7818609E-02  0.9582131E-01
        1   -1    0    0  501    0  0.00000000000E+00  0.00000000000E+00  0.27545124658E+03  0.27545124663E+03  0.50400001928E-02 0. -1.
       -1   -1    0    0    0  501  0.00000000000E+00  0.00000000000E+00 -0.55914779576E+03  0.55914779578E+03  0.50400001928E-02 0.  1.
    10030    2    1    2    0    0  0.00000000000E+00  0.00000000000E+00 -0.28369654918E+03  0.83459904241E+03  0.78490243316E+03 0.  0.
        4    1    3    3  502    0 -0.39456491262E+02  0.91234885883E+02 -0.54553830651E+03  0.55452166402E+03  0.12699999809E+01 0.  1.
       -4    1    3    3    0  502  0.39456491262E+02 -0.91234885883E+02  0.26184175733E+03  0.28007737839E+03  0.12699999809E+01 0. -1.
</event>
<event>
 5   0  0.1731337E-02  0.7833614E+03  0.7818609E-02  0.9584418E-01
        2   -1    0    0  501    0  0.00000000000E+00  0.00000000000E+00  0.46801523738E+03  0.46801523738E+03  0.25500000920E-02 0.  1.
       -2   -1    0    0    0  501  0.00000000000E+00  0.00000000000E+00 -0.32779648963E+03  0.32779648964E+03  0.25500000920E-02 0. -1.
    10030    2    1    2    0    0  0.00000000000E+00  0.00000000000E+00  0.14021874774E+03  0.79581172703E+03  0.78336135190E+03 0.  0.
        4    1    3    3  502    0 -0.31453462275E+03  0.23061760945E+03  0.33542451570E+02  0.39146292245E+03  0.12699999809E+01 0. -1.
       -4    1    3    3    0  502  0.31453462275E+03 -0.23061760945E+03  0.10667629617E+03  0.40434880458E+03  0.12699999809E+01 0.  1.
</event>
<event>
 5   0  0.1030323E-02  0.7993634E+03  0.7818609E-02  0.9560939E-01
        1   -1    0    0  501    0  0.00000000000E+00  0.00000000000E+00  0.43634492902E+03  0.43634492905E+03  0.50400001928E-02 0.  1.
       -1   -1    0    0    0  501  0.00000000000E+00  0.00000000000E+00 -0.36609903655E+03  0.36609903659E+03  0.50400001928E-02 0. -1.
    10030    2    1    2    0    0  0.00000000000E+00  0.00000000000E+00  0.70245892464E+02  0.80244396563E+03  0.79936339207E+03 0.  0.
        3    1    3    3  502    0 -0.39575844295E+03 -0.30841013333E+02 -0.11634820288E+02  0.39712881098E+03  0.10100000352E+00 0. -1.
       -3    1    3    3    0  502  0.39575844295E+03  0.30841013333E+02  0.81880712752E+02  0.40531515465E+03  0.10100000352E+00 0.  1.
</event>
<event>
 5   0  0.1025900E-02  0.8017867E+03  0.7818609E-02  0.9557434E-01
        1   -1    0    0  501    0  0.00000000000E+00  0.00000000000E+00  0.17023240742E+04  0.17023240742E+04  0.50400001928E-02 0.  1.
       -1   -1    0    0    0  501  0.00000000000E+00  0.00000000000E+00 -0.94409456713E+02  0.94409456848E+02  0.50400001928E-02 0. -1.
    10030    2    1    2    0    0  0.00000000000E+00  0.00000000000E+00  0.16079146175E+04  0.17967335310E+04  0.80178673254E+03 0.  0.
        1    1    3    3  502    0 -0.31918830245E+03 -0.53489955838E+01  0.13473759657E+04  0.13846774993E+04  0.50400001928E-02 0.  1.
       -1    1    3    3    0  502  0.31918830245E+03  0.53489955838E+01  0.26053865176E+03  0.41205603170E+03  0.50400001928E-02 0. -1.
</event>
<event>
 5   0  0.1025900E-02  0.7979298E+03  0.7818609E-02  0.9563018E-01
       -1   -1    0    0    0  501  0.00000000000E+00  0.00000000000E+00  0.54802725677E+03  0.54802725679E+03  0.50400001928E-02 0. -1.
        1   -1    0    0  501    0  0.00000000000E+00  0.00000000000E+00 -0.29044722553E+03  0.29044722557E+03  0.50400001928E-02 0.  1.
    10030    2    1    2    0    0  0.00000000000E+00  0.00000000000E+00  0.25758003124E+03  0.83847448237E+03  0.79792981213E+03 0.  0.
        1    1    3    3  502    0 -0.10183947041E+03 -0.65678964441E+02 -0.27064031211E+03  0.29653192521E+03  0.50400001928E-02 0.  1.
       -1    1    3    3    0  502  0.10183947041E+03  0.65678964441E+02  0.52822034335E+03  0.54194255716E+03  0.50400001928E-02 0. -1.
</event>
<event>
 5   0  0.1731337E-02  0.8080406E+03  0.7818609E-02  0.9548451E-01
       -2   -1    0    0    0  501  0.00000000000E+00  0.00000000000E+00  0.17286136450E+03  0.17286136452E+03  0.25500000920E-02 0.  1.
        2   -1    0    0  501    0  0.00000000000E+00  0.00000000000E+00 -0.94429664694E+03  0.94429664694E+03  0.25500000920E-02 0. -1.
    10030    2    1    2    0    0  0.00000000000E+00  0.00000000000E+00 -0.77143528244E+03  0.11171580115E+04  0.80804061011E+03 0.  0.
        4    1    3    3  502    0  0.12066431543E+03  0.10315543013E+03 -0.89936843375E+03  0.91327220056E+03  0.12699999809E+01 0. -1.
       -4    1    3    3    0  502 -0.12066431543E+03 -0.10315543013E+03  0.12793315131E+03  0.20388581090E+03  0.12699999809E+01 0.  1.
</event>
<event>
 5   0  0.1818665E-02  0.8047008E+03  0.7818609E-02  0.9553238E-01
        2   -1    0    0  501    0  0.00000000000E+00  0.00000000000E+00  0.24631411072E+03  0.24631411073E+03  0.25500000920E-02 0.  1.
       -2   -1    0    0    0  501  0.00000000000E+00  0.00000000000E+00 -0.65723338730E+03  0.65723338730E+03  0.25500000920E-02 0. -1.
    10030    2    1    2    0    0  0.00000000000E+00  0.00000000000E+00 -0.41091927658E+03  0.90354749804E+03  0.80470083220E+03 0.  0.
        3    1    3    3  502    0  0.16268003267E+03  0.32991543276E+03 -0.22410207644E+02  0.36852572965E+03  0.10100000352E+00 0.  1.
       -3    1    3    3    0  502 -0.16268003267E+03 -0.32991543276E+03 -0.38850906894E+03  0.53502176839E+03  0.10100000352E+00 0. -1.
</event>
<event>
 5   0  0.1673727E-02  0.8044441E+03  0.7818609E-02  0.9553607E-01
        2   -1    0    0  501    0  0.00000000000E+00  0.00000000000E+00  0.34552887889E+03  0.34552887890E+03  0.25500000920E-02 0. -1.
       -2   -1    0    0    0  501  0.00000000000E+00  0.00000000000E+00 -0.46821724632E+03  0.46821724632E+03  0.25500000920E-02 0.  1.
    10030    2    1    2    0    0  0.00000000000E+00  0.00000000000E+00 -0.12268836742E+03  0.81374612523E+03  0.80444410671E+03 0.  0.
        5    1    3    3  502    0 -0.28811607827E+02 -0.30684995382E+03  0.20004949950E+03  0.36746278064E+03  0.46999998093E+01 0. -1.
       -5    1    3    3    0  502  0.28811607827E+02  0.30684995382E+03 -0.32273786693E+03  0.44628334458E+03  0.46999998093E+01 0.  1.
</event>
<event>
 5   0  0.1818665E-02  0.8023278E+03  0.7818609E-02  0.9556654E-01
       -2   -1    0    0    0  501  0.00000000000E+00  0.00000000000E+00  0.28911311726E+03  0.28911311727E+03  0.25500000920E-02 0.  1.
        2   -1    0    0  501    0  0.00000000000E+00  0.00000000000E+00 -0.55664183500E+03  0.55664183501E+03  0.25500000920E-02 0. -1.
    10030    2    1    2    0    0  0.00000000000E+00  0.00000000000E+00 -0.26752871774E+03  0.84575495228E+03  0.80232775378E+03 0.  0.
        3    1    3    3  502    0  0.39086579311E+03  0.80430605842E+02 -0.17706439788E+03  0.43657411946E+03  0.10100000352E+00 0. -1.
       -3    1    3    3    0  502 -0.39086579311E+03 -0.80430605842E+02 -0.90464319856E+02  0.40918083282E+03  0.10100000352E+00 0.  1.
</event>
<event>
 5   0  0.1049780E-02  0.7535299E+03  0.7818609E-02  0.9629829E-01
       -1   -1    0    0    0  501  0.00000000000E+00  0.00000000000E+00  0.62468410883E+02  0.62468411086E+02  0.50400001928E-02 0.  1.
        1   -1    0    0  501    0  0.00000000000E+00  0.00000000000E+00 -0.22723779950E+04  0.22723779950E+04  0.50400001928E-02 0. -1.
    10030    2    1    2    0    0  0.00000000000E+00  0.00000000000E+00 -0.22099095842E+04  0.23348464061E+04  0.75352993973E+03 0.  0.
        5    1    3    3  502    0  0.14396023730E+03  0.14287616401E+03 -0.20886713533E+04  0.20985014320E+04  0.46999998093E+01 0. -1.
       -5    1    3    3    0  502 -0.14396023730E+03 -0.14287616401E+03 -0.12123823089E+03  0.23634497413E+03  0.46999998093E+01 0.  1.
</event>
<event>
 5   0  0.1673727E-02  0.8031090E+03  0.7818609E-02  0.9555528E-01
       -2   -1    0    0    0  501  0.00000000000E+00  0.00000000000E+00  0.17561059221E+03  0.17561059223E+03  0.25500000920E-02 0. -1.
        2   -1    0    0  501    0  0.00000000000E+00  0.00000000000E+00 -0.91820207206E+03  0.91820207207E+03  0.25500000920E-02 0.  1.
    10030    2    1    2    0    0  0.00000000000E+00  0.00000000000E+00 -0.74259147985E+03  0.10938126643E+04  0.80310898303E+03 0.  0.
        5    1    3    3  502    0 -0.17568433486E+03 -0.24878262916E+02 -0.86187074934E+03  0.87995863088E+03  0.46999998093E+01 0.  1.
       -5    1    3    3    0  502  0.17568433486E+03  0.24878262916E+02  0.11927926949E+03  0.21385403342E+03  0.46999998093E+01 0. -1.
</event>
<event>
 5   0  0.1817089E-02  0.7971432E+03  0.7818609E-02  0.9564161E-01
        2   -1    0    0  501    0  0.00000000000E+00  0.00000000000E+00  0.41901486249E+03  0.41901486250E+03  0.25500000920E-02 0.  1.
       -2   -1    0    0    0  501  0.00000000000E+00  0.00000000000E+00 -0.37912572022E+03  0.37912572022E+03  0.25500000920E-02 0. -1.
    10030    2    1    2    0    0  0.00000000000E+00  0.00000000000E+00  0.39889142276E+02  0.79814058272E+03  0.79714317793E+03 0.  0.
        2    1    3    3  502    0  0.76391595447E+02  0.38994119600E+03  0.51120314376E+02  0.40062837985E+03  0.25500000920E-02 0.  1.
       -2    1    3    3    0  502 -0.76391595447E+02 -0.38994119600E+03 -0.11231172100E+02  0.39751220287E+03  0.25500000920E-02 0. -1.
</event>
<event>
 5   0  0.1673727E-02  0.8028115E+03  0.7818609E-02  0.9555956E-01
       -2   -1    0    0    0  501  0.00000000000E+00  0.00000000000E+00  0.22582608729E+03  0.22582608731E+03  0.25500000920E-02 0.  1.
        2   -1    0    0  501    0  0.00000000000E+00  0.00000000000E+00 -0.71349857603E+03  0.71349857604E+03  0.25500000920E-02 0. -1.
    10030    2    1    2    0    0  0.00000000000E+00  0.00000000000E+00 -0.48767248874E+03  0.93932466334E+03  0.80281153884E+03 0.  0.
        5    1    3    3  502    0  0.29121837688E+02 -0.30455398700E+03 -0.54782994717E+03  0.62748781139E+03  0.46999998093E+01 0. -1.
       -5    1    3    3    0  502 -0.29121837688E+02  0.30455398700E+03  0.60157458433E+02  0.31183685195E+03  0.46999998093E+01 0.  1.
</event>
<event>
 5   0  0.1025900E-02  0.7903871E+03  0.7818609E-02  0.9574037E-01
       -1   -1    0    0    0  501  0.00000000000E+00  0.00000000000E+00  0.84474121039E+03  0.84474121041E+03  0.50400001928E-02 0.  1.
        1   -1    0    0  501    0  0.00000000000E+00  0.00000000000E+00 -0.18488256557E+03  0.18488256564E+03  0.50400001928E-02 0. -1.
    10030    2    1    2    0    0  0.00000000000E+00  0.00000000000E+00  0.65985864482E+03  0.10296237760E+04  0.79038705015E+03 0.  0.
        1    1    3    3  502    0 -0.30657559190E+03 -0.15826029804E+03  0.58098917834E+03  0.67570950923E+03  0.50400001928E-02 0.  1.
       -1    1    3    3    0  502  0.30657559190E+03  0.15826029804E+03  0.78869466487E+02  0.35391426682E+03  0.50400001928E-02 0. -1.
</event>
<event>
 5   0  0.1817089E-02  0.8052440E+03  0.7818609E-02  0.9552457E-01
       -2   -1    0    0    0  501  0.00000000000E+00  0.00000000000E+00  0.35865996994E+03  0.35865996995E+03  0.25500000920E-02 0. -1.
        2   -1    0    0  501    0  0.00000000000E+00  0.00000000000E+00 -0.45197261639E+03  0.45197261640E+03  0.25500000920E-02 0.  1.
    10030    2    1    2    0    0  0.00000000000E+00  0.00000000000E+00 -0.93312646446E+02  0.81063258635E+03  0.80524402517E+03 0.  0.
        2    1    3    3  502    0 -0.26636969611E+03 -0.92947003033E+02  0.24251584040E+03  0.37202942522E+03  0.25500000920E-02 0. -1.
       -2    1    3    3    0  502  0.26636969611E+03  0.92947003033E+02 -0.33582848684E+03  0.43860316114E+03  0.25500000920E-02 0.  1.
</event>
<event>
 5   0  0.1049780E-02  0.7983682E+03  0.7818609E-02  0.9562382E-01
       -1   -1    0    0    0  501  0.00000000000E+00  0.00000000000E+00  0.34754241641E+03  0.34754241645E+03  0.50400001928E-02 0.  1.
        1   -1    0    0  501    0  0.00000000000E+00  0.00000000000E+00 -0.45849921883E+03  0.45849921886E+03  0.50400001928E-02 0. -1.
    10030    2    1    2    0    0  0.00000000000E+00  0.00000000000E+00 -0.11095680242E+03  0.80604163531E+03  0.79836815182E+03 0.  0.
        5    1    3    3  502    0 -0.62244864841E+01  0.23874477323E+03  0.26742057585E+03  0.35857170184E+03  0.46999998093E+01 0.  1.
       -5    1    3    3    0  502  0.62244864841E+01 -0.23874477323E+03 -0.37837737826E+03  0.44746993347E+03  0.46999998093E+01 0. -1.
</event>
<event>
 5   0  0.1030323E-02  0.7983459E+03  0.7818609E-02  0.9562414E-01
       -1   -1    0    0    0  501  0.00000000000E+00  0.00000000000E+00  0.90133716477E+02  0.90133716618E+02  0.50400001928E-02 0. -1.
        1   -1    0    0  501    0  0.00000000000E+00  0.00000000000E+00 -0.17678071530E+04  0.17678071530E+04  0.50400001928E-02 0.  1.
    10030    2    1    2    0    0  0.00000000000E+00  0.00000000000E+00 -0.16776734366E+04  0.18579408697E+04  0.79834586203E+03 0.  0.
        3    1    3    3  502    0 -0.16431473667E+03 -0.13637479059E+03 -0.53961745854E+02  0.22024826086E+03  0.10100000352E+00 0. -1.
       -3    1    3    3    0  502  0.16431473667E+03  0.13637479059E+03 -0.16237116907E+04  0.16376926088E+04  0.10100000352E+00 0.  1.
</event>
<event>
 5   0  0.1731337E-02  0.7889593E+03  0.7818609E-02  0.9576137E-01
        2   -1    0    0  501    0  0.00000000000E+00  0.00000000000E+00  0.48063529122E+03  0.48063529122E+03  0.25500000920E-02 0.  1.
       -2   -1    0    0    0  501  0.00000000000E+00  0.00000000000E+00 -0.32376773261E+03  0.32376773262E+03  0.25500000920E-02 0. -1.
    10030    2    1    2    0    0  0.00000000000E+00  0.00000000000E+00  0.15686755861E+03  0.80440302384E+03  0.78895931062E+03 0.  0.
        4    1    3    3  502    0 -0.27614415127E+03 -0.11076574724E+03 -0.18564975596E+03  0.35070227805E+03  0.12699999809E+01 0. -1.
       -4    1    3    3    0  502  0.27614415127E+03  0.11076574724E+03  0.34251731458E+03  0.45370074579E+03  0.12699999809E+01 0.  1.
</event>
<event>
 5   0  0.1030323E-02  0.7927705E+03  0.7818609E-02  0.9570541E-01
       -1   -1    0    0    0  501  0.00000000000E+00  0.00000000000E+00  0.61877251782E+03  0.61877251784E+03  0.50400001928E-02 0. -1.
        1   -1    0    0  501    0  0.00000000000E+00  0.00000000000E+00 -0.25392409333E+03  0.25392409338E+03  0.50400001928E-02 0.  1.
    10030    2    1    2    0    0  0.00000000000E+00  0.00000000000E+00  0.36484842448E+03  0.87269661122E+03  0.79277046009E+03 0.  0.
        3    1    3    3  502    0  0.21080839054E+03 -0.28080387108E+03 -0.20049397929E+02  0.35170012809E+03  0.10100000352E+00 0.  1.
       -3    1    3    3    0  502 -0.21080839054E+03  0.28080387108E+03  0.38489782241E+03  0.52099648313E+03  0.10100000352E+00 0. -1.
</event>
<event>
 5   0  0.1146083E-02  0.7985831E+03  0.7818609E-02  0.9562070E-01
        1   -1    0    0  501    0  0.00000000000E+00  0.00000000000E+00  0.48802565552E+03  0.48802565554E+03  0.50400001928E-02 0. -1.
       -1   -1    0    0    0  501  0.00000000000E+00  0.00000000000E+00 -0.32669130410E+03  0.32669130413E+03  0.50400001928E-02 0.  1.
    10030    2    1    2    0    0  0.00000000000E+00  0.00000000000E+00  0.16133435142E+03  0.81471695968E+03  0.79858308988E+03 0.  0.
        4    1    3    3  502    0 -0.22009212025E+03  0.70003995941E+01 -0.25914252594E+03  0.34006765304E+03  0.12699999809E+01 0.  1.
       -4    1    3    3    0  502  0.22009212025E+03 -0.70003995941E+01  0.42047687737E+03  0.47464930664E+03  0.12699999809E+01 0. -1.
</event>
<event>
 5   0  0.1030323E-02  0.8113049E+03  0.7818609E-02  0.9543796E-01
        1   -1    0    0  501    0  0.00000000000E+00  0.00000000000E+00  0.10771136796E+04  0.10771136796E+04  0.50400001928E-02 0. -1.
       -1   -1    0    0    0  501  0.00000000000E+00  0.00000000000E+00 -0.15277301402E+03  0.15277301411E+03  0.50400001928E-02 0.  1.
    10030    2    1    2    0    0  0.00000000000E+00  0.00000000000E+00  0.92434066555E+03  0.12298866937E+04  0.81130488309E+03 0.  0.
        3    1    3    3  502    0 -0.63883737687E+02 -0.21262498867E+03 -0.52497090339E+02  0.22813695984E+03  0.10100000352E+00 0.  1.
       -3    1    3    3    0  502  0.63883737687E+02  0.21262498867E+03  0.97683775589E+03  0.10017497339E+04  0.10100000352E+00 0. -1.
</event>
<event>
 5   0  0.1673727E-02  0.7969116E+03  0.7818609E-02  0.9564498E-01
       -2   -1    0    0    0  501  0.00000000000E+00  0.00000000000E+00  0.13505272969E+03  0.13505272972E+03  0.25500000920E-02 0. -1.
        2   -1    0    0  501    0  0.00000000000E+00  0.00000000000E+00 -0.11755928144E+04  0.11755928144E+04  0.25500000920E-02 0.  1.
    10030    2    1    2    0    0  0.00000000000E+00  0.00000000000E+00 -0.10405400847E+04  0.13106455441E+04  0.79691158508E+03 0.  0.
        5    1    3    3  502    0  0.22902796953E+02  0.64593091494E+02 -0.11657805565E+04  0.11678027237E+04  0.46999998093E+01 0.  1.
       -5    1    3    3    0  502 -0.22902796953E+02 -0.64593091494E+02  0.12524047178E+03  0.14284282043E+03  0.46999998093E+01 0. -1.
</event>
<event>
 5   0  0.1146083E-02  0.8429362E+03  0.7818609E-02  0.9499867E-01
       -1   -1    0    0    0  501  0.00000000000E+00  0.00000000000E+00  0.92948583358E+02  0.92948583494E+02  0.50400001928E-02 0. -1.
        1   -1    0    0  501    0  0.00000000000E+00  0.00000000000E+00 -0.19111143064E+04  0.19111143064E+04  0.50400001928E-02 0.  1.
    10030    2    1    2    0    0  0.00000000000E+00  0.00000000000E+00 -0.18181657230E+04  0.20040628899E+04  0.84293621955E+03 0.  0.
        4    1    3    3  502    0  0.24824257287E+03  0.24869755185E+03 -0.14623712780E+04  0.15039967470E+04  0.12699999809E+01 0.  1.
       -4    1    3    3    0  502 -0.24824257287E+03 -0.24869755185E+03 -0.35579444504E+03  0.50006614292E+03  0.12699999809E+01 0. -1.
</event>
<event>
 5   0  0.1049780E-02  0.8017760E+03  0.7818609E-02  0.9557450E-01
       -1   -1    0    0    0  501  0.00000000000E+00  0.00000000000E+00  0.30872075520E+03  0.30872075524E+03  0.50400001928E-02 0.  1.
        1   -1    0    0  501    0  0.00000000000E+00  0.00000000000E+00 -0.52057143356E+03  0.52057143359E+03  0.50400001928E-02 0. -1.
    10030    2    1    2    0    0  0.00000000000E+00  0.00000000000E+00 -0.21185067837E+03  0.82929218882E+03  0.80177604387E+03 0.  0.
        5    1    3    3  502    0 -0.65332161069E+02 -0.21958722667E+03 -0.44615540908E+03  0.50156114327E+03  0.46999998093E+01 0. -1.
       -5    1    3    3    0  502  0.65332161069E+02  0.21958722667E+03  0.23430473072E+03  0.32773104555E+03  0.46999998093E+01 0.  1.
</event>
<event>
 5   0  0.1673727E-02  0.8017923E+03  0.7818609E-02  0.9557427E-01
        2   -1    0    0  501    0  0.00000000000E+00  0.00000000000E+00  0.88759843956E+03  0.88759843956E+03  0.25500000920E-02 0.  1.
       -2   -1    0    0    0  501  0.00000000000E+00  0.00000000000E+00 -0.18107028905E+03  0.18107028907E+03  0.25500000920E-02 0. -1.
    10030    2    1    2    0    0  0.00000000000E+00  0.00000000000E+00  0.70652815051E+03  0.10686687286E+04  0.80179225744E+03 0.  0.
        5    1    3    3  502    0 -0.27315499427E+03 -0.26640432581E+03  0.18942271709E+03  0.42601405077E+03  0.46999998093E+01 0. -1.
       -5    1    3    3    0  502  0.27315499427E+03  0.26640432581E+03  0.51710543342E+03  0.64265467786E+03  0.46999998093E+01 0.  1.
</event>
<event>
 5   0  0.1049780E-02  0.7922710E+03  0.7818609E-02  0.9571272E-01
        1   -1    0    0  501    0  0.00000000000E+00  0.00000000000E+00  0.40880186362E+03  0.40880186365E+03  0.50400001928E-02 0.  1.
       -1   -1    0    0    0  501  0.00000000000E+00  0.00000000000E+00 -0.38386155484E+03  0.38386155487E+03  0.50400001928E-02 0. -1.
    10030    2    1    2    0    0  0.00000000000E+00  0.00000000000E+00  0.24940308781E+02  0.79266341852E+03  0.79227096126E+03 0.  0.
        5    1    3    3  502    0 -0.18657460462E+03 -0.77774338993E+02 -0.32834840644E+03  0.38560821686E+03  0.46999998093E+01 0. -1.
       -5    1    3    3    0  502  0.18657460462E+03  0.77774338993E+02  0.35328871523E+03  0.40705520166E+03  0.46999998093E+01 0.  1.
</event>
<event>
 5   0  0.1731337E-02  0.8012373E+03  0.7818609E-02  0.9558228E-01
        2   -1    0    0  501    0  0.00000000000E+00  0.00000000000E+00  0.15056752903E+04  0.15056752903E+04  0.25500000920E-02 0.  1.
       -2   -1    0    0    0  501  0.00000000000E+00  0.00000000000E+00 -0.10659357218E+03  0.10659357221E+03  0.25500000920E-02 0. -1.
    10030    2    1    2    0    0  0.00000000000E+00  0.00000000000E+00  0.13990817181E+04  0.16122688625E+04  0.80123731255E+03 0.  0.
        4    1    3    3  502    0 -0.25615953541E+03  0.63682260282E+02  0.13059536895E+04  0.13323624845E+04  0.12699999809E+01 0.  1.
       -4    1    3    3    0  502  0.25615953541E+03 -0.63682260282E+02  0.93128028548E+02  0.27990637802E+03  0.12699999809E+01 0. -1.
</event>
<event>
 5   0  0.1038912E-02  0.8064343E+03  0.7818609E-02  0.9550750E-01
        1   -1    0    0  501    0  0.00000000000E+00  0.00000000000E+00  0.56204576129E+03  0.56204576131E+03  0.50400001928E-02 0.  1.
       -1   -1    0    0    0  501  0.00000000000E+00  0.00000000000E+00 -0.28927193641E+03  0.28927193645E+03  0.50400001928E-02 0. -1.
    10030    2    1    2    0    0  0.00000000000E+00  0.00000000000E+00  0.27277382488E+03  0.85131769776E+03  0.80643428931E+03 0.  0.
        2    1    3    3  502    0  0.14452867670E+03  0.34178284315E+03 -0.30126031596E+02  0.37230582596E+03  0.25500000920E-02 0. -1.
       -2    1    3    3    0  502 -0.14452867670E+03 -0.34178284315E+03  0.30289985648E+03  0.47901187179E+03  0.25500000920E-02 0.  1.
</event>
<event>
 5   0  0.1038912E-02  0.7296557E+03  0.7818609E-02  0.9667819E-01
        1   -1    0    0  501    0  0.00000000000E+00  0.00000000000E+00  0.98055704938E+03  0.98055704939E+03  0.50400001928E-02 0. -1.
       -1   -1    0    0    0  501  0.00000000000E+00  0.00000000000E+00 -0.13573851125E+03  0.13573851135E+03  0.50400001928E-02 0.  1.
    10030    2    1    2    0    0  0.00000000000E+00  0.00000000000E+00  0.84481853812E+03  0.11162955607E+04  0.72965568357E+03 0.  0.
        2    1    3    3  502    0 -0.28763081750E+03  0.22441144771E+03  0.41825620864E+03  0.55500472170E+03  0.25500000920E-02 0.  1.
       -2    1    3    3    0  502  0.28763081750E+03 -0.22441144771E+03  0.42656232949E+03  0.56129083904E+03  0.25500000920E-02 0. -1.
</event>
<event>
 5   0  0.1030323E-02  0.8029648E+03  0.7818609E-02  0.9555736E-01
       -1   -1    0    0    0  501  0.00000000000E+00  0.00000000000E+00  0.13150871552E+03  0.13150871562E+03  0.50400001928E-02 0. -1.
        1   -1    0    0  501    0  0.00000000000E+00  0.00000000000E+00 -0.12256839463E+04  0.12256839463E+04  0.50400001928E-02 0.  1.
    10030    2    1    2    0    0  0.00000000000E+00  0.00000000000E+00 -0.10941752308E+04  0.13571926619E+04  0.80296480990E+03 0.  0.
        3    1    3    3  502    0 -0.28564181553E+03  0.23491656628E+03 -0.81116937836E+03  0.89150031435E+03  0.10100000352E+00 0.  1.
       -3    1    3    3    0  502  0.28564181553E+03 -0.23491656628E+03 -0.28300585241E+03  0.46569234758E+03  0.10100000352E+00 0. -1.
</event>
<event>
 5   0  0.1818665E-02  0.7974461E+03  0.7818609E-02  0.9563721E-01
        2   -1    0    0  501    0  0.00000000000E+00  0.00000000000E+00  0.20442579034E+04  0.20442579034E+04  0.25500000920E-02 0. -1.
       -2   -1    0    0    0  501  0.00000000000E+00  0.00000000000E+00 -0.77769084687E+02  0.77769084729E+02  0.25500000920E-02 0.  1.
    10030    2    1    2    0    0  0.00000000000E+00  0.00000000000E+00  0.19664888187E+04  0.21220269881E+04  0.79744608861E+03 0.  0.
        3    1    3    3  502    0 -0.59035686941E+02 -0.19705865012E+03  0.18921434435E+04  0.19032929740E+04  0.10100000352E+00 0. -1.
       -3    1    3    3    0  502  0.59035686941E+02  0.19705865012E+03  0.74345375220E+02  0.21873401413E+03  0.10100000352E+00 0.  1.
</event>
<event>
 5   0  0.1038912E-02  0.8040413E+03  0.7818609E-02  0.9554186E-01
        1   -1    0    0  501    0  0.00000000000E+00  0.00000000000E+00  0.96497452197E+03  0.96497452199E+03  0.50400001928E-02 0.  1.
       -1   -1    0    0    0  501  0.00000000000E+00  0.00000000000E+00 -0.16748691371E+03  0.16748691379E+03  0.50400001928E-02 0. -1.
    10030    2    1    2    0    0  0.00000000000E+00  0.00000000000E+00  0.79748760826E+03  0.11324614358E+04  0.80404130379E+03 0.  0.
        2    1    3    3  502    0  0.90676751934E+02 -0.14904755771E+03  0.90887760611E+03  0.92547066441E+03  0.25500000920E-02 0.  1.
       -2    1    3    3    0  502 -0.90676751934E+02  0.14904755771E+03 -0.11138999785E+03  0.20699077136E+03  0.25500000920E-02 0. -1.
</event>
<event>
 5   0  0.6872500E-03  0.7911597E+03  0.7818609E-02  0.9572902E-01
        3   -1    0    0  501    0  0.00000000000E+00  0.00000000000E+00  0.53168626018E+03  0.53168626977E+03  0.10100000352E+00 0. -1.
       -3   -1    0    0    0  501  0.00000000000E+00  0.00000000000E+00 -0.29431534368E+03  0.29431536101E+03  0.10100000352E+00 0.  1.
    10030    2    1    2    0    0  0.00000000000E+00  0.00000000000E+00  0.23737091650E+03  0.82600163078E+03  0.79115974496E+03 0.  0.
        3    1    3    3  502    0 -0.92324617165E+02 -0.38307334007E+03  0.82302436506E+02  0.40254530187E+03  0.10100000352E+00 0.  1.
       -3    1    3    3    0  502  0.92324617165E+02  0.38307334007E+03  0.15506848000E+03  0.42345632891E+03  0.10100000352E+00 0. -1.
</event>
<event>
 5   0  0.1038912E-02  0.7982335E+03  0.7818609E-02  0.9562578E-01
        1   -1    0    0  501    0  0.00000000000E+00  0.00000000000E+00  0.11570962792E+04  0.11570962792E+04  0.50400001928E-02 0.  1.
       -1   -1    0    0    0  501  0.00000000000E+00  0.00000000000E+00 -0.13766717491E+03  0.13766717501E+03  0.50400001928E-02 0. -1.
    10030    2    1    2    0    0  0.00000000000E+00  0.00000000000E+00  0.10194291043E+04  0.12947634542E+04  0.79823348948E+03 0.  0.
        2    1    3    3  502    0 -0.18807484352E+03 -0.17818749578E+03  0.10021601009E+04  0.10351076265E+04  0.25500000920E-02 0.  1.
       -2    1    3    3    0  502  0.18807484352E+03  0.17818749578E+03  0.17269003367E+02  0.25965582779E+03  0.25500000920E-02 0. -1.
</event>
<event>
 5   0  0.1673727E-02  0.7864327E+03  0.7818609E-02  0.9579866E-01
        2   -1    0    0  501    0  0.00000000000E+00  0.00000000000E+00  0.37020643119E+03  0.37020643120E+03  0.25500000920E-02 0.  1.
       -2   -1    0    0    0  501  0.00000000000E+00  0.00000000000E+00 -0.41765642412E+03  0.41765642413E+03  0.25500000920E-02 0. -1.
    10030    2    1    2    0    0  0.00000000000E+00  0.00000000000E+00 -0.47449992928E+02  0.78786285532E+03  0.78643269068E+03 0.  0.
        5    1    3    3  502    0 -0.38843899152E+03  0.52806427613E+02 -0.54171633692E+02  0.39576511320E+03  0.46999998093E+01 0.  1.
       -5    1    3    3    0  502  0.38843899152E+03 -0.52806427613E+02  0.67216407643E+01  0.39209774213E+03  0.46999998093E+01 0. -1.
</event>
<event>
 5   0  0.1731337E-02  0.8359208E+03  0.7818609E-02  0.9509431E-01
       -2   -1    0    0    0  501  0.00000000000E+00  0.00000000000E+00  0.11209126459E+03  0.11209126462E+03  0.25500000920E-02 0.  1.
        2   -1    0    0  501    0  0.00000000000E+00  0.00000000000E+00 -0.15584702272E+04  0.15584702272E+04  0.25500000920E-02 0. -1.
    10030    2    1    2    0    0  0.00000000000E+00  0.00000000000E+00 -0.14463789626E+04  0.16705614918E+04  0.83592080632E+03 0.  0.
        4    1    3    3  502    0 -0.38828750091E+03  0.82784166366E+02 -0.46209367486E+03  0.60922293031E+03  0.12699999809E+01 0. -1.
       -4    1    3    3    0  502  0.38828750091E+03 -0.82784166366E+02 -0.98428528772E+03  0.10613385615E+04  0.12699999809E+01 0.  1.
</event>
<event>
 5   0  0.1038912E-02  0.7964401E+03  0.7818609E-02  0.9565184E-01
       -1   -1    0    0    0  501  0.00000000000E+00  0.00000000000E+00  0.11810834292E+04  0.11810834292E+04  0.50400001928E-02 0. -1.
        1   -1    0    0  501    0  0.00000000000E+00  0.00000000000E+00 -0.13426589675E+03  0.13426589685E+03  0.50400001928E-02 0.  1.
    10030    2    1    2    0    0  0.00000000000E+00  0.00000000000E+00  0.10468175324E+04  0.13153493260E+04  0.79644014421E+03 0.  0.
        2    1    3    3  502    0 -0.36545894896E+03 -0.12040519964E+03  0.69281455472E+03  0.79249584397E+03  0.25500000920E-02 0. -1.
       -2    1    3    3    0  502  0.36545894896E+03  0.12040519964E+03  0.35400297771E+03  0.52285348207E+03  0.25500000920E-02 0.  1.
</event>
<event>
 5   0  0.1025900E-02  0.8062627E+03  0.7818609E-02  0.9550996E-01
        1   -1    0    0  501    0  0.00000000000E+00  0.00000000000E+00  0.18052784049E+04  0.18052784049E+04  0.50400001928E-02 0.  1.
       -1   -1    0    0    0  501  0.00000000000E+00  0.00000000000E+00 -0.90022071766E+02  0.90022071907E+02  0.50400001928E-02 0. -1.
    10030    2    1    2    0    0  0.00000000000E+00  0.00000000000E+00  0.17152563331E+04  0.18953004768E+04  0.80626274195E+03 0.  0.
        1    1    3    3  502    0  0.36876499815E+03  0.14331455241E+03  0.10395355226E+04  0.11122772980E+04  0.50400001928E-02 0. -1.
       -1    1    3    3    0  502 -0.36876499815E+03 -0.14331455241E+03  0.67572081049E+03  0.78302317881E+03  0.50400001928E-02 0.  1.
</event>
<event>
 5   0  0.1030323E-02  0.8051786E+03  0.7818609E-02  0.9552551E-01
       -1   -1    0    0    0  501  0.00000000000E+00  0.00000000000E+00  0.13085621597E+03  0.13085621606E+03  0.50400001928E-02 0. -1.
        1   -1    0    0  501    0  0.00000000000E+00  0.00000000000E+00 -0.12385973648E+04  0.12385973648E+04  0.50400001928E-02 0.  1.
    10030    2    1    2    0    0  0.00000000000E+00  0.00000000000E+00 -0.11077411488E+04  0.13694535808E+04  0.80517864933E+03 0.  0.
        3    1    3    3  502    0  0.18460931961E+03  0.40008600203E+02  0.50806101655E+02  0.19560817760E+03  0.10100000352E+00 0. -1.
       -3    1    3    3    0  502 -0.18460931961E+03 -0.40008600203E+02 -0.11585472505E+04  0.11738454032E+04  0.10100000352E+00 0.  1.
</event>
<event>
 5   0  0.1817089E-02  0.7980028E+03  0.7818609E-02  0.9562912E-01
        2   -1    0    0  501    0  0.00000000000E+00  0.00000000000E+00  0.16980479592E+04  0.16980479592E+04  0.25500000920E-02 0.  1.
       -2   -1    0    0    0  501  0.00000000000E+00  0.00000000000E+00 -0.93755963178E+02  0.93755963213E+02  0.25500000920E-02 0. -1.
    10030    2    1    2    0    0  0.00000000000E+00  0.00000000000E+00  0.16042919960E+04  0.17918039224E+04  0.79800281195E+03 0.  0.
        2    1    3    3  502    0  0.55201151178E+02 -0.37685073127E+03  0.53516064222E+03  0.65685657014E+03  0.25500000920E-02 0. -1.
       -2    1    3    3    0  502 -0.55201151178E+02  0.37685073127E+03  0.10691313538E+04  0.11349473523E+04  0.25500000920E-02 0.  1.
</event>
<event>
 5   0  0.1025900E-02  0.8091292E+03  0.7818609E-02  0.9546896E-01
        1   -1    0    0  501    0  0.00000000000E+00  0.00000000000E+00  0.70429718135E+03  0.70429718137E+03  0.50400001928E-02 0.  1.
       -1   -1    0    0    0  501  0.00000000000E+00  0.00000000000E+00 -0.23239124198E+03  0.23239124203E+03  0.50400001928E-02 0. -1.
    10030    2    1    2    0    0  0.00000000000E+00  0.00000000000E+00  0.47190593937E+03  0.93668842340E+03  0.80912915342E+03 0.  0.
        1    1    3    3  502    0  0.86111307913E+02 -0.44123339995E+02 -0.21879943135E+03  0.23923882977E+03  0.50400001928E-02 0. -1.
       -1    1    3    3    0  502 -0.86111307913E+02  0.44123339995E+02  0.69070537073E+03  0.69744959363E+03  0.50400001928E-02 0.  1.
</event>
<event>
 5   0  0.1673727E-02  0.8037268E+03  0.7818609E-02  0.9554638E-01
       -2   -1    0    0    0  501  0.00000000000E+00  0.00000000000E+00  0.24646357361E+03  0.24646357362E+03  0.25500000920E-02 0.  1.
        2   -1    0    0  501    0  0.00000000000E+00  0.00000000000E+00 -0.65524561505E+03  0.65524561506E+03  0.25500000920E-02 0. -1.
    10030    2    1    2    0    0  0.00000000000E+00  0.00000000000E+00 -0.40878204144E+03  0.90170918868E+03  0.80372675925E+03 0.  0.
        5    1    3    3  502    0 -0.39153334218E+03  0.84666931468E+02 -0.23996173920E+03  0.46698027111E+03  0.46999998093E+01 0.  1.
       -5    1    3    3    0  502  0.39153334218E+03 -0.84666931468E+02 -0.16882030224E+03  0.43472891757E+03  0.46999998093E+01 0. -1.
</event>
<event>
 5   0  0.1030323E-02  0.7942756E+03  0.7818609E-02  0.9568340E-01
        1   -1    0    0  501    0  0.00000000000E+00  0.00000000000E+00  0.45751306739E+03  0.45751306742E+03  0.50400001928E-02 0.  1.
       -1   -1    0    0    0  501  0.00000000000E+00  0.00000000000E+00 -0.34472985597E+03  0.34472985600E+03  0.50400001928E-02 0. -1.
    10030    2    1    2    0    0  0.00000000000E+00  0.00000000000E+00  0.11278321143E+03  0.80224292342E+03  0.79427555383E+03 0.  0.
        3    1    3    3  502    0  0.36521245956E+03 -0.52473761940E+02  0.20478288699E+03  0.42198302965E+03  0.10100000352E+00 0.  1.
       -3    1    3    3    0  502 -0.36521245956E+03  0.52473761940E+02 -0.91999675559E+02  0.38025989377E+03  0.10100000352E+00 0. -1.
</event>
<event>
 5   0  0.1817089E-02  0.8022714E+03  0.7818609E-02  0.9556735E-01
        2   -1    0    0  501    0  0.00000000000E+00  0.00000000000E+00  0.37992683242E+03  0.37992683243E+03  0.25500000920E-02 0. -1.
       -2   -1    0    0    0  501  0.00000000000E+00  0.00000000000E+00 -0.42352854420E+03  0.42352854421E+03  0.25500000920E-02 0.  1.
    10030    2    1    2    0    0  0.00000000000E+00  0.00000000000E+00 -0.43601711777E+02  0.80345537664E+03  0.80227142101E+03 0.  0.
        2    1    3    3  502    0 -0.97258609559E+02  0.96995893259E+02 -0.39924219783E+03  0.42221057895E+03  0.25500000920E-02 0.  1.
       -2    1    3    3    0  502  0.97258609559E+02 -0.96995893259E+02  0.35564048605E+03  0.38124479769E+03  0.25500000920E-02 0. -1.
</event>
<event>
 5   0  0.6872500E-03  0.7984221E+03  0.7818609E-02  0.9562304E-01
        3   -1    0    0  501    0  0.00000000000E+00  0.00000000000E+00  0.17327799622E+03  0.17327802565E+03  0.10100000352E+00 0. -1.
       -3   -1    0    0    0  501  0.00000000000E+00  0.00000000000E+00 -0.91973264996E+03  0.91973265550E+03  0.10100000352E+00 0.  1.
    10030    2    1    2    0    0  0.00000000000E+00  0.00000000000E+00 -0.74645465374E+03  0.10930106812E+04  0.79842206822E+03 0.  0.
        4    1    3    3  502    0 -0.20821137831E+03  0.75236542948E+02  0.81539223889E+02  0.23592959412E+03  0.12699999809E+01 0.  1.
       -4    1    3    3    0  502  0.20821137831E+03 -0.75236542948E+02 -0.82799387763E+03  0.85708108703E+03  0.12699999809E+01 0. -1.
</event>
<event>
 5   0  0.1673727E-02  0.8086354E+03  0.7818609E-02  0.9547601E-01
       -2   -1    0    0    0  501  0.00000000000E+00  0.00000000000E+00  0.48266671603E+03  0.48266671604E+03  0.25500000920E-02 0.  1.
        2   -1    0    0  501    0  0.00000000000E+00  0.00000000000E+00 -0.33868670820E+03  0.33868670821E+03  0.25500000920E-02 0. -1.
    10030    2    1    2    0    0  0.00000000000E+00  0.00000000000E+00  0.14398000783E+03  0.82135342425E+03  0.80863539675E+03 0.  0.
        5    1    3    3  502    0  0.29340027800E+03 -0.24710698063E+03 -0.57709833951E+02  0.38794084335E+03  0.46999998093E+01 0. -1.
       -5    1    3    3    0  502 -0.29340027800E+03  0.24710698063E+03  0.20168984178E+03  0.43341258090E+03  0.46999998093E+01 0.  1.
</event>
<event>
 5   0  0.1025900E-02  0.7993872E+03  0.7818609E-02  0.9560905E-01
        1   -1    0    0  501    0  0.00000000000E+00  0.00000000000E+00  0.34018486857E+03  0.34018486861E+03  0.50400001928E-02 0. -1.
       -1   -1    0    0    0  501  0.00000000000E+00  0.00000000000E+00 -0.46961222478E+03  0.46961222481E+03  0.50400001928E-02 0.  1.
    10030    2    1    2    0    0  0.00000000000E+00  0.00000000000E+00 -0.12942735621E+03  0.80979709342E+03  0.79938719778E+03 0.  0.
        1    1    3    3  502    0 -0.34325878551E+03  0.14746006432E+03 -0.20863384700E+03  0.42790086064E+03  0.50400001928E-02 0.  1.
       -1    1    3    3    0  502  0.34325878551E+03 -0.14746006432E+03  0.79206490788E+02  0.38189623277E+03  0.50400001928E-02 0. -1.
</event>
<event>
 5   0  0.1038912E-02  0.8088030E+03  0.7818609E-02  0.9547362E-01
       -1   -1    0    0    0  501  0.00000000000E+00  0.00000000000E+00  0.42389812548E+03  0.42389812551E+03  0.50400001928E-02 0.  1.
        1   -1    0    0  501    0  0.00000000000E+00  0.00000000000E+00 -0.38580155785E+03  0.38580155789E+03  0.50400001928E-02 0. -1.
    10030    2    1    2    0    0  0.00000000000E+00  0.00000000000E+00  0.38096567629E+02  0.80969968340E+03  0.80880296045E+03 0.  0.
        2    1    3    3  502    0 -0.11712946665E+02  0.30888563092E+03  0.28009211719E+03  0.41713201774E+03  0.25500000920E-02 0.  1.
       -2    1    3    3    0  502  0.11712946665E+02 -0.30888563092E+03 -0.24199554956E+03  0.39256766566E+03  0.25500000920E-02 0. -1.
</event>
<event>
 5   0  0.1818665E-02  0.7833933E+03  0.7818609E-02  0.9584371E-01
       -2   -1    0    0    0  501  0.00000000000E+00  0.00000000000E+00  0.10554392793E+03  0.10554392796E+03  0.25500000920E-02 0.  1.
        2   -1    0    0  501    0  0.00000000000E+00  0.00000000000E+00 -0.14536721411E+04  0.14536721411E+04  0.25500000920E-02 0. -1.
    10030    2    1    2    0    0  0.00000000000E+00  0.00000000000E+00 -0.13481282132E+04  0.15592160691E+04  0.78339330534E+03 0.  0.
        3    1    3    3  502    0 -0.19001109009E+02  0.16960914212E+03  0.27647138950E+02  0.17289499047E+03  0.10100000352E+00 0.  1.
       -3    1    3    3    0  502  0.19001109009E+02 -0.16960914212E+03 -0.13757753521E+04  0.13863210786E+04  0.10100000352E+00 0. -1.
</event>
<event>
 5   0  0.1049780E-02  0.8007484E+03  0.7818609E-02  0.9558934E-01
        1   -1    0    0  501    0  0.00000000000E+00  0.00000000000E+00  0.48591269071E+03  0.48591269073E+03  0.50400001928E-02 0.  1.
       -1   -1    0    0    0  501  0.00000000000E+00  0.00000000000E+00 -0.32989363385E+03  0.32989363388E+03  0.50400001928E-02 0. -1.
    10030    2    1    2    0    0  0.00000000000E+00  0.00000000000E+00  0.15601905686E+03  0.81580632462E+03  0.80074840817E+03 0.  0.
        5    1    3    3  502    0  0.14824368355E+03  0.18651140649E+03  0.40579676379E+03  0.47059090298E+03  0.46999998093E+01 0.  1.
       -5    1    3    3    0  502 -0.14824368355E+03 -0.18651140649E+03 -0.24977770693E+03  0.34521542164E+03  0.46999998093E+01 0. -1.
</event>
<event>
 5   0  0.1747544E-02  0.7659917E+03  0.7818609E-02  0.9610591E-01
       -2   -1    0    0    0  501  0.00000000000E+00  0.00000000000E+00  0.30518766117E+03  0.30518766118E+03  0.25500000920E-02 0. -1.
        2   -1    0    0  501    0  0.00000000000E+00  0.00000000000E+00 -0.48064132722E+03  0.48064132722E+03  0.25500000920E-02 0.  1.
    10030    2    1    2    0    0  0.00000000000E+00  0.00000000000E+00 -0.17545366605E+03  0.78582898840E+03  0.76599165144E+03 0.  0.
        1    1    3    3  502    0  0.13557675450E+03 -0.23783673305E+03  0.18704990076E+03  0.33156452366E+03  0.50400001928E-02 0. -1.
       -1    1    3    3    0  502 -0.13557675450E+03  0.23783673305E+03 -0.36250356681E+03  0.45426446474E+03  0.50400001928E-02 0.  1.
</event>
<event>
 5   0  0.1025900E-02  0.7942021E+03  0.7818609E-02  0.9568447E-01
        1   -1    0    0  501    0  0.00000000000E+00  0.00000000000E+00  0.73743131632E+03  0.73743131634E+03  0.50400001928E-02 0. -1.
       -1   -1    0    0    0  501  0.00000000000E+00  0.00000000000E+00 -0.21383585858E+03  0.21383585864E+03  0.50400001928E-02 0.  1.
    10030    2    1    2    0    0  0.00000000000E+00  0.00000000000E+00  0.52359545774E+03  0.95126717498E+03  0.79420213726E+03 0.  0.
        1    1    3    3  502    0  0.26510155908E+03 -0.29060338812E+03  0.32696418856E+03  0.51150244031E+03  0.50400001928E-02 0. -1.
       -1    1    3    3    0  502 -0.26510155908E+03  0.29060338812E+03  0.19663126917E+03  0.43976473467E+03  0.50400001928E-02 0.  1.
</event>
<event>
 5   0  0.1817089E-02  0.7882055E+03  0.7818609E-02  0.9577248E-01
       -2   -1    0    0    0  501  0.00000000000E+00  0.00000000000E+00  0.89119610460E+02  0.89119610496E+02  0.25500000920E-02 0. -1.
        2   -1    0    0  501    0  0.00000000000E+00  0.00000000000E+00 -0.17427924830E+04  0.17427924830E+04  0.25500000920E-02 0.  1.
    10030    2    1    2    0    0  0.00000000000E+00  0.00000000000E+00 -0.16536728726E+04  0.18319120935E+04  0.78820552455E+03 0.  0.
        2    1    3    3  502    0  0.31235859969E+03  0.23097665859E+03 -0.98098376244E+03  0.10551053283E+04  0.25500000920E-02 0.  1.
       -2    1    3    3    0  502 -0.31235859969E+03 -0.23097665859E+03 -0.67268911011E+03  0.77680676522E+03  0.25500000920E-02 0. -1.
</event>
<event>
 5   0  0.1030323E-02  0.7882900E+03  0.7818609E-02  0.9577123E-01
       -1   -1    0    0    0  501  0.00000000000E+00  0.00000000000E+00  0.88568496689E+02  0.88568496832E+02  0.50400001928E-02 0.  1.
        1   -1    0    0  501    0  0.00000000000E+00  0.00000000000E+00 -0.17540129318E+04  0.17540129318E+04  0.50400001928E-02 0. -1.
    10030    2    1    2    0    0  0.00000000000E+00  0.00000000000E+00 -0.16654444351E+04  0.18425814287E+04  0.78829001943E+03 0.  0.
        3    1    3    3  502    0  0.13759678104E+03  0.36185241058E+03 -0.65968467315E+03  0.76488817443E+03  0.10100000352E+00 0.  1.
       -3    1    3    3    0  502 -0.13759678104E+03 -0.36185241058E+03 -0.10057597620E+04  0.10776932542E+04  0.10100000352E+00 0. -1.
</event>
<event>
 5   0  0.1731337E-02  0.7963716E+03  0.7818609E-02  0.9565284E-01
       -2   -1    0    0    0  501  0.00000000000E+00  0.00000000000E+00  0.15779940928E+03  0.15779940930E+03  0.25500000920E-02 0. -1.
        2   -1    0    0  501    0  0.00000000000E+00  0.00000000000E+00 -0.10047688736E+04  0.10047688736E+04  0.25500000920E-02 0.  1.
    10030    2    1    2    0    0  0.00000000000E+00  0.00000000000E+00 -0.84696946436E+03  0.11625682829E+04  0.79637160858E+03 0.  0.
        4    1    3    3  502    0  0.19864578696E+03 -0.28719513991E+03 -0.14416772831E+03  0.37779246135E+03  0.12699999809E+01 0. -1.
       -4    1    3    3    0  502 -0.19864578696E+03  0.28719513991E+03 -0.70280173605E+03  0.78477582160E+03  0.12699999809E+01 0.  1.
</event>
<event>
 5   0  0.1747544E-02  0.7735127E+03  0.7818609E-02  0.9599168E-01
       -2   -1    0    0    0  501  0.00000000000E+00  0.00000000000E+00  0.12510731792E+03  0.12510731795E+03  0.25500000920E-02 0.  1.
        2   -1    0    0  501    0  0.00000000000E+00  0.00000000000E+00 -0.11956172492E+04  0.11956172492E+04  0.25500000920E-02 0. -1.
    10030    2    1    2    0    0  0.00000000000E+00  0.00000000000E+00 -0.10705099313E+04  0.13207245672E+04  0.77351268206E+03 0.  0.
        1    1    3    3  502    0 -0.32110846040E+03  0.11665295590E+03 -0.22573317376E+03  0.40948018416E+03  0.50400001928E-02 0.  1.
       -1    1    3    3    0  502  0.32110846040E+03 -0.11665295590E+03 -0.84477675752E+03  0.91124438299E+03  0.50400001928E-02 0. -1.
</event>
<event>
 5   0  0.1030323E-02  0.7996272E+03  0.7818609E-02  0.9560557E-01
        1   -1    0    0  501    0  0.00000000000E+00  0.00000000000E+00  0.68957950432E+03  0.68957950433E+03  0.50400001928E-02 0.  1.
       -1   -1    0    0    0  501  0.00000000000E+00  0.00000000000E+00 -0.23180924828E+03  0.23180924833E+03  0.50400001928E-02 0. -1.
    10030    2    1    2    0    0  0.00000000000E+00  0.00000000000E+00  0.45777025604E+03  0.92138875267E+03  0.79962717952E+03 0.  0.
        3    1    3    3  502    0  0.38296918868E+03 -0.55282633220E+02  0.34485512934E+03  0.51831133448E+03  0.10100000352E+00 0.  1.
       -3    1    3    3    0  502 -0.38296918868E+03  0.55282633220E+02  0.11291512670E+03  0.40307741819E+03  0.10100000352E+00 0. -1.
</event>
<event>
 5   0  0.1049780E-02  0.8046826E+03  0.7818609E-02  0.9553264E-01
       -1   -1    0    0    0  501  0.00000000000E+00  0.00000000000E+00  0.17025205297E+03  0.17025205305E+03  0.50400001928E-02 0. -1.
        1   -1    0    0  501    0  0.00000000000E+00  0.00000000000E+00 -0.95081692112E+03  0.95081692113E+03  0.50400001928E-02 0.  1.
    10030    2    1    2    0    0  0.00000000000E+00  0.00000000000E+00 -0.78056486814E+03  0.11210689742E+04  0.80468262780E+03 0.  0.
        5    1    3    3  502    0 -0.16769725652E+03 -0.30832623293E+02  0.11738538801E+03  0.20706143973E+03  0.46999998093E+01 0. -1.
       -5    1    3    3    0  502  0.16769725652E+03  0.30832623293E+02 -0.89795025615E+03  0.91400753445E+03  0.46999998093E+01 0.  1.
</event>
<event>
 5   0  0.1030323E-02  0.8029258E+03  0.7818609E-02  0.9555792E-01
       -1   -1    0    0    0  501  0.00000000000E+00  0.00000000000E+00  0.14136986160E+03  0.14136986169E+03  0.50400001928E-02 0.  1.
        1   -1    0    0  501    0  0.00000000000E+00  0.00000000000E+00 -0.11400766008E+04  0.11400766008E+04  0.50400001928E-02 0. -1.
    10030    2    1    2    0    0  0.00000000000E+00  0.00000000000E+00 -0.99870673921E+03  0.12814464625E+04  0.80292582804E+03 0.  0.
        3    1    3    3  502    0 -0.28078723664E+03 -0.26794008766E+03 -0.33551079423E+03  0.51303105761E+03  0.10100000352E+00 0.  1.
       -3    1    3    3    0  502  0.28078723664E+03  0.26794008766E+03 -0.66319594499E+03  0.76841540490E+03  0.10100000352E+00 0. -1.
</event>
<event>
 5   0  0.1049780E-02  0.8010326E+03  0.7818609E-02  0.9558524E-01
       -1   -1    0    0    0  501  0.00000000000E+00  0.00000000000E+00  0.18203784145E+03  0.18203784152E+03  0.50400001928E-02 0.  1.
        1   -1    0    0  501    0  0.00000000000E+00  0.00000000000E+00 -0.88120862164E+03  0.88120862165E+03  0.50400001928E-02 0. -1.
    10030    2    1    2    0    0  0.00000000000E+00  0.00000000000E+00 -0.69917078018E+03  0.10632464632E+04  0.80103262205E+03 0.  0.
        5    1    3    3  502    0  0.14698014401E+03 -0.34565813023E+03 -0.16514406523E+03  0.41033810206E+03  0.46999998093E+01 0.  1.
       -5    1    3    3    0  502 -0.14698014401E+03  0.34565813023E+03 -0.53402671496E+03  0.65290836111E+03  0.46999998093E+01 0. -1.
</event>
<event>
 5   0  0.1817089E-02  0.8000533E+03  0.7818609E-02  0.9559940E-01
       -2   -1    0    0    0  501  0.00000000000E+00  0.00000000000E+00  0.42927327661E+03  0.42927327662E+03  0.25500000920E-02 0. -1.
        2   -1    0    0  501    0  0.00000000000E+00  0.00000000000E+00 -0.37277256739E+03  0.37277256739E+03  0.25500000920E-02 0.  1.
    10030    2    1    2    0    0  0.00000000000E+00  0.00000000000E+00  0.56500709224E+02  0.80204584401E+03  0.80005325182E+03 0.  0.
        2    1    3    3  502    0 -0.10067843283E+03 -0.54265806172E+02 -0.35603238015E+03  0.37395184219E+03  0.25500000920E-02 0.  1.
       -2    1    3    3    0  502  0.10067843283E+03  0.54265806172E+02  0.41253308938E+03  0.42809400182E+03  0.25500000920E-02 0. -1.
</event>
<event>
 5   0  0.1030323E-02  0.7769423E+03  0.7818609E-02  0.9594005E-01
       -1   -1    0    0    0  501  0.00000000000E+00  0.00000000000E+00  0.10810042428E+03  0.10810042439E+03  0.50400001928E-02 0. -1.
        1   -1    0    0  501    0  0.00000000000E+00  0.00000000000E+00 -0.13960152900E+04  0.13960152900E+04  0.50400001928E-02 0.  1.
    10030    2    1    2    0    0  0.00000000000E+00  0.00000000000E+00 -0.12879148657E+04  0.15041157144E+04  0.77694232794E+03 0.  0.
        3    1    3    3  502    0 -0.31014306392E+03 -0.16291864195E+03 -0.96893427285E+03  0.10303226870E+04  0.10100000352E+00 0.  1.
       -3    1    3    3    0  502  0.31014306392E+03  0.16291864195E+03 -0.31898059283E+03  0.47379302738E+03  0.10100000352E+00 0. -1.
</event>
<event>
 5   0  0.1747544E-02  0.7744409E+03  0.7818609E-02  0.9597768E-01
        2   -1    0    0  501    0  0.00000000000E+00  0.00000000000E+00  0.43308906465E+03  0.43308906466E+03  0.25500000920E-02 0. -1.
       -2   -1    0    0    0  501  0.00000000000E+00  0.00000000000E+00 -0.34620983685E+03  0.34620983686E+03  0.25500000920E-02 0.  1.
    10030    2    1    2    0    0  0.00000000000E+00  0.00000000000E+00  0.86879227800E+02  0.77929890151E+03  0.77444094525E+03 0.  0.
        1    1    3    3  502    0  0.35322410277E+03 -0.61491164827E+02  0.19061459346E+03  0.40605708145E+03  0.50400001928E-02 0.  1.
       -1    1    3    3    0  502 -0.35322410277E+03  0.61491164827E+02 -0.10373536566E+03  0.37324182006E+03  0.50400001928E-02 0. -1.
</event>
<event>
 5   0  0.1731337E-02  0.8097312E+03  0.7818609E-02  0.9546037E-01
        2   -1    0    0  501    0  0.00000000000E+00  0.00000000000E+00  0.69335172151E+03  0.69335172151E+03  0.25500000920E-02 0. -1.
       -2   -1    0    0    0  501  0.00000000000E+00  0.00000000000E+00 -0.23641127956E+03  0.23641127958E+03  0.25500000920E-02 0.  1.
    10030    2    1    2    0    0  0.00000000000E+00  0.00000000000E+00  0.45694044195E+03  0.92976300109E+03  0.80973123363E+03 0.  0.
        4    1    3    3  502    0 -0.16817305298E+03  0.35575983153E+03  0.33780815686E+03  0.51861661873E+03  0.12699999809E+01 0. -1.
       -4    1    3    3    0  502  0.16817305298E+03 -0.35575983153E+03  0.11913228509E+03  0.41114638236E+03  0.12699999809E+01 0.  1.
</event>
<event>
 5   0  0.1030323E-02  0.6941577E+03  0.7818609E-02  0.9727276E-01
        1   -1    0    0  501    0  0.00000000000E+00  0.00000000000E+00  0.80618809036E+03  0.80618809038E+03  0.50400001928E-02 0.  1.
       -1   -1    0    0    0  501  0.00000000000E+00  0.00000000000E+00 -0.14942386800E+03  0.14942386809E+03  0.50400001928E-02 0. -1.
    10030    2    1    2    0    0  0.00000000000E+00  0.00000000000E+00  0.65676422236E+03  0.95561195847E+03  0.69415774244E+03 0.  0.
        3    1    3    3  502    0  0.25130924573E+03  0.20592327343E+03  0.16032369329E+03  0.36230433114E+03  0.10100000352E+00 0.  1.
       -3    1    3    3    0  502 -0.25130924573E+03 -0.20592327343E+03  0.49644052907E+03  0.59330762732E+03  0.10100000352E+00 0. -1.
</event>
<event>
 5   0  0.1818665E-02  0.8000699E+03  0.7818609E-02  0.9559916E-01
       -2   -1    0    0    0  501  0.00000000000E+00  0.00000000000E+00  0.22937742024E+03  0.22937742025E+03  0.25500000920E-02 0. -1.
        2   -1    0    0  501    0  0.00000000000E+00  0.00000000000E+00 -0.69766225841E+03  0.69766225842E+03  0.25500000920E-02 0.  1.
    10030    2    1    2    0    0  0.00000000000E+00  0.00000000000E+00 -0.46828483818E+03  0.92703967867E+03  0.80006991954E+03 0.  0.
        3    1    3    3  502    0 -0.13262597523E+03  0.35701302528E+02 -0.66948579215E+03  0.68342919780E+03  0.10100000352E+00 0.  1.
       -3    1    3    3    0  502  0.13262597523E+03 -0.35701302528E+02  0.20120095398E+03  0.24361048087E+03  0.10100000352E+00 0. -1.
</event>
<event>
 5   0  0.1818665E-02  0.7973507E+03  0.7818609E-02  0.9563860E-01
       -2   -1    0    0    0  501  0.00000000000E+00  0.00000000000E+00  0.13898755371E+03  0.13898755373E+03  0.25500000920E-02 0. -1.
        2   -1    0    0  501    0  0.00000000000E+00  0.00000000000E+00 -0.11435701619E+04  0.11435701619E+04  0.25500000920E-02 0.  1.
    10030    2    1    2    0    0  0.00000000000E+00  0.00000000000E+00 -0.10045826082E+04  0.12825577156E+04  0.79735066141E+03 0.  0.
        3    1    3    3  502    0 -0.45363588642E+02  0.35773582286E+03 -0.22879852873E+03  0.42706153079E+03  0.10100000352E+00 0. -1.
       -3    1    3    3    0  502  0.45363588642E+02 -0.35773582286E+03 -0.77578407947E+03  0.85549618485E+03  0.10100000352E+00 0.  1.
</event>
<event>
 5   0  0.1038912E-02  0.8082980E+03  0.7818609E-02  0.9548083E-01
        1   -1    0    0  501    0  0.00000000000E+00  0.00000000000E+00  0.75687160859E+03  0.75687160861E+03  0.50400001928E-02 0. -1.
       -1   -1    0    0    0  501  0.00000000000E+00  0.00000000000E+00 -0.21580464421E+03  0.21580464427E+03  0.50400001928E-02 0.  1.
    10030    2    1    2    0    0  0.00000000000E+00  0.00000000000E+00  0.54106696437E+03  0.97267625288E+03  0.80829798526E+03 0.  0.
        2    1    3    3  502    0  0.26818745159E+03 -0.28105409218E+03  0.13642189821E+03  0.41173637954E+03  0.25500000920E-02 0.  1.
       -2    1    3    3    0  502 -0.26818745159E+03  0.28105409218E+03  0.40464506616E+03  0.56093987333E+03  0.25500000920E-02 0. -1.
</event>
<event>
 5   0  0.1049780E-02  0.7952633E+03  0.7818609E-02  0.9566899E-01
       -1   -1    0    0    0  501  0.00000000000E+00  0.00000000000E+00  0.14333037739E+03  0.14333037747E+03  0.50400001928E-02 0.  1.
        1   -1    0    0  501    0  0.00000000000E+00  0.00000000000E+00 -0.11031223220E+04  0.11031223220E+04  0.50400001928E-02 0. -1.
    10030    2    1    2    0    0  0.00000000000E+00  0.00000000000E+00 -0.95979194459E+03  0.12464526995E+04  0.79526332437E+03 0.  0.
        5    1    3    3  502    0 -0.35240801049E+03  0.14983915537E+03 -0.64757759439E+03  0.75234434211E+03  0.46999998093E+01 0.  1.
       -5    1    3    3    0  502  0.35240801049E+03 -0.14983915537E+03 -0.31221435020E+03  0.49410835736E+03  0.46999998093E+01 0. -1.
</event>
<event>
 5   0  0.1025900E-02  0.8040438E+03  0.7818609E-02  0.9554182E-01
        1   -1    0    0  501    0  0.00000000000E+00  0.00000000000E+00  0.51477048900E+03  0.51477048903E+03  0.50400001928E-02 0. -1.
       -1   -1    0    0    0  501  0.00000000000E+00  0.00000000000E+00 -0.31396831923E+03  0.31396831927E+03  0.50400001928E-02 0.  1.
    10030    2    1    2    0    0  0.00000000000E+00  0.00000000000E+00  0.20080216977E+03  0.82873880830E+03  0.80404384271E+03 0.  0.
        1    1    3    3  502    0 -0.36539210820E+03 -0.36675160776E+02  0.26902645237E+03  0.45522707768E+03  0.50400001928E-02 0. -1.
       -1    1    3    3    0  502  0.36539210820E+03  0.36675160776E+02 -0.68224282596E+02  0.37351173062E+03  0.50400001928E-02 0.  1.
</event>
<event>
 5   0  0.1673727E-02  0.7934323E+03  0.7818609E-02  0.9569572E-01
        2   -1    0    0  501    0  0.00000000000E+00  0.00000000000E+00  0.23295674970E+03  0.23295674971E+03  0.25500000920E-02 0. -1.
       -2   -1    0    0    0  501  0.00000000000E+00  0.00000000000E+00 -0.67559201390E+03  0.67559201391E+03  0.25500000920E-02 0.  1.
    10030    2    1    2    0    0  0.00000000000E+00  0.00000000000E+00 -0.44263526420E+03  0.90854876362E+03  0.79343234038E+03 0.  0.
        5    1    3    3  502    0 -0.16210450842E+03  0.24369412741E+03 -0.52792926232E+03  0.60365229677E+03  0.46999998093E+01 0.  1.
       -5    1    3    3    0  502  0.16210450842E+03 -0.24369412741E+03  0.85293998120E+02  0.30489646685E+03  0.46999998093E+01 0. -1.
</event>
<event>
 5   0  0.1818665E-02  0.7990792E+03  0.7818609E-02  0.9561351E-01
        2   -1    0    0  501    0  0.00000000000E+00  0.00000000000E+00  0.39171961019E+03  0.39171961020E+03  0.25500000920E-02 0.  1.
       -2   -1    0    0    0  501  0.00000000000E+00  0.00000000000E+00 -0.40751570187E+03  0.40751570188E+03  0.25500000920E-02 0. -1.
    10030    2    1    2    0    0  0.00000000000E+00  0.00000000000E+00 -0.15796091678E+02  0.79923531208E+03  0.79907919981E+03 0.  0.
        3    1    3    3  502    0  0.10070693728E+03 -0.38363941364E+03  0.40182072307E+02  0.39866740029E+03  0.10100000352E+00 0. -1.
       -3    1    3    3    0  502 -0.10070693728E+03  0.38363941364E+03 -0.55978163985E+02  0.40056791179E+03  0.10100000352E+00 0.  1.
</event>
<event>
 5   0  0.1731337E-02  0.7948239E+03  0.7818609E-02  0.9567540E-01
       -2   -1    0    0    0  501  0.00000000000E+00  0.00000000000E+00  0.39377937368E+03  0.39377937369E+03  0.25500000920E-02 0.  1.
        2   -1    0    0  501    0  0.00000000000E+00  0.00000000000E+00 -0.40107801704E+03  0.40107801705E+03  0.25500000920E-02 0. -1.
    10030    2    1    2    0    0  0.00000000000E+00  0.00000000000E+00 -0.72986433574E+01  0.79485739074E+03  0.79482388075E+03 0.  0.
        4    1    3    3  502    0  0.76438989684E+02 -0.32953223908E+03  0.20492653924E+03  0.39551348285E+03  0.12699999809E+01 0.  1.
       -4    1    3    3    0  502 -0.76438989684E+02  0.32953223908E+03 -0.21222518259E+03  0.39934390788E+03  0.12699999809E+01 0. -1.
</event>
<event>
 5   0  0.1818665E-02  0.8042329E+03  0.7818609E-02  0.9553910E-01
       -2   -1    0    0    0  501  0.00000000000E+00  0.00000000000E+00  0.25294137828E+03  0.25294137829E+03  0.25500000920E-02 0. -1.
        2   -1    0    0  501    0  0.00000000000E+00  0.00000000000E+00 -0.63926917470E+03  0.63926917470E+03  0.25500000920E-02 0.  1.
    10030    2    1    2    0    0  0.00000000000E+00  0.00000000000E+00 -0.38632779641E+03  0.89221055300E+03  0.80423286714E+03 0.  0.
        3    1    3    3  502    0 -0.23913421866E+03 -0.31469032554E+03 -0.11102053152E+03  0.41053714100E+03  0.10100000352E+00 0. -1.
       -3    1    3    3    0  502  0.23913421866E+03  0.31469032554E+03 -0.27530726489E+03  0.48167341200E+03  0.10100000352E+00 0.  1.
</event>
<event>
 5   0  0.1049780E-02  0.7926776E+03  0.7818609E-02  0.9570677E-01
       -1   -1    0    0    0  501  0.00000000000E+00  0.00000000000E+00  0.19629276301E+03  0.19629276307E+03  0.50400001928E-02 0. -1.
        1   -1    0    0  501    0  0.00000000000E+00  0.00000000000E+00 -0.80025597837E+03  0.80025597838E+03  0.50400001928E-02 0.  1.
    10030    2    1    2    0    0  0.00000000000E+00  0.00000000000E+00 -0.60396321536E+03  0.99654874145E+03  0.79267763219E+03 0.  0.
        5    1    3    3  502    0 -0.24587287530E+03  0.31017175125E+03 -0.32720019246E+03  0.51355821678E+03  0.46999998093E+01 0.  1.
       -5    1    3    3    0  502  0.24587287530E+03 -0.31017175125E+03 -0.27676302291E+03  0.48299052468E+03  0.46999998093E+01 0. -1.
</event>
<event>
 5   0  0.1146083E-02  0.7756383E+03  0.7818609E-02  0.9595965E-01
        1   -1    0    0  501    0  0.00000000000E+00  0.00000000000E+00  0.34021296357E+03  0.34021296361E+03  0.50400001928E-02 0. -1.
       -1   -1    0    0    0  501  0.00000000000E+00  0.00000000000E+00 -0.44208695057E+03  0.44208695060E+03  0.50400001928E-02 0.  1.
    10030    2    1    2    0    0  0.00000000000E+00  0.00000000000E+00 -0.10187398700E+03  0.78229991421E+03  0.77563834778E+03 0.  0.
        4    1    3    3  502    0 -0.21098860409E+03 -0.21980814654E+03 -0.29293578936E+03  0.42266393498E+03  0.12699999809E+01 0.  1.
       -4    1    3    3    0  502  0.21098860409E+03  0.21980814654E+03  0.19106180236E+03  0.35963597924E+03  0.12699999809E+01 0. -1.
</event>
<event>
 5   0  0.1049780E-02  0.7076105E+03  0.7818609E-02  0.9704305E-01
       -1   -1    0    0    0  501  0.00000000000E+00  0.00000000000E+00  0.24591914906E+03  0.24591914911E+03  0.50400001928E-02 0. -1.
        1   -1    0    0  501    0  0.00000000000E+00  0.00000000000E+00 -0.50902155046E+03  0.50902155049E+03  0.50400001928E-02 0.  1.
    10030    2    1    2    0    0  0.00000000000E+00  0.00000000000E+00 -0.26310240140E+03  0.75494069960E+03  0.70761047638E+03 0.  0.
        5    1    3    3  502    0 -0.23046723445E+03 -0.12261702381E+03  0.12317802618E+03  0.28869533564E+03  0.46999998093E+01 0. -1.
       -5    1    3    3    0  502  0.23046723445E+03  0.12261702381E+03 -0.38628042758E+03  0.46624536396E+03  0.46999998093E+01 0.  1.
</event>
<event>
 5   0  0.1146083E-02  0.7993449E+03  0.7818609E-02  0.9560966E-01
        1   -1    0    0  501    0  0.00000000000E+00  0.00000000000E+00  0.67903132072E+03  0.67903132074E+03  0.50400001928E-02 0.  1.
       -1   -1    0    0    0  501  0.00000000000E+00  0.00000000000E+00 -0.23524401974E+03  0.23524401979E+03  0.50400001928E-02 0. -1.
    10030    2    1    2    0    0  0.00000000000E+00  0.00000000000E+00  0.44378730098E+03  0.91427534053E+03  0.79934487537E+03 0.  0.
        4    1    3    3  502    0  0.36300147513E+03 -0.16549407152E+03  0.19439325147E+03  0.44378903521E+03  0.12699999809E+01 0. -1.
       -4    1    3    3    0  502 -0.36300147513E+03  0.16549407152E+03  0.24939404951E+03  0.47048630531E+03  0.12699999809E+01 0.  1.
</event>
<event>
 5   0  0.1818665E-02  0.7982138E+03  0.7818609E-02  0.9562606E-01
        2   -1    0    0  501    0  0.00000000000E+00  0.00000000000E+00  0.14766431306E+04  0.14766431306E+04  0.25500000920E-02 0.  1.
       -2   -1    0    0    0  501  0.00000000000E+00  0.00000000000E+00 -0.10787055516E+03  0.10787055519E+03  0.25500000920E-02 0. -1.
    10030    2    1    2    0    0  0.00000000000E+00  0.00000000000E+00  0.13687725754E+04  0.15845136858E+04  0.79821379165E+03 0.  0.
        3    1    3    3  502    0  0.53599524974E+02  0.10015685244E+03  0.14438737441E+04  0.14483354940E+04  0.10100000352E+00 0.  1.
       -3    1    3    3    0  502 -0.53599524974E+02 -0.10015685244E+03 -0.75101168680E+02  0.13617819174E+03  0.10100000352E+00 0. -1.
</event>
<event>
 5   0  0.1030323E-02  0.8342547E+03  0.7818609E-02  0.9511717E-01
       -1   -1    0    0    0  501  0.00000000000E+00  0.00000000000E+00  0.10230231798E+03  0.10230231810E+03  0.50400001928E-02 0.  1.
        1   -1    0    0  501    0  0.00000000000E+00  0.00000000000E+00 -0.17007946394E+04  0.17007946394E+04  0.50400001928E-02 0. -1.
    10030    2    1    2    0    0  0.00000000000E+00  0.00000000000E+00 -0.15984923214E+04  0.18030969575E+04  0.83425471921E+03 0.  0.
        3    1    3    3  502    0 -0.51776185073E+01  0.25151655055E+03 -0.80112530153E+02  0.26401782255E+03  0.10100000352E+00 0.  1.
       -3    1    3    3    0  502  0.51776185073E+01 -0.25151655055E+03 -0.15183797912E+04  0.15390791349E+04  0.10100000352E+00 0. -1.
</event>
<event>
 5   0  0.6872500E-03  0.7989468E+03  0.7818609E-02  0.9561543E-01
       -4   -1    0    0    0  501  0.00000000000E+00  0.00000000000E+00  0.17838116695E+03  0.17838568783E+03  0.12699999809E+01 0. -1.
        4   -1    0    0  501    0  0.00000000000E+00  0.00000000000E+00 -0.89457927931E+03  0.89458018080E+03  0.12699999809E+01 0.  1.
    10030    2    1    2    0    0  0.00000000000E+00  0.00000000000E+00 -0.71619811236E+03  0.10729658686E+04  0.79894681868E+03 0.  0.
        2    1    3    3  502    0  0.18769641263E+03  0.39987600433E+02  0.11242180149E+03  0.22241315824E+03  0.25500000920E-02 0. -1.
       -2    1    3    3    0  502 -0.18769641263E+03 -0.39987600433E+02 -0.82861991385E+03  0.85055271038E+03  0.25500000920E-02 0.  1.
</event>
<event>
 5   0  0.1818665E-02  0.7984548E+03  0.7818609E-02  0.9562256E-01
        2   -1    0    0  501    0  0.00000000000E+00  0.00000000000E+00  0.79065599033E+03  0.79065599034E+03  0.25500000920E-02 0.  1.
       -2   -1    0    0    0  501  0.00000000000E+00  0.00000000000E+00 -0.20158264678E+03  0.20158264680E+03  0.25500000920E-02 0. -1.
    10030    2    1    2    0    0  0.00000000000E+00  0.00000000000E+00  0.58907334355E+03  0.99223863714E+03  0.79845482586E+03 0.  0.
        3    1    3    3  502    0  0.97888998635E+02 -0.21533589326E+03  0.69419654431E+03  0.73338983857E+03  0.10100000352E+00 0.  1.
       -3    1    3    3    0  502 -0.97888998635E+02  0.21533589326E+03 -0.10512320076E+03  0.25884879857E+03  0.10100000352E+00 0. -1.
</event>
<event>
 5   0  0.1030323E-02  0.8031915E+03  0.7818609E-02  0.9555409E-01
       -1   -1    0    0    0  501  0.00000000000E+00  0.00000000000E+00  0.37499453837E+03  0.37499453841E+03  0.50400001928E-02 0. -1.
        1   -1    0    0  501    0  0.00000000000E+00  0.00000000000E+00 -0.43008394938E+03  0.43008394941E+03  0.50400001928E-02 0.  1.
    10030    2    1    2    0    0  0.00000000000E+00  0.00000000000E+00 -0.55089411003E+02  0.80507848781E+03  0.80319146431E+03 0.  0.
        3    1    3    3  502    0  0.32117855823E+03 -0.16202942285E+02  0.21356339751E+03  0.38604084831E+03  0.10100000352E+00 0. -1.
       -3    1    3    3    0  502 -0.32117855823E+03  0.16202942285E+02 -0.26865280851E+03  0.41903763951E+03  0.10100000352E+00 0.  1.
</event>
<event>
 5   0  0.1731337E-02  0.8012414E+03  0.7818609E-02  0.9558222E-01
       -2   -1    0    0    0  501  0.00000000000E+00  0.00000000000E+00  0.73159949627E+02  0.73159949671E+02  0.25500000920E-02 0.  1.
        2   -1    0    0  501    0  0.00000000000E+00  0.00000000000E+00 -0.21937813487E+04  0.21937813487E+04  0.25500000920E-02 0. -1.
    10030    2    1    2    0    0  0.00000000000E+00  0.00000000000E+00 -0.21206213990E+04  0.22669412983E+04  0.80124136941E+03 0.  0.
        4    1    3    3  502    0 -0.34673030074E+03  0.85367104623E+02 -0.54645530332E+03  0.65278208878E+03  0.12699999809E+01 0.  1.
       -4    1    3    3    0  502  0.34673030074E+03 -0.85367104623E+02 -0.15741660957E+04  0.16141592096E+04  0.12699999809E+01 0. -1.
</event>
<event>
 5   0  0.6872500E-03  0.7944500E+03  0.7818609E-02  0.9568085E-01
        4   -1    0    0  501    0  0.00000000000E+00  0.00000000000E+00  0.63092653476E+03  0.63092781296E+03  0.12699999809E+01 0. -1.
       -4   -1    0    0    0  501  0.00000000000E+00  0.00000000000E+00 -0.25008570688E+03  0.25008893155E+03  0.12699999809E+01 0.  1.
    10030    2    1    2    0    0  0.00000000000E+00  0.00000000000E+00  0.38084082788E+03  0.88101674451E+03  0.79444997824E+03 0.  0.
        2    1    3    3  502    0  0.57934577109E+02  0.38403986601E+03  0.28283553544E+03  0.48045704701E+03  0.25500000920E-02 0. -1.
       -2    1    3    3    0  502 -0.57934577109E+02 -0.38403986601E+03  0.98005292441E+02  0.40055969750E+03  0.25500000920E-02 0.  1.
</event>
<event>
 5   0  0.1038912E-02  0.8027352E+03  0.7818609E-02  0.9556066E-01
       -1   -1    0    0    0  501  0.00000000000E+00  0.00000000000E+00  0.15766345927E+03  0.15766345935E+03  0.50400001928E-02 0.  1.
        1   -1    0    0  501    0  0.00000000000E+00  0.00000000000E+00 -0.10217709103E+04  0.10217709103E+04  0.50400001928E-02 0. -1.
    10030    2    1    2    0    0  0.00000000000E+00  0.00000000000E+00 -0.86410745106E+03  0.11794343697E+04  0.80273516518E+03 0.  0.
        2    1    3    3  502    0 -0.11943673548E+03 -0.34450341731E+03 -0.18554812555E+03  0.40911593127E+03  0.25500000920E-02 0.  1.
       -2    1    3    3    0  502  0.11943673548E+03  0.34450341731E+03 -0.67855932551E+03  0.77031843842E+03  0.25500000920E-02 0. -1.
</event>
<event>
 5   0  0.1146083E-02  0.7920768E+03  0.7818609E-02  0.9571557E-01
        1   -1    0    0  501    0  0.00000000000E+00  0.00000000000E+00  0.32417106336E+03  0.32417106340E+03  0.50400001928E-02 0. -1.
       -1   -1    0    0    0  501  0.00000000000E+00  0.00000000000E+00 -0.48383847748E+03  0.48383847751E+03  0.50400001928E-02 0.  1.
    10030    2    1    2    0    0  0.00000000000E+00  0.00000000000E+00 -0.15966741413E+03  0.80800954091E+03  0.79207684921E+03 0.  0.
        4    1    3    3  502    0 -0.77486061063E+02 -0.37141094984E+03 -0.19567242401E+03  0.42689517886E+03  0.12699999809E+01 0. -1.
       -4    1    3    3    0  502  0.77486061063E+02  0.37141094984E+03  0.36005009883E+02  0.38111436204E+03  0.12699999809E+01 0.  1.
</event>
<event>
 5   0  0.1030323E-02  0.8024644E+03  0.7818609E-02  0.9556457E-01
        1   -1    0    0  501    0  0.00000000000E+00  0.00000000000E+00  0.33067811322E+03  0.33067811326E+03  0.50400001928E-02 0.  1.
       -1   -1    0    0    0  501  0.00000000000E+00  0.00000000000E+00 -0.48683989179E+03  0.48683989181E+03  0.50400001928E-02 0. -1.
    10030    2    1    2    0    0  0.00000000000E+00  0.00000000000E+00 -0.15616177856E+03  0.81751800507E+03  0.80246444627E+03 0.  0.
        3    1    3    3  502    0  0.21637240166E+01 -0.21011664557E+03  0.27014046998E+03  0.34224197605E+03  0.10100000352E+00 0.  1.
       -3    1    3    3    0  502 -0.21637240166E+01  0.21011664557E+03 -0.42630224854E+03  0.47527602902E+03  0.10100000352E+00 0. -1.
</event>
<event>
 5   0  0.1049780E-02  0.7254827E+03  0.7818609E-02  0.9674619E-01
       -1   -1    0    0    0  501  0.00000000000E+00  0.00000000000E+00  0.18177176306E+04  0.18177176306E+04  0.50400001928E-02 0. -1.
        1   -1    0    0  501    0  0.00000000000E+00  0.00000000000E+00 -0.72388181566E+02  0.72388181741E+02  0.50400001928E-02 0.  1.
    10030    2    1    2    0    0  0.00000000000E+00  0.00000000000E+00  0.17453294491E+04  0.18901058124E+04  0.72548266431E+03 0.  0.
        5    1    3    3  502    0  0.14475274057E+03 -0.33164277463E+03  0.93747870363E+03  0.10049023314E+04  0.46999998093E+01 0. -1.
       -5    1    3    3    0  502 -0.14475274057E+03  0.33164277463E+03  0.80785074544E+03  0.88520348099E+03  0.46999998093E+01 0.  1.
</event>
<event>
 5   0  0.1818665E-02  0.7994769E+03  0.7818609E-02  0.9560775E-01
        2   -1    0    0  501    0  0.00000000000E+00  0.00000000000E+00  0.21298521362E+03  0.21298521363E+03  0.25500000920E-02 0. -1.
       -2   -1    0    0    0  501  0.00000000000E+00  0.00000000000E+00 -0.75024377252E+03  0.75024377252E+03  0.25500000920E-02 0.  1.
    10030    2    1    2    0    0  0.00000000000E+00  0.00000000000E+00 -0.53725855890E+03  0.96322898616E+03  0.79947690440E+03 0.  0.
        3    1    3    3  502    0  0.86692560743E+02  0.15730843121E+03  0.16162834037E+03  0.24163044764E+03  0.10100000352E+00 0. -1.
       -3    1    3    3    0  502 -0.86692560743E+02 -0.15730843121E+03 -0.69888689926E+03  0.72159853851E+03  0.10100000352E+00 0.  1.
</event>
<event>
 5   0  0.1025900E-02  0.8022994E+03  0.7818609E-02  0.9556695E-01
        1   -1    0    0  501    0  0.00000000000E+00  0.00000000000E+00  0.66427569418E+03  0.66427569420E+03  0.50400001928E-02 0. -1.
       -1   -1    0    0    0  501  0.00000000000E+00  0.00000000000E+00 -0.24225046958E+03  0.24225046964E+03  0.50400001928E-02 0.  1.
    10030    2    1    2    0    0  0.00000000000E+00  0.00000000000E+00  0.42202522460E+03  0.90652616384E+03  0.80229944255E+03 0.  0.
        1    1    3    3  502    0  0.14101242683E+03 -0.30394466417E+03  0.46024482826E+03  0.56929093210E+03  0.50400001928E-02 0. -1.
       -1    1    3    3    0  502 -0.14101242683E+03  0.30394466417E+03 -0.38219603665E+02  0.33723523174E+03  0.50400001928E-02 0.  1.
</event>
<event>
 5   0  0.1747544E-02  0.8005521E+03  0.7818609E-02  0.9559218E-01
        2   -1    0    0  501    0  0.00000000000E+00  0.00000000000E+00  0.44611567109E+03  0.44611567109E+03  0.25500000920E-02 0. -1.
       -2   -1    0    0    0  501  0.00000000000E+00  0.00000000000E+00 -0.35914653366E+03  0.35914653366E+03  0.25500000920E-02 0.  1.
    10030    2    1    2    0    0  0.00000000000E+00  0.00000000000E+00  0.86969137430E+02  0.80526220476E+03  0.80055205174E+03 0.  0.
        1    1    3    3  502    0  0.76488711265E+01  0.51050289374E+02  0.44275355020E+03  0.44575255862E+03  0.50400001928E-02 0. -1.
       -1    1    3    3    0  502 -0.76488711265E+01 -0.51050289374E+02 -0.35578441277E+03  0.35950964614E+03  0.50400001928E-02 0.  1.
</event>
<event>
 5   0  0.1030323E-02  0.7406364E+03  0.7818609E-02  0.9650156E-01
        1   -1    0    0  501    0  0.00000000000E+00  0.00000000000E+00  0.12296039548E+04  0.12296039548E+04  0.50400001928E-02 0.  1.
       -1   -1    0    0    0  501  0.00000000000E+00  0.00000000000E+00 -0.11152823152E+03  0.11152823163E+03  0.50400001928E-02 0. -1.
    10030    2    1    2    0    0  0.00000000000E+00  0.00000000000E+00  0.11180757233E+04  0.13411321864E+04  0.74063636051E+03 0.  0.
        3    1    3    3  502    0  0.33159373454E+03 -0.31832249478E+02  0.85195889426E+03  0.91476863993E+03  0.10100000352E+00 0.  1.
       -3    1    3    3    0  502 -0.33159373454E+03  0.31832249478E+02  0.26611682899E+03  0.42636354648E+03  0.10100000352E+00 0. -1.
</event>
<event>
 5   0  0.1038912E-02  0.7519421E+03  0.7818609E-02  0.9632308E-01
        1   -1    0    0  501    0  0.00000000000E+00  0.00000000000E+00  0.26054865601E+03  0.26054865606E+03  0.50400001928E-02 0.  1.
       -1   -1    0    0    0  501  0.00000000000E+00  0.00000000000E+00 -0.54252529142E+03  0.54252529144E+03  0.50400001928E-02 0. -1.
    10030    2    1    2    0    0  0.00000000000E+00  0.00000000000E+00 -0.28197663541E+03  0.80307394750E+03  0.75194211362E+03 0.  0.
        2    1    3    3  502    0  0.74036438564E+02  0.31899790532E+03 -0.33824522367E+03  0.47079814058E+03  0.25500000920E-02 0. -1.
       -2    1    3    3    0  502 -0.74036438564E+02 -0.31899790532E+03  0.56268588258E+02  0.33227580692E+03  0.25500000920E-02 0.  1.
</event>
<event>
 5   0  0.1049780E-02  0.7998985E+03  0.7818609E-02  0.9560164E-01
       -1   -1    0    0    0  501  0.00000000000E+00  0.00000000000E+00  0.12540349651E+03  0.12540349661E+03  0.50400001928E-02 0.  1.
        1   -1    0    0  501    0  0.00000000000E+00  0.00000000000E+00 -0.12755577508E+04  0.12755577508E+04  0.50400001928E-02 0. -1.
    10030    2    1    2    0    0  0.00000000000E+00  0.00000000000E+00 -0.11501542543E+04  0.14009612474E+04  0.79989849863E+03 0.  0.
        5    1    3    3  502    0 -0.21141195886E+03  0.15008031996E+03 -0.41774502984E+02  0.26265246598E+03  0.46999998093E+01 0.  1.
       -5    1    3    3    0  502  0.21141195886E+03 -0.15008031996E+03 -0.11083797513E+04  0.11383087814E+04  0.46999998093E+01 0. -1.
</event>
<event>
 5   0  0.1673727E-02  0.8160416E+03  0.7818609E-02  0.9537083E-01
        2   -1    0    0  501    0  0.00000000000E+00  0.00000000000E+00  0.61309021670E+03  0.61309021671E+03  0.25500000920E-02 0. -1.
       -2   -1    0    0    0  501  0.00000000000E+00  0.00000000000E+00 -0.27154399662E+03  0.27154399663E+03  0.25500000920E-02 0.  1.
    10030    2    1    2    0    0  0.00000000000E+00  0.00000000000E+00  0.34154622009E+03  0.88463421334E+03  0.81604158653E+03 0.  0.
        5    1    3    3  502    0 -0.55162642807E+02  0.32399903195E+03  0.43283793230E+03  0.54349706117E+03  0.46999998093E+01 0. -1.
       -5    1    3    3    0  502  0.55162642807E+02 -0.32399903195E+03 -0.91291712215E+02  0.34113715216E+03  0.46999998093E+01 0.  1.
</event>
<event>
 5   0  0.1673727E-02  0.8092889E+03  0.7818609E-02  0.9546668E-01
        2   -1    0    0  501    0  0.00000000000E+00  0.00000000000E+00  0.25511933373E+04  0.25511933373E+04  0.25500000920E-02 0. -1.
       -2   -1    0    0    0  501  0.00000000000E+00  0.00000000000E+00 -0.64180602876E+02  0.64180602927E+02  0.25500000920E-02 0.  1.
    10030    2    1    2    0    0  0.00000000000E+00  0.00000000000E+00  0.24870127344E+04  0.26153739402E+04  0.80928888911E+03 0.  0.
        5    1    3    3  502    0 -0.17628694267E+03 -0.26590856832E+03  0.20477410544E+04  0.20724502332E+04  0.46999998093E+01 0. -1.
       -5    1    3    3    0  502  0.17628694267E+03  0.26590856832E+03  0.43927167996E+03  0.54292370705E+03  0.46999998093E+01 0.  1.
</event>
<event>
 5   0  0.1673727E-02  0.8000737E+03  0.7818609E-02  0.9559910E-01
        2   -1    0    0  501    0  0.00000000000E+00  0.00000000000E+00  0.11760372861E+04  0.11760372861E+04  0.25500000920E-02 0.  1.
       -2   -1    0    0    0  501  0.00000000000E+00  0.00000000000E+00 -0.13607516393E+03  0.13607516395E+03  0.25500000920E-02 0. -1.
    10030    2    1    2    0    0  0.00000000000E+00  0.00000000000E+00  0.10399621222E+04  0.13121124501E+04  0.80007366290E+03 0.  0.
        5    1    3    3  502    0 -0.30399233534E+03 -0.72988454939E+02  0.11074296248E+03  0.33169978631E+03  0.46999998093E+01 0. -1.
       -5    1    3    3    0  502  0.30399233534E+03  0.72988454939E+02  0.92921915971E+03  0.98041266377E+03  0.46999998093E+01 0.  1.
</event>
<event>
 5   0  0.1146083E-02  0.8068410E+03  0.7818609E-02  0.9550167E-01
        1   -1    0    0  501    0  0.00000000000E+00  0.00000000000E+00  0.94507069034E+03  0.94507069036E+03  0.50400001928E-02 0.  1.
       -1   -1    0    0    0  501  0.00000000000E+00  0.00000000000E+00 -0.17220733410E+03  0.17220733417E+03  0.50400001928E-02 0. -1.
    10030    2    1    2    0    0  0.00000000000E+00  0.00000000000E+00  0.77286335624E+03  0.11172780245E+04  0.80684101078E+03 0.  0.
        4    1    3    3  502    0 -0.22150740588E+02 -0.18950042788E+03 -0.10578128840E+03  0.21815673575E+03  0.12699999809E+01 0. -1.
       -4    1    3    3    0  502  0.22150740588E+02  0.18950042788E+03  0.87864464465E+03  0.89912128878E+03  0.12699999809E+01 0.  1.
</event>
<event>
 5   0  0.1817089E-02  0.7996371E+03  0.7818609E-02  0.9560543E-01
       -2   -1    0    0    0  501  0.00000000000E+00  0.00000000000E+00  0.26830544305E+03  0.26830544306E+03  0.25500000920E-02 0.  1.
        2   -1    0    0  501    0  0.00000000000E+00  0.00000000000E+00 -0.59579436475E+03  0.59579436475E+03  0.25500000920E-02 0. -1.
    10030    2    1    2    0    0  0.00000000000E+00  0.00000000000E+00 -0.32748892170E+03  0.86409980782E+03  0.79963709521E+03 0.  0.
        2    1    3    3  502    0 -0.12474292677E+03 -0.51809781744E+02  0.24290262153E+03  0.27793296821E+03  0.25500000920E-02 0.  1.
       -2    1    3    3    0  502  0.12474292677E+03  0.51809781744E+02 -0.57039154323E+03  0.58616683961E+03  0.25500000920E-02 0. -1.
</event>
<event>
 5   0  0.1818665E-02  0.7942942E+03  0.7818609E-02  0.9568313E-01
        2   -1    0    0  501    0  0.00000000000E+00  0.00000000000E+00  0.62429530041E+03  0.62429530041E+03  0.25500000920E-02 0. -1.
       -2   -1    0    0    0  501  0.00000000000E+00  0.00000000000E+00 -0.25264617975E+03  0.25264617977E+03  0.25500000920E-02 0.  1.
    10030    2    1    2    0    0  0.00000000000E+00  0.00000000000E+00  0.37164912066E+03  0.87694148018E+03  0.79429420920E+03 0.  0.
        3    1    3    3  502    0 -0.17275162306E+03 -0.22606624153E+03  0.49174187682E+03  0.56811895977E+03  0.10100000352E+00 0. -1.
       -3    1    3    3    0  502  0.17275162306E+03  0.22606624153E+03 -0.12009275616E+03  0.30882252041E+03  0.10100000352E+00 0.  1.
</event>
<event>
 5   0  0.1025900E-02  0.8055614E+03  0.7818609E-02  0.9552002E-01
       -1   -1    0    0    0  501  0.00000000000E+00  0.00000000000E+00  0.42179034187E+03  0.42179034190E+03  0.50400001928E-02 0. -1.
        1   -1    0    0  501    0  0.00000000000E+00  0.00000000000E+00 -0.38462784544E+03  0.38462784548E+03  0.50400001928E-02 0.  1.
    10030    2    1    2    0    0  0.00000000000E+00  0.00000000000E+00  0.37162496430E+02  0.80641818738E+03  0.80556144508E+03 0.  0.
        1    1    3    3  502    0  0.26434818171E+03  0.82409915501E+00 -0.28563612953E+03  0.38918972087E+03  0.50400001928E-02 0.  1.
       -1    1    3    3    0  502 -0.26434818171E+03 -0.82409915501E+00  0.32279862596E+03  0.41722846651E+03  0.50400001928E-02 0. -1.
</event>
<event>
 5   0  0.1818665E-02  0.8113279E+03  0.7818609E-02  0.9543764E-01
       -2   -1    0    0    0  501  0.00000000000E+00  0.00000000000E+00  0.17616811448E+03  0.17616811450E+03  0.25500000920E-02 0. -1.
        2   -1    0    0  501    0  0.00000000000E+00  0.00000000000E+00 -0.93412605353E+03  0.93412605354E+03  0.25500000920E-02 0.  1.
    10030    2    1    2    0    0  0.00000000000E+00  0.00000000000E+00 -0.75795793905E+03  0.11102941680E+04  0.81132786357E+03 0.  0.
        3    1    3    3  502    0 -0.15662985295E+03  0.25328942076E+03 -0.20232196772E+01  0.29781293646E+03  0.10100000352E+00 0. -1.
       -3    1    3    3    0  502  0.15662985295E+03 -0.25328942076E+03 -0.75593471938E+03  0.81248123158E+03  0.10100000352E+00 0.  1.
</event>
<event>
 5   0  0.1146083E-02  0.6856961E+03  0.7818609E-02  0.9742011E-01
        1   -1    0    0  501    0  0.00000000000E+00  0.00000000000E+00  0.33423974077E+03  0.33423974081E+03  0.50400001928E-02 0.  1.
       -1   -1    0    0    0  501  0.00000000000E+00  0.00000000000E+00 -0.35167807125E+03  0.35167807129E+03  0.50400001928E-02 0. -1.
    10030    2    1    2    0    0  0.00000000000E+00  0.00000000000E+00 -0.17438330484E+02  0.68591781210E+03  0.68569610585E+03 0.  0.
        4    1    3    3  502    0 -0.17217407673E+03  0.81158204471E+02 -0.29396502022E+03  0.35021081204E+03  0.12699999809E+01 0. -1.
       -4    1    3    3    0  502  0.17217407673E+03 -0.81158204471E+02  0.27652668974E+03  0.33570700006E+03  0.12699999809E+01 0.  1.
</event>
<event>
 5   0  0.1673727E-02  0.7876052E+03  0.7818609E-02  0.9578133E-01
       -2   -1    0    0    0  501  0.00000000000E+00  0.00000000000E+00  0.42905663130E+03  0.42905663131E+03  0.25500000920E-02 0.  1.
        2   -1    0    0  501    0  0.00000000000E+00  0.00000000000E+00 -0.36144525366E+03  0.36144525367E+03  0.25500000920E-02 0. -1.
    10030    2    1    2    0    0  0.00000000000E+00  0.00000000000E+00  0.67611377636E+02  0.79050188498E+03  0.78760518775E+03 0.  0.
        5    1    3    3  502    0  0.58190490480E+02  0.12239338446E+03  0.40488443466E+03  0.42698919093E+03  0.46999998093E+01 0.  1.
       -5    1    3    3    0  502 -0.58190490480E+02 -0.12239338446E+03 -0.33727305702E+03  0.36351269405E+03  0.46999998093E+01 0. -1.
</event>
<event>
 5   0  0.1030323E-02  0.7949213E+03  0.7818609E-02  0.9567398E-01
       -1   -1    0    0    0  501  0.00000000000E+00  0.00000000000E+00  0.28775669783E+03  0.28775669787E+03  0.50400001928E-02 0.  1.
        1   -1    0    0  501    0  0.00000000000E+00  0.00000000000E+00 -0.54898798641E+03  0.54898798643E+03  0.50400001928E-02 0. -1.
    10030    2    1    2    0    0  0.00000000000E+00  0.00000000000E+00 -0.26123128858E+03  0.83674468430E+03  0.79492130464E+03 0.  0.
        3    1    3    3  502    0 -0.12432702729E+03  0.22739083105E+02  0.26604037037E+03  0.29453652487E+03  0.10100000352E+00 0.  1.
       -3    1    3    3    0  502  0.12432702729E+03 -0.22739083105E+02 -0.52727165895E+03  0.54220815943E+03  0.10100000352E+00 0. -1.
</event>
<event>
 5   0  0.1817089E-02  0.8040824E+03  0.7818609E-02  0.9554127E-01
       -2   -1    0    0    0  501  0.00000000000E+00  0.00000000000E+00  0.55543841646E+03  0.55543841646E+03  0.25500000920E-02 0. -1.
        2   -1    0    0  501    0  0.00000000000E+00  0.00000000000E+00 -0.29100819943E+03  0.29100819944E+03  0.25500000920E-02 0.  1.
    10030    2    1    2    0    0  0.00000000000E+00  0.00000000000E+00  0.26443021703E+03  0.84644661591E+03  0.80408241736E+03 0.  0.
        2    1    3    3  502    0 -0.37226615854E+03  0.10701967471E+02 -0.27226081891E+02  0.37341382465E+03  0.25500000920E-02 0.  1.
       -2    1    3    3    0  502  0.37226615854E+03 -0.10701967471E+02  0.29165629892E+03  0.47303279126E+03  0.25500000920E-02 0. -1.
</event>
<event>
 5   0  0.1049780E-02  0.7994473E+03  0.7818609E-02  0.9560817E-01
       -1   -1    0    0    0  501  0.00000000000E+00  0.00000000000E+00  0.34144628179E+03  0.34144628183E+03  0.50400001928E-02 0.  1.
        1   -1    0    0  501    0  0.00000000000E+00  0.00000000000E+00 -0.46794771847E+03  0.46794771850E+03  0.50400001928E-02 0. -1.
    10030    2    1    2    0    0  0.00000000000E+00  0.00000000000E+00 -0.12650143668E+03  0.80939400033E+03  0.79944733052E+03 0.  0.
        5    1    3    3  502    0  0.29568690169E+03 -0.14125861033E+03 -0.29494773885E+03  0.44090928486E+03  0.46999998093E+01 0. -1.
       -5    1    3    3    0  502 -0.29568690169E+03  0.14125861033E+03  0.16844630217E+03  0.36848471547E+03  0.46999998093E+01 0.  1.
</event>
<event>
 5   0  0.1038912E-02  0.8034568E+03  0.7818609E-02  0.9555027E-01
        1   -1    0    0  501    0  0.00000000000E+00  0.00000000000E+00  0.10978120738E+04  0.10978120738E+04  0.50400001928E-02 0. -1.
       -1   -1    0    0    0  501  0.00000000000E+00  0.00000000000E+00 -0.14700667063E+03  0.14700667072E+03  0.50400001928E-02 0.  1.
    10030    2    1    2    0    0  0.00000000000E+00  0.00000000000E+00  0.95080540315E+03  0.12448187445E+04  0.80345677670E+03 0.  0.
        2    1    3    3  502    0 -0.19649720900E+03 -0.34510557537E+03  0.56934732140E+03  0.69416524235E+03  0.25500000920E-02 0.  1.
       -2    1    3    3    0  502  0.19649720900E+03  0.34510557537E+03  0.38145808175E+03  0.55065350216E+03  0.25500000920E-02 0. -1.
</event>
<event>
 5   0  0.1049780E-02  0.8076838E+03  0.7818609E-02  0.9548961E-01
        1   -1    0    0  501    0  0.00000000000E+00  0.00000000000E+00  0.31416644648E+03  0.31416644652E+03  0.50400001928E-02 0.  1.
       -1   -1    0    0    0  501  0.00000000000E+00  0.00000000000E+00 -0.51911424197E+03  0.51911424200E+03  0.50400001928E-02 0. -1.
    10030    2    1    2    0    0  0.00000000000E+00  0.00000000000E+00 -0.20494779550E+03  0.83328068851E+03  0.80768379145E+03 0.  0.
        5    1    3    3  502    0  0.28345331053E+03  0.25098929009E+03 -0.24736979042E+03  0.45227790815E+03  0.46999998093E+01 0. -1.
       -5    1    3    3    0  502 -0.28345331053E+03 -0.25098929009E+03  0.42421994924E+02  0.38100278036E+03  0.46999998093E+01 0.  1.
</event>
<event>
 5   0  0.1673727E-02  0.8053949E+03  0.7818609E-02  0.9552241E-01
       -2   -1    0    0    0  501  0.00000000000E+00  0.00000000000E+00  0.34376105087E+03  0.34376105088E+03  0.25500000920E-02 0. -1.
        2   -1    0    0  501    0  0.00000000000E+00  0.00000000000E+00 -0.47173826781E+03  0.47173826782E+03  0.25500000920E-02 0.  1.
    10030    2    1    2    0    0  0.00000000000E+00  0.00000000000E+00 -0.12797721694E+03  0.81549931870E+03  0.80539491602E+03 0.  0.
        5    1    3    3  502    0 -0.65746578868E+02  0.25590058433E+03  0.24369113802E+03  0.35946513383E+03  0.46999998093E+01 0. -1.
       -5    1    3    3    0  502  0.65746578868E+02 -0.25590058433E+03 -0.37166835496E+03  0.45603418487E+03  0.46999998093E+01 0.  1.
</event>
<event>
 5   0  0.1049780E-02  0.7955167E+03  0.7818609E-02  0.9566529E-01
        1   -1    0    0  501    0  0.00000000000E+00  0.00000000000E+00  0.83710536456E+03  0.83710536457E+03  0.50400001928E-02 0. -1.
       -1   -1    0    0    0  501  0.00000000000E+00  0.00000000000E+00 -0.18899857723E+03  0.18899857730E+03  0.50400001928E-02 0.  1.
    10030    2    1    2    0    0  0.00000000000E+00  0.00000000000E+00  0.64810678732E+03  0.10261039419E+04  0.79551674511E+03 0.  0.
        5    1    3    3  502    0  0.12383046976E+03  0.32470662020E+03  0.74535770499E+02  0.35545188918E+03  0.46999998093E+01 0.  1.
       -5    1    3    3    0  502 -0.12383046976E+03 -0.32470662020E+03  0.57357101682E+03  0.67065205269E+03  0.46999998093E+01 0. -1.
</event>
<event>
 5   0  0.1747544E-02  0.7904781E+03  0.7818609E-02  0.9573903E-01
        2   -1    0    0  501    0  0.00000000000E+00  0.00000000000E+00  0.54696098187E+03  0.54696098187E+03  0.25500000920E-02 0. -1.
       -2   -1    0    0    0  501  0.00000000000E+00  0.00000000000E+00 -0.28560340099E+03  0.28560340100E+03  0.25500000920E-02 0.  1.
    10030    2    1    2    0    0  0.00000000000E+00  0.00000000000E+00  0.26135758088E+03  0.83256438287E+03  0.79047812528E+03 0.  0.
        1    1    3    3  502    0 -0.10990022192E+02  0.70359005851E+02  0.54014835452E+03  0.54482237032E+03  0.50400001928E-02 0. -1.
       -1    1    3    3    0  502  0.10990022192E+02 -0.70359005851E+02 -0.27879077364E+03  0.28774201255E+03  0.50400001928E-02 0.  1.
</event>
<event>
 5   0  0.1673727E-02  0.7961299E+03  0.7818609E-02  0.9565636E-01
        2   -1    0    0  501    0  0.00000000000E+00  0.00000000000E+00  0.13727525395E+04  0.13727525395E+04  0.25500000920E-02 0. -1.
       -2   -1    0    0    0  501  0.00000000000E+00  0.00000000000E+00 -0.11542917982E+03  0.11542917985E+03  0.25500000920E-02 0.  1.
    10030    2    1    2    0    0  0.00000000000E+00  0.00000000000E+00  0.12573233597E+04  0.14881817193E+04  0.79612988829E+03 0.  0.
        5    1    3    3  502    0  0.21869179097E+03 -0.13028240219E+03  0.56671149088E+02  0.26083196295E+03  0.46999998093E+01 0.  1.
       -5    1    3    3    0  502 -0.21869179097E+03  0.13028240219E+03  0.12006522106E+04  0.12273497564E+04  0.46999998093E+01 0. -1.
</event>
<event>
 5   0  0.1673727E-02  0.7916932E+03  0.7818609E-02  0.9572119E-01
        2   -1    0    0  501    0  0.00000000000E+00  0.00000000000E+00  0.68409417418E+03  0.68409417418E+03  0.25500000920E-02 0. -1.
       -2   -1    0    0    0  501  0.00000000000E+00  0.00000000000E+00 -0.22905404129E+03  0.22905404131E+03  0.25500000920E-02 0.  1.
    10030    2    1    2    0    0  0.00000000000E+00  0.00000000000E+00  0.45504013288E+03  0.91314821549E+03  0.79169321136E+03 0.  0.
        5    1    3    3  502    0  0.80163860867E+02  0.31949265624E+03 -0.25628560797E+02  0.33042505217E+03  0.46999998093E+01 0. -1.
       -5    1    3    3    0  502 -0.80163860867E+02 -0.31949265624E+03  0.48066869368E+03  0.58272316331E+03  0.46999998093E+01 0.  1.
</event>
<event>
 5   0  0.1049780E-02  0.7956128E+03  0.7818609E-02  0.9566389E-01
       -1   -1    0    0    0  501  0.00000000000E+00  0.00000000000E+00  0.44760253383E+03  0.44760253386E+03  0.50400001928E-02 0. -1.
        1   -1    0    0  501    0  0.00000000000E+00  0.00000000000E+00 -0.35355016534E+03  0.35355016538E+03  0.50400001928E-02 0.  1.
    10030    2    1    2    0    0  0.00000000000E+00  0.00000000000E+00  0.94052368494E+02  0.80115269924E+03  0.79561284522E+03 0.  0.
        5    1    3    3  502    0 -0.29016216506E+03  0.92480377135E+02  0.30470083052E+03  0.43082640158E+03  0.46999998093E+01 0. -1.
       -5    1    3    3    0  502  0.29016216506E+03 -0.92480377135E+02 -0.21064846202E+03  0.37032629766E+03  0.46999998093E+01 0.  1.
</event>
<event>
 5   0  0.1049780E-02  0.8183789E+03  0.7818609E-02  0.9533789E-01
        1   -1    0    0  501    0  0.00000000000E+00  0.00000000000E+00  0.10949163277E+04  0.10949163277E+04  0.50400001928E-02 0.  1.
       -1   -1    0    0    0  501  0.00000000000E+00  0.00000000000E+00 -0.15292129816E+03  0.15292129824E+03  0.50400001928E-02 0. -1.
    10030    2    1    2    0    0  0.00000000000E+00  0.00000000000E+00  0.94199502953E+03  0.12478376259E+04  0.81837894954E+03 0.  0.
        5    1    3    3  502    0  0.26931934432E+03 -0.30426194388E+03  0.54421329607E+03  0.67918954743E+03  0.46999998093E+01 0.  1.
       -5    1    3    3    0  502 -0.26931934432E+03  0.30426194388E+03  0.39778173346E+03  0.56864807851E+03  0.46999998093E+01 0. -1.
</event>
<event>
 5   0  0.1673727E-02  0.8032204E+03  0.7818609E-02  0.9555367E-01
        2   -1    0    0  501    0  0.00000000000E+00  0.00000000000E+00  0.21236050086E+04  0.21236050086E+04  0.25500000920E-02 0. -1.
       -2   -1    0    0    0  501  0.00000000000E+00  0.00000000000E+00 -0.75951393099E+02  0.75951393142E+02  0.25500000920E-02 0.  1.
    10030    2    1    2    0    0  0.00000000000E+00  0.00000000000E+00  0.20476536155E+04  0.21995564017E+04  0.80322041518E+03 0.  0.
        5    1    3    3  502    0 -0.12636535128E+03  0.20178775906E+03  0.13824398732E+03  0.27535430220E+03  0.46999998093E+01 0.  1.
       -5    1    3    3    0  502  0.12636535128E+03 -0.20178775906E+03  0.19094096282E+04  0.19242020995E+04  0.46999998093E+01 0. -1.
</event>
<event>
 5   0  0.1038912E-02  0.7968160E+03  0.7818609E-02  0.9564637E-01
       -1   -1    0    0    0  501  0.00000000000E+00  0.00000000000E+00  0.38010665400E+03  0.38010665403E+03  0.50400001928E-02 0. -1.
        1   -1    0    0  501    0  0.00000000000E+00  0.00000000000E+00 -0.41759055538E+03  0.41759055541E+03  0.50400001928E-02 0.  1.
    10030    2    1    2    0    0  0.00000000000E+00  0.00000000000E+00 -0.37483901380E+02  0.79769720944E+03  0.79681603591E+03 0.  0.
        2    1    3    3  502    0 -0.34111606219E+03 -0.19664373639E+03 -0.79637022895E+02  0.40171007252E+03  0.25500000920E-02 0.  1.
       -2    1    3    3    0  502  0.34111606219E+03  0.19664373639E+03  0.42153121515E+02  0.39598713692E+03  0.25500000920E-02 0. -1.
</event>
<event>
 5   0  0.1747544E-02  0.7918015E+03  0.7818609E-02  0.9571960E-01
       -2   -1    0    0    0  501  0.00000000000E+00  0.00000000000E+00  0.57398346715E+03  0.57398346716E+03  0.25500000920E-02 0.  1.
        2   -1    0    0  501    0  0.00000000000E+00  0.00000000000E+00 -0.27306955666E+03  0.27306955667E+03  0.25500000920E-02 0. -1.
    10030    2    1    2    0    0  0.00000000000E+00  0.00000000000E+00  0.30091391050E+03  0.84705302383E+03  0.79180151783E+03 0.  0.
        1    1    3    3  502    0  0.35121643391E+03  0.20303847259E+02 -0.43796210976E+02  0.35451845902E+03  0.50400001928E-02 0. -1.
       -1    1    3    3    0  502 -0.35121643391E+03 -0.20303847259E+02  0.34471012147E+03  0.49253456481E+03  0.50400001928E-02 0.  1.
</event>
<event>
 5   0  0.1049780E-02  0.8008487E+03  0.7818609E-02  0.9558789E-01
        1   -1    0    0  501    0  0.00000000000E+00  0.00000000000E+00  0.10146411821E+04  0.10146411821E+04  0.50400001928E-02 0. -1.
       -1   -1    0    0    0  501  0.00000000000E+00  0.00000000000E+00 -0.15802597329E+03  0.15802597337E+03  0.50400001928E-02 0.  1.
    10030    2    1    2    0    0  0.00000000000E+00  0.00000000000E+00  0.85661520878E+03  0.11726671554E+04  0.80084870078E+03 0.  0.
        5    1    3    3  502    0 -0.28159738763E+03  0.63807088160E+02  0.22120470107E+02  0.28962016231E+03  0.46999998093E+01 0.  1.
       -5    1    3    3    0  502  0.28159738763E+03 -0.63807088160E+02  0.83449473868E+03  0.88304699314E+03  0.46999998093E+01 0. -1.
</event>
<event>
 5   0  0.1025900E-02  0.6635828E+03  0.7818609E-02  0.9781621E-01
        1   -1    0    0  501    0  0.00000000000E+00  0.00000000000E+00  0.90381178581E+03  0.90381178583E+03  0.50400001928E-02 0. -1.
       -1   -1    0    0    0  501  0.00000000000E+00  0.00000000000E+00 -0.12180139086E+03  0.12180139097E+03  0.50400001928E-02 0.  1.
    10030    2    1    2    0    0  0.00000000000E+00  0.00000000000E+00  0.78201039495E+03  0.10256131768E+04  0.66358279861E+03 0.  0.
        1    1    3    3  502    0 -0.33975889218E+02  0.69144593973E+02 -0.10778570010E+03  0.13248808662E+03  0.50400001928E-02 0.  1.
       -1    1    3    3    0  502  0.33975889218E+02 -0.69144593973E+02  0.88979609505E+03  0.89312509018E+03  0.50400001928E-02 0. -1.
</event>
<event>
 5   0  0.1025900E-02  0.7929458E+03  0.7818609E-02  0.9570284E-01
       -1   -1    0    0    0  501  0.00000000000E+00  0.00000000000E+00  0.14841706039E+03  0.14841706047E+03  0.50400001928E-02 0.  1.
        1   -1    0    0  501    0  0.00000000000E+00  0.00000000000E+00 -0.10591151349E+04  0.10591151349E+04  0.50400001928E-02 0. -1.
    10030    2    1    2    0    0  0.00000000000E+00  0.00000000000E+00 -0.91069807455E+03  0.12075321954E+04  0.79294578629E+03 0.  0.
        1    1    3    3  502    0  0.23008394899E+03  0.25433800984E+03 -0.75825443399E+03  0.83221165188E+03  0.50400001928E-02 0. -1.
       -1    1    3    3    0  502 -0.23008394899E+03 -0.25433800984E+03 -0.15244364055E+03  0.37532054354E+03  0.50400001928E-02 0.  1.
</event>
<event>
 5   0  0.1146083E-02  0.8053717E+03  0.7818609E-02  0.9552274E-01
        1   -1    0    0  501    0  0.00000000000E+00  0.00000000000E+00  0.15547303887E+04  0.15547303887E+04  0.50400001928E-02 0. -1.
       -1   -1    0    0    0  501  0.00000000000E+00  0.00000000000E+00 -0.10429839796E+03  0.10429839809E+03  0.50400001928E-02 0.  1.
    10030    2    1    2    0    0  0.00000000000E+00  0.00000000000E+00  0.14504319907E+04  0.16590287868E+04  0.80537168789E+03 0.  0.
        4    1    3    3  502    0 -0.79268009556E+02  0.17562140467E+03 -0.31693044595E+01  0.19271209746E+03  0.12699999809E+01 0.  1.
       -4    1    3    3    0  502  0.79268009556E+02 -0.17562140467E+03  0.14536012952E+04  0.14663166893E+04  0.12699999809E+01 0. -1.
</event>
<event>
 5   0  0.1731337E-02  0.8050703E+03  0.7818609E-02  0.9552707E-01
        2   -1    0    0  501    0  0.00000000000E+00  0.00000000000E+00  0.12906322378E+04  0.12906322378E+04  0.25500000920E-02 0.  1.
       -2   -1    0    0    0  501  0.00000000000E+00  0.00000000000E+00 -0.12554663129E+03  0.12554663132E+03  0.25500000920E-02 0. -1.
    10030    2    1    2    0    0  0.00000000000E+00  0.00000000000E+00  0.11650856065E+04  0.14161788691E+04  0.80507025709E+03 0.  0.
        4    1    3    3  502    0  0.26787470377E+03  0.27039490853E+03  0.35209289320E+03  0.51849906637E+03  0.12699999809E+01 0.  1.
       -4    1    3    3    0  502 -0.26787470377E+03 -0.27039490853E+03  0.81299271328E+03  0.89767980273E+03  0.12699999809E+01 0. -1.
</event>
<event>
 5   0  0.1818665E-02  0.8419776E+03  0.7818609E-02  0.9501168E-01
        2   -1    0    0  501    0  0.00000000000E+00  0.00000000000E+00  0.90807360687E+03  0.90807360688E+03  0.25500000920E-02 0.  1.
       -2   -1    0    0    0  501  0.00000000000E+00  0.00000000000E+00 -0.19517313796E+03  0.19517313797E+03  0.25500000920E-02 0. -1.
    10030    2    1    2    0    0  0.00000000000E+00  0.00000000000E+00  0.71290046892E+03  0.11032467449E+04  0.84197761339E+03 0.  0.
        3    1    3    3  502    0 -0.25448248354E+03  0.33120771881E+03  0.28746701223E+03  0.50704751330E+03  0.10100000352E+00 0.  1.
       -3    1    3    3    0  502  0.25448248354E+03 -0.33120771881E+03  0.42543345669E+03  0.59619923155E+03  0.10100000352E+00 0. -1.
</event>
<event>
 5   0  0.1146083E-02  0.7909172E+03  0.7818609E-02  0.9573258E-01
       -1   -1    0    0    0  501  0.00000000000E+00  0.00000000000E+00  0.85164731212E+03  0.85164731214E+03  0.50400001928E-02 0.  1.
        1   -1    0    0  501    0  0.00000000000E+00  0.00000000000E+00 -0.18362941295E+03  0.18362941302E+03  0.50400001928E-02 0. -1.
    10030    2    1    2    0    0  0.00000000000E+00  0.00000000000E+00  0.66801789917E+03  0.10352767252E+04  0.79091717901E+03 0.  0.
        4    1    3    3  502    0 -0.14174489712E+03  0.11643278078E+03  0.79258818675E+03  0.81353909247E+03  0.12699999809E+01 0.  1.
       -4    1    3    3    0  502  0.14174489712E+03 -0.11643278078E+03 -0.12457028758E+03  0.22173763269E+03  0.12699999809E+01 0. -1.
</event>
<event>
 5   0  0.1673727E-02  0.8092439E+03  0.7818609E-02  0.9546732E-01
       -2   -1    0    0    0  501  0.00000000000E+00  0.00000000000E+00  0.19839471893E+03  0.19839471894E+03  0.25500000920E-02 0.  1.
        2   -1    0    0  501    0  0.00000000000E+00  0.00000000000E+00 -0.82521821585E+03  0.82521821585E+03  0.25500000920E-02 0. -1.
    10030    2    1    2    0    0  0.00000000000E+00  0.00000000000E+00 -0.62682349692E+03  0.10236129348E+04  0.80924393355E+03 0.  0.
        5    1    3    3  502    0  0.31782405297E+03 -0.69325256570E+02 -0.61772144773E+03  0.69815470838E+03  0.46999998093E+01 0. -1.
       -5    1    3    3    0  502 -0.31782405297E+03  0.69325256570E+02 -0.91020491856E+01  0.32545822642E+03  0.46999998093E+01 0.  1.
</event>
<event>
 5   0  0.1818665E-02  0.7878843E+03  0.7818609E-02  0.9577722E-01
       -2   -1    0    0    0  501  0.00000000000E+00  0.00000000000E+00  0.12012241049E+03  0.12012241052E+03  0.25500000920E-02 0.  1.
        2   -1    0    0  501    0  0.00000000000E+00  0.00000000000E+00 -0.12919356440E+04  0.12919356440E+04  0.25500000920E-02 0. -1.
    10030    2    1    2    0    0  0.00000000000E+00  0.00000000000E+00 -0.11718132335E+04  0.14120580545E+04  0.78788431582E+03 0.  0.
        3    1    3    3  502    0  0.20181199670E+03  0.25268680675E+03 -0.98910204538E+03  0.10406255670E+04  0.10100000352E+00 0. -1.
       -3    1    3    3    0  502 -0.20181199670E+03 -0.25268680675E+03 -0.18271118811E+03  0.37143248751E+03  0.10100000352E+00 0.  1.
</event>
<event>
 5   0  0.1731337E-02  0.8055250E+03  0.7818609E-02  0.9552054E-01
        2   -1    0    0  501    0  0.00000000000E+00  0.00000000000E+00  0.55916391670E+03  0.55916391670E+03  0.25500000920E-02 0. -1.
       -2   -1    0    0    0  501  0.00000000000E+00  0.00000000000E+00 -0.29010745183E+03  0.29010745184E+03  0.25500000920E-02 0.  1.
    10030    2    1    2    0    0  0.00000000000E+00  0.00000000000E+00  0.26905646487E+03  0.84927136855E+03  0.80552496929E+03 0.  0.
        4    1    3    3  502    0  0.38157274398E+02  0.16199236109E+03  0.52121426882E+03  0.54714114226E+03  0.12699999809E+01 0. -1.
       -4    1    3    3    0  502 -0.38157274398E+02 -0.16199236109E+03 -0.25215780395E+03  0.30213022628E+03  0.12699999809E+01 0.  1.
</event>
<event>
 5   0  0.1817089E-02  0.8047896E+03  0.7818609E-02  0.9553110E-01
        2   -1    0    0  501    0  0.00000000000E+00  0.00000000000E+00  0.32042513019E+03  0.32042513020E+03  0.25500000920E-02 0. -1.
       -2   -1    0    0    0  501  0.00000000000E+00  0.00000000000E+00 -0.50533360788E+03  0.50533360789E+03  0.25500000920E-02 0.  1.
    10030    2    1    2    0    0  0.00000000000E+00  0.00000000000E+00 -0.18490847769E+03  0.82575873809E+03  0.80478962991E+03 0.  0.
        2    1    3    3  502    0  0.20790736990E+02 -0.22224134722E+03  0.25107994851E+03  0.33595328799E+03  0.25500000920E-02 0. -1.
       -2    1    3    3    0  502 -0.20790736990E+02  0.22224134722E+03 -0.43598842620E+03  0.48980545010E+03  0.25500000920E-02 0.  1.
</event>
<event>
 5   0  0.1817089E-02  0.7990446E+03  0.7818609E-02  0.9561401E-01
        2   -1    0    0  501    0  0.00000000000E+00  0.00000000000E+00  0.10914745846E+04  0.10914745846E+04  0.25500000920E-02 0. -1.
       -2   -1    0    0    0  501  0.00000000000E+00  0.00000000000E+00 -0.14624073889E+03  0.14624073892E+03  0.25500000920E-02 0.  1.
    10030    2    1    2    0    0  0.00000000000E+00  0.00000000000E+00  0.94523384570E+03  0.12377153235E+04  0.79904455383E+03 0.  0.
        2    1    3    3  502    0 -0.29792888647E+03 -0.11832734183E+03  0.84196374409E+03  0.90092503994E+03  0.25500000920E-02 0. -1.
       -2    1    3    3    0  502  0.29792888647E+03  0.11832734183E+03  0.10327010161E+03  0.33679028358E+03  0.25500000920E-02 0.  1.
</event>
<event>
 5   0  0.1817089E-02  0.7868646E+03  0.7818609E-02  0.9579227E-01
        2   -1    0    0  501    0  0.00000000000E+00  0.00000000000E+00  0.12367196883E+04  0.12367196883E+04  0.25500000920E-02 0. -1.
       -2   -1    0    0    0  501  0.00000000000E+00  0.00000000000E+00 -0.12516090826E+03  0.12516090829E+03  0.25500000920E-02 0.  1.
    10030    2    1    2    0    0  0.00000000000E+00  0.00000000000E+00  0.11115587800E+04  0.13618805966E+04  0.78686456133E+03 0.  0.
        2    1    3    3  502    0 -0.17866111909E+03 -0.32231688119E+03  0.79423003436E+03  0.87556228497E+03  0.25500000920E-02 0.  1.
       -2    1    3    3    0  502  0.17866111909E+03  0.32231688119E+03  0.31732874567E+03  0.48631831161E+03  0.25500000920E-02 0. -1.
</event>
<event>
 5   0  0.1818665E-02  0.8624429E+03  0.7818609E-02  0.9473787E-01
        2   -1    0    0  501    0  0.00000000000E+00  0.00000000000E+00  0.64477001818E+03  0.64477001819E+03  0.25500000920E-02 0.  1.
       -2   -1    0    0    0  501  0.00000000000E+00  0.00000000000E+00 -0.28840042111E+03  0.28840042112E+03  0.25500000920E-02 0. -1.
    10030    2    1    2    0    0  0.00000000000E+00  0.00000000000E+00  0.35636959707E+03  0.93317043931E+03  0.86244291352E+03 0.  0.
        3    1    3    3  502    0  0.88060204550E+02  0.33648603688E+03  0.45398973019E+03  0.57191270135E+03  0.10100000352E+00 0.  1.
       -3    1    3    3    0  502 -0.88060204550E+02 -0.33648603688E+03 -0.97620133119E+02  0.36125773796E+03  0.10100000352E+00 0. -1.
</event>
<event>
 5   0  0.1731337E-02  0.7994111E+03  0.7818609E-02  0.9560870E-01
        2   -1    0    0  501    0  0.00000000000E+00  0.00000000000E+00  0.13600331356E+04  0.13600331356E+04  0.25500000920E-02 0. -1.
       -2   -1    0    0    0  501  0.00000000000E+00  0.00000000000E+00 -0.11747104030E+03  0.11747104033E+03  0.25500000920E-02 0.  1.
    10030    2    1    2    0    0  0.00000000000E+00  0.00000000000E+00  0.12425620953E+04  0.14775041759E+04  0.79941105148E+03 0.  0.
        4    1    3    3  502    0  0.31205363976E+03 -0.12465921751E+03  0.10213109973E+04  0.10751721540E+04  0.12699999809E+01 0. -1.
       -4    1    3    3    0  502 -0.31205363976E+03  0.12465921751E+03  0.22125109791E+03  0.40233202187E+03  0.12699999809E+01 0.  1.
</event>
<event>
 5   0  0.1747544E-02  0.8010504E+03  0.7818609E-02  0.9558498E-01
       -2   -1    0    0    0  501  0.00000000000E+00  0.00000000000E+00  0.40693815774E+03  0.40693815775E+03  0.25500000920E-02 0.  1.
        2   -1    0    0  501    0  0.00000000000E+00  0.00000000000E+00 -0.39421331715E+03  0.39421331715E+03  0.25500000920E-02 0. -1.
    10030    2    1    2    0    0  0.00000000000E+00  0.00000000000E+00  0.12724840594E+02  0.80115147490E+03  0.80105041300E+03 0.  0.
        1    1    3    3  502    0 -0.28327027959E+03  0.28123263168E+03 -0.26605303183E+02  0.40005210486E+03  0.50400001928E-02 0. -1.
       -1    1    3    3    0  502  0.28327027959E+03 -0.28123263168E+03  0.39330143777E+02  0.40109937005E+03  0.50400001928E-02 0.  1.
</event>
<event>
 5   0  0.1025900E-02  0.7961733E+03  0.7818609E-02  0.9565573E-01
       -1   -1    0    0    0  501  0.00000000000E+00  0.00000000000E+00  0.30755399966E+03  0.30755399970E+03  0.50400001928E-02 0. -1.
        1   -1    0    0  501    0  0.00000000000E+00  0.00000000000E+00 -0.51526874917E+03  0.51526874920E+03  0.50400001928E-02 0.  1.
    10030    2    1    2    0    0  0.00000000000E+00  0.00000000000E+00 -0.20771474951E+03  0.82282274889E+03  0.79617325937E+03 0.  0.
        1    1    3    3  502    0  0.11924291619E+03  0.11413019487E+03 -0.47823734373E+03  0.50592047933E+03  0.50400001928E-02 0.  1.
       -1    1    3    3    0  502 -0.11924291619E+03 -0.11413019487E+03  0.27052259422E+03  0.31690226956E+03  0.50400001928E-02 0. -1.
</event>
<event>
 5   0  0.1030323E-02  0.7987022E+03  0.7818609E-02  0.9561898E-01
       -1   -1    0    0    0  501  0.00000000000E+00  0.00000000000E+00  0.14556001430E+03  0.14556001439E+03  0.50400001928E-02 0.  1.
        1   -1    0    0  501    0  0.00000000000E+00  0.00000000000E+00 -0.10956393878E+04  0.10956393878E+04  0.50400001928E-02 0. -1.
    10030    2    1    2    0    0  0.00000000000E+00  0.00000000000E+00 -0.95007937348E+03  0.12411994022E+04  0.79870215979E+03 0.  0.
        3    1    3    3  502    0  0.34388973375E+03  0.14144063440E+03 -0.70139208644E+03  0.79386174562E+03  0.10100000352E+00 0. -1.
       -3    1    3    3    0  502 -0.34388973375E+03 -0.14144063440E+03 -0.24868728704E+03  0.44733765655E+03  0.10100000352E+00 0.  1.
</event>
<event>
 5   0  0.1025900E-02  0.7888282E+03  0.7818609E-02  0.9576330E-01
        1   -1    0    0  501    0  0.00000000000E+00  0.00000000000E+00  0.91024933544E+03  0.91024933546E+03  0.50400001928E-02 0. -1.
       -1   -1    0    0    0  501  0.00000000000E+00  0.00000000000E+00 -0.17090097713E+03  0.17090097721E+03  0.50400001928E-02 0.  1.
    10030    2    1    2    0    0  0.00000000000E+00  0.00000000000E+00  0.73934835831E+03  0.10811503127E+04  0.78882824724E+03 0.  0.
        1    1    3    3  502    0 -0.24991703048E+03 -0.26224690990E+02  0.78633031526E+03  0.82550688747E+03  0.50400001928E-02 0. -1.
       -1    1    3    3    0  502  0.24991703048E+03  0.26224690990E+02 -0.46981956944E+02  0.25564342520E+03  0.50400001928E-02 0.  1.
</event>
<event>
 5   0  0.1731337E-02  0.7997127E+03  0.7818609E-02  0.9560433E-01
       -2   -1    0    0    0  501  0.00000000000E+00  0.00000000000E+00  0.19605654017E+03  0.19605654018E+03  0.25500000920E-02 0. -1.
        2   -1    0    0  501    0  0.00000000000E+00  0.00000000000E+00 -0.81550511799E+03  0.81550511799E+03  0.25500000920E-02 0.  1.
    10030    2    1    2    0    0  0.00000000000E+00  0.00000000000E+00 -0.61944857782E+03  0.10115616582E+04  0.79971272825E+03 0.  0.
        4    1    3    3  502    0  0.12482187952E+03 -0.47958022568E+02 -0.78638257832E+03  0.79767138968E+03  0.12699999809E+01 0.  1.
       -4    1    3    3    0  502 -0.12482187952E+03  0.47958022568E+02  0.16693400049E+03  0.21389026849E+03  0.12699999809E+01 0. -1.
</event>
<event>
 5   0  0.1817089E-02  0.8025293E+03  0.7818609E-02  0.9556363E-01
       -2   -1    0    0    0  501  0.00000000000E+00  0.00000000000E+00  0.10945511364E+03  0.10945511367E+03  0.25500000920E-02 0. -1.
        2   -1    0    0  501    0  0.00000000000E+00  0.00000000000E+00 -0.14710441330E+04  0.14710441330E+04  0.25500000920E-02 0.  1.
    10030    2    1    2    0    0  0.00000000000E+00  0.00000000000E+00 -0.13615890194E+04  0.15804992467E+04  0.80252925869E+03 0.  0.
        2    1    3    3  502    0  0.21235644500E+02 -0.30928015196E+03 -0.17904957952E+03  0.35799988398E+03  0.25500000920E-02 0. -1.
       -2    1    3    3    0  502 -0.21235644500E+02  0.30928015196E+03 -0.11825394398E+04  0.12224993627E+04  0.25500000920E-02 0.  1.
</event>
<event>
 5   0  0.1817089E-02  0.8098132E+03  0.7818609E-02  0.9545921E-01
       -2   -1    0    0    0  501  0.00000000000E+00  0.00000000000E+00  0.21381725276E+03  0.21381725277E+03  0.25500000920E-02 0. -1.
        2   -1    0    0  501    0  0.00000000000E+00  0.00000000000E+00 -0.76677322336E+03  0.76677322336E+03  0.25500000920E-02 0.  1.
    10030    2    1    2    0    0  0.00000000000E+00  0.00000000000E+00 -0.55295597060E+03  0.98059047613E+03  0.80981317380E+03 0.  0.
        2    1    3    3  502    0 -0.10988360613E+03  0.29665122764E+03 -0.58250618284E+03  0.66286485109E+03  0.25500000920E-02 0.  1.
       -2    1    3    3    0  502  0.10988360613E+03 -0.29665122764E+03  0.29550212246E+02  0.31772562504E+03  0.25500000920E-02 0. -1.
</event>
<event>
 5   0  0.1747544E-02  0.7924330E+03  0.7818609E-02  0.9571035E-01
       -2   -1    0    0    0  501  0.00000000000E+00  0.00000000000E+00  0.41444960018E+03  0.41444960019E+03  0.25500000920E-02 0.  1.
        2   -1    0    0  501    0  0.00000000000E+00  0.00000000000E+00 -0.37878558458E+03  0.37878558459E+03  0.25500000920E-02 0. -1.
    10030    2    1    2    0    0  0.00000000000E+00  0.00000000000E+00  0.35664015604E+02  0.79323518478E+03  0.79243304850E+03 0.  0.
        1    1    3    3  502    0  0.69517165516E+02  0.35149071118E+03  0.18714569896E+03  0.40422997046E+03  0.50400001928E-02 0.  1.
       -1    1    3    3    0  502 -0.69517165516E+02 -0.35149071118E+03 -0.15148168336E+03  0.38900521432E+03  0.50400001928E-02 0. -1.
</event>
<event>
 5   0  0.1673727E-02  0.7953602E+03  0.7818609E-02  0.9566757E-01
       -2   -1    0    0    0  501  0.00000000000E+00  0.00000000000E+00  0.42957731675E+03  0.42957731675E+03  0.25500000920E-02 0.  1.
        2   -1    0    0  501    0  0.00000000000E+00  0.00000000000E+00 -0.36815129089E+03  0.36815129090E+03  0.25500000920E-02 0. -1.
    10030    2    1    2    0    0  0.00000000000E+00  0.00000000000E+00  0.61426025854E+02  0.79772860766E+03  0.79536015416E+03 0.  0.
        5    1    3    3  502    0 -0.77704513997E+02  0.38781657921E+03  0.71916522982E+02  0.40203702178E+03  0.46999998093E+01 0. -1.
       -5    1    3    3    0  502  0.77704513997E+02 -0.38781657921E+03 -0.10490497128E+02  0.39569158588E+03  0.46999998093E+01 0.  1.
</event>
<event>
 5   0  0.1038912E-02  0.7196760E+03  0.7818609E-02  0.9684163E-01
       -1   -1    0    0    0  501  0.00000000000E+00  0.00000000000E+00  0.30235450088E+03  0.30235450092E+03  0.50400001928E-02 0. -1.
        1   -1    0    0  501    0  0.00000000000E+00  0.00000000000E+00 -0.42825029238E+03  0.42825029241E+03  0.50400001928E-02 0.  1.
    10030    2    1    2    0    0  0.00000000000E+00  0.00000000000E+00 -0.12589579150E+03  0.73060479333E+03  0.71967604776E+03 0.  0.
        2    1    3    3  502    0 -0.10110332702E+03 -0.61122590083E+02  0.28210405754E+03  0.30584400115E+03  0.25500000920E-02 0. -1.
       -2    1    3    3    0  502  0.10110332702E+03  0.61122590083E+02 -0.40799984904E+03  0.42476079218E+03  0.25500000920E-02 0.  1.
</event>
<event>
 5   0  0.1030323E-02  0.8115806E+03  0.7818609E-02  0.9543404E-01
       -1   -1    0    0    0  501  0.00000000000E+00  0.00000000000E+00  0.26316768417E+03  0.26316768421E+03  0.50400001928E-02 0.  1.
        1   -1    0    0  501    0  0.00000000000E+00  0.00000000000E+00 -0.62570658668E+03  0.62570658670E+03  0.50400001928E-02 0. -1.
    10030    2    1    2    0    0  0.00000000000E+00  0.00000000000E+00 -0.36253890251E+03  0.88887427092E+03  0.81158056511E+03 0.  0.
        3    1    3    3  502    0 -0.23840852246E+02 -0.17317965440E+03 -0.58235135480E+03  0.60802359294E+03  0.10100000352E+00 0. -1.
       -3    1    3    3    0  502  0.23840852246E+02  0.17317965440E+03  0.21981245229E+03  0.28085067797E+03  0.10100000352E+00 0.  1.
</event>
<event>
 5   0  0.1025900E-02  0.8057664E+03  0.7818609E-02  0.9551708E-01
       -1   -1    0    0    0  501  0.00000000000E+00  0.00000000000E+00  0.20928376981E+03  0.20928376987E+03  0.50400001928E-02 0.  1.
        1   -1    0    0  501    0  0.00000000000E+00  0.00000000000E+00 -0.77557324644E+03  0.77557324646E+03  0.50400001928E-02 0. -1.
    10030    2    1    2    0    0  0.00000000000E+00  0.00000000000E+00 -0.56628947663E+03  0.98485701633E+03  0.80576644958E+03 0.  0.
        1    1    3    3  502    0  0.40082323887E+03  0.37891203875E+02 -0.30126888213E+03  0.50284982999E+03  0.50400001928E-02 0.  1.
       -1    1    3    3    0  502 -0.40082323887E+03 -0.37891203875E+02 -0.26502059450E+03  0.48200718634E+03  0.50400001928E-02 0. -1.
</event>
<event>
 5   0  0.1038912E-02  0.8001003E+03  0.7818609E-02  0.9559872E-01
        1   -1    0    0  501    0  0.00000000000E+00  0.00000000000E+00  0.29795935621E+03  0.29795935625E+03  0.50400001928E-02 0.  1.
       -1   -1    0    0    0  501  0.00000000000E+00  0.00000000000E+00 -0.53712063800E+03  0.53712063802E+03  0.50400001928E-02 0. -1.
    10030    2    1    2    0    0  0.00000000000E+00  0.00000000000E+00 -0.23916128179E+03  0.83507999427E+03  0.80010029254E+03 0.  0.
        2    1    3    3  502    0  0.21301895069E+03  0.30516313320E+03  0.33595619078E+02  0.37367134871E+03  0.25500000920E-02 0. -1.
       -2    1    3    3    0  502 -0.21301895069E+03 -0.30516313320E+03 -0.27275690087E+03  0.46140864556E+03  0.25500000920E-02 0.  1.
</event>
<event>
 5   0  0.1818665E-02  0.7986769E+03  0.7818609E-02  0.9561934E-01
        2   -1    0    0  501    0  0.00000000000E+00  0.00000000000E+00  0.16652583683E+04  0.16652583683E+04  0.25500000920E-02 0.  1.
       -2   -1    0    0    0  501  0.00000000000E+00  0.00000000000E+00 -0.95763646851E+02  0.95763646885E+02  0.25500000920E-02 0. -1.
    10030    2    1    2    0    0  0.00000000000E+00  0.00000000000E+00  0.15694947214E+04  0.17610220151E+04  0.79867694176E+03 0.  0.
        3    1    3    3  502    0  0.29064368441E+03 -0.27380344304E+03  0.77284742430E+03  0.86990529839E+03  0.10100000352E+00 0. -1.
       -3    1    3    3    0  502 -0.29064368441E+03  0.27380344304E+03  0.79664729711E+03  0.89111671676E+03  0.10100000352E+00 0.  1.
</event>
<event>
 5   0  0.1038912E-02  0.7971243E+03  0.7818609E-02  0.9564189E-01
        1   -1    0    0  501    0  0.00000000000E+00  0.00000000000E+00  0.29393021926E+03  0.29393021930E+03  0.50400001928E-02 0. -1.
       -1   -1    0    0    0  501  0.00000000000E+00  0.00000000000E+00 -0.54044050827E+03  0.54044050829E+03  0.50400001928E-02 0.  1.
    10030    2    1    2    0    0  0.00000000000E+00  0.00000000000E+00 -0.24651028901E+03  0.83437072759E+03  0.79712432435E+03 0.  0.
        2    1    3    3  502    0 -0.14325034077E+03  0.32117375543E+02  0.26459829845E+03  0.30259617561E+03  0.25500000920E-02 0. -1.
       -2    1    3    3    0  502  0.14325034077E+03 -0.32117375543E+02 -0.51110858747E+03  0.53177455198E+03  0.25500000920E-02 0.  1.
</event>
<event>
 5   0  0.1673727E-02  0.7975507E+03  0.7818609E-02  0.9563569E-01
       -2   -1    0    0    0  501  0.00000000000E+00  0.00000000000E+00  0.70669194987E+03  0.70669194988E+03  0.25500000920E-02 0.  1.
        2   -1    0    0  501    0  0.00000000000E+00  0.00000000000E+00 -0.22502277853E+03  0.22502277855E+03  0.25500000920E-02 0. -1.
    10030    2    1    2    0    0  0.00000000000E+00  0.00000000000E+00  0.48166917134E+03  0.93171472843E+03  0.79755071597E+03 0.  0.
        5    1    3    3  502    0  0.27437615284E+03 -0.28329865880E+03  0.17212484427E+03  0.43033644435E+03  0.46999998093E+01 0. -1.
       -5    1    3    3    0  502 -0.27437615284E+03  0.28329865880E+03  0.30954432707E+03  0.50137828407E+03  0.46999998093E+01 0.  1.
</event>
<event>
 5   0  0.1747544E-02  0.7933753E+03  0.7818609E-02  0.9569656E-01
        2   -1    0    0  501    0  0.00000000000E+00  0.00000000000E+00  0.43276576881E+03  0.43276576882E+03  0.25500000920E-02 0.  1.
       -2   -1    0    0    0  501  0.00000000000E+00  0.00000000000E+00 -0.36361719884E+03  0.36361719885E+03  0.25500000920E-02 0. -1.
    10030    2    1    2    0    0  0.00000000000E+00  0.00000000000E+00  0.69148569968E+02  0.79638296767E+03  0.79337526207E+03 0.  0.
        1    1    3    3  502    0 -0.20293026469E+03 -0.34055276162E+03  0.48918343425E+02  0.39943695388E+03  0.50400001928E-02 0. -1.
       -1    1    3    3    0  502  0.20293026469E+03  0.34055276162E+03  0.20230226543E+02  0.39694601379E+03  0.50400001928E-02 0.  1.
</event>
<event>
 5   0  0.1049780E-02  0.8062366E+03  0.7818609E-02  0.9551034E-01
       -1   -1    0    0    0  501  0.00000000000E+00  0.00000000000E+00  0.32727598996E+03  0.32727599000E+03  0.50400001928E-02 0. -1.
        1   -1    0    0  501    0  0.00000000000E+00  0.00000000000E+00 -0.49653613594E+03  0.49653613597E+03  0.50400001928E-02 0.  1.
    10030    2    1    2    0    0  0.00000000000E+00  0.00000000000E+00 -0.16926014599E+03  0.82381212596E+03  0.80623657934E+03 0.  0.
        5    1    3    3  502    0 -0.20995154911E+03 -0.10642652088E+03 -0.41898811075E+03  0.48060314633E+03  0.46999998093E+01 0.  1.
       -5    1    3    3    0  502  0.20995154911E+03  0.10642652088E+03  0.24972796476E+03  0.34320897963E+03  0.46999998093E+01 0. -1.
</event>
<event>
 5   0  0.1030323E-02  0.7927143E+03  0.7818609E-02  0.9570623E-01
       -1   -1    0    0    0  501  0.00000000000E+00  0.00000000000E+00  0.28437807503E+03  0.28437807508E+03  0.50400001928E-02 0.  1.
        1   -1    0    0  501    0  0.00000000000E+00  0.00000000000E+00 -0.55243008209E+03  0.55243008211E+03  0.50400001928E-02 0. -1.
    10030    2    1    2    0    0  0.00000000000E+00  0.00000000000E+00 -0.26805200706E+03  0.83680815719E+03  0.79271433281E+03 0.  0.
        3    1    3    3  502    0 -0.23854744965E+01  0.16334277391E+03  0.24718787759E+03  0.29629108881E+03  0.10100000352E+00 0.  1.
       -3    1    3    3    0  502  0.23854744965E+01 -0.16334277391E+03 -0.51523988465E+03  0.54051706838E+03  0.10100000352E+00 0. -1.
</event>
<event>
 5   0  0.1146083E-02  0.8232205E+03  0.7818609E-02  0.9527002E-01
       -1   -1    0    0    0  501  0.00000000000E+00  0.00000000000E+00  0.18924705980E+03  0.18924705986E+03  0.50400001928E-02 0. -1.
        1   -1    0    0  501    0  0.00000000000E+00  0.00000000000E+00 -0.89524764693E+03  0.89524764695E+03  0.50400001928E-02 0.  1.
    10030    2    1    2    0    0  0.00000000000E+00  0.00000000000E+00 -0.70600058714E+03  0.10844947068E+04  0.82322046869E+03 0.  0.
        4    1    3    3  502    0 -0.87282825820E+02  0.14624399195E+03  0.14064980429E+03  0.22088362821E+03  0.12699999809E+01 0. -1.
       -4    1    3    3    0  502  0.87282825820E+02 -0.14624399195E+03 -0.84665039143E+03  0.86361107860E+03  0.12699999809E+01 0.  1.
</event>
<event>
 5   0  0.1049780E-02  0.8040133E+03  0.7818609E-02  0.9554226E-01
        1   -1    0    0  501    0  0.00000000000E+00  0.00000000000E+00  0.15568229774E+03  0.15568229782E+03  0.50400001928E-02 0.  1.
       -1   -1    0    0    0  501  0.00000000000E+00  0.00000000000E+00 -0.10380715133E+04  0.10380715133E+04  0.50400001928E-02 0. -1.
    10030    2    1    2    0    0  0.00000000000E+00  0.00000000000E+00 -0.88238921556E+03  0.11937538111E+04  0.80401332940E+03 0.  0.
        5    1    3    3  502    0  0.26566221813E+03 -0.17643770458E+03 -0.80451900386E+03  0.86543607234E+03  0.46999998093E+01 0. -1.
       -5    1    3    3    0  502 -0.26566221813E+03  0.17643770458E+03 -0.77870211703E+02  0.32831773879E+03  0.46999998093E+01 0.  1.
</event>
<event>
 5   0  0.1817089E-02  0.8045849E+03  0.7818609E-02  0.9553404E-01
        2   -1    0    0  501    0  0.00000000000E+00  0.00000000000E+00  0.12559132087E+04  0.12559132087E+04  0.25500000920E-02 0.  1.
       -2   -1    0    0    0  501  0.00000000000E+00  0.00000000000E+00 -0.12886179196E+03  0.12886179199E+03  0.25500000920E-02 0. -1.
    10030    2    1    2    0    0  0.00000000000E+00  0.00000000000E+00  0.11270514168E+04  0.13847750007E+04  0.80458492813E+03 0.  0.
        2    1    3    3  502    0 -0.25218079762E+03  0.16818259953E+03  0.10187528430E+04  0.10628912910E+04  0.25500000920E-02 0.  1.
       -2    1    3    3    0  502  0.25218079762E+03 -0.16818259953E+03  0.10829857380E+03  0.32188370969E+03  0.25500000920E-02 0. -1.
</event>
<event>
 5   0  0.1038912E-02  0.8266146E+03  0.7818609E-02  0.9522273E-01
        1   -1    0    0  501    0  0.00000000000E+00  0.00000000000E+00  0.54916646675E+03  0.54916646677E+03  0.50400001928E-02 0. -1.
       -1   -1    0    0    0  501  0.00000000000E+00  0.00000000000E+00 -0.31105856910E+03  0.31105856914E+03  0.50400001928E-02 0.  1.
    10030    2    1    2    0    0  0.00000000000E+00  0.00000000000E+00  0.23810789766E+03  0.86022503591E+03  0.82661462695E+03 0.  0.
        2    1    3    3  502    0  0.19342373649E+03 -0.22225359574E+03  0.42069025629E+03  0.51360460901E+03  0.25500000920E-02 0. -1.
       -2    1    3    3    0  502 -0.19342373649E+03  0.22225359574E+03 -0.18258235863E+03  0.34662042690E+03  0.25500000920E-02 0.  1.
</event>
<event>
 5   0  0.1673727E-02  0.7978194E+03  0.7818609E-02  0.9563179E-01
        2   -1    0    0  501    0  0.00000000000E+00  0.00000000000E+00  0.45303926636E+03  0.45303926637E+03  0.25500000920E-02 0. -1.
       -2   -1    0    0    0  501  0.00000000000E+00  0.00000000000E+00 -0.35124760000E+03  0.35124760001E+03  0.25500000920E-02 0.  1.
    10030    2    1    2    0    0  0.00000000000E+00  0.00000000000E+00  0.10179166636E+03  0.80428686638E+03  0.79781941572E+03 0.  0.
        5    1    3    3  502    0  0.37374702172E+03  0.13140246702E+03  0.41146941626E+01  0.39622274706E+03  0.46999998093E+01 0.  1.
       -5    1    3    3    0  502 -0.37374702172E+03 -0.13140246702E+03  0.97676972198E+02  0.40806411932E+03  0.46999998093E+01 0. -1.
</event>
<event>
 5   0  0.1025900E-02  0.8011631E+03  0.7818609E-02  0.9558335E-01
       -1   -1    0    0    0  501  0.00000000000E+00  0.00000000000E+00  0.10232778413E+03  0.10232778425E+03  0.50400001928E-02 0.  1.
        1   -1    0    0  501    0  0.00000000000E+00  0.00000000000E+00 -0.15681525211E+04  0.15681525211E+04  0.50400001928E-02 0. -1.
    10030    2    1    2    0    0  0.00000000000E+00  0.00000000000E+00 -0.14658247370E+04  0.16704803053E+04  0.80116308644E+03 0.  0.
        1    1    3    3  502    0 -0.64905013273E+02  0.39516080311E+03 -0.75385166083E+03  0.85361410932E+03  0.50400001928E-02 0.  1.
       -1    1    3    3    0  502  0.64905013273E+02 -0.39516080311E+03 -0.71197307612E+03  0.81686619602E+03  0.50400001928E-02 0. -1.
</event>
<event>
 5   0  0.1818665E-02  0.8013505E+03  0.7818609E-02  0.9558064E-01
       -2   -1    0    0    0  501  0.00000000000E+00  0.00000000000E+00  0.25370113642E+03  0.25370113644E+03  0.25500000920E-02 0.  1.
        2   -1    0    0  501    0  0.00000000000E+00  0.00000000000E+00 -0.63279441528E+03  0.63279441529E+03  0.25500000920E-02 0. -1.
    10030    2    1    2    0    0  0.00000000000E+00  0.00000000000E+00 -0.37909327886E+03  0.88649555172E+03  0.80135051579E+03 0.  0.
        3    1    3    3  502    0  0.11368320123E+02 -0.29066622744E+03 -0.49436784402E+03  0.57359887541E+03  0.10100000352E+00 0.  1.
       -3    1    3    3    0  502 -0.11368320123E+02  0.29066622744E+03  0.11527456516E+03  0.31289667631E+03  0.10100000352E+00 0. -1.
</event>
<event>
 5   0  0.1673727E-02  0.7992460E+03  0.7818609E-02  0.9561109E-01
        2   -1    0    0  501    0  0.00000000000E+00  0.00000000000E+00  0.12589795403E+04  0.12589795403E+04  0.25500000920E-02 0.  1.
       -2   -1    0    0    0  501  0.00000000000E+00  0.00000000000E+00 -0.12684761908E+03  0.12684761911E+03  0.25500000920E-02 0. -1.
    10030    2    1    2    0    0  0.00000000000E+00  0.00000000000E+00  0.11321319212E+04  0.13858271594E+04  0.79924603768E+03 0.  0.
        5    1    3    3  502    0  0.18364822409E+03  0.32699739590E+03  0.80521154887E+03  0.88828018979E+03  0.46999998093E+01 0.  1.
       -5    1    3    3    0  502 -0.18364822409E+03 -0.32699739590E+03  0.32692037237E+03  0.49754696965E+03  0.46999998093E+01 0. -1.
</event>
<event>
 5   0  0.1673727E-02  0.8093991E+03  0.7818609E-02  0.9546511E-01
        2   -1    0    0  501    0  0.00000000000E+00  0.00000000000E+00  0.13526747584E+04  0.13526747584E+04  0.25500000920E-02 0. -1.
       -2   -1    0    0    0  501  0.00000000000E+00  0.00000000000E+00 -0.12107990186E+03  0.12107990189E+03  0.25500000920E-02 0.  1.
    10030    2    1    2    0    0  0.00000000000E+00  0.00000000000E+00  0.12315948566E+04  0.14737546603E+04  0.80939910308E+03 0.  0.
        5    1    3    3  502    0 -0.24496515512E+03  0.43961877986E+02  0.34796239710E+02  0.25134327569E+03  0.46999998093E+01 0.  1.
       -5    1    3    3    0  502  0.24496515512E+03 -0.43961877986E+02  0.11967986168E+04  0.12224113846E+04  0.46999998093E+01 0. -1.
</event>
<event>
 5   0  0.1818665E-02  0.7798194E+03  0.7818609E-02  0.9589696E-01
        2   -1    0    0  501    0  0.00000000000E+00  0.00000000000E+00  0.42482261939E+03  0.42482261940E+03  0.25500000920E-02 0. -1.
       -2   -1    0    0    0  501  0.00000000000E+00  0.00000000000E+00 -0.35786603598E+03  0.35786603599E+03  0.25500000920E-02 0.  1.
    10030    2    1    2    0    0  0.00000000000E+00  0.00000000000E+00  0.66956583413E+02  0.78268865539E+03  0.77981943244E+03 0.  0.
        3    1    3    3  502    0  0.37149961497E+03  0.50762723784E+02  0.14083332130E+03  0.40052821703E+03  0.10100000352E+00 0.  1.
       -3    1    3    3    0  502 -0.37149961497E+03 -0.50762723784E+02 -0.73876737885E+02  0.38216043836E+03  0.10100000352E+00 0. -1.
</event>
<event>
 5   0  0.1025900E-02  0.7984883E+03  0.7818609E-02  0.9562208E-01
       -1   -1    0    0    0  501  0.00000000000E+00  0.00000000000E+00  0.84412855290E+03  0.84412855292E+03  0.50400001928E-02 0.  1.
        1   -1    0    0  501    0  0.00000000000E+00  0.00000000000E+00 -0.18882895129E+03  0.18882895136E+03  0.50400001928E-02 0. -1.
    10030    2    1    2    0    0  0.00000000000E+00  0.00000000000E+00  0.65529960161E+03  0.10329575043E+04  0.79848834541E+03 0.  0.
        1    1    3    3  502    0 -0.16835279315E+03  0.31941907007E+03  0.10725681220E+03  0.37666328341E+03  0.50400001928E-02 0.  1.
       -1    1    3    3    0  502  0.16835279315E+03 -0.31941907007E+03  0.54804278941E+03  0.65629422086E+03  0.50400001928E-02 0. -1.
</event>
<event>
 5   0  0.1038912E-02  0.7997949E+03  0.7818609E-02  0.9560314E-01
       -1   -1    0    0    0  501  0.00000000000E+00  0.00000000000E+00  0.33320932288E+03  0.33320932291E+03  0.50400001928E-02 0. -1.
        1   -1    0    0  501    0  0.00000000000E+00  0.00000000000E+00 -0.47993248890E+03  0.47993248893E+03  0.50400001928E-02 0.  1.
    10030    2    1    2    0    0  0.00000000000E+00  0.00000000000E+00 -0.14672316603E+03  0.81314181184E+03  0.79979492291E+03 0.  0.
        2    1    3    3  502    0  0.16431486855E+03 -0.13429874908E+03 -0.41796096476E+03  0.46875035797E+03  0.25500000920E-02 0.  1.
       -2    1    3    3    0  502 -0.16431486855E+03  0.13429874908E+03  0.27123779873E+03  0.34439145387E+03  0.25500000920E-02 0. -1.
</event>
<event>
 5   0  0.1049780E-02  0.7632064E+03  0.7818609E-02  0.9614856E-01
       -1   -1    0    0    0  501  0.00000000000E+00  0.00000000000E+00  0.70950267300E+03  0.70950267302E+03  0.50400001928E-02 0. -1.
        1   -1    0    0  501    0  0.00000000000E+00  0.00000000000E+00 -0.20524378976E+03  0.20524378983E+03  0.50400001928E-02 0.  1.
    10030    2    1    2    0    0  0.00000000000E+00  0.00000000000E+00  0.50425888324E+03  0.91474646285E+03  0.76320643994E+03 0.  0.
        5    1    3    3  502    0 -0.32522051683E+03  0.15844485103E+03  0.10668479189E+03  0.37719608986E+03  0.46999998093E+01 0.  1.
       -5    1    3    3    0  502  0.32522051683E+03 -0.15844485103E+03  0.39757409135E+03  0.53755037299E+03  0.46999998093E+01 0. -1.
</event>
<event>
 5   0  0.1817089E-02  0.7955603E+03  0.7818609E-02  0.9566466E-01
        2   -1    0    0  501    0  0.00000000000E+00  0.00000000000E+00  0.70083890688E+03  0.70083890689E+03  0.25500000920E-02 0.  1.
       -2   -1    0    0    0  501  0.00000000000E+00  0.00000000000E+00 -0.22577093766E+03  0.22577093767E+03  0.25500000920E-02 0. -1.
    10030    2    1    2    0    0  0.00000000000E+00  0.00000000000E+00  0.47506796923E+03  0.92660984456E+03  0.79556032371E+03 0.  0.
        2    1    3    3  502    0  0.15676489967E+03  0.23959137368E+03 -0.84086083957E+02  0.29841201322E+03  0.25500000920E-02 0. -1.
       -2    1    3    3    0  502 -0.15676489967E+03 -0.23959137368E+03  0.55915405318E+03  0.62819783135E+03  0.25500000920E-02 0.  1.
</event>
<event>
 5   0  0.1030323E-02  0.8047203E+03  0.7818609E-02  0.9553210E-01
       -1   -1    0    0    0  501  0.00000000000E+00  0.00000000000E+00  0.62038545966E+03  0.62038545968E+03  0.50400001928E-02 0. -1.
        1   -1    0    0  501    0  0.00000000000E+00  0.00000000000E+00 -0.26095660906E+03  0.26095660911E+03  0.50400001928E-02 0.  1.
    10030    2    1    2    0    0  0.00000000000E+00  0.00000000000E+00  0.35942885060E+03  0.88134206880E+03  0.80472028904E+03 0.  0.
        3    1    3    3  502    0 -0.35057406971E+03  0.14974953582E+03  0.38747930775E+02  0.38318209010E+03  0.10100000352E+00 0.  1.
       -3    1    3    3    0  502  0.35057406971E+03 -0.14974953582E+03  0.32068091982E+03  0.49815997870E+03  0.10100000352E+00 0. -1.
</event>
<event>
 5   0  0.1146083E-02  0.7873843E+03  0.7818609E-02  0.9578459E-01
        1   -1    0    0  501    0  0.00000000000E+00  0.00000000000E+00  0.23396626312E+04  0.23396626312E+04  0.50400001928E-02 0. -1.
       -1   -1    0    0    0  501  0.00000000000E+00  0.00000000000E+00 -0.66246094322E+02  0.66246094513E+02  0.50400001928E-02 0.  1.
    10030    2    1    2    0    0  0.00000000000E+00  0.00000000000E+00  0.22734165368E+04  0.24059087257E+04  0.78738430663E+03 0.  0.
        4    1    3    3  502    0 -0.11924446048E+03 -0.33898477355E+03  0.64532169733E+03  0.73862820418E+03  0.12699999809E+01 0.  1.
       -4    1    3    3    0  502  0.11924446048E+03  0.33898477355E+03  0.16280948395E+04  0.16672805215E+04  0.12699999809E+01 0. -1.
</event>
<event>
 5   0  0.1731337E-02  0.8031277E+03  0.7818609E-02  0.9555501E-01
       -2   -1    0    0    0  501  0.00000000000E+00  0.00000000000E+00  0.62354406019E+03  0.62354406019E+03  0.25500000920E-02 0.  1.
        2   -1    0    0  501    0  0.00000000000E+00  0.00000000000E+00 -0.25860806573E+03  0.25860806574E+03  0.25500000920E-02 0. -1.
    10030    2    1    2    0    0  0.00000000000E+00  0.00000000000E+00  0.36493599446E+03  0.88215212593E+03  0.80312769423E+03 0.  0.
        4    1    3    3  502    0  0.34919383252E+02  0.74283573582E+02 -0.24929309179E+03  0.26246156127E+03  0.12699999809E+01 0. -1.
       -4    1    3    3    0  502 -0.34919383252E+02 -0.74283573582E+02  0.61422908625E+03  0.61969056466E+03  0.12699999809E+01 0.  1.
</event>
<event>
 5   0  0.6872500E-03  0.7966146E+03  0.7818609E-02  0.9564930E-01
        3   -1    0    0  501    0  0.00000000000E+00  0.00000000000E+00  0.13846546223E+04  0.13846546260E+04  0.10100000352E+00 0. -1.
       -3   -1    0    0    0  501  0.00000000000E+00  0.00000000000E+00 -0.11457635835E+03  0.11457640286E+03  0.10100000352E+00 0.  1.
    10030    2    1    2    0    0  0.00000000000E+00  0.00000000000E+00  0.12700782640E+04  0.14992310288E+04  0.79661463789E+03 0.  0.
        3    1    3    3  502    0  0.98622741920E+02  0.22111232033E+03  0.39803526249E+02  0.24535980585E+03  0.10100000352E+00 0.  1.
       -3    1    3    3    0  502 -0.98622741920E+02 -0.22111232033E+03  0.12302747377E+04  0.12538712230E+04  0.10100000352E+00 0. -1.
</event>
<event>
 5   0  0.1146083E-02  0.8032984E+03  0.7818609E-02  0.9555255E-01
       -1   -1    0    0    0  501  0.00000000000E+00  0.00000000000E+00  0.33993114203E+03  0.33993114207E+03  0.50400001928E-02 0.  1.
        1   -1    0    0  501    0  0.00000000000E+00  0.00000000000E+00 -0.47457277616E+03  0.47457277619E+03  0.50400001928E-02 0. -1.
    10030    2    1    2    0    0  0.00000000000E+00  0.00000000000E+00 -0.13464163413E+03  0.81450391826E+03  0.80329836500E+03 0.  0.
        4    1    3    3  502    0 -0.81294093719E+02 -0.24068195034E+03 -0.38276164464E+03  0.45939592989E+03  0.12699999809E+01 0. -1.
       -4    1    3    3    0  502  0.81294093719E+02  0.24068195034E+03  0.24812001051E+03  0.35510798837E+03  0.12699999809E+01 0.  1.
</event>
<event>
 5   0  0.1146083E-02  0.7885685E+03  0.7818609E-02  0.9576713E-01
        1   -1    0    0  501    0  0.00000000000E+00  0.00000000000E+00  0.20880399183E+03  0.20880399189E+03  0.50400001928E-02 0. -1.
       -1   -1    0    0    0  501  0.00000000000E+00  0.00000000000E+00 -0.74452636932E+03  0.74452636934E+03  0.50400001928E-02 0.  1.
    10030    2    1    2    0    0  0.00000000000E+00  0.00000000000E+00 -0.53572237749E+03  0.95333036122E+03  0.78856852073E+03 0.  0.
        4    1    3    3  502    0  0.94149071793E+01  0.22386617749E+03  0.12435254430E+03  0.25626133940E+03  0.12699999809E+01 0. -1.
       -4    1    3    3    0  502 -0.94149071793E+01 -0.22386617749E+03 -0.66007492179E+03  0.69706902182E+03  0.12699999809E+01 0.  1.
</event>
<event>
 5   0  0.1025900E-02  0.7965448E+03  0.7818609E-02  0.9565032E-01
       -1   -1    0    0    0  501  0.00000000000E+00  0.00000000000E+00  0.17154800767E+03  0.17154800774E+03  0.50400001928E-02 0. -1.
        1   -1    0    0  501    0  0.00000000000E+00  0.00000000000E+00 -0.92464450326E+03  0.92464450328E+03  0.50400001928E-02 0.  1.
    10030    2    1    2    0    0  0.00000000000E+00  0.00000000000E+00 -0.75309649560E+03  0.10961925110E+04  0.79654484465E+03 0.  0.
        1    1    3    3  502    0 -0.29105587522E+03  0.26277098043E+03 -0.28062107739E+03  0.48219321828E+03  0.50400001928E-02 0. -1.
       -1    1    3    3    0  502  0.29105587522E+03 -0.26277098043E+03 -0.47247541821E+03  0.61399929274E+03  0.50400001928E-02 0.  1.
</event>
<event>
 5   0  0.1747544E-02  0.7949905E+03  0.7818609E-02  0.9567297E-01
        2   -1    0    0  501    0  0.00000000000E+00  0.00000000000E+00  0.16799575705E+04  0.16799575705E+04  0.25500000920E-02 0. -1.
       -2   -1    0    0    0  501  0.00000000000E+00  0.00000000000E+00 -0.94051459010E+02  0.94051459045E+02  0.25500000920E-02 0.  1.
    10030    2    1    2    0    0  0.00000000000E+00  0.00000000000E+00  0.15859061114E+04  0.17740090295E+04  0.79499046688E+03 0.  0.
        1    1    3    3  502    0 -0.54914703509E+02 -0.16739424520E+03  0.15880821198E+04  0.15978239194E+04  0.50400001928E-02 0. -1.
       -1    1    3    3    0  502  0.54914703509E+02  0.16739424520E+03 -0.21760084014E+01  0.17618511011E+03  0.50400001928E-02 0.  1.
</event>
<event>
 5   0  0.1030323E-02  0.6439099E+03  0.7818609E-02  0.9818274E-01
       -1   -1    0    0    0  501  0.00000000000E+00  0.00000000000E+00  0.15686439890E+03  0.15686439898E+03  0.50400001928E-02 0. -1.
        1   -1    0    0  501    0  0.00000000000E+00  0.00000000000E+00 -0.66079349776E+03  0.66079349777E+03  0.50400001928E-02 0.  1.
    10030    2    1    2    0    0  0.00000000000E+00  0.00000000000E+00 -0.50392909886E+03  0.81765789675E+03  0.64390985351E+03 0.  0.
        3    1    3    3  502    0  0.35690794189E+02 -0.16069448010E+03 -0.60331703798E+03  0.62537029609E+03  0.10100000352E+00 0.  1.
       -3    1    3    3    0  502 -0.35690794189E+02  0.16069448010E+03  0.99387939118E+02  0.19228760066E+03  0.10100000352E+00 0. -1.
</event>
<event>
 5   0  0.1817089E-02  0.8106045E+03  0.7818609E-02  0.9544793E-01
       -2   -1    0    0    0  501  0.00000000000E+00  0.00000000000E+00  0.75379198873E+02  0.75379198916E+02  0.25500000920E-02 0.  1.
        2   -1    0    0  501    0  0.00000000000E+00  0.00000000000E+00 -0.21792470871E+04  0.21792470871E+04  0.25500000920E-02 0. -1.
    10030    2    1    2    0    0  0.00000000000E+00  0.00000000000E+00 -0.21038678882E+04  0.22546262860E+04  0.81060446488E+03 0.  0.
        2    1    3    3  502    0  0.54011774938E+02 -0.21845231108E+03 -0.19895270401E+04  0.20022129076E+04  0.25500000920E-02 0. -1.
       -2    1    3    3    0  502 -0.54011774938E+02  0.21845231108E+03 -0.11434084813E+03  0.25241337842E+03  0.25500000920E-02 0.  1.
</event>
<event>
 5   0  0.1818665E-02  0.7972831E+03  0.7818609E-02  0.9563958E-01
        2   -1    0    0  501    0  0.00000000000E+00  0.00000000000E+00  0.94566293046E+03  0.94566293047E+03  0.25500000920E-02 0. -1.
       -2   -1    0    0    0  501  0.00000000000E+00  0.00000000000E+00 -0.16804623864E+03  0.16804623866E+03  0.25500000920E-02 0.  1.
    10030    2    1    2    0    0  0.00000000000E+00  0.00000000000E+00  0.77761669183E+03  0.11137091691E+04  0.79728313288E+03 0.  0.
        3    1    3    3  502    0  0.67505610760E+02  0.16741460703E+03 -0.10768474155E+03  0.21019198817E+03  0.10100000352E+00 0.  1.
       -3    1    3    3    0  502 -0.67505610760E+02 -0.16741460703E+03  0.88530143338E+03  0.90351718095E+03  0.10100000352E+00 0. -1.
</event>
<event>
 5   0  0.6872500E-03  0.8203602E+03  0.7818609E-02  0.9531005E-01
       -3   -1    0    0    0  501  0.00000000000E+00  0.00000000000E+00  0.71591223039E+03  0.71591223751E+03  0.10100000352E+00 0.  1.
        3   -1    0    0  501    0  0.00000000000E+00  0.00000000000E+00 -0.23501161962E+03  0.23501164132E+03  0.10100000352E+00 0. -1.
    10030    2    1    2    0    0  0.00000000000E+00  0.00000000000E+00  0.48090061077E+03  0.95092387883E+03  0.82036018059E+03 0.  0.
        4    1    3    3  502    0 -0.23321783963E+03  0.32050548191E+03  0.36274940856E+03  0.53731096301E+03  0.12699999809E+01 0.  1.
       -4    1    3    3    0  502  0.23321783963E+03 -0.32050548191E+03  0.11815120221E+03  0.41361291583E+03  0.12699999809E+01 0. -1.
</event>
<event>
 5   0  0.1049780E-02  0.8097887E+03  0.7818609E-02  0.9545955E-01
       -1   -1    0    0    0  501  0.00000000000E+00  0.00000000000E+00  0.22126830706E+03  0.22126830712E+03  0.50400001928E-02 0.  1.
        1   -1    0    0  501    0  0.00000000000E+00  0.00000000000E+00 -0.74090791691E+03  0.74090791692E+03  0.50400001928E-02 0. -1.
    10030    2    1    2    0    0  0.00000000000E+00  0.00000000000E+00 -0.51963960985E+03  0.96217622404E+03  0.80978871441E+03 0.  0.
        5    1    3    3  502    0  0.37721425716E+03 -0.14703693546E+03 -0.25669999501E+03  0.47940320569E+03  0.46999998093E+01 0. -1.
       -5    1    3    3    0  502 -0.37721425716E+03  0.14703693546E+03 -0.26293961484E+03  0.48277301835E+03  0.46999998093E+01 0.  1.
</event>
<event>
 5   0  0.1731337E-02  0.7961338E+03  0.7818609E-02  0.9565630E-01
        2   -1    0    0  501    0  0.00000000000E+00  0.00000000000E+00  0.14427971124E+04  0.14427971125E+04  0.25500000920E-02 0.  1.
       -2   -1    0    0    0  501  0.00000000000E+00  0.00000000000E+00 -0.10982643492E+03  0.10982643494E+03  0.25500000920E-02 0. -1.
    10030    2    1    2    0    0  0.00000000000E+00  0.00000000000E+00  0.13329706775E+04  0.15526235474E+04  0.79613381587E+03 0.  0.
        4    1    3    3  502    0  0.17881828168E+03 -0.22212437617E+03  0.12081383180E+04  0.12413359838E+04  0.12699999809E+01 0.  1.
       -4    1    3    3    0  502 -0.17881828168E+03  0.22212437617E+03  0.12483235950E+03  0.31128756356E+03  0.12699999809E+01 0. -1.
</event>
<event>
 5   0  0.1731337E-02  0.7924043E+03  0.7818609E-02  0.9571077E-01
        2   -1    0    0  501    0  0.00000000000E+00  0.00000000000E+00  0.95879935872E+03  0.95879935873E+03  0.25500000920E-02 0. -1.
       -2   -1    0    0    0  501  0.00000000000E+00  0.00000000000E+00 -0.16372159277E+03  0.16372159279E+03  0.25500000920E-02 0.  1.
    10030    2    1    2    0    0  0.00000000000E+00  0.00000000000E+00  0.79507776595E+03  0.11225209515E+04  0.79240433661E+03 0.  0.
        4    1    3    3  502    0  0.29819357500E+03  0.25522368492E+03  0.32104231524E+03  0.50707821743E+03  0.12699999809E+01 0.  1.
       -4    1    3    3    0  502 -0.29819357500E+03 -0.25522368492E+03  0.47403545071E+03  0.61544273409E+03  0.12699999809E+01 0. -1.
</event>
<event>
 5   0  0.1817089E-02  0.8178415E+03  0.7818609E-02  0.9534545E-01
        2   -1    0    0  501    0  0.00000000000E+00  0.00000000000E+00  0.15296802113E+04  0.15296802113E+04  0.25500000920E-02 0.  1.
       -2   -1    0    0    0  501  0.00000000000E+00  0.00000000000E+00 -0.10931446476E+03  0.10931446479E+03  0.25500000920E-02 0. -1.
    10030    2    1    2    0    0  0.00000000000E+00  0.00000000000E+00  0.14203657465E+04  0.16389946761E+04  0.81784148484E+03 0.  0.
        2    1    3    3  502    0 -0.25678440499E+03  0.26022076438E+03  0.10773293955E+04  0.11376694174E+04  0.25500000920E-02 0.  1.
       -2    1    3    3    0  502  0.25678440499E+03 -0.26022076438E+03  0.34303635101E+03  0.50132525867E+03  0.25500000920E-02 0. -1.
</event>
<event>
 5   0  0.1049780E-02  0.8315749E+03  0.7818609E-02  0.9515406E-01
        1   -1    0    0  501    0  0.00000000000E+00  0.00000000000E+00  0.48556142482E+03  0.48556142484E+03  0.50400001928E-02 0. -1.
       -1   -1    0    0    0  501  0.00000000000E+00  0.00000000000E+00 -0.35603984866E+03  0.35603984869E+03  0.50400001928E-02 0.  1.
    10030    2    1    2    0    0  0.00000000000E+00  0.00000000000E+00  0.12952157616E+03  0.84160127354E+03  0.83157493044E+03 0.  0.
        5    1    3    3  502    0 -0.59449692983E+02 -0.19461831318E+03  0.43168775322E+03  0.47727032182E+03  0.46999998093E+01 0. -1.
       -5    1    3    3    0  502  0.59449692983E+02  0.19461831318E+03 -0.30216617706E+03  0.36433095171E+03  0.46999998093E+01 0.  1.
</event>
<event>
 5   0  0.1818665E-02  0.7443764E+03  0.7818609E-02  0.9644214E-01
        2   -1    0    0  501    0  0.00000000000E+00  0.00000000000E+00  0.10664708264E+04  0.10664708264E+04  0.25500000920E-02 0. -1.
       -2   -1    0    0    0  501  0.00000000000E+00  0.00000000000E+00 -0.12989015857E+03  0.12989015859E+03  0.25500000920E-02 0.  1.
    10030    2    1    2    0    0  0.00000000000E+00  0.00000000000E+00  0.93658066779E+03  0.11963609850E+04  0.74437642295E+03 0.  0.
        3    1    3    3  502    0 -0.25638334841E+03 -0.24778120402E+03  0.29671774138E+03  0.46386353021E+03  0.10100000352E+00 0.  1.
       -3    1    3    3    0  502  0.25638334841E+03  0.24778120402E+03  0.63986292641E+03  0.73249745474E+03  0.10100000352E+00 0. -1.
</event>
<event>
 5   0  0.6872500E-03  0.7898779E+03  0.7818609E-02  0.9574785E-01
       -3   -1    0    0    0  501  0.00000000000E+00  0.00000000000E+00  0.24484761268E+03  0.24484763351E+03  0.10100000352E+00 0. -1.
        3   -1    0    0  501    0  0.00000000000E+00  0.00000000000E+00 -0.63703608319E+03  0.63703609120E+03  0.10100000352E+00 0.  1.
    10030    2    1    2    0    0  0.00000000000E+00  0.00000000000E+00 -0.39218847051E+03  0.88188372471E+03  0.78987790671E+03 0.  0.
        2    1    3    3  502    0 -0.22798236418E+03 -0.25887781268E+03 -0.41080459375E+03  0.53642715678E+03  0.25500000920E-02 0.  1.
       -2    1    3    3    0  502  0.22798236418E+03  0.25887781268E+03  0.18616123236E+02  0.34545656793E+03  0.25500000920E-02 0. -1.
</event>
<event>
 5   0  0.1030323E-02  0.8162382E+03  0.7818609E-02  0.9536806E-01
       -1   -1    0    0    0  501  0.00000000000E+00  0.00000000000E+00  0.39923883742E+03  0.39923883745E+03  0.50400001928E-02 0. -1.
        1   -1    0    0  501    0  0.00000000000E+00  0.00000000000E+00 -0.41719693301E+03  0.41719693304E+03  0.50400001928E-02 0.  1.
    10030    2    1    2    0    0  0.00000000000E+00  0.00000000000E+00 -0.17958095595E+02  0.81643577049E+03  0.81623824594E+03 0.  0.
        3    1    3    3  502    0 -0.46444871066E+02  0.35159010796E+03  0.19303140187E+03  0.40377451922E+03  0.10100000352E+00 0. -1.
       -3    1    3    3    0  502  0.46444871066E+02 -0.35159010796E+03 -0.21098949746E+03  0.41266125127E+03  0.10100000352E+00 0.  1.
</event>
<event>
 5   0  0.6872500E-03  0.8021487E+03  0.7818609E-02  0.9556912E-01
        3   -1    0    0  501    0  0.00000000000E+00  0.00000000000E+00  0.46561169825E+03  0.46561170920E+03  0.10100000352E+00 0.  1.
       -3   -1    0    0    0  501  0.00000000000E+00  0.00000000000E+00 -0.34548232676E+03  0.34548234153E+03  0.10100000352E+00 0. -1.
    10030    2    1    2    0    0  0.00000000000E+00  0.00000000000E+00  0.12012937148E+03  0.81109405073E+03  0.80214867277E+03 0.  0.
        2    1    3    3  502    0 -0.31257905239E+03  0.11991283634E+03  0.28338018341E+03  0.43862179685E+03  0.25500000920E-02 0.  1.
       -2    1    3    3    0  502  0.31257905239E+03 -0.11991283634E+03 -0.16325081192E+03  0.37247225388E+03  0.25500000920E-02 0. -1.
</event>
<event>
 5   0  0.1731337E-02  0.7988920E+03  0.7818609E-02  0.9561622E-01
       -2   -1    0    0    0  501  0.00000000000E+00  0.00000000000E+00  0.28841722770E+03  0.28841722771E+03  0.25500000920E-02 0.  1.
        2   -1    0    0  501    0  0.00000000000E+00  0.00000000000E+00 -0.55321631336E+03  0.55321631337E+03  0.25500000920E-02 0. -1.
    10030    2    1    2    0    0  0.00000000000E+00  0.00000000000E+00 -0.26479908566E+03  0.84163354108E+03  0.79889202131E+03 0.  0.
        4    1    3    3  502    0  0.15843277133E+03 -0.30796925047E+03  0.77269654489E+02  0.35484956625E+03  0.12699999809E+01 0.  1.
       -4    1    3    3    0  502 -0.15843277133E+03  0.30796925047E+03 -0.34206874015E+03  0.48678397483E+03  0.12699999809E+01 0. -1.
</event>
<event>
 5   0  0.1146083E-02  0.7831642E+03  0.7818609E-02  0.9584711E-01
        1   -1    0    0  501    0  0.00000000000E+00  0.00000000000E+00  0.61096048346E+03  0.61096048348E+03  0.50400001928E-02 0.  1.
       -1   -1    0    0    0  501  0.00000000000E+00  0.00000000000E+00 -0.25097622768E+03  0.25097622773E+03  0.50400001928E-02 0. -1.
    10030    2    1    2    0    0  0.00000000000E+00  0.00000000000E+00  0.35998425579E+03  0.86193671121E+03  0.78316424186E+03 0.  0.
        4    1    3    3  502    0  0.17738778192E+03 -0.46700063165E+01 -0.20418316647E+03  0.27051915367E+03  0.12699999809E+01 0. -1.
       -4    1    3    3    0  502 -0.17738778192E+03  0.46700063165E+01  0.56416742226E+03  0.59141755754E+03  0.12699999809E+01 0.  1.
</event>
<event>
 5   0  0.1030323E-02  0.8186773E+03  0.7818609E-02  0.9533369E-01
       -1   -1    0    0    0  501  0.00000000000E+00  0.00000000000E+00  0.12105610585E+03  0.12105610596E+03  0.50400001928E-02 0.  1.
        1   -1    0    0  501    0  0.00000000000E+00  0.00000000000E+00 -0.13841360472E+04  0.13841360472E+04  0.50400001928E-02 0. -1.
    10030    2    1    2    0    0  0.00000000000E+00  0.00000000000E+00 -0.12630799413E+04  0.15051921531E+04  0.81867727445E+03 0.  0.
        3    1    3    3  502    0 -0.18129917424E+03  0.23766766223E+03 -0.11738934795E+03  0.32114728313E+03  0.10100000352E+00 0.  1.
       -3    1    3    3    0  502  0.18129917424E+03 -0.23766766223E+03 -0.11456905934E+04  0.11840448700E+04  0.10100000352E+00 0. -1.
</event>
<event>
 5   0  0.1817089E-02  0.8107833E+03  0.7818609E-02  0.9544539E-01
       -2   -1    0    0    0  501  0.00000000000E+00  0.00000000000E+00  0.82720310524E+03  0.82720310525E+03  0.25500000920E-02 0. -1.
        2   -1    0    0  501    0  0.00000000000E+00  0.00000000000E+00 -0.19867234408E+03  0.19867234410E+03  0.25500000920E-02 0.  1.
    10030    2    1    2    0    0  0.00000000000E+00  0.00000000000E+00  0.62853076116E+03  0.10258754493E+04  0.81078327550E+03 0.  0.
        2    1    3    3  502    0 -0.10401517800E+03  0.87014182991E+02  0.79765187832E+03  0.80909773469E+03  0.25500000920E-02 0. -1.
       -2    1    3    3    0  502  0.10401517800E+03 -0.87014182991E+02 -0.16912111715E+03  0.21677771465E+03  0.25500000920E-02 0.  1.
</event>
<event>
 5   0  0.1030323E-02  0.7875830E+03  0.7818609E-02  0.9578166E-01
       -1   -1    0    0    0  501  0.00000000000E+00  0.00000000000E+00  0.18544518913E+03  0.18544518920E+03  0.50400001928E-02 0.  1.
        1   -1    0    0  501    0  0.00000000000E+00  0.00000000000E+00 -0.83621327058E+03  0.83621327059E+03  0.50400001928E-02 0. -1.
    10030    2    1    2    0    0  0.00000000000E+00  0.00000000000E+00 -0.65076808145E+03  0.10216584598E+04  0.78758295603E+03 0.  0.
        3    1    3    3  502    0 -0.34266932913E+03 -0.19318998518E+03 -0.30192364152E+03  0.49588560678E+03  0.10100000352E+00 0.  1.
       -3    1    3    3    0  502  0.34266932913E+03  0.19318998518E+03 -0.34884443992E+03  0.52577285301E+03  0.10100000352E+00 0. -1.
</event>
<event>
 5   0  0.1731337E-02  0.7594241E+03  0.7818609E-02  0.9620680E-01
       -2   -1    0    0    0  501  0.00000000000E+00  0.00000000000E+00  0.21330959052E+03  0.21330959053E+03  0.25500000920E-02 0. -1.
        2   -1    0    0  501    0  0.00000000000E+00  0.00000000000E+00 -0.67592475074E+03  0.67592475074E+03  0.25500000920E-02 0.  1.
    10030    2    1    2    0    0  0.00000000000E+00  0.00000000000E+00 -0.46261516022E+03  0.88923434128E+03  0.75942407602E+03 0.  0.
        4    1    3    3  502    0  0.27589183916E+03 -0.25451372659E+03 -0.16418469754E+03  0.40969717078E+03  0.12699999809E+01 0. -1.
       -4    1    3    3    0  502 -0.27589183916E+03  0.25451372659E+03 -0.29843046268E+03  0.47953717050E+03  0.12699999809E+01 0.  1.
</event>
<event>
 5   0  0.1747544E-02  0.8051797E+03  0.7818609E-02  0.9552550E-01
        2   -1    0    0  501    0  0.00000000000E+00  0.00000000000E+00  0.19305322314E+04  0.19305322314E+04  0.25500000920E-02 0.  1.
       -2   -1    0    0    0  501  0.00000000000E+00  0.00000000000E+00 -0.83955391927E+02  0.83955391966E+02  0.25500000920E-02 0. -1.
    10030    2    1    2    0    0  0.00000000000E+00  0.00000000000E+00  0.18465768395E+04  0.20144876234E+04  0.80517970704E+03 0.  0.
        1    1    3    3  502    0  0.25910478068E+03 -0.14313011371E+03  0.24059649882E+03  0.38145536055E+03  0.50400001928E-02 0. -1.
       -1    1    3    3    0  502 -0.25910478068E+03  0.14313011371E+03  0.16059803407E+04  0.16330322628E+04  0.50400001928E-02 0.  1.
</event>
<event>
 5   0  0.1818665E-02  0.7953898E+03  0.7818609E-02  0.9566714E-01
       -2   -1    0    0    0  501  0.00000000000E+00  0.00000000000E+00  0.79828758863E+03  0.79828758863E+03  0.25500000920E-02 0.  1.
        2   -1    0    0  501    0  0.00000000000E+00  0.00000000000E+00 -0.19812560845E+03  0.19812560847E+03  0.25500000920E-02 0. -1.
    10030    2    1    2    0    0  0.00000000000E+00  0.00000000000E+00  0.60016198018E+03  0.99641319710E+03  0.79538975157E+03 0.  0.
        3    1    3    3  502    0 -0.18615350261E+03 -0.27249825453E+03  0.57810022827E+03  0.66566381108E+03  0.10100000352E+00 0.  1.
       -3    1    3    3    0  502  0.18615350261E+03  0.27249825453E+03  0.22061751909E+02  0.33074938602E+03  0.10100000352E+00 0. -1.
</event>
<event>
 5   0  0.1818665E-02  0.7952248E+03  0.7818609E-02  0.9566955E-01
       -2   -1    0    0    0  501  0.00000000000E+00  0.00000000000E+00  0.45151597468E+03  0.45151597468E+03  0.25500000920E-02 0. -1.
        2   -1    0    0  501    0  0.00000000000E+00  0.00000000000E+00 -0.35014405715E+03  0.35014405716E+03  0.25500000920E-02 0.  1.
    10030    2    1    2    0    0  0.00000000000E+00  0.00000000000E+00  0.10137191752E+03  0.80166003184E+03  0.79522483675E+03 0.  0.
        3    1    3    3  502    0  0.22741666261E+03 -0.27790887555E+03  0.22278341621E+03  0.42259217016E+03  0.10100000352E+00 0. -1.
       -3    1    3    3    0  502 -0.22741666261E+03  0.27790887555E+03 -0.12141149868E+03  0.37906786168E+03  0.10100000352E+00 0.  1.
</event>
<event>
 5   0  0.1673727E-02  0.8026602E+03  0.7818609E-02  0.9556175E-01
        2   -1    0    0  501    0  0.00000000000E+00  0.00000000000E+00  0.41045250253E+03  0.41045250253E+03  0.25500000920E-02 0. -1.
       -2   -1    0    0    0  501  0.00000000000E+00  0.00000000000E+00 -0.39241040533E+03  0.39241040534E+03  0.25500000920E-02 0.  1.
    10030    2    1    2    0    0  0.00000000000E+00  0.00000000000E+00  0.18042097192E+02  0.80286290787E+03  0.80266015945E+03 0.  0.
        5    1    3    3  502    0 -0.11199378090E+03 -0.29585592687E+03  0.25600528306E+03  0.40698173347E+03  0.46999998093E+01 0. -1.
       -5    1    3    3    0  502  0.11199378090E+03  0.29585592687E+03 -0.23796318586E+03  0.39588117441E+03  0.46999998093E+01 0.  1.
</event>
<event>
 5   0  0.1030323E-02  0.7960973E+03  0.7818609E-02  0.9565683E-01
       -1   -1    0    0    0  501  0.00000000000E+00  0.00000000000E+00  0.26919060590E+03  0.26919060595E+03  0.50400001928E-02 0.  1.
        1   -1    0    0  501    0  0.00000000000E+00  0.00000000000E+00 -0.58858941586E+03  0.58858941589E+03  0.50400001928E-02 0. -1.
    10030    2    1    2    0    0  0.00000000000E+00  0.00000000000E+00 -0.31939880996E+03  0.85778002183E+03  0.79609733453E+03 0.  0.
        3    1    3    3  502    0  0.31815555188E+02 -0.15078170416E+03 -0.55514442098E+03  0.57613599975E+03  0.10100000352E+00 0. -1.
       -3    1    3    3    0  502 -0.31815555188E+02  0.15078170416E+03  0.23574561101E+03  0.28164402208E+03  0.10100000352E+00 0.  1.
</event>
<event>
 5   0  0.1146083E-02  0.7996117E+03  0.7818609E-02  0.9560579E-01
        1   -1    0    0  501    0  0.00000000000E+00  0.00000000000E+00  0.33633795445E+03  0.33633795448E+03  0.50400001928E-02 0.  1.
       -1   -1    0    0    0  501  0.00000000000E+00  0.00000000000E+00 -0.47525035620E+03  0.47525035623E+03  0.50400001928E-02 0. -1.
    10030    2    1    2    0    0  0.00000000000E+00  0.00000000000E+00 -0.13891240176E+03  0.81158831071E+03  0.79961173749E+03 0.  0.
        4    1    3    3  502    0  0.66630824739E+02 -0.36439122479E+03 -0.22211674594E+03  0.43192371229E+03  0.12699999809E+01 0. -1.
       -4    1    3    3    0  502 -0.66630824739E+02  0.36439122479E+03  0.83204344188E+02  0.37966459843E+03  0.12699999809E+01 0.  1.
</event>
<event>
 5   0  0.1731337E-02  0.7928347E+03  0.7818609E-02  0.9570447E-01
        2   -1    0    0  501    0  0.00000000000E+00  0.00000000000E+00  0.12698823013E+04  0.12698823013E+04  0.25500000920E-02 0.  1.
       -2   -1    0    0    0  501  0.00000000000E+00  0.00000000000E+00 -0.12374904135E+03  0.12374904137E+03  0.25500000920E-02 0. -1.
    10030    2    1    2    0    0  0.00000000000E+00  0.00000000000E+00  0.11461332599E+04  0.13936313427E+04  0.79283470516E+03 0.  0.
        4    1    3    3  502    0 -0.32553934341E+03 -0.14932594860E+03  0.87173977640E+03  0.94244679091E+03  0.12699999809E+01 0.  1.
       -4    1    3    3    0  502  0.32553934341E+03  0.14932594860E+03  0.27439348354E+03  0.45118455175E+03  0.12699999809E+01 0. -1.
</event>
<event>
 5   0  0.1030323E-02  0.7983411E+03  0.7818609E-02  0.9562421E-01
        1   -1    0    0  501    0  0.00000000000E+00  0.00000000000E+00  0.30279786562E+03  0.30279786566E+03  0.50400001928E-02 0. -1.
       -1   -1    0    0    0  501  0.00000000000E+00  0.00000000000E+00 -0.52621612527E+03  0.52621612529E+03  0.50400001928E-02 0.  1.
    10030    2    1    2    0    0  0.00000000000E+00  0.00000000000E+00 -0.22341825965E+03  0.82901399096E+03  0.79834107903E+03 0.  0.
        3    1    3    3  502    0 -0.74551042069E+01  0.35390877566E+03 -0.30326923007E+03  0.46613220890E+03  0.10100000352E+00 0.  1.
       -3    1    3    3    0  502  0.74551042069E+01 -0.35390877566E+03  0.79850970419E+02  0.36288178205E+03  0.10100000352E+00 0. -1.
</event>
<event>
 5   0  0.1038912E-02  0.8036833E+03  0.7818609E-02  0.9554701E-01
       -1   -1    0    0    0  501  0.00000000000E+00  0.00000000000E+00  0.21916908347E+03  0.21916908353E+03  0.50400001928E-02 0. -1.
        1   -1    0    0  501    0  0.00000000000E+00  0.00000000000E+00 -0.73676776808E+03  0.73676776810E+03  0.50400001928E-02 0.  1.
    10030    2    1    2    0    0  0.00000000000E+00  0.00000000000E+00 -0.51759868461E+03  0.95593685162E+03  0.80368331200E+03 0.  0.
        2    1    3    3  502    0  0.34248419713E+03 -0.10602008682E+02 -0.50849460486E+03  0.61316766960E+03  0.25500000920E-02 0.  1.
       -2    1    3    3    0  502 -0.34248419713E+03  0.10602008682E+02 -0.91040797510E+01  0.34276918202E+03  0.25500000920E-02 0. -1.
</event>
<event>
 5   0  0.1030323E-02  0.8014198E+03  0.7818609E-02  0.9557964E-01
       -1   -1    0    0    0  501  0.00000000000E+00  0.00000000000E+00  0.31010811242E+03  0.31010811246E+03  0.50400001928E-02 0.  1.
        1   -1    0    0  501    0  0.00000000000E+00  0.00000000000E+00 -0.51778207263E+03  0.51778207266E+03  0.50400001928E-02 0. -1.
    10030    2    1    2    0    0  0.00000000000E+00  0.00000000000E+00 -0.20767396021E+03  0.82789018512E+03  0.80141979316E+03 0.  0.
        3    1    3    3  502    0 -0.23579345863E+03  0.32398508635E+03 -0.10577503427E+03  0.41443124808E+03  0.10100000352E+00 0. -1.
       -3    1    3    3    0  502  0.23579345863E+03 -0.32398508635E+03 -0.10189892594E+03  0.41345893704E+03  0.10100000352E+00 0.  1.
</event>
<event>
 5   0  0.1030323E-02  0.8023980E+03  0.7818609E-02  0.9556553E-01
       -1   -1    0    0    0  501  0.00000000000E+00  0.00000000000E+00  0.25858563673E+03  0.25858563678E+03  0.50400001928E-02 0. -1.
        1   -1    0    0  501    0  0.00000000000E+00  0.00000000000E+00 -0.62246556026E+03  0.62246556028E+03  0.50400001928E-02 0.  1.
    10030    2    1    2    0    0  0.00000000000E+00  0.00000000000E+00 -0.36387992352E+03  0.88105119706E+03  0.80239803907E+03 0.  0.
        3    1    3    3  502    0  0.46242267865E+02  0.70214369010E+02 -0.61268436656E+03  0.61842586312E+03  0.10100000352E+00 0.  1.
       -3    1    3    3    0  502 -0.46242267865E+02 -0.70214369010E+02  0.24880444303E+03  0.26262533394E+03  0.10100000352E+00 0. -1.
</event>
<event>
 5   0  0.1049780E-02  0.7913863E+03  0.7818609E-02  0.9572570E-01
        1   -1    0    0  501    0  0.00000000000E+00  0.00000000000E+00  0.88039158164E+03  0.88039158165E+03  0.50400001928E-02 0. -1.
       -1   -1    0    0    0  501  0.00000000000E+00  0.00000000000E+00 -0.17784478337E+03  0.17784478344E+03  0.50400001928E-02 0.  1.
    10030    2    1    2    0    0  0.00000000000E+00  0.00000000000E+00  0.70254679826E+03  0.10582363651E+04  0.79138625251E+03 0.  0.
        5    1    3    3  502    0  0.34046780009E+03  0.17543445375E+03  0.48402234491E+03  0.61724815984E+03  0.46999998093E+01 0. -1.
       -5    1    3    3    0  502 -0.34046780009E+03 -0.17543445375E+03  0.21852445335E+03  0.44098820525E+03  0.46999998093E+01 0.  1.
</event>
<event>
 5   0  0.1038912E-02  0.7970859E+03  0.7818609E-02  0.9564245E-01
        1   -1    0    0  501    0  0.00000000000E+00  0.00000000000E+00  0.19816817274E+03  0.19816817280E+03  0.50400001928E-02 0.  1.
       -1   -1    0    0    0  501  0.00000000000E+00  0.00000000000E+00 -0.80152361766E+03  0.80152361767E+03  0.50400001928E-02 0. -1.
    10030    2    1    2    0    0  0.00000000000E+00  0.00000000000E+00 -0.60335544492E+03  0.99969179047E+03  0.79708586929E+03 0.  0.
        2    1    3    3  502    0  0.28852997575E+03  0.11468486008E+03 -0.61505872271E+03  0.68898432234E+03  0.25500000920E-02 0. -1.
       -2    1    3    3    0  502 -0.28852997575E+03 -0.11468486008E+03  0.11703277790E+02  0.31070746813E+03  0.25500000920E-02 0.  1.
</event>
<event>
 5   0  0.6872500E-03  0.8000934E+03  0.7818609E-02  0.9559882E-01
        3   -1    0    0  501    0  0.00000000000E+00  0.00000000000E+00  0.71774109276E+03  0.71774109987E+03  0.10100000352E+00 0.  1.
       -3   -1    0    0    0  501  0.00000000000E+00  0.00000000000E+00 -0.22297361950E+03  0.22297364237E+03  0.10100000352E+00 0. -1.
    10030    2    1    2    0    0  0.00000000000E+00  0.00000000000E+00  0.49476747326E+03  0.94071474224E+03  0.80009335310E+03 0.  0.
        1    1    3    3  502    0 -0.32978865215E+03  0.14797937334E+02 -0.18289848447E+02  0.33062675726E+03  0.50400001928E-02 0.  1.
       -1    1    3    3    0  502  0.32978865215E+03 -0.14797937334E+02  0.51305732171E+03  0.61008798498E+03  0.50400001928E-02 0. -1.
</event>
<event>
 5   0  0.6872500E-03  0.7998291E+03  0.7818609E-02  0.9560264E-01
       -4   -1    0    0    0  501  0.00000000000E+00  0.00000000000E+00  0.18724157743E+03  0.18724588439E+03  0.12699999809E+01 0. -1.
        4   -1    0    0  501    0  0.00000000000E+00  0.00000000000E+00 -0.85413145163E+03  0.85413239581E+03  0.12699999809E+01 0.  1.
    10030    2    1    2    0    0  0.00000000000E+00  0.00000000000E+00 -0.66688987420E+03  0.10413782802E+04  0.79982911810E+03 0.  0.
        3    1    3    3  502    0 -0.11123959122E+03 -0.30974229663E+03 -0.37638148811E+02  0.33125696585E+03  0.10100000352E+00 0. -1.
       -3    1    3    3    0  502  0.11123959122E+03  0.30974229663E+03 -0.62925172539E+03  0.71012131434E+03  0.10100000352E+00 0.  1.
</event>
<event>
 5   0  0.1673727E-02  0.8346691E+03  0.7818609E-02  0.9511148E-01
        2   -1    0    0  501    0  0.00000000000E+00  0.00000000000E+00  0.14171531873E+04  0.14171531873E+04  0.25500000920E-02 0.  1.
       -2   -1    0    0    0  501  0.00000000000E+00  0.00000000000E+00 -0.12289998750E+03  0.12289998753E+03  0.25500000920E-02 0. -1.
    10030    2    1    2    0    0  0.00000000000E+00  0.00000000000E+00  0.12942531998E+04  0.15400531748E+04  0.83466905785E+03 0.  0.
        5    1    3    3  502    0  0.32754151657E+03  0.34814794312E+02  0.11198862851E+04  0.11673315282E+04  0.46999998093E+01 0.  1.
       -5    1    3    3    0  502 -0.32754151657E+03 -0.34814794312E+02  0.17436691465E+03  0.37272164668E+03  0.46999998093E+01 0. -1.
</event>
<event>
 5   0  0.1030323E-02  0.8170037E+03  0.7818609E-02  0.9535726E-01
        1   -1    0    0  501    0  0.00000000000E+00  0.00000000000E+00  0.31839204707E+03  0.31839204711E+03  0.50400001928E-02 0.  1.
       -1   -1    0    0    0  501  0.00000000000E+00  0.00000000000E+00 -0.52411415826E+03  0.52411415828E+03  0.50400001928E-02 0. -1.
    10030    2    1    2    0    0  0.00000000000E+00  0.00000000000E+00 -0.20572211119E+03  0.84250620539E+03  0.81700374485E+03 0.  0.
        3    1    3    3  502    0  0.10885863728E+03  0.38159850893E+03 -0.20287369473E+03  0.44567406380E+03  0.10100000352E+00 0.  1.
       -3    1    3    3    0  502 -0.10885863728E+03 -0.38159850893E+03 -0.28484164595E+01  0.39683214160E+03  0.10100000352E+00 0. -1.
</event>
<event>
 5   0  0.1673727E-02  0.7897537E+03  0.7818609E-02  0.9574968E-01
        2   -1    0    0  501    0  0.00000000000E+00  0.00000000000E+00  0.89446508525E+03  0.89446508525E+03  0.25500000920E-02 0.  1.
       -2   -1    0    0    0  501  0.00000000000E+00  0.00000000000E+00 -0.17432512936E+03  0.17432512938E+03  0.25500000920E-02 0. -1.
    10030    2    1    2    0    0  0.00000000000E+00  0.00000000000E+00  0.72013995589E+03  0.10687902146E+04  0.78975373809E+03 0.  0.
        5    1    3    3  502    0  0.36334032846E+03 -0.14412543899E+03  0.43562983742E+03  0.58530657069E+03  0.46999998093E+01 0. -1.
       -5    1    3    3    0  502 -0.36334032846E+03  0.14412543899E+03  0.28451011847E+03  0.48348364394E+03  0.46999998093E+01 0.  1.
</event>
<event>
 5   0  0.1030323E-02  0.8180701E+03  0.7818609E-02  0.9534223E-01
       -1   -1    0    0    0  501  0.00000000000E+00  0.00000000000E+00  0.47189909373E+03  0.47189909375E+03  0.50400001928E-02 0.  1.
        1   -1    0    0  501    0  0.00000000000E+00  0.00000000000E+00 -0.35454545809E+03  0.35454545813E+03  0.50400001928E-02 0. -1.
    10030    2    1    2    0    0  0.00000000000E+00  0.00000000000E+00  0.11735363563E+03  0.82644455188E+03  0.81807012018E+03 0.  0.
        3    1    3    3  502    0  0.55448276153E+02  0.12379284506E+03  0.44851631434E+03  0.46857878126E+03  0.10100000352E+00 0.  1.
       -3    1    3    3    0  502 -0.55448276153E+02 -0.12379284506E+03 -0.33116267870E+03  0.35786577062E+03  0.10100000352E+00 0. -1.
</event>
<event>
 5   0  0.1731337E-02  0.7917838E+03  0.7818609E-02  0.9571986E-01
        2   -1    0    0  501    0  0.00000000000E+00  0.00000000000E+00  0.88345288769E+03  0.88345288770E+03  0.25500000920E-02 0. -1.
       -2   -1    0    0    0  501  0.00000000000E+00  0.00000000000E+00 -0.17740664273E+03  0.17740664274E+03  0.25500000920E-02 0.  1.
    10030    2    1    2    0    0  0.00000000000E+00  0.00000000000E+00  0.70604624497E+03  0.10608595304E+04  0.79178383622E+03 0.  0.
        4    1    3    3  502    0 -0.37493029769E+03 -0.22226998104E+02  0.18534543288E+03  0.41883327227E+03  0.12699999809E+01 0. -1.
       -4    1    3    3    0  502  0.37493029769E+03  0.22226998104E+02  0.52070081209E+03  0.64202625817E+03  0.12699999809E+01 0.  1.
</event>
<event>
 5   0  0.1146083E-02  0.8065977E+03  0.7818609E-02  0.9550516E-01
       -1   -1    0    0    0  501  0.00000000000E+00  0.00000000000E+00  0.62538185819E+03  0.62538185821E+03  0.50400001928E-02 0.  1.
        1   -1    0    0  501    0  0.00000000000E+00  0.00000000000E+00 -0.26008100968E+03  0.26008100973E+03  0.50400001928E-02 0. -1.
    10030    2    1    2    0    0  0.00000000000E+00  0.00000000000E+00  0.36530084851E+03  0.88546286794E+03  0.80659765719E+03 0.  0.
        4    1    3    3  502    0 -0.34688533821E+02 -0.16483924513E+03  0.58491134417E+03  0.60868560403E+03  0.12699999809E+01 0.  1.
       -4    1    3    3    0  502  0.34688533821E+02  0.16483924513E+03 -0.21961049566E+03  0.27677726391E+03  0.12699999809E+01 0. -1.
</event>
<event>
 5   0  0.1731337E-02  0.7941645E+03  0.7818609E-02  0.9568502E-01
       -2   -1    0    0    0  501  0.00000000000E+00  0.00000000000E+00  0.81938990300E+02  0.81938990340E+02  0.25500000920E-02 0.  1.
        2   -1    0    0  501    0  0.00000000000E+00  0.00000000000E+00 -0.19242893132E+04  0.19242893132E+04  0.25500000920E-02 0. -1.
    10030    2    1    2    0    0  0.00000000000E+00  0.00000000000E+00 -0.18423503229E+04  0.20062283036E+04  0.79416452556E+03 0.  0.
        4    1    3    3  502    0 -0.17790142199E+03 -0.32237201630E+03 -0.12967242994E+04  0.13479867041E+04  0.12699999809E+01 0. -1.
       -4    1    3    3    0  502  0.17790142199E+03  0.32237201630E+03 -0.54562602353E+03  0.65824159948E+03  0.12699999809E+01 0.  1.
</event>
<event>
 5   0  0.1817089E-02  0.8453007E+03  0.7818609E-02  0.9496666E-01
       -2   -1    0    0    0  501  0.00000000000E+00  0.00000000000E+00  0.11229641447E+03  0.11229641450E+03  0.25500000920E-02 0.  1.
        2   -1    0    0  501    0  0.00000000000E+00  0.00000000000E+00 -0.15907302650E+04  0.15907302650E+04  0.25500000920E-02 0. -1.
    10030    2    1    2    0    0  0.00000000000E+00  0.00000000000E+00 -0.14784338506E+04  0.17030266795E+04  0.84530066883E+03 0.  0.
        2    1    3    3  502    0  0.26282857660E+03  0.63769997493E+02 -0.84864943216E+02  0.28345640203E+03  0.25500000920E-02 0.  1.
       -2    1    3    3    0  502 -0.26282857660E+03 -0.63769997493E+02 -0.13935689073E+04  0.14195702775E+04  0.25500000920E-02 0. -1.
</event>
<event>
 5   0  0.1025900E-02  0.8008401E+03  0.7818609E-02  0.9558802E-01
        1   -1    0    0  501    0  0.00000000000E+00  0.00000000000E+00  0.24720996225E+03  0.24720996230E+03  0.50400001928E-02 0.  1.
       -1   -1    0    0    0  501  0.00000000000E+00  0.00000000000E+00 -0.64858310168E+03  0.64858310170E+03  0.50400001928E-02 0. -1.
    10030    2    1    2    0    0  0.00000000000E+00  0.00000000000E+00 -0.40137313943E+03  0.89579306399E+03  0.80084006920E+03 0.  0.
        1    1    3    3  502    0  0.26968218984E+03 -0.49615850943E+02  0.12570880462E+03  0.30165032698E+03  0.50400001928E-02 0.  1.
       -1    1    3    3    0  502 -0.26968218984E+03  0.49615850943E+02 -0.52708194405E+03  0.59414273702E+03  0.50400001928E-02 0. -1.
</event>
<event>
 5   0  0.6872500E-03  0.8144766E+03  0.7818609E-02  0.9539296E-01
        3   -1    0    0  501    0  0.00000000000E+00  0.00000000000E+00  0.69234267942E+03  0.69234268679E+03  0.10100000352E+00 0.  1.
       -3   -1    0    0    0  501  0.00000000000E+00  0.00000000000E+00 -0.23953890368E+03  0.23953892497E+03  0.10100000352E+00 0. -1.
    10030    2    1    2    0    0  0.00000000000E+00  0.00000000000E+00  0.45280377574E+03  0.93188161175E+03  0.81447656749E+03 0.  0.
        2    1    3    3  502    0 -0.18645705089E+03 -0.18125237917E+03 -0.13218281473E+03  0.29170353666E+03  0.25500000920E-02 0. -1.
       -2    1    3    3    0  502  0.18645705089E+03  0.18125237917E+03  0.58498659048E+03  0.64017807509E+03  0.25500000920E-02 0.  1.
</event>
<event>
 5   0  0.1025900E-02  0.7918640E+03  0.7818609E-02  0.9571869E-01
       -1   -1    0    0    0  501  0.00000000000E+00  0.00000000000E+00  0.22931050932E+03  0.22931050938E+03  0.50400001928E-02 0. -1.
        1   -1    0    0  501    0  0.00000000000E+00  0.00000000000E+00 -0.68362399462E+03  0.68362399464E+03  0.50400001928E-02 0.  1.
    10030    2    1    2    0    0  0.00000000000E+00  0.00000000000E+00 -0.45431348530E+03  0.91293450401E+03  0.79186404496E+03 0.  0.
        1    1    3    3  502    0 -0.22775501927E+03  0.12694073929E+03 -0.57066442705E+03  0.62741070155E+03  0.50400001928E-02 0.  1.
       -1    1    3    3    0  502  0.22775501927E+03 -0.12694073929E+03  0.11635094176E+03  0.28552380246E+03  0.50400001928E-02 0. -1.
</event>
<event>
 5   0  0.1673727E-02  0.7894492E+03  0.7818609E-02  0.9575416E-01
        2   -1    0    0  501    0  0.00000000000E+00  0.00000000000E+00  0.10637628776E+04  0.10637628776E+04  0.25500000920E-02 0. -1.
       -2   -1    0    0    0  501  0.00000000000E+00  0.00000000000E+00 -0.14646828233E+03  0.14646828235E+03  0.25500000920E-02 0.  1.
    10030    2    1    2    0    0  0.00000000000E+00  0.00000000000E+00  0.91729459527E+03  0.12102311600E+04  0.78944922953E+03 0.  0.
        5    1    3    3  502    0  0.75843452869E+02 -0.37157746685E+03  0.29097117425E+03  0.47802547783E+03  0.46999998093E+01 0.  1.
       -5    1    3    3    0  502 -0.75843452869E+02  0.37157746685E+03  0.62632342102E+03  0.73220568212E+03  0.46999998093E+01 0. -1.
</event>
<event>
 5   0  0.1818665E-02  0.8027991E+03  0.7818609E-02  0.9555974E-01
        2   -1    0    0  501    0  0.00000000000E+00  0.00000000000E+00  0.16163418756E+04  0.16163418756E+04  0.25500000920E-02 0. -1.
       -2   -1    0    0    0  501  0.00000000000E+00  0.00000000000E+00 -0.99682865596E+02  0.99682865629E+02  0.25500000920E-02 0.  1.
    10030    2    1    2    0    0  0.00000000000E+00  0.00000000000E+00  0.15166590100E+04  0.17160247412E+04  0.80279907816E+03 0.  0.
        3    1    3    3  502    0  0.25850804373E+03  0.24405405668E+03  0.35995961477E+03  0.50592462455E+03  0.10100000352E+00 0.  1.
       -3    1    3    3    0  502 -0.25850804373E+03 -0.24405405668E+03  0.11566993953E+04  0.12101001167E+04  0.10100000352E+00 0. -1.
</event>
<event>
 5   0  0.1673727E-02  0.7940433E+03  0.7818609E-02  0.9568679E-01
        2   -1    0    0  501    0  0.00000000000E+00  0.00000000000E+00  0.10649182798E+04  0.10649182798E+04  0.25500000920E-02 0. -1.
       -2   -1    0    0    0  501  0.00000000000E+00  0.00000000000E+00 -0.14801718097E+03  0.14801718100E+03  0.25500000920E-02 0.  1.
    10030    2    1    2    0    0  0.00000000000E+00  0.00000000000E+00  0.91690109878E+03  0.12129354608E+04  0.79404332817E+03 0.  0.
        5    1    3    3  502    0 -0.24335014975E+03 -0.25882403409E+03  0.18779103933E+03  0.40186657046E+03  0.46999998093E+01 0.  1.
       -5    1    3    3    0  502  0.24335014975E+03  0.25882403409E+03  0.72911005945E+03  0.81106889029E+03  0.46999998093E+01 0. -1.
</event>
<event>
 5   0  0.1038912E-02  0.7969321E+03  0.7818609E-02  0.9564468E-01
        1   -1    0    0  501    0  0.00000000000E+00  0.00000000000E+00  0.26674141749E+03  0.26674141754E+03  0.50400001928E-02 0.  1.
       -1   -1    0    0    0  501  0.00000000000E+00  0.00000000000E+00 -0.59524006598E+03  0.59524006600E+03  0.50400001928E-02 0. -1.
    10030    2    1    2    0    0  0.00000000000E+00  0.00000000000E+00 -0.32849864849E+03  0.86198148354E+03  0.79693206480E+03 0.  0.
        2    1    3    3  502    0 -0.32518179767E+01  0.35957835946E+03 -0.34992372270E+03  0.50175071761E+03  0.25500000920E-02 0. -1.
       -2    1    3    3    0  502  0.32518179767E+01 -0.35957835946E+03  0.21425074211E+02  0.36023076593E+03  0.25500000920E-02 0.  1.
</event>
<event>
 5   0  0.1731337E-02  0.7941105E+03  0.7818609E-02  0.9568581E-01
        2   -1    0    0  501    0  0.00000000000E+00  0.00000000000E+00  0.22765579250E+04  0.22765579250E+04  0.25500000920E-02 0.  1.
       -2   -1    0    0    0  501  0.00000000000E+00  0.00000000000E+00 -0.69250536318E+02  0.69250536365E+02  0.25500000920E-02 0. -1.
    10030    2    1    2    0    0  0.00000000000E+00  0.00000000000E+00  0.22073073887E+04  0.23458084613E+04  0.79411046416E+03 0.  0.
        4    1    3    3  502    0  0.23182958698E+03  0.13691559046E+02  0.20550039308E+04  0.20680849075E+04  0.12699999809E+01 0.  1.
       -4    1    3    3    0  502 -0.23182958698E+03 -0.13691559046E+02  0.15230345791E+03  0.27772355388E+03  0.12699999809E+01 0. -1.
</event>
<event>
 5   0  0.1025900E-02  0.7934885E+03  0.7818609E-02  0.9569490E-01
       -1   -1    0    0    0  501  0.00000000000E+00  0.00000000000E+00  0.49651990041E+03  0.49651990043E+03  0.50400001928E-02 0.  1.
        1   -1    0    0  501    0  0.00000000000E+00  0.00000000000E+00 -0.31701849577E+03  0.31701849581E+03  0.50400001928E-02 0. -1.
    10030    2    1    2    0    0  0.00000000000E+00  0.00000000000E+00  0.17950140464E+03  0.81353839624E+03  0.79348848000E+03 0.  0.
        1    1    3    3  502    0 -0.23389117740E+03 -0.58627393230E+02  0.41277317809E+03  0.47804178759E+03  0.50400001928E-02 0.  1.
       -1    1    3    3    0  502  0.23389117740E+03  0.58627393230E+02 -0.23327177345E+03  0.33549660865E+03  0.50400001928E-02 0. -1.
</event>
<event>
 5   0  0.1818665E-02  0.7991970E+03  0.7818609E-02  0.9561180E-01
        2   -1    0    0  501    0  0.00000000000E+00  0.00000000000E+00  0.98610390835E+03  0.98610390835E+03  0.25500000920E-02 0. -1.
       -2   -1    0    0    0  501  0.00000000000E+00  0.00000000000E+00 -0.16192914351E+03  0.16192914353E+03  0.25500000920E-02 0.  1.
    10030    2    1    2    0    0  0.00000000000E+00  0.00000000000E+00  0.82417476484E+03  0.11480330519E+04  0.79919700025E+03 0.  0.
        3    1    3    3  502    0  0.31115839363E+02 -0.36785115566E+02 -0.15774145399E+03  0.16493549253E+03  0.10100000352E+00 0.  1.
       -3    1    3    3    0  502 -0.31115839363E+02  0.36785115566E+02  0.98191621884E+03  0.98309755935E+03  0.10100000352E+00 0. -1.
</event>
<event>
 5   0  0.1025900E-02  0.7824805E+03  0.7818609E-02  0.9585728E-01
       -1   -1    0    0    0  501  0.00000000000E+00  0.00000000000E+00  0.41904149505E+03  0.41904149508E+03  0.50400001928E-02 0.  1.
        1   -1    0    0  501    0  0.00000000000E+00  0.00000000000E+00 -0.36528344012E+03  0.36528344015E+03  0.50400001928E-02 0. -1.
    10030    2    1    2    0    0  0.00000000000E+00  0.00000000000E+00  0.53758054927E+02  0.78432493523E+03  0.78248046337E+03 0.  0.
        1    1    3    3  502    0 -0.25682542469E+03  0.25458805601E+02  0.32161546168E+03  0.41236386210E+03  0.50400001928E-02 0.  1.
       -1    1    3    3    0  502  0.25682542469E+03 -0.25458805601E+02 -0.26785740675E+03  0.37196107313E+03  0.50400001928E-02 0. -1.
</event>
<event>
 5   0  0.1673727E-02  0.8017859E+03  0.7818609E-02  0.9557436E-01
        2   -1    0    0  501    0  0.00000000000E+00  0.00000000000E+00  0.25786581359E+03  0.25786581360E+03  0.25500000920E-02 0.  1.
       -2   -1    0    0    0  501  0.00000000000E+00  0.00000000000E+00 -0.62325110692E+03  0.62325110693E+03  0.25500000920E-02 0. -1.
    10030    2    1    2    0    0  0.00000000000E+00  0.00000000000E+00 -0.36538529333E+03  0.88111692053E+03  0.80178589104E+03 0.  0.
        5    1    3    3  502    0 -0.26955086876E+03 -0.16028530857E+03 -0.45708531795E+03  0.55434477437E+03  0.46999998093E+01 0. -1.
       -5    1    3    3    0  502  0.26955086876E+03  0.16028530857E+03  0.91700024612E+02  0.32677214616E+03  0.46999998093E+01 0.  1.
</event>
<event>
 5   0  0.6872500E-03  0.7988791E+03  0.7818609E-02  0.9561641E-01
       -3   -1    0    0    0  501  0.00000000000E+00  0.00000000000E+00  0.16252906151E+03  0.16252909290E+03  0.10100000352E+00 0. -1.
        3   -1    0    0  501    0  0.00000000000E+00  0.00000000000E+00 -0.98168247964E+03  0.98168248484E+03  0.10100000352E+00 0.  1.
    10030    2    1    2    0    0  0.00000000000E+00  0.00000000000E+00 -0.81915341813E+03  0.11442115777E+04  0.79887909735E+03 0.  0.
        4    1    3    3  502    0 -0.17096003122E+03 -0.29645863321E+03 -0.70462211045E+03  0.78333197618E+03  0.12699999809E+01 0.  1.
       -4    1    3    3    0  502  0.17096003122E+03  0.29645863321E+03 -0.11453130768E+03  0.36087960155E+03  0.12699999809E+01 0. -1.
</event>
<event>
 5   0  0.1146083E-02  0.8095944E+03  0.7818609E-02  0.9546233E-01
       -1   -1    0    0    0  501  0.00000000000E+00  0.00000000000E+00  0.52881596815E+03  0.52881596817E+03  0.50400001928E-02 0. -1.
        1   -1    0    0  501    0  0.00000000000E+00  0.00000000000E+00 -0.30986347484E+03  0.30986347488E+03  0.50400001928E-02 0.  1.
    10030    2    1    2    0    0  0.00000000000E+00  0.00000000000E+00  0.21895249331E+03  0.83867944305E+03  0.80959435143E+03 0.  0.
        4    1    3    3  502    0  0.18559489516E+03 -0.71186377550E+02  0.47477210152E+03  0.51470683572E+03  0.12699999809E+01 0. -1.
       -4    1    3    3    0  502 -0.18559489516E+03  0.71186377550E+02 -0.25581960821E+03  0.32397260733E+03  0.12699999809E+01 0.  1.
</event>
<event>
 5   0  0.1817089E-02  0.7953028E+03  0.7818609E-02  0.9566841E-01
        2   -1    0    0  501    0  0.00000000000E+00  0.00000000000E+00  0.35456714809E+03  0.35456714810E+03  0.25500000920E-02 0. -1.
       -2   -1    0    0    0  501  0.00000000000E+00  0.00000000000E+00 -0.44597092533E+03  0.44597092534E+03  0.25500000920E-02 0.  1.
    10030    2    1    2    0    0  0.00000000000E+00  0.00000000000E+00 -0.91403777240E+02  0.80053807344E+03  0.79530280808E+03 0.  0.
        2    1    3    3  502    0  0.70209857820E+02  0.21019692873E+03 -0.37804871960E+03  0.43821570873E+03  0.25500000920E-02 0.  1.
       -2    1    3    3    0  502 -0.70209857820E+02 -0.21019692873E+03  0.28664494236E+03  0.36232236471E+03  0.25500000920E-02 0. -1.
</event>
<event>
 5   0  0.1818665E-02  0.6968949E+03  0.7818609E-02  0.9722557E-01
       -2   -1    0    0    0  501  0.00000000000E+00  0.00000000000E+00  0.61993334426E+03  0.61993334426E+03  0.25500000920E-02 0. -1.
        2   -1    0    0  501    0  0.00000000000E+00  0.00000000000E+00 -0.19585269996E+03  0.19585269997E+03  0.25500000920E-02 0.  1.
    10030    2    1    2    0    0  0.00000000000E+00  0.00000000000E+00  0.42408064430E+03  0.81578604423E+03  0.69689488239E+03 0.  0.
        3    1    3    3  502    0  0.28896353540E+03  0.18401612807E+03  0.13750924158E+03  0.36914856345E+03  0.10100000352E+00 0.  1.
       -3    1    3    3    0  502 -0.28896353540E+03 -0.18401612807E+03  0.28657140272E+03  0.44663748078E+03  0.10100000352E+00 0. -1.
</event>
<event>
 5   0  0.1049780E-02  0.7604194E+03  0.7818609E-02  0.9619144E-01
       -1   -1    0    0    0  501  0.00000000000E+00  0.00000000000E+00  0.39010933233E+03  0.39010933236E+03  0.50400001928E-02 0. -1.
        1   -1    0    0  501    0  0.00000000000E+00  0.00000000000E+00 -0.37056124328E+03  0.37056124331E+03  0.50400001928E-02 0.  1.
    10030    2    1    2    0    0  0.00000000000E+00  0.00000000000E+00  0.19548089052E+02  0.76067057568E+03  0.76041935596E+03 0.  0.
        5    1    3    3  502    0  0.29998290480E+03 -0.17788194882E+03  0.16116993441E+03  0.38422593437E+03  0.46999998093E+01 0. -1.
       -5    1    3    3    0  502 -0.29998290480E+03  0.17788194882E+03 -0.14162184536E+03  0.37644464131E+03  0.46999998093E+01 0.  1.
</event>
<event>
 5   0  0.6872500E-03  0.7964215E+03  0.7818609E-02  0.9565211E-01
       -4   -1    0    0    0  501  0.00000000000E+00  0.00000000000E+00  0.40562145187E+03  0.40562344005E+03  0.12699999809E+01 0. -1.
        4   -1    0    0  501    0  0.00000000000E+00  0.00000000000E+00 -0.39093148957E+03  0.39093355246E+03  0.12699999809E+01 0.  1.
    10030    2    1    2    0    0  0.00000000000E+00  0.00000000000E+00  0.14689962300E+02  0.79655699251E+03  0.79642152615E+03 0.  0.
        4    1    3    3  502    0  0.17558087794E+03 -0.24516558302E+03  0.26745726808E+03  0.40307544076E+03  0.12699999809E+01 0. -1.
       -4    1    3    3    0  502 -0.17558087794E+03  0.24516558302E+03 -0.25276730578E+03  0.39348155175E+03  0.12699999809E+01 0.  1.
</event>
<event>
 5   0  0.1747544E-02  0.7997804E+03  0.7818609E-02  0.9560335E-01
       -2   -1    0    0    0  501  0.00000000000E+00  0.00000000000E+00  0.11058204372E+03  0.11058204375E+03  0.25500000920E-02 0. -1.
        2   -1    0    0  501    0  0.00000000000E+00  0.00000000000E+00 -0.14460951642E+04  0.14460951642E+04  0.25500000920E-02 0.  1.
    10030    2    1    2    0    0  0.00000000000E+00  0.00000000000E+00 -0.13355131205E+04  0.15566772080E+04  0.79978036660E+03 0.  0.
        1    1    3    3  502    0 -0.11807679828E+03 -0.37827277042E+03 -0.77220559545E+03  0.86794809799E+03  0.50400001928E-02 0.  1.
       -1    1    3    3    0  502  0.11807679828E+03  0.37827277042E+03 -0.56330752504E+03  0.68872910998E+03  0.50400001928E-02 0. -1.
</event>
<event>
 5   0  0.1817089E-02  0.8055995E+03  0.7818609E-02  0.9551947E-01
       -2   -1    0    0    0  501  0.00000000000E+00  0.00000000000E+00  0.23393023694E+03  0.23393023696E+03  0.25500000920E-02 0. -1.
        2   -1    0    0  501    0  0.00000000000E+00  0.00000000000E+00 -0.69357281546E+03  0.69357281547E+03  0.25500000920E-02 0.  1.
    10030    2    1    2    0    0  0.00000000000E+00  0.00000000000E+00 -0.45964257852E+03  0.92750305243E+03  0.80559953592E+03 0.  0.
        2    1    3    3  502    0 -0.29350975613E+02 -0.39986641921E+03 -0.18533471495E+03  0.44170531982E+03  0.25500000920E-02 0.  1.
       -2    1    3    3    0  502  0.29350975613E+02  0.39986641921E+03 -0.27430786357E+03  0.48579773261E+03  0.25500000920E-02 0. -1.
</event>
<event>
 5   0  0.1038912E-02  0.7904170E+03  0.7818609E-02  0.9573993E-01
       -1   -1    0    0    0  501  0.00000000000E+00  0.00000000000E+00  0.19264941624E+03  0.19264941630E+03  0.50400001928E-02 0. -1.
        1   -1    0    0  501    0  0.00000000000E+00  0.00000000000E+00 -0.81074611179E+03  0.81074611181E+03  0.50400001928E-02 0.  1.
    10030    2    1    2    0    0  0.00000000000E+00  0.00000000000E+00 -0.61809669555E+03  0.10033955281E+04  0.79041701701E+03 0.  0.
        2    1    3    3  502    0 -0.88844182531E+02  0.36139666118E+03 -0.14021172458E+03  0.39769355439E+03  0.25500000920E-02 0.  1.
       -2    1    3    3    0  502  0.88844182531E+02 -0.36139666118E+03 -0.47788497097E+03  0.60570197372E+03  0.25500000920E-02 0. -1.
</event>
<event>
 5   0  0.1731337E-02  0.8643216E+03  0.7818609E-02  0.9471314E-01
       -2   -1    0    0    0  501  0.00000000000E+00  0.00000000000E+00  0.18049068764E+03  0.18049068766E+03  0.25500000920E-02 0. -1.
        2   -1    0    0  501    0  0.00000000000E+00  0.00000000000E+00 -0.10347511094E+04  0.10347511094E+04  0.25500000920E-02 0.  1.
    10030    2    1    2    0    0  0.00000000000E+00  0.00000000000E+00 -0.85426042176E+03  0.12152417971E+04  0.86432155889E+03 0.  0.
        4    1    3    3  502    0 -0.19854619066E+03  0.16514347731E+03  0.60063481712E+02  0.26514560653E+03  0.12699999809E+01 0. -1.
       -4    1    3    3    0  502  0.19854619066E+03 -0.16514347731E+03 -0.91432390347E+03  0.95009619055E+03  0.12699999809E+01 0.  1.
</event>
<event>
 5   0  0.1673727E-02  0.7964851E+03  0.7818609E-02  0.9565119E-01
        2   -1    0    0  501    0  0.00000000000E+00  0.00000000000E+00  0.11713203929E+04  0.11713203929E+04  0.25500000920E-02 0. -1.
       -2   -1    0    0    0  501  0.00000000000E+00  0.00000000000E+00 -0.13540029795E+03  0.13540029798E+03  0.25500000920E-02 0.  1.
    10030    2    1    2    0    0  0.00000000000E+00  0.00000000000E+00  0.10359200949E+04  0.13067206909E+04  0.79648510397E+03 0.  0.
        5    1    3    3  502    0 -0.28617459853E+03  0.25546773830E+03  0.34267285568E+03  0.51439910786E+03  0.46999998093E+01 0.  1.
       -5    1    3    3    0  502  0.28617459853E+03 -0.25546773830E+03  0.69324723925E+03  0.79232158300E+03  0.46999998093E+01 0. -1.
</event>
<event>
 5   0  0.1731337E-02  0.7898966E+03  0.7818609E-02  0.9574758E-01
        2   -1    0    0  501    0  0.00000000000E+00  0.00000000000E+00  0.85125152402E+03  0.85125152402E+03  0.25500000920E-02 0.  1.
       -2   -1    0    0    0  501  0.00000000000E+00  0.00000000000E+00 -0.18324098520E+03  0.18324098522E+03  0.25500000920E-02 0. -1.
    10030    2    1    2    0    0  0.00000000000E+00  0.00000000000E+00  0.66801053882E+03  0.10344925092E+04  0.78989662089E+03 0.  0.
        4    1    3    3  502    0  0.29477090296E+03  0.19257053668E+03  0.99693070804E+02  0.36594209664E+03  0.12699999809E+01 0. -1.
       -4    1    3    3    0  502 -0.29477090296E+03 -0.19257053668E+03  0.56831746801E+03  0.66855041259E+03  0.12699999809E+01 0.  1.
</event>
<event>
 5   0  0.1817089E-02  0.8252563E+03  0.7818609E-02  0.9524162E-01
       -2   -1    0    0    0  501  0.00000000000E+00  0.00000000000E+00  0.98094708368E+03  0.98094708369E+03  0.25500000920E-02 0. -1.
        2   -1    0    0  501    0  0.00000000000E+00  0.00000000000E+00 -0.17356899519E+03  0.17356899521E+03  0.25500000920E-02 0.  1.
    10030    2    1    2    0    0  0.00000000000E+00  0.00000000000E+00  0.80737808849E+03  0.11545160789E+04  0.82525632301E+03 0.  0.
        2    1    3    3  502    0 -0.24350845479E+03  0.47721801808E+01 -0.62284007003E+02  0.25139299670E+03  0.25500000920E-02 0.  1.
       -2    1    3    3    0  502  0.24350845479E+03 -0.47721801808E+01  0.86966209549E+03  0.90312308220E+03  0.25500000920E-02 0. -1.
</event>
<event>
 5   0  0.1673727E-02  0.7781229E+03  0.7818609E-02  0.9592235E-01
        2   -1    0    0  501    0  0.00000000000E+00  0.00000000000E+00  0.21727007488E+04  0.21727007488E+04  0.25500000920E-02 0. -1.
       -2   -1    0    0    0  501  0.00000000000E+00  0.00000000000E+00 -0.69668502812E+02  0.69668502858E+02  0.25500000920E-02 0.  1.
    10030    2    1    2    0    0  0.00000000000E+00  0.00000000000E+00  0.21030322460E+04  0.22423692516E+04  0.77812289075E+03 0.  0.
        5    1    3    3  502    0  0.49729518027E+02 -0.39628407382E+01 -0.60330834837E+02  0.78425944051E+02  0.46999998093E+01 0.  1.
       -5    1    3    3    0  502 -0.49729518027E+02  0.39628407382E+01  0.21633630808E+04  0.21639433076E+04  0.46999998093E+01 0. -1.
</event>
<event>
 5   0  0.1025900E-02  0.7934693E+03  0.7818609E-02  0.9569518E-01
        1   -1    0    0  501    0  0.00000000000E+00  0.00000000000E+00  0.44883055929E+03  0.44883055932E+03  0.50400001928E-02 0. -1.
       -1   -1    0    0    0  501  0.00000000000E+00  0.00000000000E+00 -0.35068553095E+03  0.35068553099E+03  0.50400001928E-02 0.  1.
    10030    2    1    2    0    0  0.00000000000E+00  0.00000000000E+00  0.98145028339E+02  0.79951609031E+03  0.79346930128E+03 0.  0.
        1    1    3    3  502    0 -0.31776177917E+03  0.20940175745E+03  0.16207320484E+03  0.41362950581E+03  0.50400001928E-02 0.  1.
       -1    1    3    3    0  502  0.31776177917E+03 -0.20940175745E+03 -0.63928176498E+02  0.38588658450E+03  0.50400001928E-02 0. -1.
</event>
<event>
 5   0  0.1818665E-02  0.8023973E+03  0.7818609E-02  0.9556554E-01
       -2   -1    0    0    0  501  0.00000000000E+00  0.00000000000E+00  0.20599232659E+03  0.20599232661E+03  0.25500000920E-02 0. -1.
        2   -1    0    0  501    0  0.00000000000E+00  0.00000000000E+00 -0.78139013812E+03  0.78139013813E+03  0.25500000920E-02 0.  1.
    10030    2    1    2    0    0  0.00000000000E+00  0.00000000000E+00 -0.57539781153E+03  0.98738246473E+03  0.80239733932E+03 0.  0.
        3    1    3    3  502    0  0.63789994235E+02  0.39480042270E+03 -0.32707284246E+03  0.51663642110E+03  0.10100000352E+00 0.  1.
       -3    1    3    3    0  502 -0.63789994235E+02 -0.39480042270E+03 -0.24832496908E+03  0.47074604364E+03  0.10100000352E+00 0. -1.
</event>
<event>
 5   0  0.1025900E-02  0.8060786E+03  0.7818609E-02  0.9551260E-01
        1   -1    0    0  501    0  0.00000000000E+00  0.00000000000E+00  0.27616653454E+03  0.27616653459E+03  0.50400001928E-02 0.  1.
       -1   -1    0    0    0  501  0.00000000000E+00  0.00000000000E+00 -0.58819821664E+03  0.58819821667E+03  0.50400001928E-02 0. -1.
    10030    2    1    2    0    0  0.00000000000E+00  0.00000000000E+00 -0.31203168210E+03  0.86436475126E+03  0.80607856477E+03 0.  0.
        1    1    3    3  502    0 -0.35591720011E+03 -0.13550337507E+03 -0.14558720952E+02  0.38111700876E+03  0.50400001928E-02 0. -1.
       -1    1    3    3    0  502  0.35591720011E+03  0.13550337507E+03 -0.29747296115E+03  0.48324774249E+03  0.50400001928E-02 0.  1.
</event>
<event>
 5   0  0.1817089E-02  0.8009038E+03  0.7818609E-02  0.9558710E-01
        2   -1    0    0  501    0  0.00000000000E+00  0.00000000000E+00  0.56985955295E+03  0.56985955295E+03  0.25500000920E-02 0. -1.
       -2   -1    0    0    0  501  0.00000000000E+00  0.00000000000E+00 -0.28140567325E+03  0.28140567326E+03  0.25500000920E-02 0.  1.
    10030    2    1    2    0    0  0.00000000000E+00  0.00000000000E+00  0.28845387969E+03  0.85126522621E+03  0.80090376741E+03 0.  0.
        2    1    3    3  502    0  0.25581861592E+03 -0.25616495841E+03 -0.37702924556E+02  0.36398511054E+03  0.25500000920E-02 0. -1.
       -2    1    3    3    0  502 -0.25581861592E+03  0.25616495841E+03  0.32615680425E+03  0.48728011567E+03  0.25500000920E-02 0.  1.
</event>
<event>
 5   0  0.1673727E-02  0.8024806E+03  0.7818609E-02  0.9556433E-01
        2   -1    0    0  501    0  0.00000000000E+00  0.00000000000E+00  0.14146293038E+04  0.14146293038E+04  0.25500000920E-02 0.  1.
       -2   -1    0    0    0  501  0.00000000000E+00  0.00000000000E+00 -0.11380633311E+03  0.11380633314E+03  0.25500000920E-02 0. -1.
    10030    2    1    2    0    0  0.00000000000E+00  0.00000000000E+00  0.13008229706E+04  0.15284356369E+04  0.80248058867E+03 0.  0.
        5    1    3    3  502    0  0.13338443957E+03 -0.23940362246E+03  0.92296489003E+02  0.28921658847E+03  0.46999998093E+01 0. -1.
       -5    1    3    3    0  502 -0.13338443957E+03  0.23940362246E+03  0.12085264816E+04  0.12392190484E+04  0.46999998093E+01 0.  1.
</event>
<event>
 5   0  0.1025900E-02  0.8038158E+03  0.7818609E-02  0.9554510E-01
       -1   -1    0    0    0  501  0.00000000000E+00  0.00000000000E+00  0.39965116734E+03  0.39965116737E+03  0.50400001928E-02 0.  1.
        1   -1    0    0  501    0  0.00000000000E+00  0.00000000000E+00 -0.40417741921E+03  0.40417741924E+03  0.50400001928E-02 0. -1.
    10030    2    1    2    0    0  0.00000000000E+00  0.00000000000E+00 -0.45262518700E+01  0.80382858662E+03  0.80381584316E+03 0.  0.
        1    1    3    3  502    0  0.14353694361E+02 -0.21006156093E+02 -0.40337133014E+03  0.40417288026E+03  0.50400001928E-02 0. -1.
       -1    1    3    3    0  502 -0.14353694361E+02  0.21006156093E+02  0.39884507827E+03  0.39965570636E+03  0.50400001928E-02 0.  1.
</event>
<event>
 5   0  0.1146083E-02  0.8053681E+03  0.7818609E-02  0.9552279E-01
       -1   -1    0    0    0  501  0.00000000000E+00  0.00000000000E+00  0.19843873236E+03  0.19843873242E+03  0.50400001928E-02 0. -1.
        1   -1    0    0  501    0  0.00000000000E+00  0.00000000000E+00 -0.81715109551E+03  0.81715109553E+03  0.50400001928E-02 0.  1.
    10030    2    1    2    0    0  0.00000000000E+00  0.00000000000E+00 -0.61871236315E+03  0.10155898279E+04  0.80536805891E+03 0.  0.
        4    1    3    3  502    0  0.37632536946E+03 -0.13833149725E+03 -0.35647920982E+03  0.53650296063E+03  0.12699999809E+01 0.  1.
       -4    1    3    3    0  502 -0.37632536946E+03  0.13833149725E+03 -0.26223315333E+03  0.47908686732E+03  0.12699999809E+01 0. -1.
</event>
<event>
 5   0  0.1049780E-02  0.8121255E+03  0.7818609E-02  0.9542630E-01
       -1   -1    0    0    0  501  0.00000000000E+00  0.00000000000E+00  0.60497369931E+03  0.60497369934E+03  0.50400001928E-02 0.  1.
        1   -1    0    0  501    0  0.00000000000E+00  0.00000000000E+00 -0.27255224461E+03  0.27255224466E+03  0.50400001928E-02 0. -1.
    10030    2    1    2    0    0  0.00000000000E+00  0.00000000000E+00  0.33242145470E+03  0.87752594399E+03  0.81212545757E+03 0.  0.
        5    1    3    3  502    0 -0.33665562830E+03  0.80582123715E+02  0.39551325045E+03  0.52562658990E+03  0.46999998093E+01 0.  1.
       -5    1    3    3    0  502  0.33665562830E+03 -0.80582123715E+02 -0.63091795747E+02  0.35189935410E+03  0.46999998093E+01 0. -1.
</event>
<event>
 5   0  0.6872500E-03  0.8041745E+03  0.7818609E-02  0.9553994E-01
       -3   -1    0    0    0  501  0.00000000000E+00  0.00000000000E+00  0.69741734005E+03  0.69741734737E+03  0.10100000352E+00 0. -1.
        3   -1    0    0  501    0  0.00000000000E+00  0.00000000000E+00 -0.23181834509E+03  0.23181836709E+03  0.10100000352E+00 0.  1.
    10030    2    1    2    0    0  0.00000000000E+00  0.00000000000E+00  0.46559899496E+03  0.92923571446E+03  0.80417447666E+03 0.  0.
        4    1    3    3  502    0  0.33153845453E+03  0.14114645227E+03  0.43896251090E+03  0.56791704209E+03  0.12699999809E+01 0. -1.
       -4    1    3    3    0  502 -0.33153845453E+03 -0.14114645227E+03  0.26636484060E+02  0.36131867237E+03  0.12699999809E+01 0.  1.
</event>
<event>
 5   0  0.6872500E-03  0.8031980E+03  0.7818609E-02  0.9555400E-01
       -3   -1    0    0    0  501  0.00000000000E+00  0.00000000000E+00  0.86337408786E+03  0.86337409376E+03  0.10100000352E+00 0. -1.
        3   -1    0    0  501    0  0.00000000000E+00  0.00000000000E+00 -0.18680401487E+03  0.18680404217E+03  0.10100000352E+00 0.  1.
    10030    2    1    2    0    0  0.00000000000E+00  0.00000000000E+00  0.67657007299E+03  0.10501781359E+04  0.80319801640E+03 0.  0.
        2    1    3    3  502    0  0.27627578325E+03  0.18674056024E+03  0.63088795532E+03  0.71359649483E+03  0.25500000920E-02 0. -1.
       -2    1    3    3    0  502 -0.27627578325E+03 -0.18674056024E+03  0.45682117663E+02  0.33658164111E+03  0.25500000920E-02 0.  1.
</event>
<event>
 5   0  0.1030323E-02  0.7985315E+03  0.7818609E-02  0.9562145E-01
       -1   -1    0    0    0  501  0.00000000000E+00  0.00000000000E+00  0.75062891697E+02  0.75062891866E+02  0.50400001928E-02 0. -1.
        1   -1    0    0  501    0  0.00000000000E+00  0.00000000000E+00 -0.21237274091E+04  0.21237274091E+04  0.50400001928E-02 0.  1.
    10030    2    1    2    0    0  0.00000000000E+00  0.00000000000E+00 -0.20486645174E+04  0.21987903009E+04  0.79853145384E+03 0.  0.
        3    1    3    3  502    0  0.24531982816E+03  0.23939445799E+03 -0.15881135200E+04  0.16246833806E+04  0.10100000352E+00 0.  1.
       -3    1    3    3    0  502 -0.24531982816E+03 -0.23939445799E+03 -0.46055099742E+03  0.57410692038E+03  0.10100000352E+00 0. -1.
</event>
<event>
 5   0  0.1673727E-02  0.7997203E+03  0.7818609E-02  0.9560422E-01
        2   -1    0    0  501    0  0.00000000000E+00  0.00000000000E+00  0.56043363380E+03  0.56043363381E+03  0.25500000920E-02 0. -1.
       -2   -1    0    0    0  501  0.00000000000E+00  0.00000000000E+00 -0.28529358820E+03  0.28529358822E+03  0.25500000920E-02 0.  1.
    10030    2    1    2    0    0  0.00000000000E+00  0.00000000000E+00  0.27514004560E+03  0.84572722202E+03  0.79972025695E+03 0.  0.
        5    1    3    3  502    0 -0.19348558697E+03 -0.34461101397E+03  0.73481603228E+02  0.40201375514E+03  0.46999998093E+01 0.  1.
       -5    1    3    3    0  502  0.19348558697E+03  0.34461101397E+03  0.20165844237E+03  0.44371346688E+03  0.46999998093E+01 0. -1.
</event>
<event>
 5   0  0.6872500E-03  0.8002329E+03  0.7818609E-02  0.9559680E-01
       -3   -1    0    0    0  501  0.00000000000E+00  0.00000000000E+00  0.15541606119E+04  0.15541606152E+04  0.10100000352E+00 0.  1.
        3   -1    0    0  501    0  0.00000000000E+00  0.00000000000E+00 -0.10300937426E+03  0.10300942377E+03  0.10100000352E+00 0. -1.
    10030    2    1    2    0    0  0.00000000000E+00  0.00000000000E+00  0.14511512377E+04  0.16571700390E+04  0.80023285580E+03 0.  0.
        2    1    3    3  502    0 -0.17243886180E+03 -0.24635473919E+03  0.17898106492E+03  0.34994290989E+03  0.25500000920E-02 0. -1.
       -2    1    3    3    0  502  0.17243886180E+03  0.24635473919E+03  0.12721701727E+04  0.13072271291E+04  0.25500000920E-02 0.  1.
</event>
<event>
 5   0  0.1673727E-02  0.8071883E+03  0.7818609E-02  0.9549670E-01
        2   -1    0    0  501    0  0.00000000000E+00  0.00000000000E+00  0.10445568012E+04  0.10445568012E+04  0.25500000920E-02 0.  1.
       -2   -1    0    0    0  501  0.00000000000E+00  0.00000000000E+00 -0.15594003153E+03  0.15594003155E+03  0.25500000920E-02 0. -1.
    10030    2    1    2    0    0  0.00000000000E+00  0.00000000000E+00  0.88861676971E+03  0.12004968328E+04  0.80718825695E+03 0.  0.
        5    1    3    3  502    0  0.25810038191E+03  0.22679989754E+03  0.75914408795E+03  0.83329216781E+03  0.46999998093E+01 0.  1.
       -5    1    3    3    0  502 -0.25810038191E+03 -0.22679989754E+03  0.12947268176E+03  0.36720466499E+03  0.46999998093E+01 0. -1.
</event>
<event>
 5   0  0.1146083E-02  0.7935602E+03  0.7818609E-02  0.9569385E-01
        1   -1    0    0  501    0  0.00000000000E+00  0.00000000000E+00  0.42942320743E+03  0.42942320746E+03  0.50400001928E-02 0.  1.
       -1   -1    0    0    0  501  0.00000000000E+00  0.00000000000E+00 -0.36661841617E+03  0.36661841621E+03  0.50400001928E-02 0. -1.
    10030    2    1    2    0    0  0.00000000000E+00  0.00000000000E+00  0.62804791262E+02  0.79604162367E+03  0.79356022129E+03 0.  0.
        4    1    3    3  502    0 -0.85007435992E+02  0.14481827106E+03  0.39201815015E+03  0.42647208438E+03  0.12699999809E+01 0.  1.
       -4    1    3    3    0  502  0.85007435992E+02 -0.14481827106E+03 -0.32921335889E+03  0.36956953930E+03  0.12699999809E+01 0. -1.
</event>
<event>
 5   0  0.1049780E-02  0.7977496E+03  0.7818609E-02  0.9563280E-01
       -1   -1    0    0    0  501  0.00000000000E+00  0.00000000000E+00  0.12763427238E+03  0.12763427248E+03  0.50400001928E-02 0. -1.
        1   -1    0    0  501    0  0.00000000000E+00  0.00000000000E+00 -0.12465390010E+04  0.12465390010E+04  0.50400001928E-02 0.  1.
    10030    2    1    2    0    0  0.00000000000E+00  0.00000000000E+00 -0.11189047286E+04  0.13741732735E+04  0.79774958091E+03 0.  0.
        5    1    3    3  502    0 -0.15897105663E+03  0.26212677812E+03 -0.99894804610E+03  0.10449409234E+04  0.46999998093E+01 0.  1.
       -5    1    3    3    0  502  0.15897105663E+03 -0.26212677812E+03 -0.11995668253E+03  0.32923235007E+03  0.46999998093E+01 0. -1.
</event>
<event>
 5   0  0.1818665E-02  0.7966273E+03  0.7818609E-02  0.9564912E-01
       -2   -1    0    0    0  501  0.00000000000E+00  0.00000000000E+00  0.71499651831E+03  0.71499651831E+03  0.25500000920E-02 0. -1.
        2   -1    0    0  501    0  0.00000000000E+00  0.00000000000E+00 -0.22189447070E+03  0.22189447071E+03  0.25500000920E-02 0.  1.
    10030    2    1    2    0    0  0.00000000000E+00  0.00000000000E+00  0.49310204761E+03  0.93689098902E+03  0.79662732564E+03 0.  0.
        3    1    3    3  502    0 -0.38776146092E+03 -0.29542039841E+02  0.34787138052E+03  0.52177216319E+03  0.10100000352E+00 0. -1.
       -3    1    3    3    0  502  0.38776146092E+03  0.29542039841E+02  0.14523066709E+03  0.41511882583E+03  0.10100000352E+00 0.  1.
</event>
<event>
 5   0  0.1673727E-02  0.7925178E+03  0.7818609E-02  0.9570911E-01
       -2   -1    0    0    0  501  0.00000000000E+00  0.00000000000E+00  0.10117450024E+03  0.10117450027E+03  0.25500000920E-02 0. -1.
        2   -1    0    0  501    0  0.00000000000E+00  0.00000000000E+00 -0.15519831834E+04  0.15519831834E+04  0.25500000920E-02 0.  1.
    10030    2    1    2    0    0  0.00000000000E+00  0.00000000000E+00 -0.14508086831E+04  0.16531576836E+04  0.79251781807E+03 0.  0.
        5    1    3    3  502    0  0.25950221401E+03 -0.52874114527E+02 -0.11062387241E+03  0.28704843181E+03  0.46999998093E+01 0. -1.
       -5    1    3    3    0  502 -0.25950221401E+03  0.52874114527E+02 -0.13401848107E+04  0.13661092518E+04  0.46999998093E+01 0.  1.
</event>
<event>
 5   0  0.6872500E-03  0.7945717E+03  0.7818609E-02  0.9567908E-01
       -3   -1    0    0    0  501  0.00000000000E+00  0.00000000000E+00  0.54261533498E+03  0.54261534438E+03  0.10100000352E+00 0.  1.
        3   -1    0    0  501    0  0.00000000000E+00  0.00000000000E+00 -0.29088014420E+03  0.29088016173E+03  0.10100000352E+00 0. -1.
    10030    2    1    2    0    0  0.00000000000E+00  0.00000000000E+00  0.25173519078E+03  0.83349550611E+03  0.79457167860E+03 0.  0.
        2    1    3    3  502    0  0.15472779499E+03 -0.31277631314E+03  0.32508218009E+03  0.47691522981E+03  0.25500000920E-02 0. -1.
       -2    1    3    3    0  502 -0.15472779499E+03  0.31277631314E+03 -0.73346989305E+02  0.35658027631E+03  0.25500000920E-02 0.  1.
</event>
<event>
 5   0  0.1731337E-02  0.7094072E+03  0.7818609E-02  0.9701279E-01
       -2   -1    0    0    0  501  0.00000000000E+00  0.00000000000E+00  0.29227087973E+03  0.29227087974E+03  0.25500000920E-02 0.  1.
        2   -1    0    0  501    0  0.00000000000E+00  0.00000000000E+00 -0.43047273187E+03  0.43047273188E+03  0.25500000920E-02 0. -1.
    10030    2    1    2    0    0  0.00000000000E+00  0.00000000000E+00 -0.13820185215E+03  0.72274361162E+03  0.70940720055E+03 0.  0.
        4    1    3    3  502    0  0.28693894807E+03  0.17505191573E+03 -0.18452643511E+03  0.38344328299E+03  0.12699999809E+01 0.  1.
       -4    1    3    3    0  502 -0.28693894807E+03 -0.17505191573E+03  0.46324582962E+02  0.33930032862E+03  0.12699999809E+01 0. -1.
</event>
<event>
 5   0  0.1025900E-02  0.8096373E+03  0.7818609E-02  0.9546171E-01
        1   -1    0    0  501    0  0.00000000000E+00  0.00000000000E+00  0.21327630625E+03  0.21327630631E+03  0.50400001928E-02 0. -1.
       -1   -1    0    0    0  501  0.00000000000E+00  0.00000000000E+00 -0.76838416403E+03  0.76838416405E+03  0.50400001928E-02 0.  1.
    10030    2    1    2    0    0  0.00000000000E+00  0.00000000000E+00 -0.55510785778E+03  0.98166047035E+03  0.80963729243E+03 0.  0.
        1    1    3    3  502    0  0.21074332767E+03  0.33778457224E+03 -0.18872890388E+03  0.44060159621E+03  0.50400001928E-02 0. -1.
       -1    1    3    3    0  502 -0.21074332767E+03 -0.33778457224E+03 -0.36637895390E+03  0.54105887414E+03  0.50400001928E-02 0.  1.
</event>
<event>
 5   0  0.1038912E-02  0.8089419E+03  0.7818609E-02  0.9547163E-01
       -1   -1    0    0    0  501  0.00000000000E+00  0.00000000000E+00  0.62173596100E+03  0.62173596102E+03  0.50400001928E-02 0. -1.
        1   -1    0    0  501    0  0.00000000000E+00  0.00000000000E+00 -0.26312900500E+03  0.26312900505E+03  0.50400001928E-02 0.  1.
    10030    2    1    2    0    0  0.00000000000E+00  0.00000000000E+00  0.35860695600E+03  0.88486496607E+03  0.80894193815E+03 0.  0.
        2    1    3    3  502    0 -0.35355195346E+03  0.10971238371E+03  0.10320895835E+01  0.37018489454E+03  0.25500000920E-02 0.  1.
       -2    1    3    3    0  502  0.35355195346E+03 -0.10971238371E+03  0.35757486641E+03  0.51468007153E+03  0.25500000920E-02 0. -1.
</event>
<event>
 5   0  0.1146083E-02  0.7925947E+03  0.7818609E-02  0.9570798E-01
       -1   -1    0    0    0  501  0.00000000000E+00  0.00000000000E+00  0.31063631278E+03  0.31063631282E+03  0.50400001928E-02 0. -1.
        1   -1    0    0  501    0  0.00000000000E+00  0.00000000000E+00 -0.50558023377E+03  0.50558023379E+03  0.50400001928E-02 0.  1.
    10030    2    1    2    0    0  0.00000000000E+00  0.00000000000E+00 -0.19494392098E+03  0.81621654662E+03  0.79259467488E+03 0.  0.
        4    1    3    3  502    0 -0.36391977193E+03 -0.13478069001E+03 -0.18015516776E+03  0.42785620502E+03  0.12699999809E+01 0. -1.
       -4    1    3    3    0  502  0.36391977193E+03  0.13478069001E+03 -0.14788753226E+02  0.38836034160E+03  0.12699999809E+01 0.  1.
</event>
<event>
 5   0  0.1146083E-02  0.7844884E+03  0.7818609E-02  0.9582745E-01
        1   -1    0    0  501    0  0.00000000000E+00  0.00000000000E+00  0.10808426731E+04  0.10808426732E+04  0.50400001928E-02 0.  1.
       -1   -1    0    0    0  501  0.00000000000E+00  0.00000000000E+00 -0.14234775486E+03  0.14234775495E+03  0.50400001928E-02 0. -1.
    10030    2    1    2    0    0  0.00000000000E+00  0.00000000000E+00  0.93849491828E+03  0.12231904281E+04  0.78448843954E+03 0.  0.
        4    1    3    3  502    0 -0.18407780804E+03 -0.78409668216E+02  0.99528786600E+03  0.10152006031E+04  0.12699999809E+01 0.  1.
       -4    1    3    3    0  502  0.18407780804E+03  0.78409668216E+02 -0.56792947724E+02  0.20798982497E+03  0.12699999809E+01 0. -1.
</event>
<event>
 5   0  0.1025900E-02  0.7997496E+03  0.7818609E-02  0.9560380E-01
        1   -1    0    0  501    0  0.00000000000E+00  0.00000000000E+00  0.35565602274E+03  0.35565602277E+03  0.50400001928E-02 0.  1.
       -1   -1    0    0    0  501  0.00000000000E+00  0.00000000000E+00 -0.44959127171E+03  0.44959127174E+03  0.50400001928E-02 0. -1.
    10030    2    1    2    0    0  0.00000000000E+00  0.00000000000E+00 -0.93935248971E+02  0.80524729451E+03  0.79974956975E+03 0.  0.
        1    1    3    3  502    0 -0.10238977931E+03 -0.24993456562E+03 -0.34386562934E+03  0.43725796170E+03  0.50400001928E-02 0. -1.
       -1    1    3    3    0  502  0.10238977931E+03  0.24993456562E+03  0.24993038037E+03  0.36798933281E+03  0.50400001928E-02 0.  1.
</event>
<event>
 5   0  0.1049780E-02  0.7880751E+03  0.7818609E-02  0.9577440E-01
        1   -1    0    0  501    0  0.00000000000E+00  0.00000000000E+00  0.25065453707E+03  0.25065453712E+03  0.50400001928E-02 0. -1.
       -1   -1    0    0    0  501  0.00000000000E+00  0.00000000000E+00 -0.61944056013E+03  0.61944056015E+03  0.50400001928E-02 0.  1.
    10030    2    1    2    0    0  0.00000000000E+00  0.00000000000E+00 -0.36878602306E+03  0.87009509728E+03  0.78807509001E+03 0.  0.
        5    1    3    3  502    0  0.33477864128E+03 -0.20499886908E+03 -0.22170723096E+03  0.45086301827E+03  0.46999998093E+01 0.  1.
       -5    1    3    3    0  502 -0.33477864128E+03  0.20499886908E+03 -0.14707879210E+03  0.41923207901E+03  0.46999998093E+01 0. -1.
</event>
<event>
 5   0  0.1731337E-02  0.8080552E+03  0.7818609E-02  0.9548430E-01
       -2   -1    0    0    0  501  0.00000000000E+00  0.00000000000E+00  0.35071231494E+03  0.35071231495E+03  0.25500000920E-02 0.  1.
        2   -1    0    0  501    0  0.00000000000E+00  0.00000000000E+00 -0.46544791179E+03  0.46544791180E+03  0.25500000920E-02 0. -1.
    10030    2    1    2    0    0  0.00000000000E+00  0.00000000000E+00 -0.11473559685E+03  0.81616022675E+03  0.80805523236E+03 0.  0.
        4    1    3    3  502    0  0.10772274919E+03 -0.32520396143E+02  0.33456420012E+03  0.35298241282E+03  0.12699999809E+01 0.  1.
       -4    1    3    3    0  502 -0.10772274919E+03  0.32520396143E+02 -0.44929979697E+03  0.46317781393E+03  0.12699999809E+01 0. -1.
</event>
<event>
 5   0  0.1049780E-02  0.7894740E+03  0.7818609E-02  0.9575379E-01
       -1   -1    0    0    0  501  0.00000000000E+00  0.00000000000E+00  0.30596562989E+03  0.30596562993E+03  0.50400001928E-02 0.  1.
        1   -1    0    0  501    0  0.00000000000E+00  0.00000000000E+00 -0.50926404481E+03  0.50926404483E+03  0.50400001928E-02 0. -1.
    10030    2    1    2    0    0  0.00000000000E+00  0.00000000000E+00 -0.20329841492E+03  0.81522967476E+03  0.78947398761E+03 0.  0.
        5    1    3    3  502    0  0.34271501592E+03 -0.18932143252E+03 -0.50028162887E+02  0.39474180680E+03  0.46999998093E+01 0. -1.
       -5    1    3    3    0  502 -0.34271501592E+03  0.18932143252E+03 -0.15327025203E+03  0.42048786797E+03  0.46999998093E+01 0.  1.
</event>
<event>
 5   0  0.1731337E-02  0.8055175E+03  0.7818609E-02  0.9552065E-01
       -2   -1    0    0    0  501  0.00000000000E+00  0.00000000000E+00  0.18400534935E+03  0.18400534937E+03  0.25500000920E-02 0. -1.
        2   -1    0    0  501    0  0.00000000000E+00  0.00000000000E+00 -0.88157559088E+03  0.88157559089E+03  0.25500000920E-02 0.  1.
    10030    2    1    2    0    0  0.00000000000E+00  0.00000000000E+00 -0.69757024153E+03  0.10655809403E+04  0.80551753449E+03 0.  0.
        4    1    3    3  502    0 -0.17016824407E+02  0.24401584307E+03 -0.77205599762E+03  0.80987985550E+03  0.12699999809E+01 0.  1.
       -4    1    3    3    0  502  0.17016824407E+02 -0.24401584307E+03  0.74485756093E+02  0.25570108476E+03  0.12699999809E+01 0. -1.
</event>
<event>
 5   0  0.1025900E-02  0.8300118E+03  0.7818609E-02  0.9517564E-01
        1   -1    0    0  501    0  0.00000000000E+00  0.00000000000E+00  0.27297769623E+03  0.27297769628E+03  0.50400001928E-02 0. -1.
       -1   -1    0    0    0  501  0.00000000000E+00  0.00000000000E+00 -0.63093035685E+03  0.63093035687E+03  0.50400001928E-02 0.  1.
    10030    2    1    2    0    0  0.00000000000E+00  0.00000000000E+00 -0.35795266062E+03  0.90390805315E+03  0.83001184408E+03 0.  0.
        1    1    3    3  502    0  0.30447549279E+03 -0.12144382530E+03  0.98194156841E+02  0.34219295854E+03  0.50400001928E-02 0. -1.
       -1    1    3    3    0  502 -0.30447549279E+03  0.12144382530E+03 -0.45614681746E+03  0.56171509461E+03  0.50400001928E-02 0.  1.
</event>
<event>
 5   0  0.6872500E-03  0.8014070E+03  0.7818609E-02  0.9557983E-01
        3   -1    0    0  501    0  0.00000000000E+00  0.00000000000E+00  0.12978233189E+04  0.12978233228E+04  0.10100000352E+00 0. -1.
       -3   -1    0    0    0  501  0.00000000000E+00  0.00000000000E+00 -0.12371733826E+03  0.12371737949E+03  0.10100000352E+00 0.  1.
    10030    2    1    2    0    0  0.00000000000E+00  0.00000000000E+00  0.11741059806E+04  0.14215407023E+04  0.80140695940E+03 0.  0.
        5    1    3    3  502    0  0.14901239235E+03 -0.94291736092E+01  0.12465836180E+04  0.12555024528E+04  0.46999998093E+01 0. -1.
       -5    1    3    3    0  502 -0.14901239235E+03  0.94291736092E+01 -0.72477637340E+02  0.16603824952E+03  0.46999998093E+01 0.  1.
</event>
<event>
 5   0  0.1747544E-02  0.7969180E+03  0.7818609E-02  0.9564489E-01
       -2   -1    0    0    0  501  0.00000000000E+00  0.00000000000E+00  0.12785765510E+03  0.12785765512E+03  0.25500000920E-02 0.  1.
        2   -1    0    0  501    0  0.00000000000E+00  0.00000000000E+00 -0.12417682390E+04  0.12417682390E+04  0.25500000920E-02 0. -1.
    10030    2    1    2    0    0  0.00000000000E+00  0.00000000000E+00 -0.11139105839E+04  0.13696258941E+04  0.79691800139E+03 0.  0.
        1    1    3    3  502    0  0.33871680042E+03 -0.12511186076E+03 -0.84652431328E+03  0.92031813065E+03  0.50400001928E-02 0. -1.
       -1    1    3    3    0  502 -0.33871680042E+03  0.12511186076E+03 -0.26738627064E+03  0.44930776350E+03  0.50400001928E-02 0.  1.
</event>
<event>
 5   0  0.1030323E-02  0.7998333E+03  0.7818609E-02  0.9560258E-01
       -1   -1    0    0    0  501  0.00000000000E+00  0.00000000000E+00  0.15854426476E+03  0.15854426484E+03  0.50400001928E-02 0. -1.
        1   -1    0    0  501    0  0.00000000000E+00  0.00000000000E+00 -0.10087613142E+04  0.10087613142E+04  0.50400001928E-02 0.  1.
    10030    2    1    2    0    0  0.00000000000E+00  0.00000000000E+00 -0.85021704947E+03  0.11673055791E+04  0.79983328497E+03 0.  0.
        3    1    3    3  502    0 -0.93897965346E+02 -0.38622344478E+03 -0.48952132149E+03  0.63056840357E+03  0.10100000352E+00 0.  1.
       -3    1    3    3    0  502  0.93897965346E+02  0.38622344478E+03 -0.36069572798E+03  0.53673717551E+03  0.10100000352E+00 0. -1.
</event>
<event>
 5   0  0.1817089E-02  0.7999602E+03  0.7818609E-02  0.9560075E-01
       -2   -1    0    0    0  501  0.00000000000E+00  0.00000000000E+00  0.12143961095E+03  0.12143961098E+03  0.25500000920E-02 0. -1.
        2   -1    0    0  501    0  0.00000000000E+00  0.00000000000E+00 -0.13173962278E+04  0.13173962278E+04  0.25500000920E-02 0.  1.
    10030    2    1    2    0    0  0.00000000000E+00  0.00000000000E+00 -0.11959566168E+04  0.14388358387E+04  0.79996021248E+03 0.  0.
        2    1    3    3  502    0 -0.39564191034E+03 -0.91729154228E+01 -0.70235213796E+03  0.80617317575E+03  0.25500000920E-02 0. -1.
       -2    1    3    3    0  502  0.39564191034E+03  0.91729154228E+01 -0.49360447885E+03  0.63266266299E+03  0.25500000920E-02 0.  1.
</event>
<event>
 5   0  0.1025900E-02  0.7944559E+03  0.7818609E-02  0.9568077E-01
       -1   -1    0    0    0  501  0.00000000000E+00  0.00000000000E+00  0.81536384510E+02  0.81536384666E+02  0.50400001928E-02 0. -1.
        1   -1    0    0  501    0  0.00000000000E+00  0.00000000000E+00 -0.19352103014E+04  0.19352103014E+04  0.50400001928E-02 0.  1.
    10030    2    1    2    0    0  0.00000000000E+00  0.00000000000E+00 -0.18536739169E+04  0.20167466861E+04  0.79445591799E+03 0.  0.
        1    1    3    3  502    0 -0.18225132038E+02  0.32771136829E+03 -0.14948269137E+04  0.15304360158E+04  0.50400001928E-02 0. -1.
       -1    1    3    3    0  502  0.18225132038E+02 -0.32771136829E+03 -0.35884700316E+03  0.48631067030E+03  0.50400001928E-02 0.  1.
</event>
<event>
 5   0  0.1030323E-02  0.7980142E+03  0.7818609E-02  0.9562896E-01
       -1   -1    0    0    0  501  0.00000000000E+00  0.00000000000E+00  0.63172943762E+03  0.63172943764E+03  0.50400001928E-02 0. -1.
        1   -1    0    0  501    0  0.00000000000E+00  0.00000000000E+00 -0.25201717703E+03  0.25201717708E+03  0.50400001928E-02 0.  1.
    10030    2    1    2    0    0  0.00000000000E+00  0.00000000000E+00  0.37971226060E+03  0.88374661472E+03  0.79801420926E+03 0.  0.
        3    1    3    3  502    0  0.46857319843E+02  0.29253413944E+03  0.48584279239E+03  0.56904750265E+03  0.10100000352E+00 0. -1.
       -3    1    3    3    0  502 -0.46857319843E+02 -0.29253413944E+03 -0.10613053179E+03  0.31469911207E+03  0.10100000352E+00 0.  1.
</event>
<event>
 5   0  0.1025900E-02  0.8034543E+03  0.7818609E-02  0.9555031E-01
        1   -1    0    0  501    0  0.00000000000E+00  0.00000000000E+00  0.52080689460E+03  0.52080689462E+03  0.50400001928E-02 0. -1.
       -1   -1    0    0    0  501  0.00000000000E+00  0.00000000000E+00 -0.30987434421E+03  0.30987434425E+03  0.50400001928E-02 0.  1.
    10030    2    1    2    0    0  0.00000000000E+00  0.00000000000E+00  0.21093255039E+03  0.83068123887E+03  0.80345427984E+03 0.  0.
        1    1    3    3  502    0 -0.36513682632E+03  0.16750720630E+03  0.10656474301E+03  0.41561955028E+03  0.50400001928E-02 0.  1.
       -1    1    3    3    0  502  0.36513682632E+03 -0.16750720630E+03  0.10436780738E+03  0.41506168859E+03  0.50400001928E-02 0. -1.
</event>
<event>
 5   0  0.1673727E-02  0.8141479E+03  0.7818609E-02  0.9539761E-01
        2   -1    0    0  501    0  0.00000000000E+00  0.00000000000E+00  0.94984579644E+03  0.94984579645E+03  0.25500000920E-02 0.  1.
       -2   -1    0    0    0  501  0.00000000000E+00  0.00000000000E+00 -0.17445906789E+03  0.17445906790E+03  0.25500000920E-02 0. -1.
    10030    2    1    2    0    0  0.00000000000E+00  0.00000000000E+00  0.77538672856E+03  0.11243048643E+04  0.81414792831E+03 0.  0.
        5    1    3    3  502    0 -0.26634215915E+03  0.16726204070E+03  0.74453803580E+03  0.80825349536E+03  0.46999998093E+01 0.  1.
       -5    1    3    3    0  502  0.26634215915E+03 -0.16726204070E+03  0.30848692754E+02  0.31605136899E+03  0.46999998093E+01 0. -1.
</event>
<event>
 5   0  0.1818665E-02  0.7486501E+03  0.7818609E-02  0.9637471E-01
       -2   -1    0    0    0  501  0.00000000000E+00  0.00000000000E+00  0.12382622531E+03  0.12382622533E+03  0.25500000920E-02 0.  1.
        2   -1    0    0  501    0  0.00000000000E+00  0.00000000000E+00 -0.11315796701E+04  0.11315796701E+04  0.25500000920E-02 0. -1.
    10030    2    1    2    0    0  0.00000000000E+00  0.00000000000E+00 -0.10077534448E+04  0.12554058954E+04  0.74865008970E+03 0.  0.
        3    1    3    3  502    0  0.12328676845E+03 -0.29787744611E+03 -0.82287721000E+03  0.88377458275E+03  0.10100000352E+00 0. -1.
       -3    1    3    3    0  502 -0.12328676845E+03  0.29787744611E+03 -0.18487623479E+03  0.37163131269E+03  0.10100000352E+00 0.  1.
</event>
<event>
 5   0  0.1747544E-02  0.7971562E+03  0.7818609E-02  0.9564143E-01
       -2   -1    0    0    0  501  0.00000000000E+00  0.00000000000E+00  0.50161340773E+03  0.50161340774E+03  0.25500000920E-02 0. -1.
        2   -1    0    0  501    0  0.00000000000E+00  0.00000000000E+00 -0.31670705317E+03  0.31670705318E+03  0.25500000920E-02 0.  1.
    10030    2    1    2    0    0  0.00000000000E+00  0.00000000000E+00  0.18490635456E+03  0.81832046092E+03  0.79715620602E+03 0.  0.
        1    1    3    3  502    0  0.12938805787E+03 -0.48654840460E+02 -0.29131160576E+03  0.32244536699E+03  0.50400001928E-02 0.  1.
       -1    1    3    3    0  502 -0.12938805787E+03  0.48654840460E+02  0.47621796032E+03  0.49587509392E+03  0.50400001928E-02 0. -1.
</event>
<event>
 5   0  0.1038912E-02  0.8039415E+03  0.7818609E-02  0.9554329E-01
       -1   -1    0    0    0  501  0.00000000000E+00  0.00000000000E+00  0.78067402649E+03  0.78067402651E+03  0.50400001928E-02 0.  1.
        1   -1    0    0  501    0  0.00000000000E+00  0.00000000000E+00 -0.20697560986E+03  0.20697560992E+03  0.50400001928E-02 0. -1.
    10030    2    1    2    0    0  0.00000000000E+00  0.00000000000E+00  0.57369841663E+03  0.98764963643E+03  0.80394149730E+03 0.  0.
        2    1    3    3  502    0 -0.16267641071E+03 -0.16384818143E+03 -0.11738570193E+03  0.25901591493E+03  0.25500000920E-02 0. -1.
       -2    1    3    3    0  502  0.16267641071E+03  0.16384818143E+03  0.69108411857E+03  0.72863372150E+03  0.25500000920E-02 0.  1.
</event>
<event>
 5   0  0.1025900E-02  0.7988779E+03  0.7818609E-02  0.9561643E-01
       -1   -1    0    0    0  501  0.00000000000E+00  0.00000000000E+00  0.12235516300E+03  0.12235516310E+03  0.50400001928E-02 0. -1.
        1   -1    0    0  501    0  0.00000000000E+00  0.00000000000E+00 -0.13040028926E+04  0.13040028926E+04  0.50400001928E-02 0.  1.
    10030    2    1    2    0    0  0.00000000000E+00  0.00000000000E+00 -0.11816477296E+04  0.14263580557E+04  0.79887792948E+03 0.  0.
        1    1    3    3  502    0  0.37585171225E+03 -0.11029396292E+03 -0.45112188693E+03  0.59744474619E+03  0.50400001928E-02 0. -1.
       -1    1    3    3    0  502 -0.37585171225E+03  0.11029396292E+03 -0.73052584266E+03  0.82891330951E+03  0.50400001928E-02 0.  1.
</event>
<event>
 5   0  0.1673727E-02  0.7957981E+03  0.7818609E-02  0.9566119E-01
        2   -1    0    0  501    0  0.00000000000E+00  0.00000000000E+00  0.37031620031E+03  0.37031620032E+03  0.25500000920E-02 0. -1.
       -2   -1    0    0    0  501  0.00000000000E+00  0.00000000000E+00 -0.42753643202E+03  0.42753643203E+03  0.25500000920E-02 0.  1.
    10030    2    1    2    0    0  0.00000000000E+00  0.00000000000E+00 -0.57220231706E+02  0.79785263235E+03  0.79579813271E+03 0.  0.
        5    1    3    3  502    0 -0.22615640834E+03 -0.17402776920E+03 -0.30657883325E+03  0.41886161973E+03  0.46999998093E+01 0. -1.
       -5    1    3    3    0  502  0.22615640834E+03  0.17402776920E+03  0.24935860154E+03  0.37899101262E+03  0.46999998093E+01 0.  1.
</event>
<event>
 5   0  0.1030323E-02  0.8050315E+03  0.7818609E-02  0.9552763E-01
       -1   -1    0    0    0  501  0.00000000000E+00  0.00000000000E+00  0.33262313635E+03  0.33262313639E+03  0.50400001928E-02 0. -1.
        1   -1    0    0  501    0  0.00000000000E+00  0.00000000000E+00 -0.48709461092E+03  0.48709461095E+03  0.50400001928E-02 0.  1.
    10030    2    1    2    0    0  0.00000000000E+00  0.00000000000E+00 -0.15447147457E+03  0.81971774734E+03  0.80503152041E+03 0.  0.
        3    1    3    3  502    0 -0.16594659294E+03 -0.63831665791E+02 -0.44494157851E+03  0.47915109491E+03  0.10100000352E+00 0.  1.
       -3    1    3    3    0  502  0.16594659294E+03  0.63831665791E+02  0.29047010394E+03  0.34056665243E+03  0.10100000352E+00 0. -1.
</event>
<event>
 5   0  0.1146083E-02  0.7468624E+03  0.7818609E-02  0.9640286E-01
       -1   -1    0    0    0  501  0.00000000000E+00  0.00000000000E+00  0.29855854327E+03  0.29855854332E+03  0.50400001928E-02 0.  1.
        1   -1    0    0  501    0  0.00000000000E+00  0.00000000000E+00 -0.46708042886E+03  0.46708042889E+03  0.50400001928E-02 0. -1.
    10030    2    1    2    0    0  0.00000000000E+00  0.00000000000E+00 -0.16852188559E+03  0.76563897220E+03  0.74686237677E+03 0.  0.
        4    1    3    3  502    0  0.22116770507E+03 -0.19330338459E+03 -0.32063953994E+03  0.43484788114E+03  0.12699999809E+01 0. -1.
       -4    1    3    3    0  502 -0.22116770507E+03  0.19330338459E+03  0.15211765436E+03  0.33079109106E+03  0.12699999809E+01 0.  1.
</event>
<event>
 5   0  0.1673727E-02  0.8058863E+03  0.7818609E-02  0.9551536E-01
        2   -1    0    0  501    0  0.00000000000E+00  0.00000000000E+00  0.15297150431E+03  0.15297150433E+03  0.25500000920E-02 0. -1.
       -2   -1    0    0    0  501  0.00000000000E+00  0.00000000000E+00 -0.10613949972E+04  0.10613949972E+04  0.25500000920E-02 0.  1.
    10030    2    1    2    0    0  0.00000000000E+00  0.00000000000E+00 -0.90842349285E+03  0.12143665015E+04  0.80588631804E+03 0.  0.
        5    1    3    3  502    0  0.14508416739E+03  0.14672525678E+03 -0.97569218641E+03  0.99728383583E+03  0.46999998093E+01 0.  1.
       -5    1    3    3    0  502 -0.14508416739E+03 -0.14672525678E+03  0.67268693553E+02  0.21708266567E+03  0.46999998093E+01 0. -1.
</event>
<event>
 5   0  0.1049780E-02  0.7918196E+03  0.7818609E-02  0.9571934E-01
       -1   -1    0    0    0  501  0.00000000000E+00  0.00000000000E+00  0.14255707552E+03  0.14255707561E+03  0.50400001928E-02 0.  1.
        1   -1    0    0  501    0  0.00000000000E+00  0.00000000000E+00 -0.10995214987E+04  0.10995214987E+04  0.50400001928E-02 0. -1.
    10030    2    1    2    0    0  0.00000000000E+00  0.00000000000E+00 -0.95696442318E+03  0.12420785743E+04  0.79181959912E+03 0.  0.
        5    1    3    3  502    0 -0.31799851024E+03 -0.16359963166E+03 -0.21211565666E+03  0.41581610574E+03  0.46999998093E+01 0.  1.
       -5    1    3    3    0  502  0.31799851024E+03  0.16359963166E+03 -0.74484876652E+03  0.82626246858E+03  0.46999998093E+01 0. -1.
</event>
<event>
 5   0  0.1673727E-02  0.7980473E+03  0.7818609E-02  0.9562848E-01
       -2   -1    0    0    0  501  0.00000000000E+00  0.00000000000E+00  0.33391509499E+03  0.33391509500E+03  0.25500000920E-02 0. -1.
        2   -1    0    0  501    0  0.00000000000E+00  0.00000000000E+00 -0.47682738609E+03  0.47682738610E+03  0.25500000920E-02 0.  1.
    10030    2    1    2    0    0  0.00000000000E+00  0.00000000000E+00 -0.14291229110E+03  0.81074248110E+03  0.79804727160E+03 0.  0.
        5    1    3    3  502    0 -0.22166759137E+03 -0.13255361852E+03 -0.38041706925E+03  0.45983281682E+03  0.46999998093E+01 0.  1.
       -5    1    3    3    0  502  0.22166759137E+03  0.13255361852E+03  0.23750477815E+03  0.35090966428E+03  0.46999998093E+01 0. -1.
</event>
<event>
 5   0  0.1731337E-02  0.8020067E+03  0.7818609E-02  0.9557117E-01
       -2   -1    0    0    0  501  0.00000000000E+00  0.00000000000E+00  0.23077573913E+03  0.23077573914E+03  0.25500000920E-02 0.  1.
        2   -1    0    0  501    0  0.00000000000E+00  0.00000000000E+00 -0.69679624600E+03  0.69679624600E+03  0.25500000920E-02 0. -1.
    10030    2    1    2    0    0  0.00000000000E+00  0.00000000000E+00 -0.46602050687E+03  0.92757198515E+03  0.80200665509E+03 0.  0.
        4    1    3    3  502    0 -0.23239465415E+03 -0.31674211767E+03 -0.13998618630E+03  0.41704986469E+03  0.12699999809E+01 0.  1.
       -4    1    3    3    0  502  0.23239465415E+03  0.31674211767E+03 -0.32603432057E+03  0.51052212046E+03  0.12699999809E+01 0. -1.
</event>
<event>
 5   0  0.1747544E-02  0.8066347E+03  0.7818609E-02  0.9550463E-01
        2   -1    0    0  501    0  0.00000000000E+00  0.00000000000E+00  0.47789438165E+03  0.47789438165E+03  0.25500000920E-02 0.  1.
       -2   -1    0    0    0  501  0.00000000000E+00  0.00000000000E+00 -0.34037835060E+03  0.34037835061E+03  0.25500000920E-02 0. -1.
    10030    2    1    2    0    0  0.00000000000E+00  0.00000000000E+00  0.13751603105E+03  0.81827273226E+03  0.80663474111E+03 0.  0.
        1    1    3    3  502    0  0.27236698685E+03 -0.13205405181E+03 -0.20162621202E+03  0.36369654593E+03  0.50400001928E-02 0. -1.
       -1    1    3    3    0  502 -0.27236698685E+03  0.13205405181E+03  0.33914224306E+03  0.45457618633E+03  0.50400001928E-02 0.  1.
</event>
<event>
 5   0  0.1747544E-02  0.8045317E+03  0.7818609E-02  0.9553481E-01
        2   -1    0    0  501    0  0.00000000000E+00  0.00000000000E+00  0.56598322133E+03  0.56598322133E+03  0.25500000920E-02 0. -1.
       -2   -1    0    0    0  501  0.00000000000E+00  0.00000000000E+00 -0.28590566532E+03  0.28590566533E+03  0.25500000920E-02 0.  1.
    10030    2    1    2    0    0  0.00000000000E+00  0.00000000000E+00  0.28007755601E+03  0.85188888666E+03  0.80453168852E+03 0.  0.
        1    1    3    3  502    0  0.26905412860E+02 -0.28667314263E+03 -0.15741019393E+03  0.32815143018E+03  0.50400001928E-02 0.  1.
       -1    1    3    3    0  502 -0.26905412860E+02  0.28667314263E+03  0.43748774994E+03  0.52373745648E+03  0.50400001928E-02 0. -1.
</event>
<event>
 5   0  0.1038912E-02  0.7981078E+03  0.7818609E-02  0.9562760E-01
        1   -1    0    0  501    0  0.00000000000E+00  0.00000000000E+00  0.54691874050E+03  0.54691874053E+03  0.50400001928E-02 0.  1.
       -1   -1    0    0    0  501  0.00000000000E+00  0.00000000000E+00 -0.29116573695E+03  0.29116573699E+03  0.50400001928E-02 0. -1.
    10030    2    1    2    0    0  0.00000000000E+00  0.00000000000E+00  0.25575300356E+03  0.83808447752E+03  0.79810775753E+03 0.  0.
        2    1    3    3  502    0 -0.20327838388E+03 -0.33637744836E+03  0.55335851594E+02  0.39690546178E+03  0.25500000920E-02 0.  1.
       -2    1    3    3    0  502  0.20327838388E+03  0.33637744836E+03  0.20041715196E+03  0.44117901573E+03  0.25500000920E-02 0. -1.
</event>
<event>
 5   0  0.1747544E-02  0.8312430E+03  0.7818609E-02  0.9515864E-01
       -2   -1    0    0    0  501  0.00000000000E+00  0.00000000000E+00  0.82078553097E+03  0.82078553097E+03  0.25500000920E-02 0. -1.
        2   -1    0    0  501    0  0.00000000000E+00  0.00000000000E+00 -0.21045841468E+03  0.21045841470E+03  0.25500000920E-02 0.  1.
    10030    2    1    2    0    0  0.00000000000E+00  0.00000000000E+00  0.61032711629E+03  0.10312439457E+04  0.83124297688E+03 0.  0.
        1    1    3    3  502    0  0.78183145035E+02 -0.35102362105E+02 -0.19937748850E+03  0.21701650384E+03  0.50400001928E-02 0.  1.
       -1    1    3    3    0  502 -0.78183145035E+02  0.35102362105E+02  0.80970460479E+03  0.81422744183E+03  0.50400001928E-02 0. -1.
</event>
<event>
 5   0  0.1049780E-02  0.8014746E+03  0.7818609E-02  0.9557885E-01
        1   -1    0    0  501    0  0.00000000000E+00  0.00000000000E+00  0.13592021222E+04  0.13592021222E+04  0.50400001928E-02 0. -1.
       -1   -1    0    0    0  501  0.00000000000E+00  0.00000000000E+00 -0.11815049367E+03  0.11815049378E+03  0.50400001928E-02 0.  1.
    10030    2    1    2    0    0  0.00000000000E+00  0.00000000000E+00  0.12410516285E+04  0.14773526160E+04  0.80147464545E+03 0.  0.
        5    1    3    3  502    0  0.51906400119E+02  0.22353341925E+03  0.15019215045E+02  0.23001984852E+03  0.46999998093E+01 0.  1.
       -5    1    3    3    0  502 -0.51906400119E+02 -0.22353341925E+03  0.12260324135E+04  0.12473327675E+04  0.46999998093E+01 0. -1.
</event>
<event>
 5   0  0.1030323E-02  0.7591316E+03  0.7818609E-02  0.9621132E-01
        1   -1    0    0  501    0  0.00000000000E+00  0.00000000000E+00  0.35374037863E+03  0.35374037867E+03  0.50400001928E-02 0.  1.
       -1   -1    0    0    0  501  0.00000000000E+00  0.00000000000E+00 -0.40727666830E+03  0.40727666833E+03  0.50400001928E-02 0. -1.
    10030    2    1    2    0    0  0.00000000000E+00  0.00000000000E+00 -0.53536289661E+02  0.76101704700E+03  0.75913161672E+03 0.  0.
        3    1    3    3  502    0 -0.21143296135E+03 -0.87641497748E+02 -0.33031593403E+03  0.40186260805E+03  0.10100000352E+00 0. -1.
       -3    1    3    3    0  502  0.21143296135E+03  0.87641497748E+02  0.27677964437E+03  0.35915443894E+03  0.10100000352E+00 0.  1.
</event>
<event>
 5   0  0.1731337E-02  0.7963485E+03  0.7818609E-02  0.9565318E-01
        2   -1    0    0  501    0  0.00000000000E+00  0.00000000000E+00  0.14780773977E+04  0.14780773977E+04  0.25500000920E-02 0. -1.
       -2   -1    0    0    0  501  0.00000000000E+00  0.00000000000E+00 -0.10726281917E+03  0.10726281920E+03  0.25500000920E-02 0.  1.
    10030    2    1    2    0    0  0.00000000000E+00  0.00000000000E+00  0.13708145785E+04  0.15853402169E+04  0.79634853839E+03 0.  0.
        4    1    3    3  502    0 -0.28163012470E+03 -0.28024128237E+03  0.63309787843E+03  0.74743912131E+03  0.12699999809E+01 0. -1.
       -4    1    3    3    0  502  0.28163012470E+03  0.28024128237E+03  0.73771670011E+03  0.83790109560E+03  0.12699999809E+01 0.  1.
</event>
<event>
 5   0  0.1146083E-02  0.8080729E+03  0.7818609E-02  0.9548405E-01
        1   -1    0    0  501    0  0.00000000000E+00  0.00000000000E+00  0.12138493564E+04  0.12138493564E+04  0.50400001928E-02 0. -1.
       -1   -1    0    0    0  501  0.00000000000E+00  0.00000000000E+00 -0.13448574842E+03  0.13448574851E+03  0.50400001928E-02 0.  1.
    10030    2    1    2    0    0  0.00000000000E+00  0.00000000000E+00  0.10793636080E+04  0.13483351050E+04  0.80807286611E+03 0.  0.
        4    1    3    3  502    0  0.21919219192E+03  0.33532284269E+03  0.62729741472E+03  0.74430523661E+03  0.12699999809E+01 0.  1.
       -4    1    3    3    0  502 -0.21919219192E+03 -0.33532284269E+03  0.45206619330E+03  0.60402986835E+03  0.12699999809E+01 0. -1.
</event>
<event>
 5   0  0.1818665E-02  0.7979170E+03  0.7818609E-02  0.9563037E-01
        2   -1    0    0  501    0  0.00000000000E+00  0.00000000000E+00  0.12190075617E+04  0.12190075617E+04  0.25500000920E-02 0.  1.
       -2   -1    0    0    0  501  0.00000000000E+00  0.00000000000E+00 -0.13057170469E+03  0.13057170472E+03  0.25500000920E-02 0. -1.
    10030    2    1    2    0    0  0.00000000000E+00  0.00000000000E+00  0.10884358570E+04  0.13495792664E+04  0.79791702670E+03 0.  0.
        3    1    3    3  502    0  0.38695502885E+03 -0.92973680645E+02  0.49669094442E+03  0.63645911425E+03  0.10100000352E+00 0. -1.
       -3    1    3    3    0  502 -0.38695502885E+03  0.92973680645E+02  0.59174491254E+03  0.71312015212E+03  0.10100000352E+00 0.  1.
</event>
<event>
 5   0  0.1818665E-02  0.7981261E+03  0.7818609E-02  0.9562733E-01
        2   -1    0    0  501    0  0.00000000000E+00  0.00000000000E+00  0.80112472447E+03  0.80112472448E+03  0.25500000920E-02 0.  1.
       -2   -1    0    0    0  501  0.00000000000E+00  0.00000000000E+00 -0.19878469863E+03  0.19878469864E+03  0.25500000920E-02 0. -1.
    10030    2    1    2    0    0  0.00000000000E+00  0.00000000000E+00  0.60234002584E+03  0.99990942312E+03  0.79812614774E+03 0.  0.
        3    1    3    3  502    0 -0.35596443766E+03 -0.16758680457E+03  0.21754657341E+03  0.44958040410E+03  0.10100000352E+00 0. -1.
       -3    1    3    3    0  502  0.35596443766E+03  0.16758680457E+03  0.38479345243E+03  0.55032901902E+03  0.10100000352E+00 0.  1.
</event>
<event>
 5   0  0.1818665E-02  0.7987705E+03  0.7818609E-02  0.9561798E-01
        2   -1    0    0  501    0  0.00000000000E+00  0.00000000000E+00  0.65520427936E+03  0.65520427937E+03  0.25500000920E-02 0.  1.
       -2   -1    0    0    0  501  0.00000000000E+00  0.00000000000E+00 -0.24344864533E+03  0.24344864534E+03  0.25500000920E-02 0. -1.
    10030    2    1    2    0    0  0.00000000000E+00  0.00000000000E+00  0.41175563404E+03  0.89865292471E+03  0.79877054085E+03 0.  0.
        3    1    3    3  502    0 -0.39161841765E+02  0.22627904608E+02  0.65231369765E+03  0.65387983778E+03  0.10100000352E+00 0.  1.
       -3    1    3    3    0  502  0.39161841765E+02 -0.22627904608E+02 -0.24055806361E+03  0.24477308693E+03  0.10100000352E+00 0. -1.
</event>
<event>
 5   0  0.1038912E-02  0.8162642E+03  0.7818609E-02  0.9536769E-01
        1   -1    0    0  501    0  0.00000000000E+00  0.00000000000E+00  0.84667708273E+03  0.84667708274E+03  0.50400001928E-02 0.  1.
       -1   -1    0    0    0  501  0.00000000000E+00  0.00000000000E+00 -0.19673594929E+03  0.19673594935E+03  0.50400001928E-02 0. -1.
    10030    2    1    2    0    0  0.00000000000E+00  0.00000000000E+00  0.64994113344E+03  0.10434130321E+04  0.81626422107E+03 0.  0.
        2    1    3    3  502    0 -0.72226533076E+02  0.31831202448E+03  0.11772493218E+02  0.32661568948E+03  0.25500000920E-02 0. -1.
       -2    1    3    3    0  502  0.72226533076E+02 -0.31831202448E+03  0.63816864022E+03  0.71679734262E+03  0.25500000920E-02 0.  1.
</event>
<event>
 5   0  0.1673727E-02  0.7989906E+03  0.7818609E-02  0.9561479E-01
        2   -1    0    0  501    0  0.00000000000E+00  0.00000000000E+00  0.90387242981E+03  0.90387242981E+03  0.25500000920E-02 0. -1.
       -2   -1    0    0    0  501  0.00000000000E+00  0.00000000000E+00 -0.17656970335E+03  0.17656970337E+03  0.25500000920E-02 0.  1.
    10030    2    1    2    0    0  0.00000000000E+00  0.00000000000E+00  0.72730272646E+03  0.10804421332E+04  0.79899058020E+03 0.  0.
        5    1    3    3  502    0 -0.38277590477E+03  0.83630705839E+02  0.25835815406E+03  0.46934264030E+03  0.46999998093E+01 0. -1.
       -5    1    3    3    0  502  0.38277590477E+03 -0.83630705839E+02  0.46894457239E+03  0.61109949289E+03  0.46999998093E+01 0.  1.
</event>
<event>
 5   0  0.1673727E-02  0.8080669E+03  0.7818609E-02  0.9548413E-01
       -2   -1    0    0    0  501  0.00000000000E+00  0.00000000000E+00  0.14312077374E+03  0.14312077376E+03  0.25500000920E-02 0. -1.
        2   -1    0    0  501    0  0.00000000000E+00  0.00000000000E+00 -0.11405963042E+04  0.11405963042E+04  0.25500000920E-02 0.  1.
    10030    2    1    2    0    0  0.00000000000E+00  0.00000000000E+00 -0.99747553044E+03  0.12837170779E+04  0.80806689226E+03 0.  0.
        5    1    3    3  502    0  0.14356304559E+03  0.26708947910E+03 -0.74619520405E+02  0.31230962318E+03  0.46999998093E+01 0. -1.
       -5    1    3    3    0  502 -0.14356304559E+03 -0.26708947910E+03 -0.92285601004E+03  0.97140745476E+03  0.46999998093E+01 0.  1.
</event>
<event>
 5   0  0.1731337E-02  0.8073419E+03  0.7818609E-02  0.9549450E-01
       -2   -1    0    0    0  501  0.00000000000E+00  0.00000000000E+00  0.10603806418E+03  0.10603806421E+03  0.25500000920E-02 0.  1.
        2   -1    0    0  501    0  0.00000000000E+00  0.00000000000E+00 -0.15367146473E+04  0.15367146473E+04  0.25500000920E-02 0. -1.
    10030    2    1    2    0    0  0.00000000000E+00  0.00000000000E+00 -0.14306765832E+04  0.16427527116E+04  0.80734192615E+03 0.  0.
        4    1    3    3  502    0 -0.20078420323E+03 -0.87735861126E+02 -0.25504993523E+02  0.22059917314E+03  0.12699999809E+01 0.  1.
       -4    1    3    3    0  502  0.20078420323E+03  0.87735861126E+02 -0.14051715896E+04  0.14221535384E+04  0.12699999809E+01 0. -1.
</event>
<event>
 5   0  0.1731337E-02  0.7545568E+03  0.7818609E-02  0.9628228E-01
       -2   -1    0    0    0  501  0.00000000000E+00  0.00000000000E+00  0.14305733632E+03  0.14305733634E+03  0.25500000920E-02 0.  1.
        2   -1    0    0  501    0  0.00000000000E+00  0.00000000000E+00 -0.99497869063E+03  0.99497869064E+03  0.25500000920E-02 0. -1.
    10030    2    1    2    0    0  0.00000000000E+00  0.00000000000E+00 -0.85192135431E+03  0.11380360270E+04  0.75455682674E+03 0.  0.
        4    1    3    3  502    0  0.68370212892E+02 -0.35559149402E+03 -0.58570074761E+03  0.68859768754E+03  0.12699999809E+01 0. -1.
       -4    1    3    3    0  502 -0.68370212892E+02  0.35559149402E+03 -0.26622060670E+03  0.44943833944E+03  0.12699999809E+01 0.  1.
</event>
<event>
 5   0  0.1038912E-02  0.8052271E+03  0.7818609E-02  0.9552482E-01
        1   -1    0    0  501    0  0.00000000000E+00  0.00000000000E+00  0.12146129753E+04  0.12146129753E+04  0.50400001928E-02 0. -1.
       -1   -1    0    0    0  501  0.00000000000E+00  0.00000000000E+00 -0.13345622188E+03  0.13345622197E+03  0.50400001928E-02 0.  1.
    10030    2    1    2    0    0  0.00000000000E+00  0.00000000000E+00  0.10811567534E+04  0.13480691973E+04  0.80522707058E+03 0.  0.
        2    1    3    3  502    0  0.79874962073E+02 -0.99976535172E+02  0.11796608235E+04  0.11865812133E+04  0.25500000920E-02 0. -1.
       -2    1    3    3    0  502 -0.79874962073E+02  0.99976535172E+02 -0.98504070089E+02  0.16148798402E+03  0.25500000920E-02 0.  1.
</event>
<event>
 5   0  0.1818665E-02  0.8012522E+03  0.7818609E-02  0.9558206E-01
        2   -1    0    0  501    0  0.00000000000E+00  0.00000000000E+00  0.69794153305E+03  0.69794153306E+03  0.25500000920E-02 0.  1.
       -2   -1    0    0    0  501  0.00000000000E+00  0.00000000000E+00 -0.22996376070E+03  0.22996376072E+03  0.25500000920E-02 0. -1.
    10030    2    1    2    0    0  0.00000000000E+00  0.00000000000E+00  0.46797777235E+03  0.92790529377E+03  0.80125216929E+03 0.  0.
        3    1    3    3  502    0 -0.21079983051E+03  0.25949258846E+03  0.48962662291E+03  0.59288043657E+03  0.10100000352E+00 0.  1.
       -3    1    3    3    0  502  0.21079983051E+03 -0.25949258846E+03 -0.21648850554E+02  0.33502485720E+03  0.10100000352E+00 0. -1.
</event>
<event>
 5   0  0.1146083E-02  0.7896516E+03  0.7818609E-02  0.9575118E-01
       -1   -1    0    0    0  501  0.00000000000E+00  0.00000000000E+00  0.41125096026E+03  0.41125096029E+03  0.50400001928E-02 0. -1.
        1   -1    0    0  501    0  0.00000000000E+00  0.00000000000E+00 -0.37905665994E+03  0.37905665997E+03  0.50400001928E-02 0.  1.
    10030    2    1    2    0    0  0.00000000000E+00  0.00000000000E+00  0.32194300320E+02  0.79030762026E+03  0.78965160778E+03 0.  0.
        4    1    3    3  502    0  0.15209311435E+03 -0.34731139058E+03 -0.94122833774E+02  0.39066384296E+03  0.12699999809E+01 0.  1.
       -4    1    3    3    0  502 -0.15209311435E+03  0.34731139058E+03  0.12631713409E+03  0.39964377729E+03  0.12699999809E+01 0. -1.
</event>
<event>
 5   0  0.1747544E-02  0.7961129E+03  0.7818609E-02  0.9565661E-01
       -2   -1    0    0    0  501  0.00000000000E+00  0.00000000000E+00  0.44208671551E+03  0.44208671552E+03  0.25500000920E-02 0.  1.
        2   -1    0    0  501    0  0.00000000000E+00  0.00000000000E+00 -0.35841142678E+03  0.35841142679E+03  0.25500000920E-02 0. -1.
    10030    2    1    2    0    0  0.00000000000E+00  0.00000000000E+00  0.83675288729E+02  0.80049814231E+03  0.79611288264E+03 0.  0.
        1    1    3    3  502    0 -0.10790416573E+03  0.92168252246E+02  0.41578758096E+03  0.43933769268E+03  0.50400001928E-02 0.  1.
       -1    1    3    3    0  502  0.10790416573E+03 -0.92168252246E+02 -0.33211229223E+03  0.36116044963E+03  0.50400001928E-02 0. -1.
</event>
<event>
 5   0  0.1817089E-02  0.8101075E+03  0.7818609E-02  0.9545501E-01
        2   -1    0    0  501    0  0.00000000000E+00  0.00000000000E+00  0.68173426242E+03  0.68173426243E+03  0.25500000920E-02 0. -1.
       -2   -1    0    0    0  501  0.00000000000E+00  0.00000000000E+00 -0.24066349493E+03  0.24066349495E+03  0.25500000920E-02 0.  1.
    10030    2    1    2    0    0  0.00000000000E+00  0.00000000000E+00  0.44107076749E+03  0.92239775738E+03  0.81010752427E+03 0.  0.
        2    1    3    3  502    0  0.85365641414E+02 -0.24460951330E+03 -0.13398707534E+03  0.29167386427E+03  0.25500000920E-02 0.  1.
       -2    1    3    3    0  502 -0.85365641414E+02  0.24460951330E+03  0.57505784283E+03  0.63072389311E+03  0.25500000920E-02 0. -1.
</event>
<event>
 5   0  0.1146083E-02  0.7988807E+03  0.7818609E-02  0.9561639E-01
        1   -1    0    0  501    0  0.00000000000E+00  0.00000000000E+00  0.69310955020E+03  0.69310955022E+03  0.50400001928E-02 0.  1.
       -1   -1    0    0    0  501  0.00000000000E+00  0.00000000000E+00 -0.23019821257E+03  0.23019821263E+03  0.50400001928E-02 0. -1.
    10030    2    1    2    0    0  0.00000000000E+00  0.00000000000E+00  0.46291133763E+03  0.92330776285E+03  0.79888066595E+03 0.  0.
        4    1    3    3  502    0 -0.56446136826E+02 -0.39310228211E+03  0.28096983661E+03  0.48647839884E+03  0.12699999809E+01 0.  1.
       -4    1    3    3    0  502  0.56446136826E+02  0.39310228211E+03  0.18194150103E+03  0.43682936400E+03  0.12699999809E+01 0. -1.
</event>
<event>
 5   0  0.1038912E-02  0.8009896E+03  0.7818609E-02  0.9558586E-01
        1   -1    0    0  501    0  0.00000000000E+00  0.00000000000E+00  0.79784527015E+03  0.79784527016E+03  0.50400001928E-02 0. -1.
       -1   -1    0    0    0  501  0.00000000000E+00  0.00000000000E+00 -0.20103659449E+03  0.20103659455E+03  0.50400001928E-02 0.  1.
    10030    2    1    2    0    0  0.00000000000E+00  0.00000000000E+00  0.59680867566E+03  0.99888186471E+03  0.80098962809E+03 0.  0.
        2    1    3    3  502    0 -0.21010356403E+03  0.28516862934E+03  0.53147922812E+03  0.63869775693E+03  0.25500000920E-02 0. -1.
       -2    1    3    3    0  502  0.21010356403E+03 -0.28516862934E+03  0.65329447539E+02  0.36018410778E+03  0.25500000920E-02 0.  1.
</event>
<event>
 5   0  0.1731337E-02  0.7913921E+03  0.7818609E-02  0.9572561E-01
       -2   -1    0    0    0  501  0.00000000000E+00  0.00000000000E+00  0.32555303130E+03  0.32555303131E+03  0.25500000920E-02 0. -1.
        2   -1    0    0  501    0  0.00000000000E+00  0.00000000000E+00 -0.48095194682E+03  0.48095194683E+03  0.25500000920E-02 0.  1.
    10030    2    1    2    0    0  0.00000000000E+00  0.00000000000E+00 -0.15539891552E+03  0.80650497814E+03  0.79139210055E+03 0.  0.
        4    1    3    3  502    0 -0.32599816146E+03  0.86764820713E+02  0.13306098829E+03  0.36264276484E+03  0.12699999809E+01 0. -1.
       -4    1    3    3    0  502  0.32599816146E+03 -0.86764820713E+02 -0.28845990382E+03  0.44386221330E+03  0.12699999809E+01 0.  1.
</event>
<event>
 5   0  0.1731337E-02  0.8017637E+03  0.7818609E-02  0.9557468E-01
       -2   -1    0    0    0  501  0.00000000000E+00  0.00000000000E+00  0.19313513712E+03  0.19313513714E+03  0.25500000920E-02 0. -1.
        2   -1    0    0  501    0  0.00000000000E+00  0.00000000000E+00 -0.83209226574E+03  0.83209226575E+03  0.25500000920E-02 0.  1.
    10030    2    1    2    0    0  0.00000000000E+00  0.00000000000E+00 -0.63895712862E+03  0.10252274029E+04  0.80176369051E+03 0.  0.
        4    1    3    3  502    0  0.29444958354E+03 -0.17448224139E+03 -0.58635972153E+03  0.67894325664E+03  0.12699999809E+01 0.  1.
       -4    1    3    3    0  502 -0.29444958354E+03  0.17448224139E+03 -0.52597407087E+02  0.34628414624E+03  0.12699999809E+01 0. -1.
</event>
<event>
 5   0  0.1146083E-02  0.8021685E+03  0.7818609E-02  0.9556884E-01
        1   -1    0    0  501    0  0.00000000000E+00  0.00000000000E+00  0.10463179124E+04  0.10463179124E+04  0.50400001928E-02 0.  1.
       -1   -1    0    0    0  501  0.00000000000E+00  0.00000000000E+00 -0.15374732555E+03  0.15374732564E+03  0.50400001928E-02 0. -1.
    10030    2    1    2    0    0  0.00000000000E+00  0.00000000000E+00  0.89257058687E+03  0.12000652381E+04  0.80216851290E+03 0.  0.
        4    1    3    3  502    0  0.11508390830E+03  0.31480351176E+02  0.10191513694E+04  0.10261122965E+04  0.12699999809E+01 0.  1.
       -4    1    3    3    0  502 -0.11508390830E+03 -0.31480351176E+02 -0.12658078253E+03  0.17395294153E+03  0.12699999809E+01 0. -1.
</event>
<event>
 5   0  0.1038912E-02  0.8126572E+03  0.7818609E-02  0.9541875E-01
       -1   -1    0    0    0  501  0.00000000000E+00  0.00000000000E+00  0.84118603881E+02  0.84118604032E+02  0.50400001928E-02 0.  1.
        1   -1    0    0  501    0  0.00000000000E+00  0.00000000000E+00 -0.19627399974E+04  0.19627399974E+04  0.50400001928E-02 0. -1.
    10030    2    1    2    0    0  0.00000000000E+00  0.00000000000E+00 -0.18786213936E+04  0.20468586015E+04  0.81265724270E+03 0.  0.
        2    1    3    3  502    0  0.33584216065E+03  0.10389312567E+03 -0.42608904133E+03  0.55239081236E+03  0.25500000920E-02 0.  1.
       -2    1    3    3    0  502 -0.33584216065E+03 -0.10389312567E+03 -0.14525323522E+04  0.14944677891E+04  0.25500000920E-02 0. -1.
</event>
<event>
 5   0  0.1673727E-02  0.8080899E+03  0.7818609E-02  0.9548381E-01
       -2   -1    0    0    0  501  0.00000000000E+00  0.00000000000E+00  0.38080752813E+03  0.38080752814E+03  0.25500000920E-02 0. -1.
        2   -1    0    0  501    0  0.00000000000E+00  0.00000000000E+00 -0.42870034185E+03  0.42870034186E+03  0.25500000920E-02 0.  1.
    10030    2    1    2    0    0  0.00000000000E+00  0.00000000000E+00 -0.47892813724E+02  0.80950787000E+03  0.80808988979E+03 0.  0.
        5    1    3    3  502    0  0.25878295966E+03 -0.45615962728E+02  0.28348099122E+03  0.38656564597E+03  0.46999998093E+01 0. -1.
       -5    1    3    3    0  502 -0.25878295966E+03  0.45615962728E+02 -0.33137380494E+03  0.42294222403E+03  0.46999998093E+01 0.  1.
</event>
<event>
 5   0  0.6872500E-03  0.7968893E+03  0.7818609E-02  0.9564531E-01
       -4   -1    0    0    0  501  0.00000000000E+00  0.00000000000E+00  0.34727667154E+03  0.34727899374E+03  0.12699999809E+01 0. -1.
        4   -1    0    0  501    0  0.00000000000E+00  0.00000000000E+00 -0.45714697278E+03  0.45714873687E+03  0.12699999809E+01 0.  1.
    10030    2    1    2    0    0  0.00000000000E+00  0.00000000000E+00 -0.10987030124E+03  0.80442773062E+03  0.79688925874E+03 0.  0.
        2    1    3    3  502    0  0.12793202231E+03 -0.10315286755E+03 -0.42134406474E+03  0.45225870618E+03  0.25500000920E-02 0.  1.
       -2    1    3    3    0  502 -0.12793202231E+03  0.10315286755E+03  0.31147376350E+03  0.35216902444E+03  0.25500000920E-02 0. -1.
</event>
<event>
 5   0  0.1049780E-02  0.8135710E+03  0.7818609E-02  0.9540579E-01
       -1   -1    0    0    0  501  0.00000000000E+00  0.00000000000E+00  0.28995459384E+03  0.28995459388E+03  0.50400001928E-02 0.  1.
        1   -1    0    0  501    0  0.00000000000E+00  0.00000000000E+00 -0.57069095225E+03  0.57069095227E+03  0.50400001928E-02 0. -1.
    10030    2    1    2    0    0  0.00000000000E+00  0.00000000000E+00 -0.28073635841E+03  0.86064554615E+03  0.81357104986E+03 0.  0.
        5    1    3    3  502    0  0.28673748590E+03  0.26753106148E+03 -0.26133242371E+02  0.39306016211E+03  0.46999998093E+01 0.  1.
       -5    1    3    3    0  502 -0.28673748590E+03 -0.26753106148E+03 -0.25460311604E+03  0.46758538405E+03  0.46999998093E+01 0. -1.
</event>
<event>
 5   0  0.1817089E-02  0.8031327E+03  0.7818609E-02  0.9555494E-01
        2   -1    0    0  501    0  0.00000000000E+00  0.00000000000E+00  0.98216326564E+03  0.98216326564E+03  0.25500000920E-02 0. -1.
       -2   -1    0    0    0  501  0.00000000000E+00  0.00000000000E+00 -0.16418402149E+03  0.16418402151E+03  0.25500000920E-02 0.  1.
    10030    2    1    2    0    0  0.00000000000E+00  0.00000000000E+00  0.81797924415E+03  0.11463472872E+04  0.80313265337E+03 0.  0.
        2    1    3    3  502    0  0.26158887101E+03  0.42341425904E+02 -0.21666565489E+02  0.26587774230E+03  0.25500000920E-02 0.  1.
       -2    1    3    3    0  502 -0.26158887101E+03 -0.42341425904E+02  0.83964580963E+03  0.88046954486E+03  0.25500000920E-02 0. -1.
</event>
<event>
 5   0  0.1146083E-02  0.7947763E+03  0.7818609E-02  0.9567609E-01
       -1   -1    0    0    0  501  0.00000000000E+00  0.00000000000E+00  0.12772145318E+03  0.12772145328E+03  0.50400001928E-02 0.  1.
        1   -1    0    0  501    0  0.00000000000E+00  0.00000000000E+00 -0.12364198413E+04  0.12364198414E+04  0.50400001928E-02 0. -1.
    10030    2    1    2    0    0  0.00000000000E+00  0.00000000000E+00 -0.11086983882E+04  0.13641412946E+04  0.79477629294E+03 0.  0.
        4    1    3    3  502    0  0.95375173094E+02 -0.18369368694E+03  0.27897058069E+02  0.20885318531E+03  0.12699999809E+01 0.  1.
       -4    1    3    3    0  502 -0.95375173094E+02  0.18369368694E+03 -0.11365954462E+04  0.11552881093E+04  0.12699999809E+01 0. -1.
</event>
<event>
 5   0  0.1818665E-02  0.7992241E+03  0.7818609E-02  0.9561141E-01
        2   -1    0    0  501    0  0.00000000000E+00  0.00000000000E+00  0.48318294365E+03  0.48318294366E+03  0.25500000920E-02 0.  1.
       -2   -1    0    0    0  501  0.00000000000E+00  0.00000000000E+00 -0.33049552177E+03  0.33049552178E+03  0.25500000920E-02 0. -1.
    10030    2    1    2    0    0  0.00000000000E+00  0.00000000000E+00  0.15268742189E+03  0.81367846544E+03  0.79922412146E+03 0.  0.
        3    1    3    3  502    0 -0.26116790173E+03  0.25987488136E+03  0.23388783057E+03  0.43640251414E+03  0.10100000352E+00 0.  1.
       -3    1    3    3    0  502  0.26116790173E+03 -0.25987488136E+03 -0.81200408686E+02  0.37727595130E+03  0.10100000352E+00 0. -1.
</event>
<event>
 5   0  0.6872500E-03  0.8044913E+03  0.7818609E-02  0.9553539E-01
       -4   -1    0    0    0  501  0.00000000000E+00  0.00000000000E+00  0.44041124535E+03  0.44041307647E+03  0.12699999809E+01 0. -1.
        4   -1    0    0  501    0  0.00000000000E+00  0.00000000000E+00 -0.36738375766E+03  0.36738595277E+03  0.12699999809E+01 0.  1.
    10030    2    1    2    0    0  0.00000000000E+00  0.00000000000E+00  0.73027487684E+02  0.80779902924E+03  0.80449130368E+03 0.  0.
        4    1    3    3  502    0 -0.25470557303E+03 -0.22655682524E+02 -0.27526531338E+03  0.37571374014E+03  0.12699999809E+01 0.  1.
       -4    1    3    3    0  502  0.25470557303E+03  0.22655682524E+02  0.34829280107E+03  0.43208528910E+03  0.12699999809E+01 0. -1.
</event>
<event>
 5   0  0.1817089E-02  0.8067792E+03  0.7818609E-02  0.9550256E-01
        2   -1    0    0  501    0  0.00000000000E+00  0.00000000000E+00  0.45874081882E+03  0.45874081882E+03  0.25500000920E-02 0. -1.
       -2   -1    0    0    0  501  0.00000000000E+00  0.00000000000E+00 -0.35471696440E+03  0.35471696441E+03  0.25500000920E-02 0.  1.
    10030    2    1    2    0    0  0.00000000000E+00  0.00000000000E+00  0.10402385441E+03  0.81345778324E+03  0.80677915368E+03 0.  0.
        2    1    3    3  502    0 -0.34015441057E+03 -0.14746833681E+03 -0.10827327597E+03  0.38623184188E+03  0.25500000920E-02 0.  1.
       -2    1    3    3    0  502  0.34015441057E+03  0.14746833681E+03  0.21229713038E+03  0.42722594135E+03  0.25500000920E-02 0. -1.
</event>
<event>
 5   0  0.1030323E-02  0.7933719E+03  0.7818609E-02  0.9569661E-01
        1   -1    0    0  501    0  0.00000000000E+00  0.00000000000E+00  0.57010019688E+03  0.57010019691E+03  0.50400001928E-02 0.  1.
       -1   -1    0    0    0  501  0.00000000000E+00  0.00000000000E+00 -0.27602117456E+03  0.27602117460E+03  0.50400001928E-02 0. -1.
    10030    2    1    2    0    0  0.00000000000E+00  0.00000000000E+00  0.29407902233E+03  0.84612137151E+03  0.79337185730E+03 0.  0.
        3    1    3    3  502    0  0.98984152818E+02  0.23431629509E+03 -0.17759650122E+03  0.31022977952E+03  0.10100000352E+00 0. -1.
       -3    1    3    3    0  502 -0.98984152818E+02 -0.23431629509E+03  0.47167552355E+03  0.53589159199E+03  0.10100000352E+00 0.  1.
</event>
<event>
 5   0  0.1817089E-02  0.7114947E+03  0.7818609E-02  0.9697774E-01
       -2   -1    0    0    0  501  0.00000000000E+00  0.00000000000E+00  0.97486348288E+02  0.97486348322E+02  0.25500000920E-02 0. -1.
        2   -1    0    0  501    0  0.00000000000E+00  0.00000000000E+00 -0.12981939892E+04  0.12981939892E+04  0.25500000920E-02 0.  1.
    10030    2    1    2    0    0  0.00000000000E+00  0.00000000000E+00 -0.12007076410E+04  0.13956803376E+04  0.71149474040E+03 0.  0.
        2    1    3    3  502    0 -0.44637852959E+02  0.63662222087E+02  0.80614966264E+02  0.11200084477E+03  0.25500000920E-02 0. -1.
       -2    1    3    3    0  502  0.44637852959E+02 -0.63662222087E+02 -0.12813226072E+04  0.12836794928E+04  0.25500000920E-02 0.  1.
</event>
<event>
 5   0  0.1049780E-02  0.8012253E+03  0.7818609E-02  0.9558245E-01
        1   -1    0    0  501    0  0.00000000000E+00  0.00000000000E+00  0.56914737588E+03  0.56914737590E+03  0.50400001928E-02 0.  1.
       -1   -1    0    0    0  501  0.00000000000E+00  0.00000000000E+00 -0.28198408873E+03  0.28198408877E+03  0.50400001928E-02 0. -1.
    10030    2    1    2    0    0  0.00000000000E+00  0.00000000000E+00  0.28716328715E+03  0.85113146467E+03  0.80122532203E+03 0.  0.
        5    1    3    3  502    0  0.15426189718E+03 -0.32274864430E+03  0.33510291829E+03  0.49018310473E+03  0.46999998093E+01 0. -1.
       -5    1    3    3    0  502 -0.15426189718E+03  0.32274864430E+03 -0.47939631135E+02  0.36094835995E+03  0.46999998093E+01 0.  1.
</event>
<event>
 5   0  0.1146083E-02  0.8149521E+03  0.7818609E-02  0.9538623E-01
        1   -1    0    0  501    0  0.00000000000E+00  0.00000000000E+00  0.61732409165E+03  0.61732409167E+03  0.50400001928E-02 0.  1.
       -1   -1    0    0    0  501  0.00000000000E+00  0.00000000000E+00 -0.26896198478E+03  0.26896198482E+03  0.50400001928E-02 0. -1.
    10030    2    1    2    0    0  0.00000000000E+00  0.00000000000E+00  0.34836210687E+03  0.88628607649E+03  0.81495205496E+03 0.  0.
        4    1    3    3  502    0 -0.37744644375E+03  0.53872206561E+02  0.33052508140E+03  0.50459535756E+03  0.12699999809E+01 0.  1.
       -4    1    3    3    0  502  0.37744644375E+03 -0.53872206561E+02  0.17837025469E+02  0.38169071893E+03  0.12699999809E+01 0. -1.
</event>
<event>
 5   0  0.1818665E-02  0.7969802E+03  0.7818609E-02  0.9564398E-01
       -2   -1    0    0    0  501  0.00000000000E+00  0.00000000000E+00  0.17312443701E+03  0.17312443703E+03  0.25500000920E-02 0.  1.
        2   -1    0    0  501    0  0.00000000000E+00  0.00000000000E+00 -0.91722670181E+03  0.91722670181E+03  0.25500000920E-02 0. -1.
    10030    2    1    2    0    0  0.00000000000E+00  0.00000000000E+00 -0.74410226480E+03  0.10903511388E+04  0.79698019141E+03 0.  0.
        3    1    3    3  502    0  0.14110351660E+03 -0.37246071623E+03 -0.38920207484E+03  0.55688010630E+03  0.10100000352E+00 0. -1.
       -3    1    3    3    0  502 -0.14110351660E+03  0.37246071623E+03 -0.35490018996E+03  0.53347103254E+03  0.10100000352E+00 0.  1.
</event>
<event>
 5   0  0.1030323E-02  0.8035477E+03  0.7818609E-02  0.9554896E-01
       -1   -1    0    0    0  501  0.00000000000E+00  0.00000000000E+00  0.58402857120E+03  0.58402857122E+03  0.50400001928E-02 0.  1.
        1   -1    0    0  501    0  0.00000000000E+00  0.00000000000E+00 -0.27639438693E+03  0.27639438698E+03  0.50400001928E-02 0. -1.
    10030    2    1    2    0    0  0.00000000000E+00  0.00000000000E+00  0.30763418427E+03  0.86042295820E+03  0.80354768101E+03 0.  0.
        3    1    3    3  502    0  0.14475573040E+02  0.17854908923E+03 -0.23126633444E+03  0.29252939533E+03  0.10100000352E+00 0. -1.
       -3    1    3    3    0  502 -0.14475573040E+02 -0.17854908923E+03  0.53890051871E+03  0.56789356287E+03  0.10100000352E+00 0.  1.
</event>
<event>
 5   0  0.1038912E-02  0.7941009E+03  0.7818609E-02  0.9568595E-01
       -1   -1    0    0    0  501  0.00000000000E+00  0.00000000000E+00  0.10129416345E+03  0.10129416357E+03  0.50400001928E-02 0.  1.
        1   -1    0    0  501    0  0.00000000000E+00  0.00000000000E+00 -0.15563487737E+04  0.15563487738E+04  0.50400001928E-02 0. -1.
    10030    2    1    2    0    0  0.00000000000E+00  0.00000000000E+00 -0.14550546103E+04  0.16576429373E+04  0.79410086809E+03 0.  0.
        2    1    3    3  502    0  0.34657192897E+03  0.15859914305E+03 -0.95981850689E+03  0.10327232719E+04  0.25500000920E-02 0.  1.
       -2    1    3    3    0  502 -0.34657192897E+03 -0.15859914305E+03 -0.49523610341E+03  0.62491966543E+03  0.25500000920E-02 0. -1.
</event>
<event>
 5   0  0.1038912E-02  0.8088583E+03  0.7818609E-02  0.9547283E-01
        1   -1    0    0  501    0  0.00000000000E+00  0.00000000000E+00  0.14403424549E+04  0.14403424549E+04  0.50400001928E-02 0. -1.
       -1   -1    0    0    0  501  0.00000000000E+00  0.00000000000E+00 -0.11355836416E+03  0.11355836427E+03  0.50400001928E-02 0.  1.
    10030    2    1    2    0    0  0.00000000000E+00  0.00000000000E+00  0.13267840907E+04  0.15539008191E+04  0.80885828944E+03 0.  0.
        2    1    3    3  502    0  0.18851336306E+03 -0.11668657052E+02  0.13504103026E+04  0.13635547041E+04  0.25500000920E-02 0. -1.
       -2    1    3    3    0  502 -0.18851336306E+03  0.11668657052E+02 -0.23626211944E+02  0.19034611503E+03  0.25500000920E-02 0.  1.
</event>
<event>
 5   0  0.1731337E-02  0.8042876E+03  0.7818609E-02  0.9553832E-01
       -2   -1    0    0    0  501  0.00000000000E+00  0.00000000000E+00  0.39718849504E+03  0.39718849505E+03  0.25500000920E-02 0. -1.
        2   -1    0    0  501    0  0.00000000000E+00  0.00000000000E+00 -0.40716088544E+03  0.40716088545E+03  0.25500000920E-02 0.  1.
    10030    2    1    2    0    0  0.00000000000E+00  0.00000000000E+00 -0.99723904065E+01  0.80434938050E+03  0.80428755886E+03 0.  0.
        4    1    3    3  502    0 -0.28290081510E+03  0.10700908722E+03  0.26005151539E+03  0.39888873071E+03  0.12699999809E+01 0.  1.
       -4    1    3    3    0  502  0.28290081510E+03 -0.10700908722E+03 -0.27002390579E+03  0.40546064979E+03  0.12699999809E+01 0. -1.
</event>
<event>
 5   0  0.1146083E-02  0.7885423E+03  0.7818609E-02  0.9576751E-01
        1   -1    0    0  501    0  0.00000000000E+00  0.00000000000E+00  0.64166571055E+03  0.64166571057E+03  0.50400001928E-02 0. -1.
       -1   -1    0    0    0  501  0.00000000000E+00  0.00000000000E+00 -0.24225969706E+03  0.24225969711E+03  0.50400001928E-02 0.  1.
    10030    2    1    2    0    0  0.00000000000E+00  0.00000000000E+00  0.39940601349E+03  0.88392540768E+03  0.78854230244E+03 0.  0.
        4    1    3    3  502    0  0.11768806133E+03  0.26936870328E+03  0.49423684197E+03  0.57504925610E+03  0.12699999809E+01 0.  1.
       -4    1    3    3    0  502 -0.11768806133E+03 -0.26936870328E+03 -0.94830828480E+02  0.30887615158E+03  0.12699999809E+01 0. -1.
</event>
<event>
 5   0  0.1025900E-02  0.7108318E+03  0.7818609E-02  0.9698886E-01
        1   -1    0    0  501    0  0.00000000000E+00  0.00000000000E+00  0.35897313293E+03  0.35897313297E+03  0.50400001928E-02 0. -1.
       -1   -1    0    0    0  501  0.00000000000E+00  0.00000000000E+00 -0.35189393468E+03  0.35189393472E+03  0.50400001928E-02 0.  1.
    10030    2    1    2    0    0  0.00000000000E+00  0.00000000000E+00  0.70791982503E+01  0.71086706769E+03  0.71083181757E+03 0.  0.
        1    1    3    3  502    0  0.23520278103E+03 -0.25980781684E+03  0.62703485394E+02  0.35602271978E+03  0.50400001928E-02 0.  1.
       -1    1    3    3    0  502 -0.23520278103E+03  0.25980781684E+03 -0.55624287144E+02  0.35484434791E+03  0.50400001928E-02 0. -1.
</event>
<event>
 5   0  0.1673727E-02  0.7996609E+03  0.7818609E-02  0.9560508E-01
        2   -1    0    0  501    0  0.00000000000E+00  0.00000000000E+00  0.17451445780E+04  0.17451445780E+04  0.25500000920E-02 0.  1.
       -2   -1    0    0    0  501  0.00000000000E+00  0.00000000000E+00 -0.91605239680E+02  0.91605239715E+02  0.25500000920E-02 0. -1.
    10030    2    1    2    0    0  0.00000000000E+00  0.00000000000E+00  0.16535393383E+04  0.18367498177E+04  0.79966089657E+03 0.  0.
        5    1    3    3  502    0 -0.16164410614E+02 -0.31668967800E+03  0.13860505234E+04  0.14218691163E+04  0.46999998093E+01 0.  1.
       -5    1    3    3    0  502  0.16164410614E+02  0.31668967800E+03  0.26748881484E+03  0.41488070139E+03  0.46999998093E+01 0. -1.
</event>
<event>
 5   0  0.1747544E-02  0.7948053E+03  0.7818609E-02  0.9567567E-01
       -2   -1    0    0    0  501  0.00000000000E+00  0.00000000000E+00  0.11256938838E+03  0.11256938841E+03  0.25500000920E-02 0.  1.
        2   -1    0    0  501    0  0.00000000000E+00  0.00000000000E+00 -0.14029468059E+04  0.14029468059E+04  0.25500000920E-02 0. -1.
    10030    2    1    2    0    0  0.00000000000E+00  0.00000000000E+00 -0.12903774175E+04  0.15155161943E+04  0.79480529412E+03 0.  0.
        1    1    3    3  502    0 -0.33716235570E+03 -0.75219796016E+02 -0.27060345269E+03  0.43881966734E+03  0.50400001928E-02 0.  1.
       -1    1    3    3    0  502  0.33716235570E+03  0.75219796016E+02 -0.10197739648E+04  0.10766965269E+04  0.50400001928E-02 0. -1.
</event>
<event>
 5   0  0.1747544E-02  0.7948076E+03  0.7818609E-02  0.9567563E-01
       -2   -1    0    0    0  501  0.00000000000E+00  0.00000000000E+00  0.94046295399E+02  0.94046295434E+02  0.25500000920E-02 0. -1.
        2   -1    0    0  501    0  0.00000000000E+00  0.00000000000E+00 -0.16792769487E+04  0.16792769487E+04  0.25500000920E-02 0.  1.
    10030    2    1    2    0    0  0.00000000000E+00  0.00000000000E+00 -0.15852306533E+04  0.17733232441E+04  0.79480758930E+03 0.  0.
        1    1    3    3  502    0  0.23344183635E+03 -0.15993446590E+03 -0.14151606476E+04  0.14431748968E+04  0.50400001928E-02 0.  1.
       -1    1    3    3    0  502 -0.23344183635E+03  0.15993446590E+03 -0.17007000566E+03  0.33014834725E+03  0.50400001928E-02 0. -1.
</event>
<event>
 5   0  0.1030323E-02  0.7959898E+03  0.7818609E-02  0.9565840E-01
        1   -1    0    0  501    0  0.00000000000E+00  0.00000000000E+00  0.16479719497E+03  0.16479719505E+03  0.50400001928E-02 0. -1.
       -1   -1    0    0    0  501  0.00000000000E+00  0.00000000000E+00 -0.96118106353E+03  0.96118106355E+03  0.50400001928E-02 0.  1.
    10030    2    1    2    0    0  0.00000000000E+00  0.00000000000E+00 -0.79638386856E+03  0.11259782586E+04  0.79598980692E+03 0.  0.
        3    1    3    3  502    0  0.21571292291E+03 -0.20686496873E+03 -0.26415234907E+02  0.30003825628E+03  0.10100000352E+00 0. -1.
       -3    1    3    3    0  502 -0.21571292291E+03  0.20686496873E+03 -0.76996863366E+03  0.82594000231E+03  0.10100000352E+00 0.  1.
</event>
<event>
 5   0  0.1673727E-02  0.8045357E+03  0.7818609E-02  0.9553475E-01
        2   -1    0    0  501    0  0.00000000000E+00  0.00000000000E+00  0.42840275672E+03  0.42840275672E+03  0.25500000920E-02 0.  1.
       -2   -1    0    0    0  501  0.00000000000E+00  0.00000000000E+00 -0.37772734722E+03  0.37772734723E+03  0.25500000920E-02 0. -1.
    10030    2    1    2    0    0  0.00000000000E+00  0.00000000000E+00  0.50675409497E+02  0.80613010395E+03  0.80453573406E+03 0.  0.
        5    1    3    3  502    0  0.12914799485E+03 -0.23956364949E+03  0.32211278472E+03  0.42172109600E+03  0.46999998093E+01 0.  1.
       -5    1    3    3    0  502 -0.12914799485E+03  0.23956364949E+03 -0.27143737522E+03  0.38440900796E+03  0.46999998093E+01 0. -1.
</event>
<event>
 5   0  0.1817089E-02  0.8011469E+03  0.7818609E-02  0.9558359E-01
        2   -1    0    0  501    0  0.00000000000E+00  0.00000000000E+00  0.32586455912E+03  0.32586455913E+03  0.25500000920E-02 0. -1.
       -2   -1    0    0    0  501  0.00000000000E+00  0.00000000000E+00 -0.49241034173E+03  0.49241034174E+03  0.25500000920E-02 0.  1.
    10030    2    1    2    0    0  0.00000000000E+00  0.00000000000E+00 -0.16654578261E+03  0.81827490087E+03  0.80114687522E+03 0.  0.
        2    1    3    3  502    0  0.32104744236E+03  0.15852717643E+03 -0.26671431462E+03  0.44647379715E+03  0.25500000920E-02 0. -1.
       -2    1    3    3    0  502 -0.32104744236E+03 -0.15852717643E+03  0.10016853201E+03  0.37180110371E+03  0.25500000920E-02 0.  1.
</event>
<event>
 5   0  0.1049780E-02  0.8019806E+03  0.7818609E-02  0.9557155E-01
       -1   -1    0    0    0  501  0.00000000000E+00  0.00000000000E+00  0.52075961229E+02  0.52075961473E+02  0.50400001928E-02 0. -1.
        1   -1    0    0  501    0  0.00000000000E+00  0.00000000000E+00 -0.30876668887E+04  0.30876668887E+04  0.50400001928E-02 0.  1.
    10030    2    1    2    0    0  0.00000000000E+00  0.00000000000E+00 -0.30355909274E+04  0.31397428501E+04  0.80198060219E+03 0.  0.
        5    1    3    3  502    0 -0.76396797397E+02 -0.35128037939E+03 -0.22130418257E+04  0.22420549921E+04  0.46999998093E+01 0.  1.
       -5    1    3    3    0  502  0.76396797397E+02  0.35128037939E+03 -0.82254910177E+03  0.89768785801E+03  0.46999998093E+01 0. -1.
</event>
<event>
 5   0  0.1747544E-02  0.7992161E+03  0.7818609E-02  0.9561152E-01
       -2   -1    0    0    0  501  0.00000000000E+00  0.00000000000E+00  0.23136807196E+03  0.23136807197E+03  0.25500000920E-02 0.  1.
        2   -1    0    0  501    0  0.00000000000E+00  0.00000000000E+00 -0.69018426752E+03  0.69018426752E+03  0.25500000920E-02 0. -1.
    10030    2    1    2    0    0  0.00000000000E+00  0.00000000000E+00 -0.45881619556E+03  0.92155233950E+03  0.79921612417E+03 0.  0.
        1    1    3    3  502    0 -0.21866263097E+03  0.68692509485E+02 -0.60685961102E+03  0.64869915566E+03  0.50400001928E-02 0. -1.
       -1    1    3    3    0  502  0.21866263097E+03 -0.68692509485E+02  0.14804341546E+03  0.27285318384E+03  0.50400001928E-02 0.  1.
</event>
<event>
 5   0  0.1731337E-02  0.8063737E+03  0.7818609E-02  0.9550837E-01
       -2   -1    0    0    0  501  0.00000000000E+00  0.00000000000E+00  0.15290492791E+03  0.15290492793E+03  0.25500000920E-02 0.  1.
        2   -1    0    0  501    0  0.00000000000E+00  0.00000000000E+00 -0.10631419996E+04  0.10631419996E+04  0.25500000920E-02 0. -1.
    10030    2    1    2    0    0  0.00000000000E+00  0.00000000000E+00 -0.91023707171E+03  0.12160469276E+04  0.80637373674E+03 0.  0.
        4    1    3    3  502    0 -0.29488376752E+03 -0.18723271227E+03 -0.15146009326E+03  0.38072864042E+03  0.12699999809E+01 0.  1.
       -4    1    3    3    0  502  0.29488376752E+03  0.18723271227E+03 -0.75877697845E+03  0.83531828713E+03  0.12699999809E+01 0. -1.
</event>
<event>
 5   0  0.1747544E-02  0.6688269E+03  0.7818609E-02  0.9772079E-01
        2   -1    0    0  501    0  0.00000000000E+00  0.00000000000E+00  0.27109676390E+03  0.27109676391E+03  0.25500000920E-02 0. -1.
       -2   -1    0    0    0  501  0.00000000000E+00  0.00000000000E+00 -0.41251826689E+03  0.41251826690E+03  0.25500000920E-02 0.  1.
    10030    2    1    2    0    0  0.00000000000E+00  0.00000000000E+00 -0.14142150299E+03  0.68361503080E+03  0.66882693489E+03 0.  0.
        1    1    3    3  502    0  0.31933280778E+02 -0.33725611326E+02 -0.40920562639E+03  0.41183297097E+03  0.50400001928E-02 0.  1.
       -1    1    3    3    0  502 -0.31933280778E+02  0.33725611326E+02  0.26778412340E+03  0.27178205984E+03  0.50400001928E-02 0. -1.
</event>
<event>
 5   0  0.1817089E-02  0.8025502E+03  0.7818609E-02  0.9556333E-01
        2   -1    0    0  501    0  0.00000000000E+00  0.00000000000E+00  0.28434149566E+03  0.28434149567E+03  0.25500000920E-02 0. -1.
       -2   -1    0    0    0  501  0.00000000000E+00  0.00000000000E+00 -0.56629684514E+03  0.56629684515E+03  0.25500000920E-02 0.  1.
    10030    2    1    2    0    0  0.00000000000E+00  0.00000000000E+00 -0.28195534948E+03  0.85063834082E+03  0.80255016527E+03 0.  0.
        2    1    3    3  502    0 -0.26732724777E+03 -0.24272892644E+03  0.44555129638E+02  0.36382186399E+03  0.25500000920E-02 0. -1.
       -2    1    3    3    0  502  0.26732724777E+03  0.24272892644E+03 -0.32651047912E+03  0.48681647683E+03  0.25500000920E-02 0.  1.
</event>
<event>
 5   0  0.1038912E-02  0.8000104E+03  0.7818609E-02  0.9560002E-01
       -1   -1    0    0    0  501  0.00000000000E+00  0.00000000000E+00  0.27383926140E+03  0.27383926145E+03  0.50400001928E-02 0.  1.
        1   -1    0    0  501    0  0.00000000000E+00  0.00000000000E+00 -0.58429956323E+03  0.58429956325E+03  0.50400001928E-02 0. -1.
    10030    2    1    2    0    0  0.00000000000E+00  0.00000000000E+00 -0.31046030183E+03  0.85813882470E+03  0.80001040209E+03 0.  0.
        2    1    3    3  502    0 -0.34217472449E+03  0.19310498103E+03 -0.74737179160E+02  0.39994839884E+03  0.25500000920E-02 0.  1.
       -2    1    3    3    0  502  0.34217472449E+03 -0.19310498103E+03 -0.23572312267E+03  0.45819042586E+03  0.25500000920E-02 0. -1.
</event>
<event>
 5   0  0.1038912E-02  0.8285961E+03  0.7818609E-02  0.9519524E-01
       -1   -1    0    0    0  501  0.00000000000E+00  0.00000000000E+00  0.43144295001E+03  0.43144295004E+03  0.50400001928E-02 0. -1.
        1   -1    0    0  501    0  0.00000000000E+00  0.00000000000E+00 -0.39783442935E+03  0.39783442938E+03  0.50400001928E-02 0.  1.
    10030    2    1    2    0    0  0.00000000000E+00  0.00000000000E+00  0.33608520654E+02  0.82927737942E+03  0.82859606526E+03 0.  0.
        2    1    3    3  502    0  0.21416393492E+03  0.35779227264E+02  0.36993502182E+03  0.42895018884E+03  0.25500000920E-02 0. -1.
       -2    1    3    3    0  502 -0.21416393492E+03 -0.35779227264E+02 -0.33632650117E+03  0.40032719058E+03  0.25500000920E-02 0.  1.
</event>
<event>
 5   0  0.1747544E-02  0.7969889E+03  0.7818609E-02  0.9564386E-01
       -2   -1    0    0    0  501  0.00000000000E+00  0.00000000000E+00  0.18846103242E+03  0.18846103244E+03  0.25500000920E-02 0.  1.
        2   -1    0    0  501    0  0.00000000000E+00  0.00000000000E+00 -0.84260305109E+03  0.84260305109E+03  0.25500000920E-02 0. -1.
    10030    2    1    2    0    0  0.00000000000E+00  0.00000000000E+00 -0.65414201867E+03  0.10310640835E+04  0.79698893578E+03 0.  0.
        1    1    3    3  502    0 -0.15688238672E+03  0.47570999977E+02  0.14281577098E+03  0.21741993416E+03  0.50400001928E-02 0.  1.
       -1    1    3    3    0  502  0.15688238672E+03 -0.47570999977E+02 -0.79695778965E+03  0.81364414937E+03  0.50400001928E-02 0. -1.
</event>
<event>
 5   0  0.1025900E-02  0.7561340E+03  0.7818609E-02  0.9625776E-01
       -1   -1    0    0    0  501  0.00000000000E+00  0.00000000000E+00  0.39576146773E+03  0.39576146776E+03  0.50400001928E-02 0.  1.
        1   -1    0    0  501    0  0.00000000000E+00  0.00000000000E+00 -0.36116363020E+03  0.36116363023E+03  0.50400001928E-02 0. -1.
    10030    2    1    2    0    0  0.00000000000E+00  0.00000000000E+00  0.34597837533E+02  0.75692509800E+03  0.75613397862E+03 0.  0.
        1    1    3    3  502    0  0.82005257713E+02  0.24317208854E+03 -0.26061922133E+03  0.36575935461E+03  0.50400001928E-02 0. -1.
       -1    1    3    3    0  502 -0.82005257713E+02 -0.24317208854E+03  0.29521705886E+03  0.39116574339E+03  0.50400001928E-02 0.  1.
</event>
<event>
 5   0  0.1049780E-02  0.7976755E+03  0.7818609E-02  0.9563388E-01
        1   -1    0    0  501    0  0.00000000000E+00  0.00000000000E+00  0.62618885261E+03  0.62618885263E+03  0.50400001928E-02 0.  1.
       -1   -1    0    0    0  501  0.00000000000E+00  0.00000000000E+00 -0.25403125072E+03  0.25403125077E+03  0.50400001928E-02 0. -1.
    10030    2    1    2    0    0  0.00000000000E+00  0.00000000000E+00  0.37215760190E+03  0.88022010340E+03  0.79767546645E+03 0.  0.
        5    1    3    3  502    0 -0.31592802488E+03  0.19435400978E+03  0.24406715246E+02  0.37175499428E+03  0.46999998093E+01 0. -1.
       -5    1    3    3    0  502  0.31592802488E+03 -0.19435400978E+03  0.34775088665E+03  0.50846510912E+03  0.46999998093E+01 0.  1.
</event>
<event>
 5   0  0.1818665E-02  0.8077733E+03  0.7818609E-02  0.9548833E-01
       -2   -1    0    0    0  501  0.00000000000E+00  0.00000000000E+00  0.13660986825E+03  0.13660986827E+03  0.25500000920E-02 0.  1.
        2   -1    0    0  501    0  0.00000000000E+00  0.00000000000E+00 -0.11940895721E+04  0.11940895721E+04  0.25500000920E-02 0. -1.
    10030    2    1    2    0    0  0.00000000000E+00  0.00000000000E+00 -0.10574797039E+04  0.13306994404E+04  0.80777328289E+03 0.  0.
        3    1    3    3  502    0  0.20477083207E+03  0.32263543264E+03 -0.31332053495E+03  0.49416038275E+03  0.10100000352E+00 0. -1.
       -3    1    3    3    0  502 -0.20477083207E+03 -0.32263543264E+03 -0.74415916891E+03  0.83653905763E+03  0.10100000352E+00 0.  1.
</event>
<event>
 5   0  0.1146083E-02  0.7868047E+03  0.7818609E-02  0.9579316E-01
       -1   -1    0    0    0  501  0.00000000000E+00  0.00000000000E+00  0.37792616895E+03  0.37792616899E+03  0.50400001928E-02 0. -1.
        1   -1    0    0  501    0  0.00000000000E+00  0.00000000000E+00 -0.40951225160E+03  0.40951225163E+03  0.50400001928E-02 0.  1.
    10030    2    1    2    0    0  0.00000000000E+00  0.00000000000E+00 -0.31586082646E+02  0.78743842062E+03  0.78680466804E+03 0.  0.
        4    1    3    3  502    0  0.40213671250E+02  0.15888623028E+03  0.34212864947E+03  0.37936209512E+03  0.12699999809E+01 0. -1.
       -4    1    3    3    0  502 -0.40213671250E+02 -0.15888623028E+03 -0.37371473212E+03  0.40807632549E+03  0.12699999809E+01 0.  1.
</event>
<event>
 5   0  0.1817089E-02  0.7816047E+03  0.7818609E-02  0.9587032E-01
       -2   -1    0    0    0  501  0.00000000000E+00  0.00000000000E+00  0.37247198838E+03  0.37247198839E+03  0.25500000920E-02 0.  1.
        2   -1    0    0  501    0  0.00000000000E+00  0.00000000000E+00 -0.41003484127E+03  0.41003484128E+03  0.25500000920E-02 0. -1.
    10030    2    1    2    0    0  0.00000000000E+00  0.00000000000E+00 -0.37562852886E+02  0.78250682967E+03  0.78160474062E+03 0.  0.
        2    1    3    3  502    0 -0.14582855538E+03  0.17308315575E+03 -0.33774408922E+03  0.40656465190E+03  0.25500000920E-02 0. -1.
       -2    1    3    3    0  502  0.14582855538E+03 -0.17308315575E+03  0.30018123634E+03  0.37594217776E+03  0.25500000920E-02 0.  1.
</event>
<event>
 5   0  0.1146083E-02  0.7962886E+03  0.7818609E-02  0.9565405E-01
        1   -1    0    0  501    0  0.00000000000E+00  0.00000000000E+00  0.71771776827E+03  0.71771776829E+03  0.50400001928E-02 0.  1.
       -1   -1    0    0    0  501  0.00000000000E+00  0.00000000000E+00 -0.22086522801E+03  0.22086522807E+03  0.50400001928E-02 0. -1.
    10030    2    1    2    0    0  0.00000000000E+00  0.00000000000E+00  0.49685254027E+03  0.93858299636E+03  0.79628863755E+03 0.  0.
        4    1    3    3  502    0  0.23720184817E+03  0.15614739790E+03  0.57734515536E+03  0.64340948700E+03  0.12699999809E+01 0.  1.
       -4    1    3    3    0  502 -0.23720184817E+03 -0.15614739790E+03 -0.80492615090E+02  0.29517350936E+03  0.12699999809E+01 0. -1.
</event>
<event>
 5   0  0.1025900E-02  0.7960385E+03  0.7818609E-02  0.9565769E-01
        1   -1    0    0  501    0  0.00000000000E+00  0.00000000000E+00  0.56764673001E+03  0.56764673004E+03  0.50400001928E-02 0. -1.
       -1   -1    0    0    0  501  0.00000000000E+00  0.00000000000E+00 -0.27908082776E+03  0.27908082781E+03  0.50400001928E-02 0.  1.
    10030    2    1    2    0    0  0.00000000000E+00  0.00000000000E+00  0.28856590225E+03  0.84672755784E+03  0.79603848981E+03 0.  0.
        1    1    3    3  502    0 -0.19716234886E+03 -0.26524717276E+02 -0.22240446374E+03  0.29839620968E+03  0.50400001928E-02 0.  1.
       -1    1    3    3    0  502  0.19716234886E+03  0.26524717276E+02  0.51097036599E+03  0.54833134816E+03  0.50400001928E-02 0. -1.
</event>
<event>
 5   0  0.1673727E-02  0.7904481E+03  0.7818609E-02  0.9573947E-01
       -2   -1    0    0    0  501  0.00000000000E+00  0.00000000000E+00  0.21861956089E+03  0.21861956090E+03  0.25500000920E-02 0. -1.
        2   -1    0    0  501    0  0.00000000000E+00  0.00000000000E+00 -0.71449259328E+03  0.71449259329E+03  0.25500000920E-02 0.  1.
    10030    2    1    2    0    0  0.00000000000E+00  0.00000000000E+00 -0.49587303240E+03  0.93311215419E+03  0.79044811850E+03 0.  0.
        5    1    3    3  502    0  0.16276490976E+03  0.31554688398E+03 -0.45280327060E+03  0.57542605407E+03  0.46999998093E+01 0.  1.
       -5    1    3    3    0  502 -0.16276490976E+03 -0.31554688398E+03 -0.43069761792E+02  0.35768610012E+03  0.46999998093E+01 0. -1.
</event>
<event>
 5   0  0.1030323E-02  0.7967525E+03  0.7818609E-02  0.9564730E-01
       -1   -1    0    0    0  501  0.00000000000E+00  0.00000000000E+00  0.18341633447E+03  0.18341633454E+03  0.50400001928E-02 0.  1.
        1   -1    0    0  501    0  0.00000000000E+00  0.00000000000E+00 -0.86526448687E+03  0.86526448689E+03  0.50400001928E-02 0. -1.
    10030    2    1    2    0    0  0.00000000000E+00  0.00000000000E+00 -0.68184815240E+03  0.10486808214E+04  0.79675251007E+03 0.  0.
        3    1    3    3  502    0 -0.25896597046E+03 -0.27671525017E+03 -0.17935395626E+03  0.41928815314E+03  0.10100000352E+00 0.  1.
       -3    1    3    3    0  502  0.25896597046E+03  0.27671525017E+03 -0.50249419614E+03  0.62939266829E+03  0.10100000352E+00 0. -1.
</event>
<event>
 5   0  0.1030323E-02  0.7946652E+03  0.7818609E-02  0.9567771E-01
       -1   -1    0    0    0  501  0.00000000000E+00  0.00000000000E+00  0.20597041099E+03  0.20597041105E+03  0.50400001928E-02 0. -1.
        1   -1    0    0  501    0  0.00000000000E+00  0.00000000000E+00 -0.76648490926E+03  0.76648490927E+03  0.50400001928E-02 0.  1.
    10030    2    1    2    0    0  0.00000000000E+00  0.00000000000E+00 -0.56051449827E+03  0.97245532032E+03  0.79466524226E+03 0.  0.
        3    1    3    3  502    0 -0.14714010799E+03  0.21085946660E+02 -0.73117853741E+03  0.74613463416E+03  0.10100000352E+00 0.  1.
       -3    1    3    3    0  502  0.14714010799E+03 -0.21085946660E+02  0.17066403914E+03  0.22632068616E+03  0.10100000352E+00 0. -1.
</event>
<event>
 5   0  0.1817089E-02  0.8040653E+03  0.7818609E-02  0.9554151E-01
       -2   -1    0    0    0  501  0.00000000000E+00  0.00000000000E+00  0.41814911450E+03  0.41814911450E+03  0.25500000920E-02 0. -1.
        2   -1    0    0  501    0  0.00000000000E+00  0.00000000000E+00 -0.38653731383E+03  0.38653731384E+03  0.25500000920E-02 0.  1.
    10030    2    1    2    0    0  0.00000000000E+00  0.00000000000E+00  0.31611800664E+02  0.80468642835E+03  0.80406525980E+03 0.  0.
        2    1    3    3  502    0 -0.27550870674E+03  0.10441625027E+03  0.28955411538E+03  0.41309730881E+03  0.25500000920E-02 0. -1.
       -2    1    3    3    0  502  0.27550870674E+03 -0.10441625027E+03 -0.25794231471E+03  0.39158911953E+03  0.25500000920E-02 0.  1.
</event>
<event>
 5   0  0.1731337E-02  0.8154404E+03  0.7818609E-02  0.9537933E-01
       -2   -1    0    0    0  501  0.00000000000E+00  0.00000000000E+00  0.18621025457E+03  0.18621025459E+03  0.25500000920E-02 0.  1.
        2   -1    0    0  501    0  0.00000000000E+00  0.00000000000E+00 -0.89273159493E+03  0.89273159493E+03  0.25500000920E-02 0. -1.
    10030    2    1    2    0    0  0.00000000000E+00  0.00000000000E+00 -0.70652134035E+03  0.10789418495E+04  0.81544043943E+03 0.  0.
        4    1    3    3  502    0 -0.24739737522E+03 -0.31404519325E+02  0.73526247589E+02  0.25999889823E+03  0.12699999809E+01 0.  1.
       -4    1    3    3    0  502  0.24739737522E+03  0.31404519325E+02 -0.78004758794E+03  0.81894295128E+03  0.12699999809E+01 0. -1.
</event>
<event>
 5   0  0.1030323E-02  0.7925742E+03  0.7818609E-02  0.9570828E-01
       -1   -1    0    0    0  501  0.00000000000E+00  0.00000000000E+00  0.27581534680E+03  0.27581534685E+03  0.50400001928E-02 0.  1.
        1   -1    0    0  501    0  0.00000000000E+00  0.00000000000E+00 -0.56937898404E+03  0.56937898406E+03  0.50400001928E-02 0. -1.
    10030    2    1    2    0    0  0.00000000000E+00  0.00000000000E+00 -0.29356363724E+03  0.84519433091E+03  0.79257419078E+03 0.  0.
        3    1    3    3  502    0  0.98181709208E+02 -0.37150462504E+03 -0.43456702124E+02  0.38670897275E+03  0.10100000352E+00 0.  1.
       -3    1    3    3    0  502 -0.98181709208E+02  0.37150462504E+03 -0.25010693512E+03  0.45848535815E+03  0.10100000352E+00 0. -1.
</event>
<event>
 5   0  0.1817089E-02  0.7994633E+03  0.7818609E-02  0.9560794E-01
       -2   -1    0    0    0  501  0.00000000000E+00  0.00000000000E+00  0.49013808145E+03  0.49013808146E+03  0.25500000920E-02 0. -1.
        2   -1    0    0  501    0  0.00000000000E+00  0.00000000000E+00 -0.32600074635E+03  0.32600074636E+03  0.25500000920E-02 0.  1.
    10030    2    1    2    0    0  0.00000000000E+00  0.00000000000E+00  0.16413733511E+03  0.81613882782E+03  0.79946327089E+03 0.  0.
        2    1    3    3  502    0 -0.32935136015E+01  0.39959156248E+03  0.71803260490E+02  0.40600489192E+03  0.25500000920E-02 0.  1.
       -2    1    3    3    0  502  0.32935136015E+01 -0.39959156248E+03  0.92334074617E+02  0.41013393590E+03  0.25500000920E-02 0. -1.
</event>
<event>
 5   0  0.1731337E-02  0.7913811E+03  0.7818609E-02  0.9572577E-01
        2   -1    0    0  501    0  0.00000000000E+00  0.00000000000E+00  0.28618323137E+03  0.28618323139E+03  0.25500000920E-02 0. -1.
       -2   -1    0    0    0  501  0.00000000000E+00  0.00000000000E+00 -0.54710054979E+03  0.54710054979E+03  0.25500000920E-02 0.  1.
    10030    2    1    2    0    0  0.00000000000E+00  0.00000000000E+00 -0.26091731841E+03  0.83328378118E+03  0.79138107946E+03 0.  0.
        4    1    3    3  502    0 -0.37583459396E+02  0.18661866247E+01 -0.54521009904E+03  0.54650861299E+03  0.12699999809E+01 0.  1.
       -4    1    3    3    0  502  0.37583459396E+02 -0.18661866247E+01  0.28429278063E+03  0.28677516819E+03  0.12699999809E+01 0. -1.
</event>
<event>
 5   0  0.1818665E-02  0.8001596E+03  0.7818609E-02  0.9559786E-01
        2   -1    0    0  501    0  0.00000000000E+00  0.00000000000E+00  0.24247981329E+03  0.24247981330E+03  0.25500000920E-02 0. -1.
       -2   -1    0    0    0  501  0.00000000000E+00  0.00000000000E+00 -0.66011201649E+03  0.66011201649E+03  0.25500000920E-02 0.  1.
    10030    2    1    2    0    0  0.00000000000E+00  0.00000000000E+00 -0.41763220320E+03  0.90259182979E+03  0.80015958037E+03 0.  0.
        3    1    3    3  502    0  0.10092597071E+03 -0.37267617140E+02 -0.64348822199E+03  0.65242013220E+03  0.10100000352E+00 0.  1.
       -3    1    3    3    0  502 -0.10092597071E+03  0.37267617140E+02  0.22585601879E+03  0.25017169759E+03  0.10100000352E+00 0. -1.
</event>
<event>
 5   0  0.1030323E-02  0.7945433E+03  0.7818609E-02  0.9567949E-01
       -1   -1    0    0    0  501  0.00000000000E+00  0.00000000000E+00  0.19695103025E+03  0.19695103032E+03  0.50400001928E-02 0. -1.
        1   -1    0    0  501    0  0.00000000000E+00  0.00000000000E+00 -0.80134008022E+03  0.80134008024E+03  0.50400001928E-02 0.  1.
    10030    2    1    2    0    0  0.00000000000E+00  0.00000000000E+00 -0.60438904997E+03  0.99829111055E+03  0.79454327616E+03 0.  0.
        3    1    3    3  502    0 -0.39481958335E+03 -0.20715001851E+02 -0.25332054579E+03  0.46955609230E+03  0.10100000352E+00 0. -1.
       -3    1    3    3    0  502  0.39481958335E+03  0.20715001851E+02 -0.35106850418E+03  0.52873501825E+03  0.10100000352E+00 0.  1.
</event>
<event>
 5   0  0.1817089E-02  0.7911205E+03  0.7818609E-02  0.9572959E-01
       -2   -1    0    0    0  501  0.00000000000E+00  0.00000000000E+00  0.11908141159E+03  0.11908141162E+03  0.25500000920E-02 0.  1.
        2   -1    0    0  501    0  0.00000000000E+00  0.00000000000E+00 -0.13139575322E+04  0.13139575322E+04  0.25500000920E-02 0. -1.
    10030    2    1    2    0    0  0.00000000000E+00  0.00000000000E+00 -0.11948761206E+04  0.14330389439E+04  0.79112051606E+03 0.  0.
        2    1    3    3  502    0  0.27200248735E+03  0.16185057791E+03 -0.10271913633E+04  0.10748502498E+04  0.25500000920E-02 0. -1.
       -2    1    3    3    0  502 -0.27200248735E+03 -0.16185057791E+03 -0.16768475737E+03  0.35818869406E+03  0.25500000920E-02 0.  1.
</event>
<event>
 5   0  0.1049780E-02  0.7909226E+03  0.7818609E-02  0.9573250E-01
       -1   -1    0    0    0  501  0.00000000000E+00  0.00000000000E+00  0.12308491574E+04  0.12308491574E+04  0.50400001928E-02 0.  1.
        1   -1    0    0  501    0  0.00000000000E+00  0.00000000000E+00 -0.12705834462E+03  0.12705834472E+03  0.50400001928E-02 0. -1.
    10030    2    1    2    0    0  0.00000000000E+00  0.00000000000E+00  0.11037908127E+04  0.13579075021E+04  0.79092264220E+03 0.  0.
        5    1    3    3  502    0  0.63692462094E+02  0.32488693545E+03  0.92314864736E+03  0.98073124029E+03  0.46999998093E+01 0.  1.
       -5    1    3    3    0  502 -0.63692462094E+02 -0.32488693545E+03  0.18064216536E+03  0.37717626179E+03  0.46999998093E+01 0. -1.
</event>
<event>
 5   0  0.1146083E-02  0.7963104E+03  0.7818609E-02  0.9565373E-01
        1   -1    0    0  501    0  0.00000000000E+00  0.00000000000E+00  0.11190529685E+04  0.11190529685E+04  0.50400001928E-02 0.  1.
       -1   -1    0    0    0  501  0.00000000000E+00  0.00000000000E+00 -0.14166224460E+03  0.14166224469E+03  0.50400001928E-02 0. -1.
    10030    2    1    2    0    0  0.00000000000E+00  0.00000000000E+00  0.97739072387E+03  0.12607152132E+04  0.79631038021E+03 0.  0.
        4    1    3    3  502    0  0.21098599177E+03  0.29031573611E+03  0.76166524850E+03  0.84198211325E+03  0.12699999809E+01 0.  1.
       -4    1    3    3    0  502 -0.21098599177E+03 -0.29031573611E+03  0.21572547537E+03  0.41873309993E+03  0.12699999809E+01 0. -1.
</event>
<event>
 5   0  0.1817089E-02  0.7477635E+03  0.7818609E-02  0.9638866E-01
       -2   -1    0    0    0  501  0.00000000000E+00  0.00000000000E+00  0.15595073955E+03  0.15595073957E+03  0.25500000920E-02 0. -1.
        2   -1    0    0  501    0  0.00000000000E+00  0.00000000000E+00 -0.89635720656E+03  0.89635720656E+03  0.25500000920E-02 0.  1.
    10030    2    1    2    0    0  0.00000000000E+00  0.00000000000E+00 -0.74040646701E+03  0.10523079461E+04  0.74776351682E+03 0.  0.
        2    1    3    3  502    0 -0.14153178558E+03  0.10649159776E+03 -0.83357011747E+03  0.85218005578E+03  0.25500000920E-02 0.  1.
       -2    1    3    3    0  502  0.14153178558E+03 -0.10649159776E+03  0.93163650458E+02  0.20012789035E+03  0.25500000920E-02 0. -1.
</event>
<event>
 5   0  0.1049780E-02  0.7769996E+03  0.7818609E-02  0.9593919E-01
        1   -1    0    0  501    0  0.00000000000E+00  0.00000000000E+00  0.11136708692E+04  0.11136708692E+04  0.50400001928E-02 0.  1.
       -1   -1    0    0    0  501  0.00000000000E+00  0.00000000000E+00 -0.13552667591E+03  0.13552667600E+03  0.50400001928E-02 0. -1.
    10030    2    1    2    0    0  0.00000000000E+00  0.00000000000E+00  0.97814419331E+03  0.12491975452E+04  0.77699964228E+03 0.  0.
        5    1    3    3  502    0 -0.96551000907E+02 -0.53181069724E+02 -0.10981089320E+03  0.15566259736E+03  0.46999998093E+01 0. -1.
       -5    1    3    3    0  502  0.96551000907E+02  0.53181069724E+02  0.10879550865E+04  0.10935349479E+04  0.46999998093E+01 0.  1.
</event>
<event>
 5   0  0.1030323E-02  0.8030101E+03  0.7818609E-02  0.9555670E-01
       -1   -1    0    0    0  501  0.00000000000E+00  0.00000000000E+00  0.86268385906E+02  0.86268386054E+02  0.50400001928E-02 0. -1.
        1   -1    0    0  501    0  0.00000000000E+00  0.00000000000E+00 -0.18686604716E+04  0.18686604716E+04  0.50400001928E-02 0.  1.
    10030    2    1    2    0    0  0.00000000000E+00  0.00000000000E+00 -0.17823920857E+04  0.19549288577E+04  0.80301014401E+03 0.  0.
        3    1    3    3  502    0  0.19525310668E+03  0.27309298323E+03 -0.35503759918E+03  0.48862588981E+03  0.10100000352E+00 0.  1.
       -3    1    3    3    0  502 -0.19525310668E+03 -0.27309298323E+03 -0.14273544865E+04  0.14663029679E+04  0.10100000352E+00 0. -1.
</event>
<event>
 5   0  0.1030323E-02  0.7855513E+03  0.7818609E-02  0.9581170E-01
        1   -1    0    0  501    0  0.00000000000E+00  0.00000000000E+00  0.24738497198E+03  0.24738497203E+03  0.50400001928E-02 0. -1.
       -1   -1    0    0    0  501  0.00000000000E+00  0.00000000000E+00 -0.62361386690E+03  0.62361386692E+03  0.50400001928E-02 0.  1.
    10030    2    1    2    0    0  0.00000000000E+00  0.00000000000E+00 -0.37622889492E+03  0.87099883895E+03  0.78555126890E+03 0.  0.
        3    1    3    3  502    0  0.33523336703E+03  0.16180218038E+03 -0.49135327737E+02  0.37546723769E+03  0.10100000352E+00 0. -1.
       -3    1    3    3    0  502 -0.33523336703E+03 -0.16180218038E+03 -0.32709356719E+03  0.49553160126E+03  0.10100000352E+00 0.  1.
</event>
<event>
 5   0  0.1038912E-02  0.6647190E+03  0.7818609E-02  0.9779545E-01
       -1   -1    0    0    0  501  0.00000000000E+00  0.00000000000E+00  0.28806529369E+03  0.28806529374E+03  0.50400001928E-02 0. -1.
        1   -1    0    0  501    0  0.00000000000E+00  0.00000000000E+00 -0.38346457455E+03  0.38346457458E+03  0.50400001928E-02 0.  1.
    10030    2    1    2    0    0  0.00000000000E+00  0.00000000000E+00 -0.95399280853E+02  0.67152986832E+03  0.66471899421E+03 0.  0.
        2    1    3    3  502    0 -0.12333353648E+03 -0.27401888931E+03 -0.19115931124E+03  0.35614518837E+03  0.25500000920E-02 0.  1.
       -2    1    3    3    0  502  0.12333353648E+03  0.27401888931E+03  0.95760030385E+02  0.31538467995E+03  0.25500000920E-02 0. -1.
</event>
<event>
 5   0  0.1673727E-02  0.7884497E+03  0.7818609E-02  0.9576888E-01
       -2   -1    0    0    0  501  0.00000000000E+00  0.00000000000E+00  0.93248799653E+02  0.93248799687E+02  0.25500000920E-02 0.  1.
        2   -1    0    0  501    0  0.00000000000E+00  0.00000000000E+00 -0.16666513434E+04  0.16666513434E+04  0.25500000920E-02 0. -1.
    10030    2    1    2    0    0  0.00000000000E+00  0.00000000000E+00 -0.15734025437E+04  0.17599001431E+04  0.78844971239E+03 0.  0.
        5    1    3    3  502    0 -0.41353410422E+02  0.25976465417E+03 -0.14420555554E+04  0.14658560963E+04  0.46999998093E+01 0. -1.
       -5    1    3    3    0  502  0.41353410422E+02 -0.25976465417E+03 -0.13134698831E+03  0.29404404678E+03  0.46999998093E+01 0.  1.
</event>
<event>
 5   0  0.1146083E-02  0.7787539E+03  0.7818609E-02  0.9591289E-01
       -1   -1    0    0    0  501  0.00000000000E+00  0.00000000000E+00  0.19118440329E+03  0.19118440336E+03  0.50400001928E-02 0.  1.
        1   -1    0    0  501    0  0.00000000000E+00  0.00000000000E+00 -0.79302711656E+03  0.79302711657E+03  0.50400001928E-02 0. -1.
    10030    2    1    2    0    0  0.00000000000E+00  0.00000000000E+00 -0.60184271326E+03  0.98421151993E+03  0.77875391778E+03 0.  0.
        4    1    3    3  502    0  0.26749344086E+03 -0.16700357824E+02  0.56054113108E+02  0.27381621456E+03  0.12699999809E+01 0.  1.
       -4    1    3    3    0  502 -0.26749344086E+03  0.16700357824E+02 -0.65789682637E+03  0.71039530538E+03  0.12699999809E+01 0. -1.
</event>
<event>
 5   0  0.1030323E-02  0.8004161E+03  0.7818609E-02  0.9559415E-01
       -1   -1    0    0    0  501  0.00000000000E+00  0.00000000000E+00  0.13478989796E+03  0.13478989806E+03  0.50400001928E-02 0. -1.
        1   -1    0    0  501    0  0.00000000000E+00  0.00000000000E+00 -0.11882678540E+04  0.11882678540E+04  0.50400001928E-02 0.  1.
    10030    2    1    2    0    0  0.00000000000E+00  0.00000000000E+00 -0.10534779560E+04  0.13230577520E+04  0.80041614890E+03 0.  0.
        3    1    3    3  502    0 -0.11177736847E+03  0.36696559302E+03 -0.71526776505E+03  0.81164395673E+03  0.10100000352E+00 0.  1.
       -3    1    3    3    0  502  0.11177736847E+03 -0.36696559302E+03 -0.33821019096E+03  0.51141379531E+03  0.10100000352E+00 0. -1.
</event>
<event>
 5   0  0.1817089E-02  0.9006454E+03  0.7818609E-02  0.9424775E-01
       -2   -1    0    0    0  501  0.00000000000E+00  0.00000000000E+00  0.27847761339E+03  0.27847761340E+03  0.25500000920E-02 0.  1.
        2   -1    0    0  501    0  0.00000000000E+00  0.00000000000E+00 -0.72821132411E+03  0.72821132411E+03  0.25500000920E-02 0. -1.
    10030    2    1    2    0    0  0.00000000000E+00  0.00000000000E+00 -0.44973371072E+03  0.10066889375E+04  0.90064543876E+03 0.  0.
        2    1    3    3  502    0 -0.28510001731E+03 -0.55876266818E+02 -0.60945182108E+03  0.67515605551E+03  0.25500000920E-02 0. -1.
       -2    1    3    3    0  502  0.28510001731E+03  0.55876266818E+02  0.15971811036E+03  0.33153288200E+03  0.25500000920E-02 0.  1.
</event>
<event>
 5   0  0.6872500E-03  0.8116990E+03  0.7818609E-02  0.9543236E-01
        4   -1    0    0  501    0  0.00000000000E+00  0.00000000000E+00  0.41402535117E+03  0.41402729899E+03  0.12699999809E+01 0.  1.
       -4   -1    0    0    0  501  0.00000000000E+00  0.00000000000E+00 -0.39783119371E+03  0.39783322082E+03  0.12699999809E+01 0. -1.
    10030    2    1    2    0    0  0.00000000000E+00  0.00000000000E+00  0.16194157464E+02  0.81186051981E+03  0.81169899156E+03 0.  0.
        5    1    3    3  502    0  0.98468028240E+02  0.34646888099E+03  0.19509707517E+03  0.40966034323E+03  0.46999998093E+01 0.  1.
       -5    1    3    3    0  502 -0.98468028240E+02 -0.34646888099E+03 -0.17890291771E+03  0.40220017658E+03  0.46999998093E+01 0. -1.
</event>
<event>
 5   0  0.1673727E-02  0.7957924E+03  0.7818609E-02  0.9566128E-01
       -2   -1    0    0    0  501  0.00000000000E+00  0.00000000000E+00  0.87968689008E+02  0.87968689045E+02  0.25500000920E-02 0.  1.
        2   -1    0    0  501    0  0.00000000000E+00  0.00000000000E+00 -0.17997468921E+04  0.17997468921E+04  0.25500000920E-02 0. -1.
    10030    2    1    2    0    0  0.00000000000E+00  0.00000000000E+00 -0.17117782031E+04  0.18877155812E+04  0.79579237163E+03 0.  0.
        5    1    3    3  502    0  0.17361997328E+02 -0.39246928504E+03 -0.70650752180E+03  0.80839875495E+03  0.46999998093E+01 0.  1.
       -5    1    3    3    0  502 -0.17361997328E+02  0.39246928504E+03 -0.10052706813E+04  0.10793168262E+04  0.46999998093E+01 0. -1.
</event>
<event>
 5   0  0.1025900E-02  0.7984040E+03  0.7818609E-02  0.9562330E-01
        1   -1    0    0  501    0  0.00000000000E+00  0.00000000000E+00  0.78472728230E+03  0.78472728232E+03  0.50400001928E-02 0. -1.
       -1   -1    0    0    0  501  0.00000000000E+00  0.00000000000E+00 -0.20307975029E+03  0.20307975036E+03  0.50400001928E-02 0.  1.
    10030    2    1    2    0    0  0.00000000000E+00  0.00000000000E+00  0.58164753201E+03  0.98780703267E+03  0.79840395935E+03 0.  0.
        1    1    3    3  502    0  0.38553468563E+03  0.24950408606E+02  0.16646733694E+03  0.42067908316E+03  0.50400001928E-02 0. -1.
       -1    1    3    3    0  502 -0.38553468563E+03 -0.24950408606E+02  0.41518019507E+03  0.56712794951E+03  0.50400001928E-02 0.  1.
</event>
<event>
 5   0  0.1818665E-02  0.7993806E+03  0.7818609E-02  0.9560914E-01
       -2   -1    0    0    0  501  0.00000000000E+00  0.00000000000E+00  0.99343871136E+02  0.99343871169E+02  0.25500000920E-02 0.  1.
        2   -1    0    0  501    0  0.00000000000E+00  0.00000000000E+00 -0.16080743024E+04  0.16080743024E+04  0.25500000920E-02 0. -1.
    10030    2    1    2    0    0  0.00000000000E+00  0.00000000000E+00 -0.15087304312E+04  0.17074181735E+04  0.79938057595E+03 0.  0.
        3    1    3    3  502    0 -0.37727594217E+03  0.60524867410E+02 -0.50388814416E+03  0.63237937042E+03  0.10100000352E+00 0.  1.
       -3    1    3    3    0  502  0.37727594217E+03 -0.60524867410E+02 -0.10048422871E+04  0.10750388031E+04  0.10100000352E+00 0. -1.
</event>
<event>
 5   0  0.1673727E-02  0.7960580E+03  0.7818609E-02  0.9565741E-01
       -2   -1    0    0    0  501  0.00000000000E+00  0.00000000000E+00  0.83699934316E+02  0.83699934355E+02  0.25500000920E-02 0. -1.
        2   -1    0    0  501    0  0.00000000000E+00  0.00000000000E+00 -0.18927981028E+04  0.18927981028E+04  0.25500000920E-02 0.  1.
    10030    2    1    2    0    0  0.00000000000E+00  0.00000000000E+00 -0.18090981685E+04  0.19764980372E+04  0.79605798010E+03 0.  0.
        5    1    3    3  502    0  0.13226483406E+03  0.37512215444E+03 -0.86993394150E+03  0.95656561179E+03  0.46999998093E+01 0.  1.
       -5    1    3    3    0  502 -0.13226483406E+03 -0.37512215444E+03 -0.93916422700E+03  0.10199324254E+04  0.46999998093E+01 0. -1.
</event>
<event>
 5   0  0.1025900E-02  0.7923877E+03  0.7818609E-02  0.9571101E-01
       -1   -1    0    0    0  501  0.00000000000E+00  0.00000000000E+00  0.18334286848E+03  0.18334286855E+03  0.50400001928E-02 0. -1.
        1   -1    0    0  501    0  0.00000000000E+00  0.00000000000E+00 -0.85615303111E+03  0.85615303113E+03  0.50400001928E-02 0.  1.
    10030    2    1    2    0    0  0.00000000000E+00  0.00000000000E+00 -0.67281016264E+03  0.10394958997E+04  0.79238766427E+03 0.  0.
        1    1    3    3  502    0  0.15414515919E+02  0.58553616300E+02 -0.85004763377E+03  0.85220133360E+03  0.50400001928E-02 0.  1.
       -1    1    3    3    0  502 -0.15414515919E+02 -0.58553616300E+02  0.17723747113E+03  0.18729456608E+03  0.50400001928E-02 0. -1.
</event>
<event>
 5   0  0.1817089E-02  0.8387684E+03  0.7818609E-02  0.9505537E-01
       -2   -1    0    0    0  501  0.00000000000E+00  0.00000000000E+00  0.18197082690E+03  0.18197082692E+03  0.25500000920E-02 0.  1.
        2   -1    0    0  501    0  0.00000000000E+00  0.00000000000E+00 -0.96654553633E+03  0.96654553634E+03  0.25500000920E-02 0. -1.
    10030    2    1    2    0    0  0.00000000000E+00  0.00000000000E+00 -0.78457470943E+03  0.11485163633E+04  0.83876836015E+03 0.  0.
        2    1    3    3  502    0 -0.25083660313E+03 -0.20814253234E+03 -0.30938280889E+02  0.32741333582E+03  0.25500000920E-02 0.  1.
       -2    1    3    3    0  502  0.25083660313E+03  0.20814253234E+03 -0.75363642854E+03  0.82110302744E+03  0.25500000920E-02 0. -1.
</event>
<event>
 5   0  0.1673727E-02  0.8144727E+03  0.7818609E-02  0.9539301E-01
        2   -1    0    0  501    0  0.00000000000E+00  0.00000000000E+00  0.13457951524E+04  0.13457951524E+04  0.25500000920E-02 0. -1.
       -2   -1    0    0    0  501  0.00000000000E+00  0.00000000000E+00 -0.12322934994E+03  0.12322934997E+03  0.25500000920E-02 0.  1.
    10030    2    1    2    0    0  0.00000000000E+00  0.00000000000E+00  0.12225658024E+04  0.14690245023E+04  0.81447274185E+03 0.  0.
        5    1    3    3  502    0  0.34367751506E+03 -0.77306454859E+02  0.24283957805E+03  0.42788277949E+03  0.46999998093E+01 0.  1.
       -5    1    3    3    0  502 -0.34367751506E+03  0.77306454859E+02  0.97972622437E+03  0.10411417228E+04  0.46999998093E+01 0. -1.
</event>
<event>
 5   0  0.1038912E-02  0.8118753E+03  0.7818609E-02  0.9542985E-01
       -1   -1    0    0    0  501  0.00000000000E+00  0.00000000000E+00  0.81284538310E+02  0.81284538466E+02  0.50400001928E-02 0.  1.
        1   -1    0    0  501    0  0.00000000000E+00  0.00000000000E+00 -0.20272660407E+04  0.20272660407E+04  0.50400001928E-02 0. -1.
    10030    2    1    2    0    0  0.00000000000E+00  0.00000000000E+00 -0.19459815024E+04  0.21085505792E+04  0.81187532126E+03 0.  0.
        2    1    3    3  502    0  0.39648857548E+02 -0.94630843914E+00  0.76240781775E+02  0.85939421785E+02  0.25500000920E-02 0.  1.
       -2    1    3    3    0  502 -0.39648857548E+02  0.94630843914E+00 -0.20222222842E+04  0.20226111574E+04  0.25500000920E-02 0. -1.
</event>
<event>
 5   0  0.1673727E-02  0.8096194E+03  0.7818609E-02  0.9546197E-01
       -2   -1    0    0    0  501  0.00000000000E+00  0.00000000000E+00  0.33103126647E+03  0.33103126648E+03  0.25500000920E-02 0.  1.
        2   -1    0    0  501    0  0.00000000000E+00  0.00000000000E+00 -0.49503152048E+03  0.49503152048E+03  0.25500000920E-02 0. -1.
    10030    2    1    2    0    0  0.00000000000E+00  0.00000000000E+00 -0.16400025400E+03  0.82606278697E+03  0.80961944437E+03 0.  0.
        5    1    3    3  502    0 -0.35228723136E+03 -0.10598747080E+03  0.90275770232E+02  0.37882904065E+03  0.46999998093E+01 0.  1.
       -5    1    3    3    0  502  0.35228723136E+03  0.10598747080E+03 -0.25427602423E+03  0.44723374632E+03  0.46999998093E+01 0. -1.
</event>
<event>
 5   0  0.1146083E-02  0.7808764E+03  0.7818609E-02  0.9588118E-01
        1   -1    0    0  501    0  0.00000000000E+00  0.00000000000E+00  0.88427750489E+03  0.88427750491E+03  0.50400001928E-02 0. -1.
       -1   -1    0    0    0  501  0.00000000000E+00  0.00000000000E+00 -0.17239159081E+03  0.17239159088E+03  0.50400001928E-02 0.  1.
    10030    2    1    2    0    0  0.00000000000E+00  0.00000000000E+00  0.71188591408E+03  0.10566690958E+04  0.78087644562E+03 0.  0.
        4    1    3    3  502    0  0.24188616255E+03  0.14838945806E+03  0.71881833872E+03  0.77280642070E+03  0.12699999809E+01 0. -1.
       -4    1    3    3    0  502 -0.24188616255E+03 -0.14838945806E+03 -0.69324246379E+01  0.28386267509E+03  0.12699999809E+01 0.  1.
</event>
<event>
 5   0  0.1049780E-02  0.7986004E+03  0.7818609E-02  0.9562045E-01
       -1   -1    0    0    0  501  0.00000000000E+00  0.00000000000E+00  0.88169445851E+02  0.88169445995E+02  0.50400001928E-02 0.  1.
        1   -1    0    0  501    0  0.00000000000E+00  0.00000000000E+00 -0.18083437080E+04  0.18083437080E+04  0.50400001928E-02 0. -1.
    10030    2    1    2    0    0  0.00000000000E+00  0.00000000000E+00 -0.17201742622E+04  0.18965131540E+04  0.79860043272E+03 0.  0.
        5    1    3    3  502    0  0.65897196859E+02 -0.29813365186E+03 -0.14710721644E+04  0.15024318680E+04  0.46999998093E+01 0. -1.
       -5    1    3    3    0  502 -0.65897196859E+02  0.29813365186E+03 -0.24910209775E+03  0.39408128606E+03  0.46999998093E+01 0.  1.
</event>
<event>
 5   0  0.1049780E-02  0.7985732E+03  0.7818609E-02  0.9562085E-01
       -1   -1    0    0    0  501  0.00000000000E+00  0.00000000000E+00  0.31755645939E+03  0.31755645943E+03  0.50400001928E-02 0.  1.
        1   -1    0    0  501    0  0.00000000000E+00  0.00000000000E+00 -0.50205178186E+03  0.50205178189E+03  0.50400001928E-02 0. -1.
    10030    2    1    2    0    0  0.00000000000E+00  0.00000000000E+00 -0.18449532248E+03  0.81960824131E+03  0.79857319340E+03 0.  0.
        5    1    3    3  502    0 -0.29508204605E+03 -0.24080228295E+03 -0.21518830693E+03  0.43747828610E+03  0.46999998093E+01 0.  1.
       -5    1    3    3    0  502  0.29508204605E+03  0.24080228295E+03  0.30692984455E+02  0.38212995521E+03  0.46999998093E+01 0. -1.
</event>
<event>
 5   0  0.6872500E-03  0.7963556E+03  0.7818609E-02  0.9565307E-01
        3   -1    0    0  501    0  0.00000000000E+00  0.00000000000E+00  0.51415412915E+03  0.51415413907E+03  0.10100000352E+00 0.  1.
       -3   -1    0    0    0  501  0.00000000000E+00  0.00000000000E+00 -0.30836189900E+03  0.30836191554E+03  0.10100000352E+00 0. -1.
    10030    2    1    2    0    0  0.00000000000E+00  0.00000000000E+00  0.20579223015E+03  0.82251605461E+03  0.79635558521E+03 0.  0.
        2    1    3    3  502    0  0.13990289312E+03 -0.23587045163E+03  0.40106240307E+03  0.48585876612E+03  0.25500000920E-02 0.  1.
       -2    1    3    3    0  502 -0.13990289312E+03  0.23587045163E+03 -0.19527017292E+03  0.33665728849E+03  0.25500000920E-02 0. -1.
</event>
<event>
 5   0  0.1818665E-02  0.8074570E+03  0.7818609E-02  0.9549286E-01
       -2   -1    0    0    0  501  0.00000000000E+00  0.00000000000E+00  0.24861630437E+03  0.24861630439E+03  0.25500000920E-02 0. -1.
        2   -1    0    0  501    0  0.00000000000E+00  0.00000000000E+00 -0.65561555433E+03  0.65561555433E+03  0.25500000920E-02 0.  1.
    10030    2    1    2    0    0  0.00000000000E+00  0.00000000000E+00 -0.40699924995E+03  0.90423185872E+03  0.80745703592E+03 0.  0.
        3    1    3    3  502    0  0.27183408679E+03 -0.12727137900E+03 -0.50586971829E+03  0.58821420991E+03  0.10100000352E+00 0.  1.
       -3    1    3    3    0  502 -0.27183408679E+03  0.12727137900E+03  0.98870468336E+02  0.31601764881E+03  0.10100000352E+00 0. -1.
</event>
<event>
 5   0  0.1049780E-02  0.8006660E+03  0.7818609E-02  0.9559054E-01
       -1   -1    0    0    0  501  0.00000000000E+00  0.00000000000E+00  0.22808069980E+03  0.22808069986E+03  0.50400001928E-02 0. -1.
        1   -1    0    0  501    0  0.00000000000E+00  0.00000000000E+00 -0.70267460101E+03  0.70267460102E+03  0.50400001928E-02 0.  1.
    10030    2    1    2    0    0  0.00000000000E+00  0.00000000000E+00 -0.47459390121E+03  0.93075530088E+03  0.80066600968E+03 0.  0.
        5    1    3    3  502    0  0.10371710086E+03 -0.25401513587E+03  0.10154745501E+03  0.29260024245E+03  0.46999998093E+01 0. -1.
       -5    1    3    3    0  502 -0.10371710086E+03  0.25401513587E+03 -0.57614135622E+03  0.63815505843E+03  0.46999998093E+01 0.  1.
</event>
<event>
 5   0  0.1049780E-02  0.8059437E+03  0.7818609E-02  0.9551453E-01
        1   -1    0    0  501    0  0.00000000000E+00  0.00000000000E+00  0.24730891131E+03  0.24730891136E+03  0.50400001928E-02 0.  1.
       -1   -1    0    0    0  501  0.00000000000E+00  0.00000000000E+00 -0.65661330629E+03  0.65661330631E+03  0.50400001928E-02 0. -1.
    10030    2    1    2    0    0  0.00000000000E+00  0.00000000000E+00 -0.40930439498E+03  0.90392221767E+03  0.80594372499E+03 0.  0.
        5    1    3    3  502    0 -0.96591676444E+02 -0.31780324725E+03 -0.46049646561E+03  0.56780977515E+03  0.46999998093E+01 0. -1.
       -5    1    3    3    0  502  0.96591676444E+02  0.31780324725E+03  0.51192070631E+02  0.33611244252E+03  0.46999998093E+01 0.  1.
</event>
<event>
 5   0  0.1818665E-02  0.7958363E+03  0.7818609E-02  0.9566063E-01
        2   -1    0    0  501    0  0.00000000000E+00  0.00000000000E+00  0.10937729794E+04  0.10937729794E+04  0.25500000920E-02 0.  1.
       -2   -1    0    0    0  501  0.00000000000E+00  0.00000000000E+00 -0.14476391945E+03  0.14476391947E+03  0.25500000920E-02 0. -1.
    10030    2    1    2    0    0  0.00000000000E+00  0.00000000000E+00  0.94900905993E+03  0.12385368989E+04  0.79583632362E+03 0.  0.
        3    1    3    3  502    0  0.35524023244E+03  0.17831397563E+03  0.50350953859E+03  0.64149307268E+03  0.10100000352E+00 0. -1.
       -3    1    3    3    0  502 -0.35524023244E+03 -0.17831397563E+03  0.44549952135E+03  0.59704382617E+03  0.10100000352E+00 0.  1.
</event>
<event>
 5   0  0.1747544E-02  0.7999735E+03  0.7818609E-02  0.9560055E-01
       -2   -1    0    0    0  501  0.00000000000E+00  0.00000000000E+00  0.14857534542E+03  0.14857534545E+03  0.25500000920E-02 0.  1.
        2   -1    0    0  501    0  0.00000000000E+00  0.00000000000E+00 -0.10768233320E+04  0.10768233320E+04  0.25500000920E-02 0. -1.
    10030    2    1    2    0    0  0.00000000000E+00  0.00000000000E+00 -0.92824798653E+03  0.12253986774E+04  0.79997349586E+03 0.  0.
        1    1    3    3  502    0 -0.40789760773E+02 -0.64951251445E+02  0.13720603508E+03  0.15718767679E+03  0.50400001928E-02 0.  1.
       -1    1    3    3    0  502  0.40789760773E+02  0.64951251445E+02 -0.10654540216E+04  0.10682110006E+04  0.50400001928E-02 0. -1.
</event>
<event>
 5   0  0.1731337E-02  0.7943116E+03  0.7818609E-02  0.9568288E-01
       -2   -1    0    0    0  501  0.00000000000E+00  0.00000000000E+00  0.28755690595E+03  0.28755690596E+03  0.25500000920E-02 0. -1.
        2   -1    0    0  501    0  0.00000000000E+00  0.00000000000E+00 -0.54852695950E+03  0.54852695950E+03  0.25500000920E-02 0.  1.
    10030    2    1    2    0    0  0.00000000000E+00  0.00000000000E+00 -0.26097005354E+03  0.83608386547E+03  0.79431156434E+03 0.  0.
        4    1    3    3  502    0  0.43672559498E+02  0.33759931338E+02  0.28349726292E+03  0.28882405786E+03  0.12699999809E+01 0. -1.
       -4    1    3    3    0  502 -0.43672559498E+02 -0.33759931338E+02 -0.54446731647E+03  0.54725980760E+03  0.12699999809E+01 0.  1.
</event>
<event>
 5   0  0.1038912E-02  0.8017040E+03  0.7818609E-02  0.9557554E-01
        1   -1    0    0  501    0  0.00000000000E+00  0.00000000000E+00  0.11371314788E+04  0.11371314788E+04  0.50400001928E-02 0. -1.
       -1   -1    0    0    0  501  0.00000000000E+00  0.00000000000E+00 -0.14130496013E+03  0.14130496022E+03  0.50400001928E-02 0.  1.
    10030    2    1    2    0    0  0.00000000000E+00  0.00000000000E+00  0.99582651864E+03  0.12784364390E+04  0.80170398113E+03 0.  0.
        2    1    3    3  502    0 -0.39570998313E+03  0.49340627558E+02  0.56291217801E+03  0.68984854021E+03  0.25500000920E-02 0. -1.
       -2    1    3    3    0  502  0.39570998313E+03 -0.49340627558E+02  0.43291434063E+03  0.58858789880E+03  0.25500000920E-02 0.  1.
</event>
<event>
 5   0  0.1673727E-02  0.7930093E+03  0.7818609E-02  0.9570191E-01
       -2   -1    0    0    0  501  0.00000000000E+00  0.00000000000E+00  0.10369571325E+03  0.10369571329E+03  0.25500000920E-02 0.  1.
        2   -1    0    0  501    0  0.00000000000E+00  0.00000000000E+00 -0.15161275586E+04  0.15161275586E+04  0.25500000920E-02 0. -1.
    10030    2    1    2    0    0  0.00000000000E+00  0.00000000000E+00 -0.14124318454E+04  0.16198232719E+04  0.79300927764E+03 0.  0.
        5    1    3    3  502    0  0.23699752829E+03  0.18104745884E+02 -0.13544028693E+04  0.13751090257E+04  0.46999998093E+01 0. -1.
       -5    1    3    3    0  502 -0.23699752829E+03 -0.18104745884E+02 -0.58028976101E+02  0.24471424623E+03  0.46999998093E+01 0.  1.
</event>
<event>
 5   0  0.1146083E-02  0.7946678E+03  0.7818609E-02  0.9567768E-01
       -1   -1    0    0    0  501  0.00000000000E+00  0.00000000000E+00  0.21938409254E+03  0.21938409260E+03  0.50400001928E-02 0. -1.
        1   -1    0    0  501    0  0.00000000000E+00  0.00000000000E+00 -0.71962470818E+03  0.71962470819E+03  0.50400001928E-02 0.  1.
    10030    2    1    2    0    0  0.00000000000E+00  0.00000000000E+00 -0.50024061564E+03  0.93900880079E+03  0.79466776356E+03 0.  0.
        4    1    3    3  502    0  0.23714677319E+03 -0.31643917296E+02 -0.62496690024E+03  0.66919740647E+03  0.12699999809E+01 0.  1.
       -4    1    3    3    0  502 -0.23714677319E+03  0.31643917296E+02  0.12472628460E+03  0.26981139432E+03  0.12699999809E+01 0. -1.
</event>
<event>
 5   0  0.1747544E-02  0.8034082E+03  0.7818609E-02  0.9555097E-01
       -2   -1    0    0    0  501  0.00000000000E+00  0.00000000000E+00  0.13136874605E+03  0.13136874607E+03  0.25500000920E-02 0. -1.
        2   -1    0    0  501    0  0.00000000000E+00  0.00000000000E+00 -0.12283451903E+04  0.12283451903E+04  0.25500000920E-02 0.  1.
    10030    2    1    2    0    0  0.00000000000E+00  0.00000000000E+00 -0.10969764442E+04  0.13597139363E+04  0.80340815872E+03 0.  0.
        1    1    3    3  502    0  0.38241920753E+03  0.10856609811E+03 -0.45074942165E+03  0.60100423384E+03  0.50400001928E-02 0. -1.
       -1    1    3    3    0  502 -0.38241920753E+03 -0.10856609811E+03 -0.64622702257E+03  0.75870970251E+03  0.50400001928E-02 0.  1.
</event>
<event>
 5   0  0.1673727E-02  0.8008490E+03  0.7818609E-02  0.9558789E-01
        2   -1    0    0  501    0  0.00000000000E+00  0.00000000000E+00  0.12139698297E+04  0.12139698297E+04  0.25500000920E-02 0. -1.
       -2   -1    0    0    0  501  0.00000000000E+00  0.00000000000E+00 -0.13207889312E+03  0.13207889315E+03  0.25500000920E-02 0.  1.
    10030    2    1    2    0    0  0.00000000000E+00  0.00000000000E+00  0.10818909366E+04  0.13460487229E+04  0.80084902800E+03 0.  0.
        5    1    3    3  502    0  0.12388765221E+02 -0.13149698511E+03  0.11762542361E+04  0.11836558016E+04  0.46999998093E+01 0. -1.
       -5    1    3    3    0  502 -0.12388765221E+02  0.13149698511E+03 -0.94363299517E+02  0.16239292131E+03  0.46999998093E+01 0.  1.
</event>
<event>
 5   0  0.1817089E-02  0.7451715E+03  0.7818609E-02  0.9642956E-01
       -2   -1    0    0    0  501  0.00000000000E+00  0.00000000000E+00  0.66480152545E+03  0.66480152545E+03  0.25500000920E-02 0. -1.
        2   -1    0    0  501    0  0.00000000000E+00  0.00000000000E+00 -0.20881444198E+03  0.20881444199E+03  0.25500000920E-02 0.  1.
    10030    2    1    2    0    0  0.00000000000E+00  0.00000000000E+00  0.45598708347E+03  0.87361596744E+03  0.74517154956E+03 0.  0.
        2    1    3    3  502    0 -0.34954186160E+03 -0.72818912262E+02  0.10315935649E+03  0.37165031929E+03  0.25500000920E-02 0. -1.
       -2    1    3    3    0  502  0.34954186160E+03  0.72818912262E+02  0.35282772698E+03  0.50196564815E+03  0.25500000920E-02 0.  1.
</event>
<event>
 5   0  0.1025900E-02  0.7984017E+03  0.7818609E-02  0.9562333E-01
       -1   -1    0    0    0  501  0.00000000000E+00  0.00000000000E+00  0.10257843764E+03  0.10257843776E+03  0.50400001928E-02 0. -1.
        1   -1    0    0  501    0  0.00000000000E+00  0.00000000000E+00 -0.15535558514E+04  0.15535558514E+04  0.50400001928E-02 0.  1.
    10030    2    1    2    0    0  0.00000000000E+00  0.00000000000E+00 -0.14509774137E+04  0.16561342891E+04  0.79840173378E+03 0.  0.
        1    1    3    3  502    0 -0.20041219176E+03  0.34124696607E+03 -0.83420311210E+03  0.92331434015E+03  0.50400001928E-02 0.  1.
       -1    1    3    3    0  502  0.20041219176E+03 -0.34124696607E+03 -0.61677430162E+03  0.73281994898E+03  0.50400001928E-02 0. -1.
</event>
<event>
 5   0  0.1146083E-02  0.7988836E+03  0.7818609E-02  0.9561635E-01
        1   -1    0    0  501    0  0.00000000000E+00  0.00000000000E+00  0.38194183946E+03  0.38194183950E+03  0.50400001928E-02 0.  1.
       -1   -1    0    0    0  501  0.00000000000E+00  0.00000000000E+00 -0.41774353579E+03  0.41774353582E+03  0.50400001928E-02 0. -1.
    10030    2    1    2    0    0  0.00000000000E+00  0.00000000000E+00 -0.35801696331E+02  0.79968537532E+03  0.79888355725E+03 0.  0.
        4    1    3    3  502    0 -0.20168300549E+02  0.11423754941E+03 -0.40050842038E+03  0.41697192440E+03  0.12699999809E+01 0. -1.
       -4    1    3    3    0  502  0.20168300549E+02 -0.11423754941E+03  0.36470672405E+03  0.38271345092E+03  0.12699999809E+01 0.  1.
</event>
<event>
 5   0  0.1817089E-02  0.8040738E+03  0.7818609E-02  0.9554139E-01
        2   -1    0    0  501    0  0.00000000000E+00  0.00000000000E+00  0.11046454206E+04  0.11046454206E+04  0.25500000920E-02 0. -1.
       -2   -1    0    0    0  501  0.00000000000E+00  0.00000000000E+00 -0.14632178411E+03  0.14632178414E+03  0.25500000920E-02 0.  1.
    10030    2    1    2    0    0  0.00000000000E+00  0.00000000000E+00  0.95832363652E+03  0.12509672048E+04  0.80407384928E+03 0.  0.
        2    1    3    3  502    0 -0.27622283107E+03 -0.22376276404E+03  0.18700160046E+03  0.40166954771E+03  0.25500000920E-02 0.  1.
       -2    1    3    3    0  502  0.27622283107E+03  0.22376276404E+03  0.77132203606E+03  0.84929765707E+03  0.25500000920E-02 0. -1.
</event>
<event>
 5   0  0.1673727E-02  0.8019653E+03  0.7818609E-02  0.9557177E-01
        2   -1    0    0  501    0  0.00000000000E+00  0.00000000000E+00  0.18633216671E+03  0.18633216673E+03  0.25500000920E-02 0. -1.
       -2   -1    0    0    0  501  0.00000000000E+00  0.00000000000E+00 -0.86290573334E+03  0.86290573334E+03  0.25500000920E-02 0.  1.
    10030    2    1    2    0    0  0.00000000000E+00  0.00000000000E+00 -0.67657356663E+03  0.10492379001E+04  0.80196532336E+03 0.  0.
        5    1    3    3  502    0 -0.19799211227E+03  0.34332879651E+03 -0.25881734708E+03  0.47337516642E+03  0.46999998093E+01 0.  1.
       -5    1    3    3    0  502  0.19799211227E+03 -0.34332879651E+03 -0.41775621954E+03  0.57586273365E+03  0.46999998093E+01 0. -1.
</event>
<event>
 5   0  0.1146083E-02  0.8022586E+03  0.7818609E-02  0.9556754E-01
        1   -1    0    0  501    0  0.00000000000E+00  0.00000000000E+00  0.96791076538E+03  0.96791076539E+03  0.50400001928E-02 0. -1.
       -1   -1    0    0    0  501  0.00000000000E+00  0.00000000000E+00 -0.16623922168E+03  0.16623922175E+03  0.50400001928E-02 0.  1.
    10030    2    1    2    0    0  0.00000000000E+00  0.00000000000E+00  0.80167154370E+03  0.11341499871E+04  0.80225864243E+03 0.  0.
        4    1    3    3  502    0  0.39031345688E+03  0.85566082457E+02  0.45055629991E+03  0.60221984472E+03  0.12699999809E+01 0.  1.
       -4    1    3    3    0  502 -0.39031345688E+03 -0.85566082457E+02  0.35111524379E+03  0.53193014242E+03  0.12699999809E+01 0. -1.
</event>
<event>
 5   0  0.1038912E-02  0.7980981E+03  0.7818609E-02  0.9562774E-01
       -1   -1    0    0    0  501  0.00000000000E+00  0.00000000000E+00  0.32158155193E+03  0.32158155197E+03  0.50400001928E-02 0. -1.
        1   -1    0    0  501    0  0.00000000000E+00  0.00000000000E+00 -0.49517806918E+03  0.49517806921E+03  0.50400001928E-02 0.  1.
    10030    2    1    2    0    0  0.00000000000E+00  0.00000000000E+00 -0.17359651725E+03  0.81675962117E+03  0.79809806915E+03 0.  0.
        2    1    3    3  502    0  0.11836516339E+03 -0.74091876623E+02 -0.46935750283E+03  0.48969008930E+03  0.25500000920E-02 0.  1.
       -2    1    3    3    0  502 -0.11836516339E+03  0.74091876623E+02  0.29576098558E+03  0.32706953188E+03  0.25500000920E-02 0. -1.
</event>
<event>
 5   0  0.6872500E-03  0.7978624E+03  0.7818609E-02  0.9563116E-01
        3   -1    0    0  501    0  0.00000000000E+00  0.00000000000E+00  0.16169965683E+03  0.16169968837E+03  0.10100000352E+00 0. -1.
       -3   -1    0    0    0  501  0.00000000000E+00  0.00000000000E+00 -0.98420782912E+03  0.98420783430E+03  0.10100000352E+00 0.  1.
    10030    2    1    2    0    0  0.00000000000E+00  0.00000000000E+00 -0.82250817228E+03  0.11459075227E+04  0.79786236723E+03 0.  0.
        5    1    3    3  502    0 -0.22862775177E+02 -0.38046970477E+03 -0.24226685168E+03  0.45165830022E+03  0.46999998093E+01 0. -1.
       -5    1    3    3    0  502  0.22862775177E+02  0.38046970477E+03 -0.58024132061E+03  0.69424922245E+03  0.46999998093E+01 0.  1.
</event>
<event>
 5   0  0.1731337E-02  0.7965002E+03  0.7818609E-02  0.9565097E-01
        2   -1    0    0  501    0  0.00000000000E+00  0.00000000000E+00  0.10876193157E+04  0.10876193157E+04  0.25500000920E-02 0. -1.
       -2   -1    0    0    0  501  0.00000000000E+00  0.00000000000E+00 -0.14582598361E+03  0.14582598363E+03  0.25500000920E-02 0.  1.
    10030    2    1    2    0    0  0.00000000000E+00  0.00000000000E+00  0.94179333210E+03  0.12334452994E+04  0.79650023610E+03 0.  0.
        4    1    3    3  502    0 -0.20173896097E+03  0.29209747609E+03  0.19137025200E+03  0.40329112334E+03  0.12699999809E+01 0.  1.
       -4    1    3    3    0  502  0.20173896097E+03 -0.29209747609E+03  0.75042308010E+03  0.83015417602E+03  0.12699999809E+01 0. -1.
</event>
<event>
 5   0  0.1049780E-02  0.7996586E+03  0.7818609E-02  0.9560511E-01
        1   -1    0    0  501    0  0.00000000000E+00  0.00000000000E+00  0.18721677400E+04  0.18721677400E+04  0.50400001928E-02 0. -1.
       -1   -1    0    0    0  501  0.00000000000E+00  0.00000000000E+00 -0.85389500195E+02  0.85389500344E+02  0.50400001928E-02 0.  1.
    10030    2    1    2    0    0  0.00000000000E+00  0.00000000000E+00  0.17867782398E+04  0.19575572404E+04  0.79965859654E+03 0.  0.
        5    1    3    3  502    0 -0.96182809253E+02 -0.61624596702E+02  0.18313009656E+04  0.18348662186E+04  0.46999998093E+01 0. -1.
       -5    1    3    3    0  502  0.96182809253E+02  0.61624596702E+02 -0.44522725743E+02  0.12269102176E+03  0.46999998093E+01 0.  1.
</event>
<event>
 5   0  0.1731337E-02  0.7178290E+03  0.7818609E-02  0.9687219E-01
        2   -1    0    0  501    0  0.00000000000E+00  0.00000000000E+00  0.15663365726E+04  0.15663365726E+04  0.25500000920E-02 0. -1.
       -2   -1    0    0    0  501  0.00000000000E+00  0.00000000000E+00 -0.82242612615E+02  0.82242612654E+02  0.25500000920E-02 0.  1.
    10030    2    1    2    0    0  0.00000000000E+00  0.00000000000E+00  0.14840939600E+04  0.16485791853E+04  0.71782898242E+03 0.  0.
        4    1    3    3  502    0  0.26713216343E+03 -0.25052970990E+02  0.19455150259E+03  0.33141989101E+03  0.12699999809E+01 0.  1.
       -4    1    3    3    0  502 -0.26713216343E+03  0.25052970990E+02  0.12895424574E+04  0.13171592943E+04  0.12699999809E+01 0. -1.
</event>
<event>
 5   0  0.1731337E-02  0.8035929E+03  0.7818609E-02  0.9554831E-01
        2   -1    0    0  501    0  0.00000000000E+00  0.00000000000E+00  0.57522630612E+03  0.57522630612E+03  0.25500000920E-02 0.  1.
       -2   -1    0    0    0  501  0.00000000000E+00  0.00000000000E+00 -0.28065545366E+03  0.28065545367E+03  0.25500000920E-02 0. -1.
    10030    2    1    2    0    0  0.00000000000E+00  0.00000000000E+00  0.29457085246E+03  0.85588175979E+03  0.80359293154E+03 0.  0.
        4    1    3    3  502    0 -0.61072698465E+02 -0.54641540147E+02 -0.27165802196E+03  0.28375212105E+03  0.12699999809E+01 0. -1.
       -4    1    3    3    0  502  0.61072698465E+02  0.54641540147E+02  0.56622887441E+03  0.57212963874E+03  0.12699999809E+01 0.  1.
</event>
<event>
 5   0  0.1673727E-02  0.7571610E+03  0.7818609E-02  0.9624182E-01
        2   -1    0    0  501    0  0.00000000000E+00  0.00000000000E+00  0.70971478755E+03  0.70971478755E+03  0.25500000920E-02 0.  1.
       -2   -1    0    0    0  501  0.00000000000E+00  0.00000000000E+00 -0.20194475448E+03  0.20194475449E+03  0.25500000920E-02 0. -1.
    10030    2    1    2    0    0  0.00000000000E+00  0.00000000000E+00  0.50777003307E+03  0.91165954204E+03  0.75716095655E+03 0.  0.
        5    1    3    3  502    0 -0.21846836803E+03 -0.16876180965E+03 -0.57989725236E+02  0.28212386368E+03  0.46999998093E+01 0. -1.
       -5    1    3    3    0  502  0.21846836803E+03  0.16876180965E+03  0.56575975831E+03  0.62953567837E+03  0.46999998093E+01 0.  1.
</event>
<event>
 5   0  0.1038912E-02  0.8010280E+03  0.7818609E-02  0.9558530E-01
        1   -1    0    0  501    0  0.00000000000E+00  0.00000000000E+00  0.18207218872E+04  0.18207218872E+04  0.50400001928E-02 0.  1.
       -1   -1    0    0    0  501  0.00000000000E+00  0.00000000000E+00 -0.88103225236E+02  0.88103225380E+02  0.50400001928E-02 0. -1.
    10030    2    1    2    0    0  0.00000000000E+00  0.00000000000E+00  0.17326186619E+04  0.19088251125E+04  0.80102801614E+03 0.  0.
        2    1    3    3  502    0 -0.13080844935E+03  0.36375261458E+03  0.61655578845E+03  0.72771413021E+03  0.25500000920E-02 0.  1.
       -2    1    3    3    0  502  0.13080844935E+03 -0.36375261458E+03  0.11160628735E+04  0.11811109823E+04  0.25500000920E-02 0. -1.
</event>
<event>
 5   0  0.1025900E-02  0.7967927E+03  0.7818609E-02  0.9564671E-01
       -1   -1    0    0    0  501  0.00000000000E+00  0.00000000000E+00  0.12160063786E+03  0.12160063796E+03  0.50400001928E-02 0.  1.
        1   -1    0    0  501    0  0.00000000000E+00  0.00000000000E+00 -0.13052533819E+04  0.13052533819E+04  0.50400001928E-02 0. -1.
    10030    2    1    2    0    0  0.00000000000E+00  0.00000000000E+00 -0.11836527440E+04  0.14268540199E+04  0.79679268040E+03 0.  0.
        1    1    3    3  502    0  0.86377258091E+02  0.37472943296E+03 -0.40541258559E+03  0.55878667058E+03  0.50400001928E-02 0.  1.
       -1    1    3    3    0  502 -0.86377258091E+02 -0.37472943296E+03 -0.77824015843E+03  0.86806734927E+03  0.50400001928E-02 0. -1.
</event>
<event>
 5   0  0.1049780E-02  0.7997886E+03  0.7818609E-02  0.9560323E-01
        1   -1    0    0  501    0  0.00000000000E+00  0.00000000000E+00  0.13347873412E+03  0.13347873422E+03  0.50400001928E-02 0.  1.
       -1   -1    0    0    0  501  0.00000000000E+00  0.00000000000E+00 -0.11980593050E+04  0.11980593050E+04  0.50400001928E-02 0. -1.
    10030    2    1    2    0    0  0.00000000000E+00  0.00000000000E+00 -0.10645805708E+04  0.13315380392E+04  0.79978857081E+03 0.  0.
        5    1    3    3  502    0 -0.13657687786E+03  0.32001919986E+03 -0.20423285802E+03  0.40348318693E+03  0.46999998093E+01 0.  1.
       -5    1    3    3    0  502  0.13657687786E+03 -0.32001919986E+03 -0.86034771282E+03  0.92805485226E+03  0.46999998093E+01 0. -1.
</event>
<event>
 5   0  0.1747544E-02  0.8011246E+03  0.7818609E-02  0.9558391E-01
       -2   -1    0    0    0  501  0.00000000000E+00  0.00000000000E+00  0.16155977825E+03  0.16155977827E+03  0.25500000920E-02 0.  1.
        2   -1    0    0  501    0  0.00000000000E+00  0.00000000000E+00 -0.99313190352E+03  0.99313190353E+03  0.25500000920E-02 0. -1.
    10030    2    1    2    0    0  0.00000000000E+00  0.00000000000E+00 -0.83157212527E+03  0.11546916818E+04  0.80112463480E+03 0.  0.
        1    1    3    3  502    0  0.37889604292E+03  0.19518455797E+02 -0.23060359082E+03  0.44398333030E+03  0.50400001928E-02 0.  1.
       -1    1    3    3    0  502 -0.37889604292E+03 -0.19518455797E+02 -0.60096853445E+03  0.71070835149E+03  0.50400001928E-02 0. -1.
</event>
<event>
 5   0  0.1673727E-02  0.7999379E+03  0.7818609E-02  0.9560107E-01
       -2   -1    0    0    0  501  0.00000000000E+00  0.00000000000E+00  0.42156999914E+03  0.42156999915E+03  0.25500000920E-02 0.  1.
        2   -1    0    0  501    0  0.00000000000E+00  0.00000000000E+00 -0.37947476549E+03  0.37947476550E+03  0.25500000920E-02 0. -1.
    10030    2    1    2    0    0  0.00000000000E+00  0.00000000000E+00  0.42095233649E+02  0.80104476465E+03  0.79993793902E+03 0.  0.
        5    1    3    3  502    0 -0.13451591565E+03  0.14127501083E+03 -0.32857716887E+03  0.38214945525E+03  0.46999998093E+01 0. -1.
       -5    1    3    3    0  502  0.13451591565E+03 -0.14127501083E+03  0.37067240252E+03  0.41889530940E+03  0.46999998093E+01 0.  1.
</event>
<event>
 5   0  0.1731337E-02  0.8395910E+03  0.7818609E-02  0.9504415E-01
       -2   -1    0    0    0  501  0.00000000000E+00  0.00000000000E+00  0.38883348373E+03  0.38883348374E+03  0.25500000920E-02 0. -1.
        2   -1    0    0  501    0  0.00000000000E+00  0.00000000000E+00 -0.45322294843E+03  0.45322294844E+03  0.25500000920E-02 0.  1.
    10030    2    1    2    0    0  0.00000000000E+00  0.00000000000E+00 -0.64389464698E+02  0.84205643218E+03  0.83959099079E+03 0.  0.
        4    1    3    3  502    0 -0.19505011356E+03  0.16656941667E+02 -0.40464035509E+03  0.44950798699E+03  0.12699999809E+01 0.  1.
       -4    1    3    3    0  502  0.19505011356E+03 -0.16656941667E+02  0.34025089039E+03  0.39254844519E+03  0.12699999809E+01 0. -1.
</event>
<event>
 5   0  0.1049780E-02  0.7971880E+03  0.7818609E-02  0.9564096E-01
        1   -1    0    0  501    0  0.00000000000E+00  0.00000000000E+00  0.16552221565E+04  0.16552221565E+04  0.50400001928E-02 0. -1.
       -1   -1    0    0    0  501  0.00000000000E+00  0.00000000000E+00 -0.95985414260E+02  0.95985414393E+02  0.50400001928E-02 0.  1.
    10030    2    1    2    0    0  0.00000000000E+00  0.00000000000E+00  0.15592367423E+04  0.17512075709E+04  0.79718801925E+03 0.  0.
        5    1    3    3  502    0  0.27882579279E+02  0.17408794712E+03 -0.56047568973E+01  0.17645836579E+03  0.46999998093E+01 0.  1.
       -5    1    3    3    0  502 -0.27882579279E+02 -0.17408794712E+03  0.15648414992E+04  0.15747492051E+04  0.46999998093E+01 0. -1.
</event>
<event>
 5   0  0.1025900E-02  0.7897458E+03  0.7818609E-02  0.9574979E-01
        1   -1    0    0  501    0  0.00000000000E+00  0.00000000000E+00  0.38046729484E+03  0.38046729488E+03  0.50400001928E-02 0.  1.
       -1   -1    0    0    0  501  0.00000000000E+00  0.00000000000E+00 -0.40982392200E+03  0.40982392203E+03  0.50400001928E-02 0. -1.
    10030    2    1    2    0    0  0.00000000000E+00  0.00000000000E+00 -0.29356627160E+02  0.79029121691E+03  0.78974577933E+03 0.  0.
        1    1    3    3  502    0 -0.22808663764E+02  0.31320551137E+03  0.22487513862E+03  0.38624701357E+03  0.50400001928E-02 0.  1.
       -1    1    3    3    0  502  0.22808663764E+02 -0.31320551137E+03 -0.25423176578E+03  0.40404420334E+03  0.50400001928E-02 0. -1.
</event>
<event>
 5   0  0.1038912E-02  0.7724427E+03  0.7818609E-02  0.9600785E-01
        1   -1    0    0  501    0  0.00000000000E+00  0.00000000000E+00  0.72850778109E+03  0.72850778111E+03  0.50400001928E-02 0.  1.
       -1   -1    0    0    0  501  0.00000000000E+00  0.00000000000E+00 -0.20475680562E+03  0.20475680568E+03  0.50400001928E-02 0. -1.
    10030    2    1    2    0    0  0.00000000000E+00  0.00000000000E+00  0.52375097547E+03  0.93326458679E+03  0.77244268697E+03 0.  0.
        2    1    3    3  502    0 -0.25493945294E+03 -0.15764572648E+03 -0.32391392483E+02  0.30148880918E+03  0.25500000920E-02 0. -1.
       -2    1    3    3    0  502  0.25493945294E+03  0.15764572648E+03  0.55614236795E+03  0.63177577761E+03  0.25500000920E-02 0.  1.
</event>
<event>
 5   0  0.1038912E-02  0.7981776E+03  0.7818609E-02  0.9562659E-01
        1   -1    0    0  501    0  0.00000000000E+00  0.00000000000E+00  0.44982147199E+03  0.44982147202E+03  0.50400001928E-02 0. -1.
       -1   -1    0    0    0  501  0.00000000000E+00  0.00000000000E+00 -0.35407796356E+03  0.35407796360E+03  0.50400001928E-02 0.  1.
    10030    2    1    2    0    0  0.00000000000E+00  0.00000000000E+00  0.95743508430E+02  0.80389943562E+03  0.79817760128E+03 0.  0.
        2    1    3    3  502    0 -0.25475370733E+03  0.94025866143E+02 -0.24668255019E+03  0.36686863518E+03  0.25500000920E-02 0.  1.
       -2    1    3    3    0  502  0.25475370733E+03 -0.94025866143E+02  0.34242605862E+03  0.43703080044E+03  0.25500000920E-02 0. -1.
</event>
<event>
 5   0  0.1049780E-02  0.7956978E+03  0.7818609E-02  0.9566265E-01
        1   -1    0    0  501    0  0.00000000000E+00  0.00000000000E+00  0.19488586050E+03  0.19488586057E+03  0.50400001928E-02 0. -1.
       -1   -1    0    0    0  501  0.00000000000E+00  0.00000000000E+00 -0.81218688555E+03  0.81218688557E+03  0.50400001928E-02 0.  1.
    10030    2    1    2    0    0  0.00000000000E+00  0.00000000000E+00 -0.61730102505E+03  0.10070727461E+04  0.79569778213E+03 0.  0.
        5    1    3    3  502    0  0.24152903235E+03 -0.44871950670E+02 -0.70468262348E+03  0.74629046306E+03  0.46999998093E+01 0.  1.
       -5    1    3    3    0  502 -0.24152903235E+03  0.44871950670E+02  0.87381598428E+02  0.26078228308E+03  0.46999998093E+01 0. -1.
</event>
<event>
 5   0  0.1747544E-02  0.7978613E+03  0.7818609E-02  0.9563118E-01
        2   -1    0    0  501    0  0.00000000000E+00  0.00000000000E+00  0.10477477464E+04  0.10477477464E+04  0.25500000920E-02 0.  1.
       -2   -1    0    0    0  501  0.00000000000E+00  0.00000000000E+00 -0.15189310008E+03  0.15189310010E+03  0.25500000920E-02 0. -1.
    10030    2    1    2    0    0  0.00000000000E+00  0.00000000000E+00  0.89585464630E+03  0.11996408465E+04  0.79786127445E+03 0.  0.
        1    1    3    3  502    0 -0.61394064668E+02  0.29691840444E+03  0.83774345985E+03  0.89092304641E+03  0.50400001928E-02 0.  1.
       -1    1    3    3    0  502  0.61394064668E+02 -0.29691840444E+03  0.58111186455E+02  0.30871780009E+03  0.50400001928E-02 0. -1.
</event>
<event>
 5   0  0.1038912E-02  0.8070867E+03  0.7818609E-02  0.9549816E-01
        1   -1    0    0  501    0  0.00000000000E+00  0.00000000000E+00  0.51985098838E+03  0.51985098840E+03  0.50400001928E-02 0.  1.
       -1   -1    0    0    0  501  0.00000000000E+00  0.00000000000E+00 -0.31325749165E+03  0.31325749169E+03  0.50400001928E-02 0. -1.
    10030    2    1    2    0    0  0.00000000000E+00  0.00000000000E+00  0.20659349673E+03  0.83310848009E+03  0.80708665378E+03 0.  0.
        2    1    3    3  502    0  0.13417494646E+03 -0.31156049988E+03  0.32891737809E+03  0.47250344227E+03  0.25500000920E-02 0.  1.
       -2    1    3    3    0  502 -0.13417494646E+03  0.31156049988E+03 -0.12232388136E+03  0.36060503782E+03  0.25500000920E-02 0. -1.
</event>
<event>
 5   0  0.1025900E-02  0.7953843E+03  0.7818609E-02  0.9566722E-01
       -1   -1    0    0    0  501  0.00000000000E+00  0.00000000000E+00  0.55127816267E+03  0.55127816269E+03  0.50400001928E-02 0. -1.
        1   -1    0    0  501    0  0.00000000000E+00  0.00000000000E+00 -0.28689520773E+03  0.28689520778E+03  0.50400001928E-02 0.  1.
    10030    2    1    2    0    0  0.00000000000E+00  0.00000000000E+00  0.26438295493E+03  0.83817337047E+03  0.79538434238E+03 0.  0.
        1    1    3    3  502    0 -0.24470520797E+03  0.54768850820E+02  0.45746967468E+03  0.52168838315E+03  0.50400001928E-02 0. -1.
       -1    1    3    3    0  502  0.24470520797E+03 -0.54768850820E+02 -0.19308671975E+03  0.31648498732E+03  0.50400001928E-02 0.  1.
</event>
<event>
 5   0  0.1731337E-02  0.7853906E+03  0.7818609E-02  0.9581408E-01
       -2   -1    0    0    0  501  0.00000000000E+00  0.00000000000E+00  0.10379610650E+03  0.10379610653E+03  0.25500000920E-02 0. -1.
        2   -1    0    0  501    0  0.00000000000E+00  0.00000000000E+00 -0.14856971616E+04  0.14856971616E+04  0.25500000920E-02 0.  1.
    10030    2    1    2    0    0  0.00000000000E+00  0.00000000000E+00 -0.13819010551E+04  0.15894932682E+04  0.78539055466E+03 0.  0.
        4    1    3    3  502    0 -0.10241230350E+03 -0.20211794989E+03 -0.41848128589E+02  0.23041880206E+03  0.12699999809E+01 0. -1.
       -4    1    3    3    0  502  0.10241230350E+03  0.20211794989E+03 -0.13400529265E+04  0.13590744661E+04  0.12699999809E+01 0.  1.
</event>
<event>
 5   0  0.1049780E-02  0.8010731E+03  0.7818609E-02  0.9558465E-01
        1   -1    0    0  501    0  0.00000000000E+00  0.00000000000E+00  0.45942237434E+03  0.45942237437E+03  0.50400001928E-02 0.  1.
       -1   -1    0    0    0  501  0.00000000000E+00  0.00000000000E+00 -0.34919829100E+03  0.34919829104E+03  0.50400001928E-02 0. -1.
    10030    2    1    2    0    0  0.00000000000E+00  0.00000000000E+00  0.11022408334E+03  0.80862066541E+03  0.80107305034E+03 0.  0.
        5    1    3    3  502    0 -0.14751655246E+03 -0.24091072907E+03 -0.23147899946E+03  0.36524475331E+03  0.46999998093E+01 0. -1.
       -5    1    3    3    0  502  0.14751655246E+03  0.24091072907E+03  0.34170308280E+03  0.44337591210E+03  0.46999998093E+01 0.  1.
</event>
<event>
 5   0  0.1049780E-02  0.8030847E+03  0.7818609E-02  0.9555563E-01
       -1   -1    0    0    0  501  0.00000000000E+00  0.00000000000E+00  0.16165375029E+04  0.16165375029E+04  0.50400001928E-02 0. -1.
        1   -1    0    0  501    0  0.00000000000E+00  0.00000000000E+00 -0.99741746579E+02  0.99741746706E+02  0.50400001928E-02 0.  1.
    10030    2    1    2    0    0  0.00000000000E+00  0.00000000000E+00  0.15167957564E+04  0.17162792496E+04  0.80308473792E+03 0.  0.
        5    1    3    3  502    0 -0.24216567636E+03 -0.29654775974E+03  0.49991024552E+03  0.62969606334E+03  0.46999998093E+01 0.  1.
       -5    1    3    3    0  502  0.24216567636E+03  0.29654775974E+03  0.10168855108E+04  0.10865831863E+04  0.46999998093E+01 0. -1.
</event>
<event>
 5   0  0.1038912E-02  0.8008927E+03  0.7818609E-02  0.9558726E-01
        1   -1    0    0  501    0  0.00000000000E+00  0.00000000000E+00  0.40447929523E+03  0.40447929526E+03  0.50400001928E-02 0. -1.
       -1   -1    0    0    0  501  0.00000000000E+00  0.00000000000E+00 -0.39645365349E+03  0.39645365352E+03  0.50400001928E-02 0.  1.
    10030    2    1    2    0    0  0.00000000000E+00  0.00000000000E+00  0.80256417414E+01  0.80093294878E+03  0.80089273784E+03 0.  0.
        2    1    3    3  502    0  0.24259053570E+03  0.22191568990E+03 -0.22460432816E+03  0.39817564676E+03  0.25500000920E-02 0.  1.
       -2    1    3    3    0  502 -0.24259053570E+03 -0.22191568990E+03  0.23262996990E+03  0.40275730203E+03  0.25500000920E-02 0. -1.
</event>
<event>
 5   0  0.1747544E-02  0.8005277E+03  0.7818609E-02  0.9559254E-01
       -2   -1    0    0    0  501  0.00000000000E+00  0.00000000000E+00  0.51450425246E+03  0.51450425246E+03  0.25500000920E-02 0. -1.
        2   -1    0    0  501    0  0.00000000000E+00  0.00000000000E+00 -0.31138934367E+03  0.31138934368E+03  0.25500000920E-02 0.  1.
    10030    2    1    2    0    0  0.00000000000E+00  0.00000000000E+00  0.20311490879E+03  0.82589359614E+03  0.80052767970E+03 0.  0.
        1    1    3    3  502    0 -0.29705403690E+03 -0.25312468684E+03  0.19324376200E+03  0.43549553328E+03  0.50400001928E-02 0.  1.
       -1    1    3    3    0  502  0.29705403690E+03  0.25312468684E+03  0.98711467862E+01  0.39039806287E+03  0.50400001928E-02 0. -1.
</event>
<event>
 5   0  0.1038912E-02  0.8007271E+03  0.7818609E-02  0.9558965E-01
        1   -1    0    0  501    0  0.00000000000E+00  0.00000000000E+00  0.14600702856E+04  0.14600702856E+04  0.50400001928E-02 0. -1.
       -1   -1    0    0    0  501  0.00000000000E+00  0.00000000000E+00 -0.10978305262E+03  0.10978305273E+03  0.50400001928E-02 0.  1.
    10030    2    1    2    0    0  0.00000000000E+00  0.00000000000E+00  0.13502872330E+04  0.15698533383E+04  0.80072710229E+03 0.  0.
        2    1    3    3  502    0 -0.13979006051E+03  0.13437627588E+03 -0.11583133718E+02  0.19424832954E+03  0.25500000920E-02 0.  1.
       -2    1    3    3    0  502  0.13979006051E+03 -0.13437627588E+03  0.13618703667E+04  0.13756050088E+04  0.25500000920E-02 0. -1.
</event>
<event>
 5   0  0.1747544E-02  0.7991105E+03  0.7818609E-02  0.9561305E-01
       -2   -1    0    0    0  501  0.00000000000E+00  0.00000000000E+00  0.86880017556E+02  0.86880017593E+02  0.25500000920E-02 0.  1.
        2   -1    0    0  501    0  0.00000000000E+00  0.00000000000E+00 -0.18375272929E+04  0.18375272929E+04  0.25500000920E-02 0. -1.
    10030    2    1    2    0    0  0.00000000000E+00  0.00000000000E+00 -0.17506472754E+04  0.19244073105E+04  0.79911051427E+03 0.  0.
        1    1    3    3  502    0  0.31327387770E+03  0.16197365860E+03 -0.42306890111E+03  0.55078424419E+03  0.50400001928E-02 0.  1.
       -1    1    3    3    0  502 -0.31327387770E+03 -0.16197365860E+03 -0.13275783743E+04  0.13736230663E+04  0.50400001928E-02 0. -1.
</event>
<event>
 5   0  0.1818665E-02  0.7989334E+03  0.7818609E-02  0.9561562E-01
        2   -1    0    0  501    0  0.00000000000E+00  0.00000000000E+00  0.55268493193E+03  0.55268493193E+03  0.25500000920E-02 0.  1.
       -2   -1    0    0    0  501  0.00000000000E+00  0.00000000000E+00 -0.28872440494E+03  0.28872440496E+03  0.25500000920E-02 0. -1.
    10030    2    1    2    0    0  0.00000000000E+00  0.00000000000E+00  0.26396052698E+03  0.84140933689E+03  0.79893335917E+03 0.  0.
        3    1    3    3  502    0  0.29624780479E+03 -0.22376936377E+03 -0.23296990234E+02  0.37199227137E+03  0.10100000352E+00 0. -1.
       -3    1    3    3    0  502 -0.29624780479E+03  0.22376936377E+03  0.28725751722E+03  0.46941706552E+03  0.10100000352E+00 0.  1.
</event>
<event>
 5   0  0.1818665E-02  0.7982314E+03  0.7818609E-02  0.9562581E-01
        2   -1    0    0  501    0  0.00000000000E+00  0.00000000000E+00  0.16224870884E+04  0.16224870884E+04  0.25500000920E-02 0. -1.
       -2   -1    0    0    0  501  0.00000000000E+00  0.00000000000E+00 -0.98178485976E+02  0.98178486009E+02  0.25500000920E-02 0.  1.
    10030    2    1    2    0    0  0.00000000000E+00  0.00000000000E+00  0.15243086024E+04  0.17206655744E+04  0.79823135965E+03 0.  0.
        3    1    3    3  502    0  0.82578943913E+02  0.32560411669E+03  0.29754429652E+03  0.44874262265E+03  0.10100000352E+00 0.  1.
       -3    1    3    3    0  502 -0.82578943913E+02 -0.32560411669E+03  0.12267643059E+04  0.12719229517E+04  0.10100000352E+00 0. -1.
</event>
<event>
 5   0  0.1025900E-02  0.8055099E+03  0.7818609E-02  0.9552076E-01
       -1   -1    0    0    0  501  0.00000000000E+00  0.00000000000E+00  0.54965037872E+03  0.54965037874E+03  0.50400001928E-02 0.  1.
        1   -1    0    0  501    0  0.00000000000E+00  0.00000000000E+00 -0.29511770971E+03  0.29511770975E+03  0.50400001928E-02 0. -1.
    10030    2    1    2    0    0  0.00000000000E+00  0.00000000000E+00  0.25453266901E+03  0.84476808850E+03  0.80550992778E+03 0.  0.
        1    1    3    3  502    0 -0.28907290901E+03  0.27514885729E+03  0.18414541193E+03  0.43952198256E+03  0.50400001928E-02 0.  1.
       -1    1    3    3    0  502  0.28907290901E+03 -0.27514885729E+03  0.70387257079E+02  0.40524610594E+03  0.50400001928E-02 0. -1.
</event>
<event>
 5   0  0.1049780E-02  0.8012810E+03  0.7818609E-02  0.9558165E-01
        1   -1    0    0  501    0  0.00000000000E+00  0.00000000000E+00  0.22071134636E+03  0.22071134642E+03  0.50400001928E-02 0. -1.
       -1   -1    0    0    0  501  0.00000000000E+00  0.00000000000E+00 -0.72725213137E+03  0.72725213138E+03  0.50400001928E-02 0.  1.
    10030    2    1    2    0    0  0.00000000000E+00  0.00000000000E+00 -0.50654078500E+03  0.94796347780E+03  0.80128096719E+03 0.  0.
        5    1    3    3  502    0  0.19283257013E+03 -0.17858138878E+03 -0.61096755698E+03  0.66511589832E+03  0.46999998093E+01 0.  1.
       -5    1    3    3    0  502 -0.19283257013E+03  0.17858138878E+03  0.10442677197E+03  0.28284757949E+03  0.46999998093E+01 0. -1.
</event>
<event>
 5   0  0.1818665E-02  0.7947025E+03  0.7818609E-02  0.9567717E-01
       -2   -1    0    0    0  501  0.00000000000E+00  0.00000000000E+00  0.27950898755E+03  0.27950898756E+03  0.25500000920E-02 0. -1.
        2   -1    0    0  501    0  0.00000000000E+00  0.00000000000E+00 -0.56487635750E+03  0.56487635751E+03  0.25500000920E-02 0.  1.
    10030    2    1    2    0    0  0.00000000000E+00  0.00000000000E+00 -0.28536736995E+03  0.84438534507E+03  0.79470250731E+03 0.  0.
        3    1    3    3  502    0 -0.47574213915E+02  0.61958055314E+02  0.27127006583E+03  0.28229340280E+03  0.10100000352E+00 0. -1.
       -3    1    3    3    0  502  0.47574213915E+02 -0.61958055314E+02 -0.55663743578E+03  0.56209194227E+03  0.10100000352E+00 0.  1.
</event>
<event>
 5   0  0.1049780E-02  0.7984935E+03  0.7818609E-02  0.9562200E-01
       -1   -1    0    0    0  501  0.00000000000E+00  0.00000000000E+00  0.20221802161E+03  0.20221802167E+03  0.50400001928E-02 0. -1.
        1   -1    0    0  501    0  0.00000000000E+00  0.00000000000E+00 -0.78824800613E+03  0.78824800614E+03  0.50400001928E-02 0.  1.
    10030    2    1    2    0    0  0.00000000000E+00  0.00000000000E+00 -0.58602998452E+03  0.99046602781E+03  0.79849346240E+03 0.  0.
        5    1    3    3  502    0 -0.91981064653E+02 -0.30370280018E+03  0.74633029331E+01  0.31744873284E+03  0.46999998093E+01 0. -1.
       -5    1    3    3    0  502  0.91981064653E+02  0.30370280018E+03 -0.59349328745E+03  0.67301729498E+03  0.46999998093E+01 0.  1.
</event>
<event>
 5   0  0.1817089E-02  0.7908861E+03  0.7818609E-02  0.9573304E-01
       -2   -1    0    0    0  501  0.00000000000E+00  0.00000000000E+00  0.11898493757E+03  0.11898493760E+03  0.25500000920E-02 0. -1.
        2   -1    0    0  501    0  0.00000000000E+00  0.00000000000E+00 -0.13142436799E+04  0.13142436799E+04  0.25500000920E-02 0.  1.
    10030    2    1    2    0    0  0.00000000000E+00  0.00000000000E+00 -0.11952587423E+04  0.14332286175E+04  0.79088609098E+03 0.  0.
        2    1    3    3  502    0 -0.18514008834E+03 -0.29349620190E+03 -0.94126745326E+03  0.10031955400E+04  0.25500000920E-02 0.  1.
       -2    1    3    3    0  502  0.18514008834E+03  0.29349620190E+03 -0.25399128906E+03  0.43003307752E+03  0.25500000920E-02 0. -1.
</event>
<event>
 5   0  0.1025900E-02  0.7995243E+03  0.7818609E-02  0.9560706E-01
       -1   -1    0    0    0  501  0.00000000000E+00  0.00000000000E+00  0.32525709261E+03  0.32525709265E+03  0.50400001928E-02 0.  1.
        1   -1    0    0  501    0  0.00000000000E+00  0.00000000000E+00 -0.49133377103E+03  0.49133377106E+03  0.50400001928E-02 0. -1.
    10030    2    1    2    0    0  0.00000000000E+00  0.00000000000E+00 -0.16607667843E+03  0.81659086371E+03  0.79952434333E+03 0.  0.
        1    1    3    3  502    0 -0.35087780131E+03  0.12324122904E+03 -0.23281849587E+03  0.43875743188E+03  0.50400001928E-02 0.  1.
       -1    1    3    3    0  502  0.35087780131E+03 -0.12324122904E+03  0.66741817438E+02  0.37783343183E+03  0.50400001928E-02 0. -1.
</event>
<event>
 5   0  0.1025900E-02  0.7957263E+03  0.7818609E-02  0.9566224E-01
       -1   -1    0    0    0  501  0.00000000000E+00  0.00000000000E+00  0.59121707019E+03  0.59121707021E+03  0.50400001928E-02 0.  1.
        1   -1    0    0  501    0  0.00000000000E+00  0.00000000000E+00 -0.26774444149E+03  0.26774444153E+03  0.50400001928E-02 0. -1.
    10030    2    1    2    0    0  0.00000000000E+00  0.00000000000E+00  0.32347262871E+03  0.85896151175E+03  0.79572629537E+03 0.  0.
        1    1    3    3  502    0  0.19536945017E+03  0.34303897120E+03  0.10830396837E+03  0.40935889805E+03  0.50400001928E-02 0. -1.
       -1    1    3    3    0  502 -0.19536945017E+03 -0.34303897120E+03  0.21516866034E+03  0.44960261370E+03  0.50400001928E-02 0.  1.
</event>
<event>
 5   0  0.1038912E-02  0.8442647E+03  0.7818609E-02  0.9498067E-01
        1   -1    0    0  501    0  0.00000000000E+00  0.00000000000E+00  0.60313569694E+03  0.60313569696E+03  0.50400001928E-02 0. -1.
       -1   -1    0    0    0  501  0.00000000000E+00  0.00000000000E+00 -0.29544882022E+03  0.29544882026E+03  0.50400001928E-02 0.  1.
    10030    2    1    2    0    0  0.00000000000E+00  0.00000000000E+00  0.30768687672E+03  0.89858451723E+03  0.84426472181E+03 0.  0.
        2    1    3    3  502    0  0.18578967503E+03  0.18951426748E+03 -0.19554912173E+03  0.32965575976E+03  0.25500000920E-02 0.  1.
       -2    1    3    3    0  502 -0.18578967503E+03 -0.18951426748E+03  0.50323599845E+03  0.56892875746E+03  0.25500000920E-02 0. -1.
</event>
<event>
 5   0  0.1731337E-02  0.8040385E+03  0.7818609E-02  0.9554190E-01
        2   -1    0    0  501    0  0.00000000000E+00  0.00000000000E+00  0.37732603578E+03  0.37732603579E+03  0.25500000920E-02 0. -1.
       -2   -1    0    0    0  501  0.00000000000E+00  0.00000000000E+00 -0.42832842179E+03  0.42832842180E+03  0.25500000920E-02 0.  1.
    10030    2    1    2    0    0  0.00000000000E+00  0.00000000000E+00 -0.51002386005E+02  0.80565445759E+03  0.80403847026E+03 0.  0.
        4    1    3    3  502    0 -0.38622313021E+03  0.11092288181E+03 -0.13407947429E+02  0.40206165942E+03  0.12699999809E+01 0. -1.
       -4    1    3    3    0  502  0.38622313021E+03 -0.11092288181E+03 -0.37594438577E+02  0.40359279817E+03  0.12699999809E+01 0.  1.
</event>
<event>
 5   0  0.1030323E-02  0.7988599E+03  0.7818609E-02  0.9561669E-01
       -1   -1    0    0    0  501  0.00000000000E+00  0.00000000000E+00  0.18796635277E+03  0.18796635284E+03  0.50400001928E-02 0.  1.
        1   -1    0    0  501    0  0.00000000000E+00  0.00000000000E+00 -0.84879180075E+03  0.84879180077E+03  0.50400001928E-02 0. -1.
    10030    2    1    2    0    0  0.00000000000E+00  0.00000000000E+00 -0.66082544798E+03  0.10367581536E+04  0.79885993539E+03 0.  0.
        3    1    3    3  502    0 -0.24292687785E+03  0.28728772472E+03 -0.15631148602E+03  0.40740765287E+03  0.10100000352E+00 0. -1.
       -3    1    3    3    0  502  0.24292687785E+03 -0.28728772472E+03 -0.50451396196E+03  0.62935050073E+03  0.10100000352E+00 0.  1.
</event>
<event>
 5   0  0.1049780E-02  0.8033161E+03  0.7818609E-02  0.9555229E-01
        1   -1    0    0  501    0  0.00000000000E+00  0.00000000000E+00  0.11675989834E+04  0.11675989834E+04  0.50400001928E-02 0.  1.
       -1   -1    0    0    0  501  0.00000000000E+00  0.00000000000E+00 -0.13817176017E+03  0.13817176026E+03  0.50400001928E-02 0. -1.
    10030    2    1    2    0    0  0.00000000000E+00  0.00000000000E+00  0.10294272232E+04  0.13057707437E+04  0.80331614393E+03 0.  0.
        5    1    3    3  502    0 -0.12101083967E+03 -0.33596794957E+03  0.81350515609E+03  0.88844291626E+03  0.46999998093E+01 0.  1.
       -5    1    3    3    0  502  0.12101083967E+03  0.33596794957E+03  0.21592206715E+03  0.41732782742E+03  0.46999998093E+01 0. -1.
</event>
<event>
 5   0  0.1038912E-02  0.7997306E+03  0.7818609E-02  0.9560407E-01
       -1   -1    0    0    0  501  0.00000000000E+00  0.00000000000E+00  0.52800344883E+03  0.52800344885E+03  0.50400001928E-02 0.  1.
        1   -1    0    0  501    0  0.00000000000E+00  0.00000000000E+00 -0.30282425588E+03  0.30282425593E+03  0.50400001928E-02 0. -1.
    10030    2    1    2    0    0  0.00000000000E+00  0.00000000000E+00  0.22517919295E+03  0.83082770478E+03  0.79973058344E+03 0.  0.
        2    1    3    3  502    0  0.34465500651E+03  0.19879982956E+03  0.71245050665E+02  0.40420824212E+03  0.25500000920E-02 0. -1.
       -2    1    3    3    0  502 -0.34465500651E+03 -0.19879982956E+03  0.15393414228E+03  0.42661946266E+03  0.25500000920E-02 0.  1.
</event>
<event>
 5   0  0.1817089E-02  0.8347832E+03  0.7818609E-02  0.9510991E-01
        2   -1    0    0  501    0  0.00000000000E+00  0.00000000000E+00  0.10334613307E+04  0.10334613307E+04  0.25500000920E-02 0. -1.
       -2   -1    0    0    0  501  0.00000000000E+00  0.00000000000E+00 -0.16857499459E+03  0.16857499461E+03  0.25500000920E-02 0.  1.
    10030    2    1    2    0    0  0.00000000000E+00  0.00000000000E+00  0.86488633612E+03  0.12020363253E+04  0.83478317723E+03 0.  0.
        2    1    3    3  502    0 -0.75327285385E+02 -0.29983489238E+03  0.28642302456E+02  0.31047631811E+03  0.25500000920E-02 0.  1.
       -2    1    3    3    0  502  0.75327285385E+02  0.29983489238E+03  0.83624403366E+03  0.89156000721E+03  0.25500000920E-02 0. -1.
</event>
<event>
 5   0  0.6872500E-03  0.7986499E+03  0.7818609E-02  0.9561973E-01
       -3   -1    0    0    0  501  0.00000000000E+00  0.00000000000E+00  0.26304063557E+03  0.26304065496E+03  0.10100000352E+00 0. -1.
        3   -1    0    0  501    0  0.00000000000E+00  0.00000000000E+00 -0.60621964970E+03  0.60621965811E+03  0.10100000352E+00 0.  1.
    10030    2    1    2    0    0  0.00000000000E+00  0.00000000000E+00 -0.34317901413E+03  0.86926031307E+03  0.79864989585E+03 0.  0.
        3    1    3    3  502    0  0.20136230200E+03  0.27235215076E+03 -0.40180331614E+03  0.52551725543E+03  0.10100000352E+00 0. -1.
       -3    1    3    3    0  502 -0.20136230200E+03 -0.27235215076E+03  0.58624302015E+02  0.34374305764E+03  0.10100000352E+00 0.  1.
</event>
<event>
 5   0  0.1731337E-02  0.8025487E+03  0.7818609E-02  0.9556335E-01
       -2   -1    0    0    0  501  0.00000000000E+00  0.00000000000E+00  0.81080398075E+02  0.81080398115E+02  0.25500000920E-02 0.  1.
        2   -1    0    0  501    0  0.00000000000E+00  0.00000000000E+00 -0.19859435094E+04  0.19859435094E+04  0.25500000920E-02 0. -1.
    10030    2    1    2    0    0  0.00000000000E+00  0.00000000000E+00 -0.19048631113E+04  0.20670239075E+04  0.80254866604E+03 0.  0.
        4    1    3    3  502    0 -0.48208105062E+02 -0.81393418025E+01  0.73375541277E+02  0.88180798569E+02  0.12699999809E+01 0.  1.
       -4    1    3    3    0  502  0.48208105062E+02  0.81393418025E+01 -0.19782386526E+04  0.19788431090E+04  0.12699999809E+01 0. -1.
</event>
<event>
 5   0  0.1731337E-02  0.7262983E+03  0.7818609E-02  0.9673286E-01
       -2   -1    0    0    0  501  0.00000000000E+00  0.00000000000E+00  0.10211607443E+03  0.10211607446E+03  0.25500000920E-02 0.  1.
        2   -1    0    0  501    0  0.00000000000E+00  0.00000000000E+00 -0.12914449763E+04  0.12914449763E+04  0.25500000920E-02 0. -1.
    10030    2    1    2    0    0  0.00000000000E+00  0.00000000000E+00 -0.11893289019E+04  0.13935610508E+04  0.72629826199E+03 0.  0.
        4    1    3    3  502    0 -0.40665465463E+02  0.18876719876E+03 -0.11847720142E+04  0.12004053790E+04  0.12699999809E+01 0. -1.
       -4    1    3    3    0  502  0.40665465463E+02 -0.18876719876E+03 -0.45568876835E+01  0.19315567176E+03  0.12699999809E+01 0.  1.
</event>
<event>
 5   0  0.1146083E-02  0.8047902E+03  0.7818609E-02  0.9553109E-01
       -1   -1    0    0    0  501  0.00000000000E+00  0.00000000000E+00  0.20571929990E+03  0.20571929997E+03  0.50400001928E-02 0. -1.
        1   -1    0    0  501    0  0.00000000000E+00  0.00000000000E+00 -0.78710070160E+03  0.78710070162E+03  0.50400001928E-02 0.  1.
    10030    2    1    2    0    0  0.00000000000E+00  0.00000000000E+00 -0.58138140170E+03  0.99282000159E+03  0.80479017222E+03 0.  0.
        4    1    3    3  502    0 -0.23635621443E+03  0.29213281061E+03 -0.46824187278E+03  0.60038146495E+03  0.12699999809E+01 0. -1.
       -4    1    3    3    0  502  0.23635621443E+03 -0.29213281061E+03 -0.11313952892E+03  0.39243853663E+03  0.12699999809E+01 0.  1.
</event>
<event>
 5   0  0.1817089E-02  0.8014497E+03  0.7818609E-02  0.9557921E-01
        2   -1    0    0  501    0  0.00000000000E+00  0.00000000000E+00  0.43171609573E+03  0.43171609574E+03  0.25500000920E-02 0.  1.
       -2   -1    0    0    0  501  0.00000000000E+00  0.00000000000E+00 -0.37195837037E+03  0.37195837038E+03  0.25500000920E-02 0. -1.
    10030    2    1    2    0    0  0.00000000000E+00  0.00000000000E+00  0.59757725365E+02  0.80367446612E+03  0.80144972503E+03 0.  0.
        2    1    3    3  502    0  0.36045612609E+03  0.15072252599E+03 -0.59444307228E+02  0.39519555203E+03  0.25500000920E-02 0. -1.
       -2    1    3    3    0  502 -0.36045612609E+03 -0.15072252599E+03  0.11920203259E+03  0.40847891409E+03  0.25500000920E-02 0.  1.
</event>
<event>
 5   0  0.6872500E-03  0.8012337E+03  0.7818609E-02  0.9558233E-01
       -3   -1    0    0    0  501  0.00000000000E+00  0.00000000000E+00  0.90072282635E+02  0.90072339262E+02  0.10100000352E+00 0. -1.
        3   -1    0    0  501    0  0.00000000000E+00  0.00000000000E+00 -0.17818332492E+04  0.17818332521E+04  0.10100000352E+00 0.  1.
    10030    2    1    2    0    0  0.00000000000E+00  0.00000000000E+00 -0.16917609666E+04  0.18719055913E+04  0.80123365808E+03 0.  0.
        5    1    3    3  502    0 -0.35242225895E+03  0.56408802228E+02 -0.12708544496E+04  0.13200289859E+04  0.46999998093E+01 0.  1.
       -5    1    3    3    0  502  0.35242225895E+03 -0.56408802228E+02 -0.42090651692E+03  0.55187660537E+03  0.46999998093E+01 0. -1.
</event>
<event>
 5   0  0.1731337E-02  0.8193943E+03  0.7818609E-02  0.9532361E-01
       -2   -1    0    0    0  501  0.00000000000E+00  0.00000000000E+00  0.11979954571E+03  0.11979954574E+03  0.25500000920E-02 0.  1.
        2   -1    0    0  501    0  0.00000000000E+00  0.00000000000E+00 -0.14011050207E+04  0.14011050207E+04  0.25500000920E-02 0. -1.
    10030    2    1    2    0    0  0.00000000000E+00  0.00000000000E+00 -0.12813054750E+04  0.15209045665E+04  0.81939427627E+03 0.  0.
        4    1    3    3  502    0  0.24242899492E+03 -0.25505494710E+03 -0.25119517347E+03  0.43234878477E+03  0.12699999809E+01 0.  1.
       -4    1    3    3    0  502 -0.24242899492E+03  0.25505494710E+03 -0.10301103015E+04  0.10885557817E+04  0.12699999809E+01 0. -1.
</event>
<event>
 5   0  0.1673727E-02  0.8034746E+03  0.7818609E-02  0.9555001E-01
        2   -1    0    0  501    0  0.00000000000E+00  0.00000000000E+00  0.11948436197E+03  0.11948436199E+03  0.25500000920E-02 0. -1.
       -2   -1    0    0    0  501  0.00000000000E+00  0.00000000000E+00 -0.13507445267E+04  0.13507445267E+04  0.25500000920E-02 0.  1.
    10030    2    1    2    0    0  0.00000000000E+00  0.00000000000E+00 -0.12312601647E+04  0.14702288887E+04  0.80347457451E+03 0.  0.
        5    1    3    3  502    0 -0.29162866087E+03  0.92400557685E+01 -0.11038876852E+03  0.31199427027E+03  0.46999998093E+01 0. -1.
       -5    1    3    3    0  502  0.29162866087E+03 -0.92400557685E+01 -0.11208713962E+04  0.11582346184E+04  0.46999998093E+01 0.  1.
</event>
<event>
 5   0  0.6872500E-03  0.8032267E+03  0.7818609E-02  0.9555358E-01
        4   -1    0    0  501    0  0.00000000000E+00  0.00000000000E+00  0.56008194366E+03  0.56008338354E+03  0.12699999809E+01 0.  1.
       -4   -1    0    0    0  501  0.00000000000E+00  0.00000000000E+00 -0.28797835585E+03  0.28798115622E+03  0.12699999809E+01 0. -1.
    10030    2    1    2    0    0  0.00000000000E+00  0.00000000000E+00  0.27210358781E+03  0.84806453975E+03  0.80322668101E+03 0.  0.
        4    1    3    3  502    0  0.18541695281E+03  0.31193414621E+03 -0.45627268821E+02  0.36574009696E+03  0.12699999809E+01 0. -1.
       -4    1    3    3    0  502 -0.18541695281E+03 -0.31193414621E+03  0.31773085664E+03  0.48232444280E+03  0.12699999809E+01 0.  1.
</event>
<event>
 5   0  0.1673727E-02  0.8077925E+03  0.7818609E-02  0.9548806E-01
       -2   -1    0    0    0  501  0.00000000000E+00  0.00000000000E+00  0.19511289189E+03  0.19511289191E+03  0.25500000920E-02 0. -1.
        2   -1    0    0  501    0  0.00000000000E+00  0.00000000000E+00 -0.83609122770E+03  0.83609122770E+03  0.25500000920E-02 0.  1.
    10030    2    1    2    0    0  0.00000000000E+00  0.00000000000E+00 -0.64097833580E+03  0.10312041196E+04  0.80779249151E+03 0.  0.
        5    1    3    3  502    0 -0.23159703742E+02 -0.10568853912E+03 -0.81721071238E+03  0.82435543160E+03  0.46999998093E+01 0.  1.
       -5    1    3    3    0  502  0.23159703742E+02  0.10568853912E+03  0.17623237658E+03  0.20684868801E+03  0.46999998093E+01 0. -1.
</event>
<event>
 5   0  0.1049780E-02  0.9403103E+03  0.7818609E-02  0.9376549E-01
       -1   -1    0    0    0  501  0.00000000000E+00  0.00000000000E+00  0.30735495683E+03  0.30735495688E+03  0.50400001928E-02 0.  1.
        1   -1    0    0  501    0  0.00000000000E+00  0.00000000000E+00 -0.71918755442E+03  0.71918755444E+03  0.50400001928E-02 0. -1.
    10030    2    1    2    0    0  0.00000000000E+00  0.00000000000E+00 -0.41183259759E+03  0.10265425113E+04  0.94031028873E+03 0.  0.
        5    1    3    3  502    0  0.40127165435E+03  0.20054051852E+03 -0.52344907429E+02  0.45166084564E+03  0.46999998093E+01 0. -1.
       -5    1    3    3    0  502 -0.40127165435E+03 -0.20054051852E+03 -0.35948769016E+03  0.57488166567E+03  0.46999998093E+01 0.  1.
</event>
<event>
 5   0  0.1038912E-02  0.7997403E+03  0.7818609E-02  0.9560393E-01
       -1   -1    0    0    0  501  0.00000000000E+00  0.00000000000E+00  0.85789167809E+03  0.85789167811E+03  0.50400001928E-02 0. -1.
        1   -1    0    0  501    0  0.00000000000E+00  0.00000000000E+00 -0.18638265398E+03  0.18638265405E+03  0.50400001928E-02 0.  1.
    10030    2    1    2    0    0  0.00000000000E+00  0.00000000000E+00  0.67150902411E+03  0.10442743322E+04  0.79974027743E+03 0.  0.
        2    1    3    3  502    0  0.11810159663E+03 -0.22666910831E+03  0.73730542777E+03  0.78035002762E+03  0.25500000920E-02 0. -1.
       -2    1    3    3    0  502 -0.11810159663E+03  0.22666910831E+03 -0.65796403656E+02  0.26392430454E+03  0.25500000920E-02 0.  1.
</event>
<event>
 5   0  0.1747544E-02  0.7949194E+03  0.7818609E-02  0.9567400E-01
       -2   -1    0    0    0  501  0.00000000000E+00  0.00000000000E+00  0.20646364854E+03  0.20646364856E+03  0.25500000920E-02 0. -1.
        2   -1    0    0  501    0  0.00000000000E+00  0.00000000000E+00 -0.76514298884E+03  0.76514298884E+03  0.25500000920E-02 0.  1.
    10030    2    1    2    0    0  0.00000000000E+00  0.00000000000E+00 -0.55867934029E+03  0.97160663740E+03  0.79491940005E+03 0.  0.
        1    1    3    3  502    0  0.46275302539E+02  0.30316941246E+01  0.20314555555E+03  0.20837157090E+03  0.50400001928E-02 0. -1.
       -1    1    3    3    0  502 -0.46275302539E+02 -0.30316941246E+01 -0.76182489584E+03  0.76323506650E+03  0.50400001928E-02 0.  1.
</event>
<event>
 5   0  0.1146083E-02  0.8008819E+03  0.7818609E-02  0.9558742E-01
        1   -1    0    0  501    0  0.00000000000E+00  0.00000000000E+00  0.40983802452E+03  0.40983802455E+03  0.50400001928E-02 0. -1.
       -1   -1    0    0    0  501  0.00000000000E+00  0.00000000000E+00 -0.39125930329E+03  0.39125930332E+03  0.50400001928E-02 0.  1.
    10030    2    1    2    0    0  0.00000000000E+00  0.00000000000E+00  0.18578721232E+02  0.80109732787E+03  0.80088186385E+03 0.  0.
        4    1    3    3  502    0  0.24890894991E+03 -0.26081288515E+03  0.18361275315E+03  0.40459150068E+03  0.12699999809E+01 0. -1.
       -4    1    3    3    0  502 -0.24890894991E+03  0.26081288515E+03 -0.16503403192E+03  0.39650582719E+03  0.12699999809E+01 0.  1.
</event>
<event>
 5   0  0.1818665E-02  0.8001999E+03  0.7818609E-02  0.9559728E-01
       -2   -1    0    0    0  501  0.00000000000E+00  0.00000000000E+00  0.49741305991E+03  0.49741305991E+03  0.25500000920E-02 0.  1.
        2   -1    0    0  501    0  0.00000000000E+00  0.00000000000E+00 -0.32182499186E+03  0.32182499187E+03  0.25500000920E-02 0. -1.
    10030    2    1    2    0    0  0.00000000000E+00  0.00000000000E+00  0.17558806804E+03  0.81923805179E+03  0.80019985994E+03 0.  0.
        3    1    3    3  502    0 -0.19181403751E+03 -0.30354600064E+03  0.26847847746E+03  0.44834529389E+03  0.10100000352E+00 0.  1.
       -3    1    3    3    0  502  0.19181403751E+03  0.30354600064E+03 -0.92890409420E+02  0.37089275789E+03  0.10100000352E+00 0. -1.
</event>
<event>
 5   0  0.1049780E-02  0.7969663E+03  0.7818609E-02  0.9564419E-01
        1   -1    0    0  501    0  0.00000000000E+00  0.00000000000E+00  0.28489122146E+04  0.28489122146E+04  0.50400001928E-02 0.  1.
       -1   -1    0    0    0  501  0.00000000000E+00  0.00000000000E+00 -0.55736649341E+02  0.55736649569E+02  0.50400001928E-02 0. -1.
    10030    2    1    2    0    0  0.00000000000E+00  0.00000000000E+00  0.27931755652E+04  0.29046488642E+04  0.79696630153E+03 0.  0.
        5    1    3    3  502    0  0.31420296998E+02  0.37779910541E+03  0.18436659244E+04  0.18822448114E+04  0.46999998093E+01 0. -1.
       -5    1    3    3    0  502 -0.31420296998E+02 -0.37779910541E+03  0.94950964080E+03  0.10224040528E+04  0.46999998093E+01 0.  1.
</event>
<event>
 5   0  0.1030323E-02  0.8041493E+03  0.7818609E-02  0.9554031E-01
       -1   -1    0    0    0  501  0.00000000000E+00  0.00000000000E+00  0.12483228072E+03  0.12483228082E+03  0.50400001928E-02 0. -1.
        1   -1    0    0  501    0  0.00000000000E+00  0.00000000000E+00 -0.12950496957E+04  0.12950496957E+04  0.50400001928E-02 0.  1.
    10030    2    1    2    0    0  0.00000000000E+00  0.00000000000E+00 -0.11702174150E+04  0.14198819765E+04  0.80414925788E+03 0.  0.
        3    1    3    3  502    0  0.19269838719E+03 -0.67658348612E+02  0.26427763304E+02  0.20593386666E+03  0.10100000352E+00 0. -1.
       -3    1    3    3    0  502 -0.19269838719E+03  0.67658348612E+02 -0.11966451783E+04  0.12139481099E+04  0.10100000352E+00 0.  1.
</event>
<event>
 5   0  0.6872500E-03  0.7975728E+03  0.7818609E-02  0.9563537E-01
       -3   -1    0    0    0  501  0.00000000000E+00  0.00000000000E+00  0.12344351196E+03  0.12344355328E+03  0.10100000352E+00 0. -1.
        3   -1    0    0  501    0  0.00000000000E+00  0.00000000000E+00 -0.12882860685E+04  0.12882860724E+04  0.10100000352E+00 0.  1.
    10030    2    1    2    0    0  0.00000000000E+00  0.00000000000E+00 -0.11648425565E+04  0.14117296257E+04  0.79757278955E+03 0.  0.
        2    1    3    3  502    0  0.24942998326E+03  0.15807423819E+03 -0.10568025163E+04  0.10972849857E+04  0.25500000920E-02 0.  1.
       -2    1    3    3    0  502 -0.24942998326E+03 -0.15807423819E+03 -0.10804004017E+03  0.31444463999E+03  0.25500000920E-02 0. -1.
</event>
<event>
 5   0  0.1817089E-02  0.7999832E+03  0.7818609E-02  0.9560041E-01
        2   -1    0    0  501    0  0.00000000000E+00  0.00000000000E+00  0.42024009343E+03  0.42024009344E+03  0.25500000920E-02 0. -1.
       -2   -1    0    0    0  501  0.00000000000E+00  0.00000000000E+00 -0.38071877488E+03  0.38071877488E+03  0.25500000920E-02 0.  1.
    10030    2    1    2    0    0  0.00000000000E+00  0.00000000000E+00  0.39521318558E+02  0.80095886833E+03  0.79998323365E+03 0.  0.
        2    1    3    3  502    0  0.38415212472E+03  0.72599848528E+02  0.10441968322E+03  0.40465672264E+03  0.25500000920E-02 0. -1.
       -2    1    3    3    0  502 -0.38415212472E+03 -0.72599848528E+02 -0.64898364660E+02  0.39630214568E+03  0.25500000920E-02 0.  1.
</event>
<event>
 5   0  0.1673727E-02  0.8035740E+03  0.7818609E-02  0.9554858E-01
        2   -1    0    0  501    0  0.00000000000E+00  0.00000000000E+00  0.18128904523E+04  0.18128904523E+04  0.25500000920E-02 0. -1.
       -2   -1    0    0    0  501  0.00000000000E+00  0.00000000000E+00 -0.89047189793E+02  0.89047189830E+02  0.25500000920E-02 0.  1.
    10030    2    1    2    0    0  0.00000000000E+00  0.00000000000E+00  0.17238432625E+04  0.19019376421E+04  0.80357401703E+03 0.  0.
        5    1    3    3  502    0 -0.15057817139E+03 -0.21534163344E+03  0.14259873694E+03  0.29900216482E+03  0.46999998093E+01 0.  1.
       -5    1    3    3    0  502  0.15057817139E+03  0.21534163344E+03  0.15812445255E+04  0.16029354773E+04  0.46999998093E+01 0. -1.
</event>
<event>
 5   0  0.1146083E-02  0.8212583E+03  0.7818609E-02  0.9529746E-01
       -1   -1    0    0    0  501  0.00000000000E+00  0.00000000000E+00  0.14886171063E+03  0.14886171072E+03  0.50400001928E-02 0. -1.
        1   -1    0    0  501    0  0.00000000000E+00  0.00000000000E+00 -0.11327043847E+04  0.11327043847E+04  0.50400001928E-02 0.  1.
    10030    2    1    2    0    0  0.00000000000E+00  0.00000000000E+00 -0.98384267409E+03  0.12815660955E+04  0.82125833308E+03 0.  0.
        4    1    3    3  502    0 -0.44989739823E+02 -0.42856106253E+02 -0.11253229625E+04  0.11270377568E+04  0.12699999809E+01 0.  1.
       -4    1    3    3    0  502  0.44989739823E+02  0.42856106253E+02  0.14148028840E+03  0.15452833862E+03  0.12699999809E+01 0. -1.
</event>
<event>
 5   0  0.1731337E-02  0.7988025E+03  0.7818609E-02  0.9561752E-01
       -2   -1    0    0    0  501  0.00000000000E+00  0.00000000000E+00  0.42568639290E+03  0.42568639291E+03  0.25500000920E-02 0. -1.
        2   -1    0    0  501    0  0.00000000000E+00  0.00000000000E+00 -0.37473913205E+03  0.37473913206E+03  0.25500000920E-02 0.  1.
    10030    2    1    2    0    0  0.00000000000E+00  0.00000000000E+00  0.50947260854E+02  0.80042552497E+03  0.79880247724E+03 0.  0.
        4    1    3    3  502    0  0.10822744865E+03  0.21718380475E+03  0.34335273977E+03  0.42044583777E+03  0.12699999809E+01 0. -1.
       -4    1    3    3    0  502 -0.10822744865E+03 -0.21718380475E+03 -0.29240547892E+03  0.37997968720E+03  0.12699999809E+01 0.  1.
</event>
<event>
 5   0  0.1049780E-02  0.8106983E+03  0.7818609E-02  0.9544660E-01
       -1   -1    0    0    0  501  0.00000000000E+00  0.00000000000E+00  0.38957939000E+03  0.38957939004E+03  0.50400001928E-02 0.  1.
        1   -1    0    0  501    0  0.00000000000E+00  0.00000000000E+00 -0.42175724714E+03  0.42175724717E+03  0.50400001928E-02 0. -1.
    10030    2    1    2    0    0  0.00000000000E+00  0.00000000000E+00 -0.32177857133E+02  0.81133663720E+03  0.81069829430E+03 0.  0.
        5    1    3    3  502    0  0.30061928263E+03  0.26351371924E+03  0.50854755519E+02  0.40301331178E+03  0.46999998093E+01 0.  1.
       -5    1    3    3    0  502 -0.30061928263E+03 -0.26351371924E+03 -0.83032612652E+02  0.40832332542E+03  0.46999998093E+01 0. -1.
</event>
<event>
 5   0  0.1817089E-02  0.8030602E+03  0.7818609E-02  0.9555598E-01
       -2   -1    0    0    0  501  0.00000000000E+00  0.00000000000E+00  0.20273164026E+03  0.20273164028E+03  0.25500000920E-02 0.  1.
        2   -1    0    0  501    0  0.00000000000E+00  0.00000000000E+00 -0.79527020775E+03  0.79527020775E+03  0.25500000920E-02 0. -1.
    10030    2    1    2    0    0  0.00000000000E+00  0.00000000000E+00 -0.59253856749E+03  0.99800184803E+03  0.80306023107E+03 0.  0.
        2    1    3    3  502    0  0.32014887764E+03 -0.16837724770E+03 -0.79659149724E+02  0.37039408950E+03  0.25500000920E-02 0. -1.
       -2    1    3    3    0  502 -0.32014887764E+03  0.16837724770E+03 -0.51287941776E+03  0.62760775853E+03  0.25500000920E-02 0.  1.
</event>
<event>
 5   0  0.1818665E-02  0.7967702E+03  0.7818609E-02  0.9564704E-01
        2   -1    0    0  501    0  0.00000000000E+00  0.00000000000E+00  0.22298189664E+04  0.22298189664E+04  0.25500000920E-02 0. -1.
       -2   -1    0    0    0  501  0.00000000000E+00  0.00000000000E+00 -0.71176485271E+02  0.71176485317E+02  0.25500000920E-02 0.  1.
    10030    2    1    2    0    0  0.00000000000E+00  0.00000000000E+00  0.21586424811E+04  0.23009954517E+04  0.79677017232E+03 0.  0.
        3    1    3    3  502    0  0.64692900968E+02 -0.38718832782E+03  0.88322654567E+03  0.96653459008E+03  0.10100000352E+00 0.  1.
       -3    1    3    3    0  502 -0.64692900968E+02  0.38718832782E+03  0.12754159355E+04  0.13344608617E+04  0.10100000352E+00 0. -1.
</event>
<event>
 5   0  0.1038912E-02  0.7979256E+03  0.7818609E-02  0.9563025E-01
       -1   -1    0    0    0  501  0.00000000000E+00  0.00000000000E+00  0.12218939270E+03  0.12218939281E+03  0.50400001928E-02 0. -1.
        1   -1    0    0  501    0  0.00000000000E+00  0.00000000000E+00 -0.13026605875E+04  0.13026605875E+04  0.50400001928E-02 0.  1.
    10030    2    1    2    0    0  0.00000000000E+00  0.00000000000E+00 -0.11804711948E+04  0.14248499803E+04  0.79792557589E+03 0.  0.
        2    1    3    3  502    0 -0.16834398673E+03  0.20260817864E+02 -0.12351182536E+04  0.12467025704E+04  0.25500000920E-02 0.  1.
       -2    1    3    3    0  502  0.16834398673E+03 -0.20260817864E+02  0.54647058842E+02  0.17814740990E+03  0.25500000920E-02 0. -1.
</event>
<event>
 5   0  0.1049780E-02  0.7928447E+03  0.7818609E-02  0.9570432E-01
       -1   -1    0    0    0  501  0.00000000000E+00  0.00000000000E+00  0.68618407521E+03  0.68618407522E+03  0.50400001928E-02 0.  1.
        1   -1    0    0  501    0  0.00000000000E+00  0.00000000000E+00 -0.22902115975E+03  0.22902115981E+03  0.50400001928E-02 0. -1.
    10030    2    1    2    0    0  0.00000000000E+00  0.00000000000E+00  0.45716291546E+03  0.91520523503E+03  0.79284468275E+03 0.  0.
        5    1    3    3  502    0 -0.41311621533E+02  0.27837043779E+03  0.55082766951E+03  0.61857090313E+03  0.46999998093E+01 0.  1.
       -5    1    3    3    0  502  0.41311621533E+02 -0.27837043779E+03 -0.93664754050E+02  0.29663433190E+03  0.46999998093E+01 0. -1.
</event>
<event>
 5   0  0.1818665E-02  0.7990074E+03  0.7818609E-02  0.9561455E-01
        2   -1    0    0  501    0  0.00000000000E+00  0.00000000000E+00  0.90666369481E+03  0.90666369481E+03  0.25500000920E-02 0.  1.
       -2   -1    0    0    0  501  0.00000000000E+00  0.00000000000E+00 -0.17603351992E+03  0.17603351994E+03  0.25500000920E-02 0. -1.
    10030    2    1    2    0    0  0.00000000000E+00  0.00000000000E+00  0.73063017488E+03  0.10826972148E+04  0.79900738819E+03 0.  0.
        3    1    3    3  502    0 -0.76541630052E+02  0.32909393817E+03  0.65417265452E+03  0.73627665547E+03  0.10100000352E+00 0.  1.
       -3    1    3    3    0  502  0.76541630052E+02 -0.32909393817E+03  0.76457520362E+02  0.34642055928E+03  0.10100000352E+00 0. -1.
</event>
<event>
 5   0  0.1818665E-02  0.8091118E+03  0.7818609E-02  0.9546921E-01
       -2   -1    0    0    0  501  0.00000000000E+00  0.00000000000E+00  0.22373789948E+03  0.22373789950E+03  0.25500000920E-02 0.  1.
        2   -1    0    0  501    0  0.00000000000E+00  0.00000000000E+00 -0.73150544424E+03  0.73150544424E+03  0.25500000920E-02 0. -1.
    10030    2    1    2    0    0  0.00000000000E+00  0.00000000000E+00 -0.50776754475E+03  0.95524334374E+03  0.80911183791E+03 0.  0.
        3    1    3    3  502    0  0.56980281708E+02 -0.61945299204E+02 -0.72105458502E+03  0.72595020310E+03  0.10100000352E+00 0. -1.
       -3    1    3    3    0  502 -0.56980281708E+02  0.61945299204E+02  0.21328704027E+03  0.22929314064E+03  0.10100000352E+00 0.  1.
</event>
<event>
 5   0  0.1817089E-02  0.8057742E+03  0.7818609E-02  0.9551697E-01
        2   -1    0    0  501    0  0.00000000000E+00  0.00000000000E+00  0.69686691501E+03  0.69686691501E+03  0.25500000920E-02 0.  1.
       -2   -1    0    0    0  501  0.00000000000E+00  0.00000000000E+00 -0.23292538629E+03  0.23292538630E+03  0.25500000920E-02 0. -1.
    10030    2    1    2    0    0  0.00000000000E+00  0.00000000000E+00  0.46394152872E+03  0.92979230132E+03  0.80577415044E+03 0.  0.
        2    1    3    3  502    0 -0.27251025892E+03  0.19214617255E+03 -0.28966438354E+02  0.33469545470E+03  0.25500000920E-02 0. -1.
       -2    1    3    3    0  502  0.27251025892E+03 -0.19214617255E+03  0.49290796707E+03  0.59509684662E+03  0.25500000920E-02 0.  1.
</event>
<event>
 5   0  0.1025900E-02  0.7939913E+03  0.7818609E-02  0.9568755E-01
        1   -1    0    0  501    0  0.00000000000E+00  0.00000000000E+00  0.61992499645E+03  0.61992499647E+03  0.50400001928E-02 0.  1.
       -1   -1    0    0    0  501  0.00000000000E+00  0.00000000000E+00 -0.25423324797E+03  0.25423324802E+03  0.50400001928E-02 0. -1.
    10030    2    1    2    0    0  0.00000000000E+00  0.00000000000E+00  0.36569174848E+03  0.87415824449E+03  0.79399129813E+03 0.  0.
        1    1    3    3  502    0  0.26691457199E+03 -0.26166541925E+03  0.33011792194E+03  0.49868830223E+03  0.50400001928E-02 0. -1.
       -1    1    3    3    0  502 -0.26691457199E+03  0.26166541925E+03  0.35573826536E+02  0.37546994225E+03  0.50400001928E-02 0.  1.
</event>
<event>
 5   0  0.1731337E-02  0.8032344E+03  0.7818609E-02  0.9555347E-01
       -2   -1    0    0    0  501  0.00000000000E+00  0.00000000000E+00  0.59934248656E+02  0.59934248710E+02  0.25500000920E-02 0. -1.
        2   -1    0    0  501    0  0.00000000000E+00  0.00000000000E+00 -0.26912217840E+04  0.26912217840E+04  0.25500000920E-02 0.  1.
    10030    2    1    2    0    0  0.00000000000E+00  0.00000000000E+00 -0.26312875353E+04  0.27511560327E+04  0.80323435102E+03 0.  0.
        4    1    3    3  502    0 -0.74588037904E+02 -0.45520989102E+02 -0.26582610795E+04  0.26596971849E+04  0.12699999809E+01 0.  1.
       -4    1    3    3    0  502  0.74588037904E+02  0.45520989102E+02  0.26973544180E+02  0.91458847756E+02  0.12699999809E+01 0. -1.
</event>
<event>
 5   0  0.1818665E-02  0.7992825E+03  0.7818609E-02  0.9561056E-01
       -2   -1    0    0    0  501  0.00000000000E+00  0.00000000000E+00  0.21372331186E+03  0.21372331188E+03  0.25500000920E-02 0. -1.
        2   -1    0    0  501    0  0.00000000000E+00  0.00000000000E+00 -0.74728920712E+03  0.74728920713E+03  0.25500000920E-02 0.  1.
    10030    2    1    2    0    0  0.00000000000E+00  0.00000000000E+00 -0.53356589526E+03  0.96101251900E+03  0.79928248892E+03 0.  0.
        3    1    3    3  502    0  0.20514348280E+03 -0.15168654875E+03  0.10306334213E+03  0.27516307946E+03  0.10100000352E+00 0. -1.
       -3    1    3    3    0  502 -0.20514348280E+03  0.15168654875E+03 -0.63662923739E+03  0.68584943954E+03  0.10100000352E+00 0.  1.
</event>
<event>
 5   0  0.1038912E-02  0.7936064E+03  0.7818609E-02  0.9569318E-01
        1   -1    0    0  501    0  0.00000000000E+00  0.00000000000E+00  0.14103284334E+04  0.14103284334E+04  0.50400001928E-02 0. -1.
       -1   -1    0    0    0  501  0.00000000000E+00  0.00000000000E+00 -0.11164263416E+03  0.11164263427E+03  0.50400001928E-02 0.  1.
    10030    2    1    2    0    0  0.00000000000E+00  0.00000000000E+00  0.12986857992E+04  0.15219710677E+04  0.79360640477E+03 0.  0.
        2    1    3    3  502    0  0.22368953354E+03 -0.19270765668E+03  0.14093104755E+03  0.32716174673E+03  0.25500000920E-02 0. -1.
       -2    1    3    3    0  502 -0.22368953354E+03  0.19270765668E+03  0.11577547517E+04  0.11948093209E+04  0.25500000920E-02 0.  1.
</event>
<event>
 5   0  0.1025900E-02  0.7992034E+03  0.7818609E-02  0.9561171E-01
       -1   -1    0    0    0  501  0.00000000000E+00  0.00000000000E+00  0.31152954503E+03  0.31152954507E+03  0.50400001928E-02 0.  1.
        1   -1    0    0  501    0  0.00000000000E+00  0.00000000000E+00 -0.51257256920E+03  0.51257256923E+03  0.50400001928E-02 0. -1.
    10030    2    1    2    0    0  0.00000000000E+00  0.00000000000E+00 -0.20104302417E+03  0.82410211430E+03  0.79920335161E+03 0.  0.
        1    1    3    3  502    0 -0.31724122173E+03  0.35946116286E+02 -0.34831499871E+03  0.47250127449E+03  0.50400001928E-02 0. -1.
       -1    1    3    3    0  502  0.31724122173E+03 -0.35946116286E+02  0.14727197454E+03  0.35160083981E+03  0.50400001928E-02 0.  1.
</event>
<event>
 5   0  0.1747544E-02  0.7636031E+03  0.7818609E-02  0.9614248E-01
        2   -1    0    0  501    0  0.00000000000E+00  0.00000000000E+00  0.77820655348E+03  0.77820655348E+03  0.25500000920E-02 0. -1.
       -2   -1    0    0    0  501  0.00000000000E+00  0.00000000000E+00 -0.18731841110E+03  0.18731841112E+03  0.25500000920E-02 0.  1.
    10030    2    1    2    0    0  0.00000000000E+00  0.00000000000E+00  0.59088814238E+03  0.96552496460E+03  0.76360307783E+03 0.  0.
        1    1    3    3  502    0 -0.18387405895E+03 -0.32082146464E+03  0.41564060930E+03  0.55632112835E+03  0.50400001928E-02 0. -1.
       -1    1    3    3    0  502  0.18387405895E+03  0.32082146464E+03  0.17524753308E+03  0.40920383625E+03  0.50400001928E-02 0.  1.
</event>
<event>
 5   0  0.1049780E-02  0.7967578E+03  0.7818609E-02  0.9564722E-01
        1   -1    0    0  501    0  0.00000000000E+00  0.00000000000E+00  0.33635852147E+03  0.33635852150E+03  0.50400001928E-02 0.  1.
       -1   -1    0    0    0  501  0.00000000000E+00  0.00000000000E+00 -0.47183513098E+03  0.47183513101E+03  0.50400001928E-02 0. -1.
    10030    2    1    2    0    0  0.00000000000E+00  0.00000000000E+00 -0.13547660951E+03  0.80819365251E+03  0.79675784793E+03 0.  0.
        5    1    3    3  502    0  0.18490115604E+03 -0.12647037497E+03  0.26638358009E+03  0.34808834366E+03  0.46999998093E+01 0.  1.
       -5    1    3    3    0  502 -0.18490115604E+03  0.12647037497E+03 -0.40186018960E+03  0.46010530886E+03  0.46999998093E+01 0. -1.
</event>
<event>
 5   0  0.1146083E-02  0.8145485E+03  0.7818609E-02  0.9539194E-01
        1   -1    0    0  501    0  0.00000000000E+00  0.00000000000E+00  0.88479989955E+03  0.88479989957E+03  0.50400001928E-02 0. -1.
       -1   -1    0    0    0  501  0.00000000000E+00  0.00000000000E+00 -0.18746872844E+03  0.18746872851E+03  0.50400001928E-02 0.  1.
    10030    2    1    2    0    0  0.00000000000E+00  0.00000000000E+00  0.69733117111E+03  0.10722686281E+04  0.81454849368E+03 0.  0.
        4    1    3    3  502    0  0.29397375892E+03  0.15513815761E+03  0.65845892188E+03  0.73760299862E+03  0.12699999809E+01 0. -1.
       -4    1    3    3    0  502 -0.29397375892E+03 -0.15513815761E+03  0.38872249232E+02  0.33466562945E+03  0.12699999809E+01 0.  1.
</event>
<event>
 5   0  0.1818665E-02  0.9170013E+03  0.7818609E-02  0.9404575E-01
       -2   -1    0    0    0  501  0.00000000000E+00  0.00000000000E+00  0.17693816823E+03  0.17693816825E+03  0.25500000920E-02 0.  1.
        2   -1    0    0  501    0  0.00000000000E+00  0.00000000000E+00 -0.11881147279E+04  0.11881147279E+04  0.25500000920E-02 0. -1.
    10030    2    1    2    0    0  0.00000000000E+00  0.00000000000E+00 -0.10111765597E+04  0.13650528961E+04  0.91700129470E+03 0.  0.
        3    1    3    3  502    0  0.29574014695E+03  0.30580061128E+03 -0.25101248202E+03  0.49394688450E+03  0.10100000352E+00 0.  1.
       -3    1    3    3    0  502 -0.29574014695E+03 -0.30580061128E+03 -0.76016407764E+03  0.87110601164E+03  0.10100000352E+00 0. -1.
</event>
<event>
 5   0  0.1146083E-02  0.7648336E+03  0.7818609E-02  0.9612362E-01
        1   -1    0    0  501    0  0.00000000000E+00  0.00000000000E+00  0.60733696120E+03  0.60733696122E+03  0.50400001928E-02 0. -1.
       -1   -1    0    0    0  501  0.00000000000E+00  0.00000000000E+00 -0.24079320733E+03  0.24079320738E+03  0.50400001928E-02 0.  1.
    10030    2    1    2    0    0  0.00000000000E+00  0.00000000000E+00  0.36654375387E+03  0.84813016861E+03  0.76483361550E+03 0.  0.
        4    1    3    3  502    0 -0.11348441424E+03  0.53988110687E+02 -0.21723829154E+03  0.25097313916E+03  0.12699999809E+01 0.  1.
       -4    1    3    3    0  502  0.11348441424E+03 -0.53988110687E+02  0.58378204541E+03  0.59715702944E+03  0.12699999809E+01 0. -1.
</event>
<event>
 5   0  0.1025900E-02  0.7966661E+03  0.7818609E-02  0.9564855E-01
       -1   -1    0    0    0  501  0.00000000000E+00  0.00000000000E+00  0.22183178689E+03  0.22183178695E+03  0.50400001928E-02 0. -1.
        1   -1    0    0  501    0  0.00000000000E+00  0.00000000000E+00 -0.71526818156E+03  0.71526818158E+03  0.50400001928E-02 0.  1.
    10030    2    1    2    0    0  0.00000000000E+00  0.00000000000E+00 -0.49343639467E+03  0.93709996853E+03  0.79666610034E+03 0.  0.
        1    1    3    3  502    0  0.29787913242E+03 -0.41355163279E+02 -0.55396523004E+03  0.63033300975E+03  0.50400001928E-02 0.  1.
       -1    1    3    3    0  502 -0.29787913242E+03  0.41355163279E+02  0.60528835364E+02  0.30676695878E+03  0.50400001928E-02 0. -1.
</event>
<event>
 5   0  0.1038912E-02  0.7997344E+03  0.7818609E-02  0.9560402E-01
       -1   -1    0    0    0  501  0.00000000000E+00  0.00000000000E+00  0.37636065096E+03  0.37636065099E+03  0.50400001928E-02 0. -1.
        1   -1    0    0  501    0  0.00000000000E+00  0.00000000000E+00 -0.42484195151E+03  0.42484195154E+03  0.50400001928E-02 0.  1.
    10030    2    1    2    0    0  0.00000000000E+00  0.00000000000E+00 -0.48481300552E+02  0.80120260253E+03  0.79973443955E+03 0.  0.
        2    1    3    3  502    0 -0.34844831817E+03 -0.17246097950E+03  0.69390935318E+02  0.39493559196E+03  0.25500000920E-02 0.  1.
       -2    1    3    3    0  502  0.34844831817E+03  0.17246097950E+03 -0.11787223587E+03  0.40626701057E+03  0.25500000920E-02 0. -1.
</event>
<event>
 5   0  0.1747544E-02  0.6848425E+03  0.7818609E-02  0.9743510E-01
       -2   -1    0    0    0  501  0.00000000000E+00  0.00000000000E+00  0.14054460948E+03  0.14054460950E+03  0.25500000920E-02 0.  1.
        2   -1    0    0  501    0  0.00000000000E+00  0.00000000000E+00 -0.83427111758E+03  0.83427111759E+03  0.25500000920E-02 0. -1.
    10030    2    1    2    0    0  0.00000000000E+00  0.00000000000E+00 -0.69372650811E+03  0.97481572709E+03  0.68484248827E+03 0.  0.
        1    1    3    3  502    0  0.27919352243E+03  0.87575918630E+02 -0.60003027311E+03  0.66757388592E+03  0.50400001928E-02 0.  1.
       -1    1    3    3    0  502 -0.27919352243E+03 -0.87575918630E+02 -0.93696234998E+02  0.30724184117E+03  0.50400001928E-02 0. -1.
</event>
<event>
 5   0  0.6872500E-03  0.8017127E+03  0.7818609E-02  0.9557541E-01
       -3   -1    0    0    0  501  0.00000000000E+00  0.00000000000E+00  0.23918642194E+03  0.23918644326E+03  0.10100000352E+00 0.  1.
        3   -1    0    0  501    0  0.00000000000E+00  0.00000000000E+00 -0.67180155718E+03  0.67180156477E+03  0.10100000352E+00 0. -1.
    10030    2    1    2    0    0  0.00000000000E+00  0.00000000000E+00 -0.43261513524E+03  0.91098800803E+03  0.80171272632E+03 0.  0.
        2    1    3    3  502    0 -0.68481502689E+01 -0.23486447874E+03 -0.58534804984E+03  0.63074603447E+03  0.25500000920E-02 0. -1.
       -2    1    3    3    0  502  0.68481502689E+01  0.23486447874E+03  0.15273291460E+03  0.28024197357E+03  0.25500000920E-02 0.  1.
</event>
<event>
 5   0  0.1818665E-02  0.8003708E+03  0.7818609E-02  0.9559480E-01
       -2   -1    0    0    0  501  0.00000000000E+00  0.00000000000E+00  0.28062032954E+03  0.28062032956E+03  0.25500000920E-02 0. -1.
        2   -1    0    0  501    0  0.00000000000E+00  0.00000000000E+00 -0.57069412633E+03  0.57069412633E+03  0.25500000920E-02 0.  1.
    10030    2    1    2    0    0  0.00000000000E+00  0.00000000000E+00 -0.29007379678E+03  0.85131445589E+03  0.80037084856E+03 0.  0.
        3    1    3    3  502    0 -0.15811346393E+02 -0.39188069042E+03 -0.22964816297E+03  0.45448736303E+03  0.10100000352E+00 0.  1.
       -3    1    3    3    0  502  0.15811346393E+02  0.39188069042E+03 -0.60425633814E+02  0.39682709286E+03  0.10100000352E+00 0. -1.
</event>
<event>
 5   0  0.1817089E-02  0.8014363E+03  0.7818609E-02  0.9557940E-01
       -2   -1    0    0    0  501  0.00000000000E+00  0.00000000000E+00  0.25384793094E+03  0.25384793095E+03  0.25500000920E-02 0. -1.
        2   -1    0    0  501    0  0.00000000000E+00  0.00000000000E+00 -0.63256394083E+03  0.63256394084E+03  0.25500000920E-02 0.  1.
    10030    2    1    2    0    0  0.00000000000E+00  0.00000000000E+00 -0.37871600990E+03  0.88641187179E+03  0.80143632953E+03 0.  0.
        2    1    3    3  502    0  0.10826586595E+03 -0.14411873625E+03 -0.58519179087E+03  0.61232437480E+03  0.25500000920E-02 0.  1.
       -2    1    3    3    0  502 -0.10826586595E+03  0.14411873625E+03  0.20647578097E+03  0.27408749699E+03  0.25500000920E-02 0. -1.
</event>
<event>
 5   0  0.1747544E-02  0.7971121E+03  0.7818609E-02  0.9564207E-01
       -2   -1    0    0    0  501  0.00000000000E+00  0.00000000000E+00  0.31058320137E+03  0.31058320138E+03  0.25500000920E-02 0. -1.
        2   -1    0    0  501    0  0.00000000000E+00  0.00000000000E+00 -0.51144724107E+03  0.51144724107E+03  0.25500000920E-02 0.  1.
    10030    2    1    2    0    0  0.00000000000E+00  0.00000000000E+00 -0.20086403970E+03  0.82203044245E+03  0.79711209116E+03 0.  0.
        1    1    3    3  502    0 -0.15783599084E+03  0.10120006940E+03  0.26226295224E+03  0.32239030722E+03  0.50400001928E-02 0. -1.
       -1    1    3    3    0  502  0.15783599084E+03 -0.10120006940E+03 -0.46312699194E+03  0.49964013523E+03  0.50400001928E-02 0.  1.
</event>
<event>
 5   0  0.1818665E-02  0.8210091E+03  0.7818609E-02  0.9530095E-01
       -2   -1    0    0    0  501  0.00000000000E+00  0.00000000000E+00  0.17965051947E+03  0.17965051949E+03  0.25500000920E-02 0. -1.
        2   -1    0    0  501    0  0.00000000000E+00  0.00000000000E+00 -0.93801011763E+03  0.93801011763E+03  0.25500000920E-02 0.  1.
    10030    2    1    2    0    0  0.00000000000E+00  0.00000000000E+00 -0.75835959816E+03  0.11176606371E+04  0.82100914711E+03 0.  0.
        3    1    3    3  502    0 -0.45115537526E+01  0.29360925800E+03 -0.76968625588E+03  0.82379833284E+03  0.10100000352E+00 0.  1.
       -3    1    3    3    0  502  0.45115537526E+01 -0.29360925800E+03  0.11326657717E+02  0.29386230428E+03  0.10100000352E+00 0. -1.
</event>
<event>
 5   0  0.1025900E-02  0.7986398E+03  0.7818609E-02  0.9561988E-01
        1   -1    0    0  501    0  0.00000000000E+00  0.00000000000E+00  0.84632789668E+03  0.84632789670E+03  0.50400001928E-02 0. -1.
       -1   -1    0    0    0  501  0.00000000000E+00  0.00000000000E+00 -0.18840971290E+03  0.18840971297E+03  0.50400001928E-02 0.  1.
    10030    2    1    2    0    0  0.00000000000E+00  0.00000000000E+00  0.65791818378E+03  0.10347376097E+04  0.79863983390E+03 0.  0.
        1    1    3    3  502    0  0.34726172664E+03 -0.31379594760E+02  0.58112713226E+03  0.67770504619E+03  0.50400001928E-02 0. -1.
       -1    1    3    3    0  502 -0.34726172664E+03  0.31379594760E+02  0.76791051523E+02  0.35703256347E+03  0.50400001928E-02 0.  1.
</event>
<event>
 5   0  0.6872500E-03  0.7997386E+03  0.7818609E-02  0.9560396E-01
       -3   -1    0    0    0  501  0.00000000000E+00  0.00000000000E+00  0.10807978947E+04  0.10807978994E+04  0.10100000352E+00 0.  1.
        3   -1    0    0  501    0  0.00000000000E+00  0.00000000000E+00 -0.14794202534E+03  0.14794205981E+03  0.10100000352E+00 0. -1.
    10030    2    1    2    0    0  0.00000000000E+00  0.00000000000E+00  0.93285586934E+03  0.12287399592E+04  0.79973859129E+03 0.  0.
        2    1    3    3  502    0  0.31235397224E+03  0.58615914862E+02  0.83929133505E+03  0.89744680876E+03  0.25500000920E-02 0.  1.
       -2    1    3    3    0  502 -0.31235397224E+03 -0.58615914862E+02  0.93564534288E+02  0.33129315045E+03  0.25500000920E-02 0. -1.
</event>
<event>
 5   0  0.6872500E-03  0.8171624E+03  0.7818609E-02  0.9535502E-01
        3   -1    0    0  501    0  0.00000000000E+00  0.00000000000E+00  0.21847258937E+03  0.21847261272E+03  0.10100000352E+00 0.  1.
       -3   -1    0    0    0  501  0.00000000000E+00  0.00000000000E+00 -0.76411685880E+03  0.76411686548E+03  0.10100000352E+00 0. -1.
    10030    2    1    2    0    0  0.00000000000E+00  0.00000000000E+00 -0.54564426943E+03  0.98258947820E+03  0.81716241587E+03 0.  0.
        4    1    3    3  502    0  0.29870036465E+03  0.59267297190E+01  0.62311651262E+02  0.30519074158E+03  0.12699999809E+01 0.  1.
       -4    1    3    3    0  502 -0.29870036465E+03 -0.59267297190E+01 -0.60795592069E+03  0.67739873662E+03  0.12699999809E+01 0. -1.
</event>
<event>
 5   0  0.1731337E-02  0.8003641E+03  0.7818609E-02  0.9559490E-01
       -2   -1    0    0    0  501  0.00000000000E+00  0.00000000000E+00  0.11567544425E+03  0.11567544428E+03  0.25500000920E-02 0. -1.
        2   -1    0    0  501    0  0.00000000000E+00  0.00000000000E+00 -0.13844396645E+04  0.13844396645E+04  0.25500000920E-02 0.  1.
    10030    2    1    2    0    0  0.00000000000E+00  0.00000000000E+00 -0.12687642203E+04  0.15001151088E+04  0.80036410028E+03 0.  0.
        4    1    3    3  502    0  0.15442369101E+02  0.97948681625E+02 -0.13610455408E+04  0.13646534315E+04  0.12699999809E+01 0.  1.
       -4    1    3    3    0  502 -0.15442369101E+02 -0.97948681625E+02  0.92281320552E+02  0.13546167731E+03  0.12699999809E+01 0. -1.
</event>
<event>
 5   0  0.1817089E-02  0.7339205E+03  0.7818609E-02  0.9660920E-01
        2   -1    0    0  501    0  0.00000000000E+00  0.00000000000E+00  0.46761452535E+03  0.46761452536E+03  0.25500000920E-02 0.  1.
       -2   -1    0    0    0  501  0.00000000000E+00  0.00000000000E+00 -0.28797184656E+03  0.28797184657E+03  0.25500000920E-02 0. -1.
    10030    2    1    2    0    0  0.00000000000E+00  0.00000000000E+00  0.17964267879E+03  0.75558637193E+03  0.73392048167E+03 0.  0.
        2    1    3    3  502    0  0.34794105448E+03  0.11623846900E+03  0.99338660333E+02  0.38005595445E+03  0.25500000920E-02 0.  1.
       -2    1    3    3    0  502 -0.34794105448E+03 -0.11623846900E+03  0.80304018456E+02  0.37553041748E+03  0.25500000920E-02 0. -1.
</event>
<event>
 5   0  0.1038912E-02  0.7973692E+03  0.7818609E-02  0.9563833E-01
       -1   -1    0    0    0  501  0.00000000000E+00  0.00000000000E+00  0.76054595354E+02  0.76054595521E+02  0.50400001928E-02 0.  1.
        1   -1    0    0  501    0  0.00000000000E+00  0.00000000000E+00 -0.20899384317E+04  0.20899384317E+04  0.50400001928E-02 0. -1.
    10030    2    1    2    0    0  0.00000000000E+00  0.00000000000E+00 -0.20138838363E+04  0.21659930272E+04  0.79736922921E+03 0.  0.
        2    1    3    3  502    0  0.53758201636E+02 -0.16109299042E+03 -0.19867713053E+04  0.19940163278E+04  0.25500000920E-02 0. -1.
       -2    1    3    3    0  502 -0.53758201636E+02  0.16109299042E+03 -0.27112531025E+02  0.17197669944E+03  0.25500000920E-02 0.  1.
</event>
<event>
 5   0  0.6872500E-03  0.7958338E+03  0.7818609E-02  0.9566067E-01
        4   -1    0    0  501    0  0.00000000000E+00  0.00000000000E+00  0.12743364023E+03  0.12743996847E+03  0.12699999809E+01 0.  1.
       -4   -1    0    0    0  501  0.00000000000E+00  0.00000000000E+00 -0.12424748763E+04  0.12424755254E+04  0.12699999809E+01 0. -1.
    10030    2    1    2    0    0  0.00000000000E+00  0.00000000000E+00 -0.11150412361E+04  0.13699154938E+04  0.79583384077E+03 0.  0.
        1    1    3    3  502    0 -0.11505731603E+03  0.15621451082E+03  0.40504054937E+02  0.19819621050E+03  0.50400001928E-02 0.  1.
       -1    1    3    3    0  502  0.11505731603E+03 -0.15621451082E+03 -0.11555452910E+04  0.11717192833E+04  0.50400001928E-02 0. -1.
</event>
<event>
 5   0  0.1747544E-02  0.7960319E+03  0.7818609E-02  0.9565779E-01
       -2   -1    0    0    0  501  0.00000000000E+00  0.00000000000E+00  0.12174826447E+03  0.12174826450E+03  0.25500000920E-02 0. -1.
        2   -1    0    0  501    0  0.00000000000E+00  0.00000000000E+00 -0.13011824011E+04  0.13011824011E+04  0.25500000920E-02 0.  1.
    10030    2    1    2    0    0  0.00000000000E+00  0.00000000000E+00 -0.11794341366E+04  0.14229306656E+04  0.79603190668E+03 0.  0.
        1    1    3    3  502    0 -0.32245035707E+03  0.21636002035E+03 -0.43356831394E+03  0.58203726174E+03  0.50400001928E-02 0.  1.
       -1    1    3    3    0  502  0.32245035707E+03 -0.21636002035E+03 -0.74586582264E+03  0.84089340382E+03  0.50400001928E-02 0. -1.
</event>
<event>
 5   0  0.1146083E-02  0.8051444E+03  0.7818609E-02  0.9552601E-01
        1   -1    0    0  501    0  0.00000000000E+00  0.00000000000E+00  0.27891843630E+03  0.27891843635E+03  0.50400001928E-02 0. -1.
       -1   -1    0    0    0  501  0.00000000000E+00  0.00000000000E+00 -0.58104574033E+03  0.58104574035E+03  0.50400001928E-02 0.  1.
    10030    2    1    2    0    0  0.00000000000E+00  0.00000000000E+00 -0.30212730402E+03  0.85996417670E+03  0.80514438293E+03 0.  0.
        4    1    3    3  502    0  0.13096174612E+03  0.33736614337E+03  0.37282997349E+02  0.36381111642E+03  0.12699999809E+01 0. -1.
       -4    1    3    3    0  502 -0.13096174612E+03 -0.33736614337E+03 -0.33941030137E+03  0.49615306027E+03  0.12699999809E+01 0.  1.
</event>
<event>
 5   0  0.1049780E-02  0.8153171E+03  0.7818609E-02  0.9538107E-01
       -1   -1    0    0    0  501  0.00000000000E+00  0.00000000000E+00  0.98569414234E+02  0.98569414362E+02  0.50400001928E-02 0. -1.
        1   -1    0    0  501    0  0.00000000000E+00  0.00000000000E+00 -0.16859741990E+04  0.16859741990E+04  0.50400001928E-02 0.  1.
    10030    2    1    2    0    0  0.00000000000E+00  0.00000000000E+00 -0.15874047847E+04  0.17845436133E+04  0.81531709004E+03 0.  0.
        5    1    3    3  502    0  0.16971752775E+03 -0.35843987355E+03 -0.58744362717E+03  0.70879848143E+03  0.46999998093E+01 0. -1.
       -5    1    3    3    0  502 -0.16971752775E+03  0.35843987355E+03 -0.99996115757E+03  0.10757451319E+04  0.46999998093E+01 0.  1.
</event>
<event>
 5   0  0.1025900E-02  0.7862060E+03  0.7818609E-02  0.9580201E-01
        1   -1    0    0  501    0  0.00000000000E+00  0.00000000000E+00  0.45510247269E+03  0.45510247272E+03  0.50400001928E-02 0. -1.
       -1   -1    0    0    0  501  0.00000000000E+00  0.00000000000E+00 -0.33954979118E+03  0.33954979121E+03  0.50400001928E-02 0.  1.
    10030    2    1    2    0    0  0.00000000000E+00  0.00000000000E+00  0.11555268151E+03  0.79465226393E+03  0.78620595162E+03 0.  0.
        1    1    3    3  502    0 -0.26637540092E+03 -0.28698884530E+03  0.92956852476E+02  0.40244183181E+03  0.50400001928E-02 0. -1.
       -1    1    3    3    0  502  0.26637540092E+03  0.28698884530E+03  0.22595829034E+02  0.39221043212E+03  0.50400001928E-02 0.  1.
</event>
<event>
 5   0  0.1030323E-02  0.7858068E+03  0.7818609E-02  0.9580791E-01
        1   -1    0    0  501    0  0.00000000000E+00  0.00000000000E+00  0.34519218079E+03  0.34519218083E+03  0.50400001928E-02 0. -1.
       -1   -1    0    0    0  501  0.00000000000E+00  0.00000000000E+00 -0.44720911093E+03  0.44720911096E+03  0.50400001928E-02 0.  1.
    10030    2    1    2    0    0  0.00000000000E+00  0.00000000000E+00 -0.10201693014E+03  0.79240129179E+03  0.78580681671E+03 0.  0.
        3    1    3    3  502    0 -0.34307808266E+03 -0.13144216754E+02  0.14163857950E+03  0.37139849035E+03  0.10100000352E+00 0. -1.
       -3    1    3    3    0  502  0.34307808266E+03  0.13144216754E+02 -0.24365550965E+03  0.42100280143E+03  0.10100000352E+00 0.  1.
</event>
<event>
 5   0  0.1818665E-02  0.8023091E+03  0.7818609E-02  0.9556681E-01
        2   -1    0    0  501    0  0.00000000000E+00  0.00000000000E+00  0.15824488487E+04  0.15824488487E+04  0.25500000920E-02 0.  1.
       -2   -1    0    0    0  501  0.00000000000E+00  0.00000000000E+00 -0.10169363176E+03  0.10169363179E+03  0.25500000920E-02 0. -1.
    10030    2    1    2    0    0  0.00000000000E+00  0.00000000000E+00  0.14807552169E+04  0.16841424805E+04  0.80230909385E+03 0.  0.
        3    1    3    3  502    0  0.16204022654E+03  0.30017002297E+03  0.29724024264E+03  0.45244983120E+03  0.10100000352E+00 0. -1.
       -3    1    3    3    0  502 -0.16204022654E+03 -0.30017002297E+03  0.11835149743E+04  0.12316926493E+04  0.10100000352E+00 0.  1.
</event>
<event>
 5   0  0.1747544E-02  0.7954655E+03  0.7818609E-02  0.9566604E-01
       -2   -1    0    0    0  501  0.00000000000E+00  0.00000000000E+00  0.19653050661E+03  0.19653050662E+03  0.25500000920E-02 0. -1.
        2   -1    0    0  501    0  0.00000000000E+00  0.00000000000E+00 -0.80492008261E+03  0.80492008261E+03  0.25500000920E-02 0.  1.
    10030    2    1    2    0    0  0.00000000000E+00  0.00000000000E+00 -0.60838957600E+03  0.10014505892E+04  0.79546552816E+03 0.  0.
        1    1    3    3  502    0  0.16202773265E+03  0.58952985637E+02 -0.75542382774E+03  0.77485069543E+03  0.50400001928E-02 0.  1.
       -1    1    3    3    0  502 -0.16202773265E+03 -0.58952985637E+02  0.14703425174E+03  0.22659989381E+03  0.50400001928E-02 0. -1.
</event>
<event>
 5   0  0.6872500E-03  0.7930542E+03  0.7818609E-02  0.9570126E-01
        3   -1    0    0  501    0  0.00000000000E+00  0.00000000000E+00  0.82463145569E+03  0.82463146188E+03  0.10100000352E+00 0. -1.
       -3   -1    0    0    0  501  0.00000000000E+00  0.00000000000E+00 -0.19067151090E+03  0.19067153765E+03  0.10100000352E+00 0.  1.
    10030    2    1    2    0    0  0.00000000000E+00  0.00000000000E+00  0.63395994479E+03  0.10153029995E+04  0.79305420322E+03 0.  0.
        2    1    3    3  502    0  0.56629877295E+02 -0.39244337488E+03  0.32193780992E+03  0.51074719672E+03  0.25500000920E-02 0.  1.
       -2    1    3    3    0  502 -0.56629877295E+02  0.39244337488E+03  0.31202213487E+03  0.50455580281E+03  0.25500000920E-02 0. -1.
</event>
<event>
 5   0  0.1731337E-02  0.7946254E+03  0.7818609E-02  0.9567829E-01
       -2   -1    0    0    0  501  0.00000000000E+00  0.00000000000E+00  0.35513653725E+03  0.35513653726E+03  0.25500000920E-02 0. -1.
        2   -1    0    0  501    0  0.00000000000E+00  0.00000000000E+00 -0.44449768336E+03  0.44449768336E+03  0.25500000920E-02 0.  1.
    10030    2    1    2    0    0  0.00000000000E+00  0.00000000000E+00 -0.89361146103E+02  0.79963422063E+03  0.79462536605E+03 0.  0.
        4    1    3    3  502    0 -0.19117875922E+03  0.33771874466E+03 -0.13037891474E+03  0.40939411669E+03  0.12699999809E+01 0.  1.
       -4    1    3    3    0  502  0.19117875922E+03 -0.33771874466E+03  0.41017768634E+02  0.39024010393E+03  0.12699999809E+01 0. -1.
</event>
<event>
 5   0  0.1038912E-02  0.8227230E+03  0.7818609E-02  0.9527697E-01
        1   -1    0    0  501    0  0.00000000000E+00  0.00000000000E+00  0.34562113948E+03  0.34562113952E+03  0.50400001928E-02 0. -1.
       -1   -1    0    0    0  501  0.00000000000E+00  0.00000000000E+00 -0.48960626649E+03  0.48960626651E+03  0.50400001928E-02 0.  1.
    10030    2    1    2    0    0  0.00000000000E+00  0.00000000000E+00 -0.14398512700E+03  0.83522740603E+03  0.82272298071E+03 0.  0.
        2    1    3    3  502    0  0.32923387697E+02  0.13299085317E+03  0.32177865519E+03  0.34973135322E+03  0.25500000920E-02 0. -1.
       -2    1    3    3    0  502 -0.32923387697E+02 -0.13299085317E+03 -0.46576378219E+03  0.48549605281E+03  0.25500000920E-02 0.  1.
</event>
<event>
 5   0  0.1673727E-02  0.7962325E+03  0.7818609E-02  0.9565487E-01
        2   -1    0    0  501    0  0.00000000000E+00  0.00000000000E+00  0.59452501668E+03  0.59452501669E+03  0.25500000920E-02 0. -1.
       -2   -1    0    0    0  501  0.00000000000E+00  0.00000000000E+00 -0.26659354366E+03  0.26659354367E+03  0.25500000920E-02 0.  1.
    10030    2    1    2    0    0  0.00000000000E+00  0.00000000000E+00  0.32793147302E+03  0.86111856036E+03  0.79623245600E+03 0.  0.
        5    1    3    3  502    0 -0.39803463702E+03 -0.64579725553E+01  0.16279926662E+03  0.43011506471E+03  0.46999998093E+01 0. -1.
       -5    1    3    3    0  502  0.39803463702E+03  0.64579725553E+01  0.16513220640E+03  0.43100349565E+03  0.46999998093E+01 0.  1.
</event>
<event>
 5   0  0.1673727E-02  0.8036990E+03  0.7818609E-02  0.9554678E-01
       -2   -1    0    0    0  501  0.00000000000E+00  0.00000000000E+00  0.34826345459E+03  0.34826345460E+03  0.25500000920E-02 0. -1.
        2   -1    0    0  501    0  0.00000000000E+00  0.00000000000E+00 -0.46368060542E+03  0.46368060543E+03  0.25500000920E-02 0.  1.
    10030    2    1    2    0    0  0.00000000000E+00  0.00000000000E+00 -0.11541715083E+03  0.81194406003E+03  0.80369897220E+03 0.  0.
        5    1    3    3  502    0  0.28518230165E+03 -0.15398604713E+03 -0.29767489033E+03  0.44008303559E+03  0.46999998093E+01 0.  1.
       -5    1    3    3    0  502 -0.28518230165E+03  0.15398604713E+03  0.18225773951E+03  0.37186102443E+03  0.46999998093E+01 0. -1.
</event>
<event>
 5   0  0.1818665E-02  0.8037398E+03  0.7818609E-02  0.9554620E-01
       -2   -1    0    0    0  501  0.00000000000E+00  0.00000000000E+00  0.99573691688E+02  0.99573691721E+02  0.25500000920E-02 0. -1.
        2   -1    0    0  501    0  0.00000000000E+00  0.00000000000E+00 -0.16219085235E+04  0.16219085235E+04  0.25500000920E-02 0.  1.
    10030    2    1    2    0    0  0.00000000000E+00  0.00000000000E+00 -0.15223348318E+04  0.17214822152E+04  0.80373980688E+03 0.  0.
        3    1    3    3  502    0  0.26862032546E+03 -0.16676139823E+03 -0.12924697113E+04  0.13305804027E+04  0.10100000352E+00 0.  1.
       -3    1    3    3    0  502 -0.26862032546E+03  0.16676139823E+03 -0.22986512044E+03  0.39090181246E+03  0.10100000352E+00 0. -1.
</event>
<event>
 5   0  0.1673727E-02  0.8143679E+03  0.7818609E-02  0.9539450E-01
        2   -1    0    0  501    0  0.00000000000E+00  0.00000000000E+00  0.23629743666E+03  0.23629743667E+03  0.25500000920E-02 0.  1.
       -2   -1    0    0    0  501  0.00000000000E+00  0.00000000000E+00 -0.70165288125E+03  0.70165288125E+03  0.25500000920E-02 0. -1.
    10030    2    1    2    0    0  0.00000000000E+00  0.00000000000E+00 -0.46535544459E+03  0.93795031792E+03  0.81436791997E+03 0.  0.
        5    1    3    3  502    0 -0.14601655146E+03 -0.22056884498E+02 -0.66969056123E+03  0.68579506942E+03  0.46999998093E+01 0. -1.
       -5    1    3    3    0  502  0.14601655146E+03  0.22056884498E+02  0.20433511664E+03  0.25215524849E+03  0.46999998093E+01 0.  1.
</event>
<event>
 5   0  0.1817089E-02  0.8045153E+03  0.7818609E-02  0.9553504E-01
        2   -1    0    0  501    0  0.00000000000E+00  0.00000000000E+00  0.11654508202E+04  0.11654508202E+04  0.25500000920E-02 0. -1.
       -2   -1    0    0    0  501  0.00000000000E+00  0.00000000000E+00 -0.13884003661E+03  0.13884003663E+03  0.25500000920E-02 0.  1.
    10030    2    1    2    0    0  0.00000000000E+00  0.00000000000E+00  0.10266107836E+04  0.13042908568E+04  0.80451534368E+03 0.  0.
        2    1    3    3  502    0  0.39524174621E+03  0.11566339445E+02  0.63311530772E+03  0.74644813016E+03  0.25500000920E-02 0. -1.
       -2    1    3    3    0  502 -0.39524174621E+03 -0.11566339445E+02  0.39349547584E+03  0.55784272664E+03  0.25500000920E-02 0.  1.
</event>
<event>
 5   0  0.1673727E-02  0.7994215E+03  0.7818609E-02  0.9560855E-01
        2   -1    0    0  501    0  0.00000000000E+00  0.00000000000E+00  0.83149193203E+03  0.83149193203E+03  0.25500000920E-02 0.  1.
       -2   -1    0    0    0  501  0.00000000000E+00  0.00000000000E+00 -0.19214700759E+03  0.19214700761E+03  0.25500000920E-02 0. -1.
    10030    2    1    2    0    0  0.00000000000E+00  0.00000000000E+00  0.63934492444E+03  0.10236389396E+04  0.79942150731E+03 0.  0.
        5    1    3    3  502    0  0.30740268212E+03 -0.24687469608E+03  0.40366878601E+03  0.56428193604E+03  0.46999998093E+01 0.  1.
       -5    1    3    3    0  502 -0.30740268212E+03  0.24687469608E+03  0.23567613843E+03  0.45935700361E+03  0.46999998093E+01 0. -1.
</event>
<event>
 5   0  0.1817089E-02  0.7944809E+03  0.7818609E-02  0.9568040E-01
       -2   -1    0    0    0  501  0.00000000000E+00  0.00000000000E+00  0.16036918236E+03  0.16036918238E+03  0.25500000920E-02 0.  1.
        2   -1    0    0  501    0  0.00000000000E+00  0.00000000000E+00 -0.98397932162E+03  0.98397932163E+03  0.25500000920E-02 0. -1.
    10030    2    1    2    0    0  0.00000000000E+00  0.00000000000E+00 -0.82361013926E+03  0.11443485040E+04  0.79448086015E+03 0.  0.
        2    1    3    3  502    0 -0.31714513767E+03 -0.15618620372E+03 -0.15084392421E+03  0.38435537990E+03  0.25500000920E-02 0.  1.
       -2    1    3    3    0  502  0.31714513767E+03  0.15618620372E+03 -0.67276621505E+03  0.75999312411E+03  0.25500000920E-02 0. -1.
</event>
<event>
 5   0  0.1731337E-02  0.8007448E+03  0.7818609E-02  0.9558940E-01
       -2   -1    0    0    0  501  0.00000000000E+00  0.00000000000E+00  0.84231279499E+03  0.84231279499E+03  0.25500000920E-02 0. -1.
        2   -1    0    0  501    0  0.00000000000E+00  0.00000000000E+00 -0.19030703320E+03  0.19030703321E+03  0.25500000920E-02 0.  1.
    10030    2    1    2    0    0  0.00000000000E+00  0.00000000000E+00  0.65200576179E+03  0.10326198282E+04  0.80074477594E+03 0.  0.
        4    1    3    3  502    0 -0.58541653910E+02 -0.35249822785E+03  0.55889266875E+03  0.66335869178E+03  0.12699999809E+01 0. -1.
       -4    1    3    3    0  502  0.58541653910E+02  0.35249822785E+03  0.93113093048E+02  0.36926113643E+03  0.12699999809E+01 0.  1.
</event>
<event>
 5   0  0.1747544E-02  0.8101050E+03  0.7818609E-02  0.9545505E-01
       -2   -1    0    0    0  501  0.00000000000E+00  0.00000000000E+00  0.22529366750E+03  0.22529366751E+03  0.25500000920E-02 0. -1.
        2   -1    0    0  501    0  0.00000000000E+00  0.00000000000E+00 -0.72823850221E+03  0.72823850221E+03  0.25500000920E-02 0.  1.
    10030    2    1    2    0    0  0.00000000000E+00  0.00000000000E+00 -0.50294483471E+03  0.95353216972E+03  0.81010498821E+03 0.  0.
        1    1    3    3  502    0  0.32471436678E+02 -0.11243722934E+03 -0.70790441720E+03  0.71751319755E+03  0.50400001928E-02 0.  1.
       -1    1    3    3    0  502 -0.32471436678E+02  0.11243722934E+03  0.20495958249E+03  0.23601897217E+03  0.50400001928E-02 0. -1.
</event>
<event>
 5   0  0.1025900E-02  0.7913450E+03  0.7818609E-02  0.9572630E-01
        1   -1    0    0  501    0  0.00000000000E+00  0.00000000000E+00  0.47006589376E+03  0.47006589379E+03  0.50400001928E-02 0.  1.
       -1   -1    0    0    0  501  0.00000000000E+00  0.00000000000E+00 -0.33305270568E+03  0.33305270572E+03  0.50400001928E-02 0. -1.
    10030    2    1    2    0    0  0.00000000000E+00  0.00000000000E+00  0.13701318808E+03  0.80311859951E+03  0.79134497608E+03 0.  0.
        1    1    3    3  502    0  0.61092501705E+02  0.19405733287E+03  0.41291703344E+03  0.46031621603E+03  0.50400001928E-02 0.  1.
       -1    1    3    3    0  502 -0.61092501705E+02 -0.19405733287E+03 -0.27590384536E+03  0.34280238348E+03  0.50400001928E-02 0. -1.
</event>
<event>
 5   0  0.1049780E-02  0.8009029E+03  0.7818609E-02  0.9558711E-01
       -1   -1    0    0    0  501  0.00000000000E+00  0.00000000000E+00  0.86238648511E+03  0.86238648513E+03  0.50400001928E-02 0.  1.
        1   -1    0    0  501    0  0.00000000000E+00  0.00000000000E+00 -0.18595069732E+03  0.18595069739E+03  0.50400001928E-02 0. -1.
    10030    2    1    2    0    0  0.00000000000E+00  0.00000000000E+00  0.67643578780E+03  0.10483371825E+04  0.80090291124E+03 0.  0.
        5    1    3    3  502    0  0.15292306549E+03 -0.16811250295E+03 -0.93320964977E+02  0.24571969825E+03  0.46999998093E+01 0. -1.
       -5    1    3    3    0  502 -0.15292306549E+03  0.16811250295E+03  0.76975675277E+03  0.80261748426E+03  0.46999998093E+01 0.  1.
</event>
<event>
 5   0  0.1038912E-02  0.7978240E+03  0.7818609E-02  0.9563172E-01
        1   -1    0    0  501    0  0.00000000000E+00  0.00000000000E+00  0.11300175035E+04  0.11300175035E+04  0.50400001928E-02 0. -1.
       -1   -1    0    0    0  501  0.00000000000E+00  0.00000000000E+00 -0.14082152620E+03  0.14082152629E+03  0.50400001928E-02 0.  1.
    10030    2    1    2    0    0  0.00000000000E+00  0.00000000000E+00  0.98919597732E+03  0.12708390298E+04  0.79782401454E+03 0.  0.
        2    1    3    3  502    0 -0.23420034026E+03  0.31550934207E+03  0.60420449462E+03  0.72073505231E+03  0.25500000920E-02 0. -1.
       -2    1    3    3    0  502  0.23420034026E+03 -0.31550934207E+03  0.38499148270E+03  0.55010397751E+03  0.25500000920E-02 0.  1.
</event>
<event>
 5   0  0.1049780E-02  0.8110811E+03  0.7818609E-02  0.9544115E-01
        1   -1    0    0  501    0  0.00000000000E+00  0.00000000000E+00  0.76622493476E+03  0.76622493477E+03  0.50400001928E-02 0.  1.
       -1   -1    0    0    0  501  0.00000000000E+00  0.00000000000E+00 -0.21464079205E+03  0.21464079210E+03  0.50400001928E-02 0. -1.
    10030    2    1    2    0    0  0.00000000000E+00  0.00000000000E+00  0.55158414271E+03  0.98086572688E+03  0.81108107343E+03 0.  0.
        5    1    3    3  502    0 -0.12530301410E+03 -0.29544389113E+03  0.57558210170E+03  0.65901804523E+03  0.46999998093E+01 0.  1.
       -5    1    3    3    0  502  0.12530301410E+03  0.29544389113E+03 -0.23997958990E+02  0.32184768164E+03  0.46999998093E+01 0. -1.
</event>
<event>
 5   0  0.1747544E-02  0.7981473E+03  0.7818609E-02  0.9562703E-01
        2   -1    0    0  501    0  0.00000000000E+00  0.00000000000E+00  0.98468979049E+03  0.98468979049E+03  0.25500000920E-02 0. -1.
       -2   -1    0    0    0  501  0.00000000000E+00  0.00000000000E+00 -0.16173599316E+03  0.16173599318E+03  0.25500000920E-02 0.  1.
    10030    2    1    2    0    0  0.00000000000E+00  0.00000000000E+00  0.82295379733E+03  0.11464257837E+04  0.79814730779E+03 0.  0.
        1    1    3    3  502    0 -0.34550003038E+03  0.18673292627E+03  0.51324901015E+03  0.64626929618E+03  0.50400001928E-02 0. -1.
       -1    1    3    3    0  502  0.34550003038E+03 -0.18673292627E+03  0.30970478718E+03  0.50015648749E+03  0.50400001928E-02 0.  1.
</event>
<event>
 5   0  0.1731337E-02  0.8000208E+03  0.7818609E-02  0.9559987E-01
        2   -1    0    0  501    0  0.00000000000E+00  0.00000000000E+00  0.79020632823E+03  0.79020632824E+03  0.25500000920E-02 0. -1.
       -2   -1    0    0    0  501  0.00000000000E+00  0.00000000000E+00 -0.20248928399E+03  0.20248928400E+03  0.25500000920E-02 0.  1.
    10030    2    1    2    0    0  0.00000000000E+00  0.00000000000E+00  0.58771704425E+03  0.99269561224E+03  0.80002078377E+03 0.  0.
        4    1    3    3  502    0 -0.97721692849E+02  0.17980671951E+03  0.72032892471E+03  0.74883600227E+03  0.12699999809E+01 0. -1.
       -4    1    3    3    0  502  0.97721692849E+02 -0.17980671951E+03 -0.13261188046E+03  0.24385960997E+03  0.12699999809E+01 0.  1.
</event>
<event>
 5   0  0.1146083E-02  0.7849713E+03  0.7818609E-02  0.9582029E-01
       -1   -1    0    0    0  501  0.00000000000E+00  0.00000000000E+00  0.82681047284E+03  0.82681047285E+03  0.50400001928E-02 0. -1.
        1   -1    0    0  501    0  0.00000000000E+00  0.00000000000E+00 -0.18631230669E+03  0.18631230676E+03  0.50400001928E-02 0.  1.
    10030    2    1    2    0    0  0.00000000000E+00  0.00000000000E+00  0.64049816615E+03  0.10131227796E+04  0.78497125153E+03 0.  0.
        4    1    3    3  502    0 -0.35268672335E+03  0.14754227669E+03  0.20563020980E+03  0.43409911809E+03  0.12699999809E+01 0.  1.
       -4    1    3    3    0  502  0.35268672335E+03 -0.14754227669E+03  0.43486795635E+03  0.57902366152E+03  0.12699999809E+01 0. -1.
</event>
<event>
 5   0  0.1038912E-02  0.8078589E+03  0.7818609E-02  0.9548711E-01
       -1   -1    0    0    0  501  0.00000000000E+00  0.00000000000E+00  0.11630663916E+03  0.11630663927E+03  0.50400001928E-02 0. -1.
        1   -1    0    0  501    0  0.00000000000E+00  0.00000000000E+00 -0.14028349646E+04  0.14028349647E+04  0.50400001928E-02 0.  1.
    10030    2    1    2    0    0  0.00000000000E+00  0.00000000000E+00 -0.12865283255E+04  0.15191416039E+04  0.80785894840E+03 0.  0.
        2    1    3    3  502    0  0.21982687328E+03 -0.58579765615E+02 -0.12709065788E+04  0.12911076544E+04  0.25500000920E-02 0.  1.
       -2    1    3    3    0  502 -0.21982687328E+03  0.58579765615E+02 -0.15621746656E+02  0.22803394952E+03  0.25500000920E-02 0. -1.
</event>
<event>
 5   0  0.1038912E-02  0.8007699E+03  0.7818609E-02  0.9558903E-01
        1   -1    0    0  501    0  0.00000000000E+00  0.00000000000E+00  0.11414442298E+04  0.11414442298E+04  0.50400001928E-02 0.  1.
       -1   -1    0    0    0  501  0.00000000000E+00  0.00000000000E+00 -0.14044321454E+03  0.14044321463E+03  0.50400001928E-02 0. -1.
    10030    2    1    2    0    0  0.00000000000E+00  0.00000000000E+00  0.10010010152E+04  0.12818874444E+04  0.80076987185E+03 0.  0.
        2    1    3    3  502    0  0.42826091643E+02 -0.25018302990E+03  0.48086497186E+01  0.25386757511E+03  0.25500000920E-02 0. -1.
       -2    1    3    3    0  502 -0.42826091643E+02  0.25018302990E+03  0.99619236549E+03  0.10280198693E+04  0.25500000920E-02 0.  1.
</event>
<event>
 5   0  0.1817089E-02  0.6840424E+03  0.7818609E-02  0.9744918E-01
       -2   -1    0    0    0  501  0.00000000000E+00  0.00000000000E+00  0.78815044404E+02  0.78815044445E+02  0.25500000920E-02 0.  1.
        2   -1    0    0  501    0  0.00000000000E+00  0.00000000000E+00 -0.14842155217E+04  0.14842155217E+04  0.25500000920E-02 0. -1.
    10030    2    1    2    0    0  0.00000000000E+00  0.00000000000E+00 -0.14054004773E+04  0.15630305661E+04  0.68404243225E+03 0.  0.
        2    1    3    3  502    0  0.23702423285E+03 -0.15808770141E+03 -0.11350788233E+04  0.11702889145E+04  0.25500000920E-02 0. -1.
       -2    1    3    3    0  502 -0.23702423285E+03  0.15808770141E+03 -0.27032165393E+03  0.39274165158E+03  0.25500000920E-02 0.  1.
</event>
<event>
 5   0  0.1025900E-02  0.7996302E+03  0.7818609E-02  0.9560553E-01
       -1   -1    0    0    0  501  0.00000000000E+00  0.00000000000E+00  0.89272395012E+02  0.89272395154E+02  0.50400001928E-02 0. -1.
        1   -1    0    0  501    0  0.00000000000E+00  0.00000000000E+00 -0.17906107751E+04  0.17906107751E+04  0.50400001928E-02 0.  1.
    10030    2    1    2    0    0  0.00000000000E+00  0.00000000000E+00 -0.17013383801E+04  0.18798831703E+04  0.79963019595E+03 0.  0.
        1    1    3    3  502    0 -0.62221605286E+02 -0.74847925950E+02  0.60993882998E+02  0.11486511208E+03  0.50400001928E-02 0. -1.
       -1    1    3    3    0  502  0.62221605286E+02  0.74847925950E+02 -0.17623322631E+04  0.17650180582E+04  0.50400001928E-02 0.  1.
</event>
<event>
 5   0  0.1038912E-02  0.8020361E+03  0.7818609E-02  0.9557075E-01
       -1   -1    0    0    0  501  0.00000000000E+00  0.00000000000E+00  0.73038267550E+02  0.73038267723E+02  0.50400001928E-02 0. -1.
        1   -1    0    0  501    0  0.00000000000E+00  0.00000000000E+00 -0.22017975249E+04  0.22017975249E+04  0.50400001928E-02 0.  1.
    10030    2    1    2    0    0  0.00000000000E+00  0.00000000000E+00 -0.21287592574E+04  0.22748357927E+04  0.80203610123E+03 0.  0.
        2    1    3    3  502    0  0.30652772309E+03 -0.24131524210E+03 -0.13277640042E+04  0.13838892809E+04  0.25500000920E-02 0.  1.
       -2    1    3    3    0  502 -0.30652772309E+03  0.24131524210E+03 -0.80099525320E+03  0.89094651173E+03  0.25500000920E-02 0. -1.
</event>
<event>
 5   0  0.1030323E-02  0.9525042E+03  0.7818609E-02  0.9362228E-01
       -1   -1    0    0    0  501  0.00000000000E+00  0.00000000000E+00  0.30337209179E+03  0.30337209183E+03  0.50400001928E-02 0.  1.
        1   -1    0    0  501    0  0.00000000000E+00  0.00000000000E+00 -0.74764966664E+03  0.74764966665E+03  0.50400001928E-02 0. -1.
    10030    2    1    2    0    0  0.00000000000E+00  0.00000000000E+00 -0.44427757485E+03  0.10510217585E+04  0.95250415920E+03 0.  0.
        3    1    3    3  502    0  0.21847244570E+03 -0.26190383725E+03 -0.58892300815E+03  0.68055429558E+03  0.10100000352E+00 0. -1.
       -3    1    3    3    0  502 -0.21847244570E+03  0.26190383725E+03  0.14464543330E+03  0.37046746291E+03  0.10100000352E+00 0.  1.
</event>
<event>
 5   0  0.1146083E-02  0.7975111E+03  0.7818609E-02  0.9563627E-01
        1   -1    0    0  501    0  0.00000000000E+00  0.00000000000E+00  0.37634482103E+03  0.37634482106E+03  0.50400001928E-02 0.  1.
       -1   -1    0    0    0  501  0.00000000000E+00  0.00000000000E+00 -0.42250077284E+03  0.42250077287E+03  0.50400001928E-02 0. -1.
    10030    2    1    2    0    0  0.00000000000E+00  0.00000000000E+00 -0.46155951811E+02  0.79884559394E+03  0.79751107269E+03 0.  0.
        4    1    3    3  502    0 -0.80585770276E+02  0.26580739410E+03  0.26350692967E+03  0.38286440422E+03  0.12699999809E+01 0.  1.
       -4    1    3    3    0  502  0.80585770276E+02 -0.26580739410E+03 -0.30966288148E+03  0.41598118972E+03  0.12699999809E+01 0. -1.
</event>
<event>
 5   0  0.1731337E-02  0.8096475E+03  0.7818609E-02  0.9546157E-01
        2   -1    0    0  501    0  0.00000000000E+00  0.00000000000E+00  0.84338050725E+03  0.84338050725E+03  0.25500000920E-02 0.  1.
       -2   -1    0    0    0  501  0.00000000000E+00  0.00000000000E+00 -0.19431593545E+03  0.19431593547E+03  0.25500000920E-02 0. -1.
    10030    2    1    2    0    0  0.00000000000E+00  0.00000000000E+00  0.64906457180E+03  0.10376964427E+04  0.80964750902E+03 0.  0.
        4    1    3    3  502    0 -0.20226096530E+03 -0.16449224012E+03 -0.72397904416E+02  0.27057395405E+03  0.12699999809E+01 0. -1.
       -4    1    3    3    0  502  0.20226096530E+03  0.16449224012E+03  0.72146247622E+03  0.76712248868E+03  0.12699999809E+01 0.  1.
</event>
<event>
 5   0  0.1817089E-02  0.7972460E+03  0.7818609E-02  0.9564012E-01
       -2   -1    0    0    0  501  0.00000000000E+00  0.00000000000E+00  0.13169208355E+03  0.13169208358E+03  0.25500000920E-02 0. -1.
        2   -1    0    0  501    0  0.00000000000E+00  0.00000000000E+00 -0.12066047252E+04  0.12066047252E+04  0.25500000920E-02 0.  1.
    10030    2    1    2    0    0  0.00000000000E+00  0.00000000000E+00 -0.10749126416E+04  0.13382968087E+04  0.79724598538E+03 0.  0.
        2    1    3    3  502    0  0.16921261833E+03 -0.94407994250E+02  0.47317690264E+02  0.19946113255E+03  0.25500000920E-02 0. -1.
       -2    1    3    3    0  502 -0.16921261833E+03  0.94407994250E+02 -0.11222303319E+04  0.11388356762E+04  0.25500000920E-02 0.  1.
</event>
<event>
 5   0  0.1673727E-02  0.8026602E+03  0.7818609E-02  0.9556174E-01
       -2   -1    0    0    0  501  0.00000000000E+00  0.00000000000E+00  0.14333413449E+03  0.14333413451E+03  0.25500000920E-02 0. -1.
        2   -1    0    0  501    0  0.00000000000E+00  0.00000000000E+00 -0.11237090657E+04  0.11237090657E+04  0.25500000920E-02 0.  1.
    10030    2    1    2    0    0  0.00000000000E+00  0.00000000000E+00 -0.98037493123E+03  0.12670432002E+04  0.80266024287E+03 0.  0.
        5    1    3    3  502    0 -0.16848645117E+02 -0.22266307515E+03 -0.10165379958E+04  0.10407854288E+04  0.46999998093E+01 0.  1.
       -5    1    3    3    0  502  0.16848645117E+02  0.22266307515E+03  0.36163064618E+02  0.22625777140E+03  0.46999998093E+01 0. -1.
</event>
<event>
 5   0  0.1818665E-02  0.8382999E+03  0.7818609E-02  0.9506176E-01
       -2   -1    0    0    0  501  0.00000000000E+00  0.00000000000E+00  0.12677335164E+03  0.12677335166E+03  0.25500000920E-02 0.  1.
        2   -1    0    0  501    0  0.00000000000E+00  0.00000000000E+00 -0.13858328732E+04  0.13858328732E+04  0.25500000920E-02 0. -1.
    10030    2    1    2    0    0  0.00000000000E+00  0.00000000000E+00 -0.12590595215E+04  0.15126062248E+04  0.83829989421E+03 0.  0.
        3    1    3    3  502    0 -0.13259828876E+03 -0.30496823584E+03 -0.16915367827E+03  0.37309637914E+03  0.10100000352E+00 0.  1.
       -3    1    3    3    0  502  0.13259828876E+03  0.30496823584E+03 -0.10899058432E+04  0.11395098457E+04  0.10100000352E+00 0. -1.
</event>
<event>
 5   0  0.1747544E-02  0.7973728E+03  0.7818609E-02  0.9563828E-01
        2   -1    0    0  501    0  0.00000000000E+00  0.00000000000E+00  0.52424711033E+03  0.52424711034E+03  0.25500000920E-02 0.  1.
       -2   -1    0    0    0  501  0.00000000000E+00  0.00000000000E+00 -0.30319833037E+03  0.30319833038E+03  0.25500000920E-02 0. -1.
    10030    2    1    2    0    0  0.00000000000E+00  0.00000000000E+00  0.22104877996E+03  0.82744544072E+03  0.79737280756E+03 0.  0.
        1    1    3    3  502    0  0.33259627972E+03  0.26639686037E+02 -0.11592789223E+03  0.35322688796E+03  0.50400001928E-02 0. -1.
       -1    1    3    3    0  502 -0.33259627972E+03 -0.26639686037E+02  0.33697667219E+03  0.47421855276E+03  0.50400001928E-02 0.  1.
</event>
<event>
 5   0  0.1030323E-02  0.8119961E+03  0.7818609E-02  0.9542814E-01
        1   -1    0    0  501    0  0.00000000000E+00  0.00000000000E+00  0.34786545771E+03  0.34786545775E+03  0.50400001928E-02 0.  1.
       -1   -1    0    0    0  501  0.00000000000E+00  0.00000000000E+00 -0.47384534622E+03  0.47384534625E+03  0.50400001928E-02 0. -1.
    10030    2    1    2    0    0  0.00000000000E+00  0.00000000000E+00 -0.12597988851E+03  0.82171080400E+03  0.81199612874E+03 0.  0.
        3    1    3    3  502    0  0.24216885091E+03  0.32390599473E+03 -0.99104047876E+02  0.41639220488E+03  0.10100000352E+00 0.  1.
       -3    1    3    3    0  502 -0.24216885091E+03 -0.32390599473E+03 -0.26875840638E+02  0.40531859912E+03  0.10100000352E+00 0. -1.
</event>
<event>
 5   0  0.1030323E-02  0.7945707E+03  0.7818609E-02  0.9567909E-01
       -1   -1    0    0    0  501  0.00000000000E+00  0.00000000000E+00  0.10490704879E+03  0.10490704891E+03  0.50400001928E-02 0. -1.
        1   -1    0    0  501    0  0.00000000000E+00  0.00000000000E+00 -0.15045283611E+04  0.15045283611E+04  0.50400001928E-02 0.  1.
    10030    2    1    2    0    0  0.00000000000E+00  0.00000000000E+00 -0.13996213123E+04  0.16094354100E+04  0.79457065207E+03 0.  0.
        3    1    3    3  502    0  0.65335208992E+02  0.20516421600E+03 -0.13760943947E+04  0.13928376927E+04  0.10100000352E+00 0.  1.
       -3    1    3    3    0  502 -0.65335208992E+02 -0.20516421600E+03 -0.23526917601E+02  0.21659771724E+03  0.10100000352E+00 0. -1.
</event>
<event>
 5   0  0.1673727E-02  0.8008155E+03  0.7818609E-02  0.9558838E-01
        2   -1    0    0  501    0  0.00000000000E+00  0.00000000000E+00  0.39668474913E+03  0.39668474914E+03  0.25500000920E-02 0. -1.
       -2   -1    0    0    0  501  0.00000000000E+00  0.00000000000E+00 -0.40416564194E+03  0.40416564195E+03  0.25500000920E-02 0.  1.
    10030    2    1    2    0    0  0.00000000000E+00  0.00000000000E+00 -0.74808928061E+01  0.80085039109E+03  0.80081545012E+03 0.  0.
        5    1    3    3  502    0  0.15982888350E+03  0.22528461324E+03  0.28610978756E+03  0.39771765047E+03  0.46999998093E+01 0. -1.
       -5    1    3    3    0  502 -0.15982888350E+03 -0.22528461324E+03 -0.29359068036E+03  0.40313274062E+03  0.46999998093E+01 0.  1.
</event>
<event>
 5   0  0.1146083E-02  0.7821120E+03  0.7818609E-02  0.9586276E-01
       -1   -1    0    0    0  501  0.00000000000E+00  0.00000000000E+00  0.25968665825E+03  0.25968665830E+03  0.50400001928E-02 0. -1.
        1   -1    0    0  501    0  0.00000000000E+00  0.00000000000E+00 -0.58888200073E+03  0.58888200075E+03  0.50400001928E-02 0.  1.
    10030    2    1    2    0    0  0.00000000000E+00  0.00000000000E+00 -0.32919534247E+03  0.84856865905E+03  0.78211200963E+03 0.  0.
        4    1    3    3  502    0 -0.11744408282E+02  0.38391722112E+03 -0.84921935228E+02  0.39337477268E+03  0.12699999809E+01 0.  1.
       -4    1    3    3    0  502  0.11744408282E+02 -0.38391722112E+03 -0.24427340725E+03  0.45519388637E+03  0.12699999809E+01 0. -1.
</event>
<event>
 5   0  0.1747544E-02  0.8387890E+03  0.7818609E-02  0.9505509E-01
       -2   -1    0    0    0  501  0.00000000000E+00  0.00000000000E+00  0.96354544324E+02  0.96354544358E+02  0.25500000920E-02 0. -1.
        2   -1    0    0  501    0  0.00000000000E+00  0.00000000000E+00 -0.18254639770E+04  0.18254639770E+04  0.25500000920E-02 0.  1.
    10030    2    1    2    0    0  0.00000000000E+00  0.00000000000E+00 -0.17291094326E+04  0.19218185213E+04  0.83878900735E+03 0.  0.
        1    1    3    3  502    0 -0.32862293792E+03 -0.18623998629E+03 -0.12821121250E+04  0.13365963747E+04  0.50400001928E-02 0.  1.
       -1    1    3    3    0  502  0.32862293792E+03  0.18623998629E+03 -0.44699730768E+03  0.58522214664E+03  0.50400001928E-02 0. -1.
</event>
<event>
 5   0  0.1818665E-02  0.7960911E+03  0.7818609E-02  0.9565692E-01
        2   -1    0    0  501    0  0.00000000000E+00  0.00000000000E+00  0.54196559370E+03  0.54196559370E+03  0.25500000920E-02 0.  1.
       -2   -1    0    0    0  501  0.00000000000E+00  0.00000000000E+00 -0.29234373095E+03  0.29234373096E+03  0.25500000920E-02 0. -1.
    10030    2    1    2    0    0  0.00000000000E+00  0.00000000000E+00  0.24962186274E+03  0.83430932466E+03  0.79609105940E+03 0.  0.
        3    1    3    3  502    0  0.18520369621E+03  0.32242314743E+03  0.27369859000E+03  0.46170122748E+03  0.10100000352E+00 0.  1.
       -3    1    3    3    0  502 -0.18520369621E+03 -0.32242314743E+03 -0.24076727257E+02  0.37260809718E+03  0.10100000352E+00 0. -1.
</event>
<event>
 5   0  0.6872500E-03  0.7965777E+03  0.7818609E-02  0.9564984E-01
       -3   -1    0    0    0  501  0.00000000000E+00  0.00000000000E+00  0.89251378229E+03  0.89251378801E+03  0.10100000352E+00 0.  1.
        3   -1    0    0  501    0  0.00000000000E+00  0.00000000000E+00 -0.17773843193E+03  0.17773846063E+03  0.10100000352E+00 0. -1.
    10030    2    1    2    0    0  0.00000000000E+00  0.00000000000E+00  0.71477535036E+03  0.10702522486E+04  0.79657772642E+03 0.  0.
        5    1    3    3  502    0  0.33222300380E+03 -0.10067261284E+03  0.95118046918E+02  0.35996754309E+03  0.46999998093E+01 0. -1.
       -5    1    3    3    0  502 -0.33222300380E+03  0.10067261284E+03  0.61965730344E+03  0.71028470555E+03  0.46999998093E+01 0.  1.
</event>
<event>
 5   0  0.1025900E-02  0.7908883E+03  0.7818609E-02  0.9573300E-01
        1   -1    0    0  501    0  0.00000000000E+00  0.00000000000E+00  0.12136631115E+04  0.12136631115E+04  0.50400001928E-02 0. -1.
       -1   -1    0    0    0  501  0.00000000000E+00  0.00000000000E+00 -0.12884635917E+03  0.12884635927E+03  0.50400001928E-02 0.  1.
    10030    2    1    2    0    0  0.00000000000E+00  0.00000000000E+00  0.10848167523E+04  0.13425094708E+04  0.79088829363E+03 0.  0.
        1    1    3    3  502    0 -0.36306248192E+03  0.13242707652E+03  0.68468006186E+03  0.78621758026E+03  0.50400001928E-02 0.  1.
       -1    1    3    3    0  502  0.36306248192E+03 -0.13242707652E+03  0.40013669047E+03  0.55629189052E+03  0.50400001928E-02 0. -1.
</event>
<event>
 5   0  0.1818665E-02  0.8019226E+03  0.7818609E-02  0.9557238E-01
        2   -1    0    0  501    0  0.00000000000E+00  0.00000000000E+00  0.75172839390E+03  0.75172839391E+03  0.25500000920E-02 0.  1.
       -2   -1    0    0    0  501  0.00000000000E+00  0.00000000000E+00 -0.21386709875E+03  0.21386709877E+03  0.25500000920E-02 0. -1.
    10030    2    1    2    0    0  0.00000000000E+00  0.00000000000E+00  0.53786129515E+03  0.96559549268E+03  0.80192261638E+03 0.  0.
        3    1    3    3  502    0  0.28098200386E+03  0.79693226232E+02  0.59971455380E+03  0.66705281129E+03  0.10100000352E+00 0.  1.
       -3    1    3    3    0  502 -0.28098200386E+03 -0.79693226232E+02 -0.61853258657E+02  0.29854268139E+03  0.10100000352E+00 0. -1.
</event>
<event>
 5   0  0.1747544E-02  0.8156702E+03  0.7818609E-02  0.9537608E-01
        2   -1    0    0  501    0  0.00000000000E+00  0.00000000000E+00  0.13490086341E+04  0.13490086341E+04  0.25500000920E-02 0.  1.
       -2   -1    0    0    0  501  0.00000000000E+00  0.00000000000E+00 -0.12329756509E+03  0.12329756512E+03  0.25500000920E-02 0. -1.
    10030    2    1    2    0    0  0.00000000000E+00  0.00000000000E+00  0.12257110690E+04  0.14723061992E+04  0.81567022721E+03 0.  0.
        1    1    3    3  502    0 -0.14092770097E+03  0.33262148292E+03  0.95453424238E+03  0.10206043737E+04  0.50400001928E-02 0. -1.
       -1    1    3    3    0  502  0.14092770097E+03 -0.33262148292E+03  0.27117682661E+03  0.45170182545E+03  0.50400001928E-02 0.  1.
</event>
<event>
 5   0  0.1038912E-02  0.8114106E+03  0.7818609E-02  0.9543646E-01
       -1   -1    0    0    0  501  0.00000000000E+00  0.00000000000E+00  0.29904502889E+03  0.29904502893E+03  0.50400001928E-02 0.  1.
        1   -1    0    0  501    0  0.00000000000E+00  0.00000000000E+00 -0.55040799969E+03  0.55040799972E+03  0.50400001928E-02 0. -1.
    10030    2    1    2    0    0  0.00000000000E+00  0.00000000000E+00 -0.25136297080E+03  0.84945302865E+03  0.81141056487E+03 0.  0.
        2    1    3    3  502    0 -0.36967446282E+03  0.12083535439E+03 -0.24657911085E+03  0.46050151926E+03  0.25500000920E-02 0. -1.
       -2    1    3    3    0  502  0.36967446282E+03 -0.12083535439E+03 -0.47838599528E+01  0.38895150938E+03  0.25500000920E-02 0.  1.
</event>
<event>
 5   0  0.1731337E-02  0.7887786E+03  0.7818609E-02  0.9576403E-01
       -2   -1    0    0    0  501  0.00000000000E+00  0.00000000000E+00  0.14559332458E+03  0.14559332460E+03  0.25500000920E-02 0.  1.
        2   -1    0    0  501    0  0.00000000000E+00  0.00000000000E+00 -0.10683381390E+04  0.10683381390E+04  0.25500000920E-02 0. -1.
    10030    2    1    2    0    0  0.00000000000E+00  0.00000000000E+00 -0.92274481444E+03  0.12139314636E+04  0.78877855307E+03 0.  0.
        4    1    3    3  502    0  0.33433911803E+03  0.10819526790E+03 -0.73690281326E+03  0.81640445303E+03  0.12699999809E+01 0. -1.
       -4    1    3    3    0  502 -0.33433911803E+03 -0.10819526790E+03 -0.18584200117E+03  0.39752701058E+03  0.12699999809E+01 0.  1.
</event>
<event>
 5   0  0.1817089E-02  0.8023945E+03  0.7818609E-02  0.9556558E-01
       -2   -1    0    0    0  501  0.00000000000E+00  0.00000000000E+00  0.30345023725E+03  0.30345023726E+03  0.25500000920E-02 0. -1.
        2   -1    0    0  501    0  0.00000000000E+00  0.00000000000E+00 -0.53043046781E+03  0.53043046782E+03  0.25500000920E-02 0.  1.
    10030    2    1    2    0    0  0.00000000000E+00  0.00000000000E+00 -0.22698023056E+03  0.83388070508E+03  0.80239454462E+03 0.  0.
        2    1    3    3  502    0 -0.83274040035E+02  0.39150350939E+03 -0.14194495527E+03  0.42468568841E+03  0.25500000920E-02 0.  1.
       -2    1    3    3    0  502  0.83274040035E+02 -0.39150350939E+03 -0.85035275295E+02  0.40919501666E+03  0.25500000920E-02 0. -1.
</event>
<event>
 5   0  0.1030323E-02  0.7983691E+03  0.7818609E-02  0.9562381E-01
        1   -1    0    0  501    0  0.00000000000E+00  0.00000000000E+00  0.67867828289E+03  0.67867828291E+03  0.50400001928E-02 0. -1.
       -1   -1    0    0    0  501  0.00000000000E+00  0.00000000000E+00 -0.23479209601E+03  0.23479209606E+03  0.50400001928E-02 0.  1.
    10030    2    1    2    0    0  0.00000000000E+00  0.00000000000E+00  0.44388618688E+03  0.91347037897E+03  0.79836907903E+03 0.  0.
        3    1    3    3  502    0  0.27437680486E+03  0.76683275352E+02  0.54187193929E+03  0.61219944835E+03  0.10100000352E+00 0. -1.
       -3    1    3    3    0  502 -0.27437680486E+03 -0.76683275352E+02 -0.97985752413E+02  0.30127093063E+03  0.10100000352E+00 0.  1.
</event>
<event>
 5   0  0.1146083E-02  0.7992649E+03  0.7818609E-02  0.9561082E-01
        1   -1    0    0  501    0  0.00000000000E+00  0.00000000000E+00  0.14803094494E+03  0.14803094502E+03  0.50400001928E-02 0.  1.
       -1   -1    0    0    0  501  0.00000000000E+00  0.00000000000E+00 -0.10788696996E+04  0.10788696996E+04  0.50400001928E-02 0. -1.
    10030    2    1    2    0    0  0.00000000000E+00  0.00000000000E+00 -0.93083875463E+03  0.12269006446E+04  0.79926491516E+03 0.  0.
        4    1    3    3  502    0  0.25023588443E+03 -0.17883836310E+03 -0.85708932291E+03  0.91060687364E+03  0.12699999809E+01 0. -1.
       -4    1    3    3    0  502 -0.25023588443E+03  0.17883836310E+03 -0.73749431720E+02  0.31629377096E+03  0.12699999809E+01 0.  1.
</event>
<event>
 5   0  0.1049780E-02  0.7970133E+03  0.7818609E-02  0.9564350E-01
       -1   -1    0    0    0  501  0.00000000000E+00  0.00000000000E+00  0.18333722825E+03  0.18333722832E+03  0.50400001928E-02 0.  1.
        1   -1    0    0  501    0  0.00000000000E+00  0.00000000000E+00 -0.86620452106E+03  0.86620452108E+03  0.50400001928E-02 0. -1.
    10030    2    1    2    0    0  0.00000000000E+00  0.00000000000E+00 -0.68286729281E+03  0.10495417494E+04  0.79701326472E+03 0.  0.
        5    1    3    3  502    0 -0.55353135261E+02 -0.11284443032E+03 -0.83938093804E+03  0.84875219245E+03  0.46999998093E+01 0. -1.
       -5    1    3    3    0  502  0.55353135261E+02  0.11284443032E+03  0.15651364523E+03  0.20078955695E+03  0.46999998093E+01 0.  1.
</event>
<event>
 5   0  0.1146083E-02  0.7899746E+03  0.7818609E-02  0.9574643E-01
       -1   -1    0    0    0  501  0.00000000000E+00  0.00000000000E+00  0.13283636543E+03  0.13283636552E+03  0.50400001928E-02 0. -1.
        1   -1    0    0  501    0  0.00000000000E+00  0.00000000000E+00 -0.11744899173E+04  0.11744899173E+04  0.50400001928E-02 0.  1.
    10030    2    1    2    0    0  0.00000000000E+00  0.00000000000E+00 -0.10416535519E+04  0.13073262829E+04  0.78997461205E+03 0.  0.
        4    1    3    3  502    0 -0.21987822342E+03  0.29466429637E+03 -0.28192551185E+03  0.46331100550E+03  0.12699999809E+01 0. -1.
       -4    1    3    3    0  502  0.21987822342E+03 -0.29466429637E+03 -0.75972804005E+03  0.84401527736E+03  0.12699999809E+01 0.  1.
</event>
<event>
 5   0  0.1025900E-02  0.7982220E+03  0.7818609E-02  0.9562594E-01
        1   -1    0    0  501    0  0.00000000000E+00  0.00000000000E+00  0.78814503209E+03  0.78814503210E+03  0.50400001928E-02 0.  1.
       -1   -1    0    0    0  501  0.00000000000E+00  0.00000000000E+00 -0.20210696369E+03  0.20210696375E+03  0.50400001928E-02 0. -1.
    10030    2    1    2    0    0  0.00000000000E+00  0.00000000000E+00  0.58603806840E+03  0.99025199585E+03  0.79822202279E+03 0.  0.
        1    1    3    3  502    0  0.29160788653E+03 -0.52992854762E+02 -0.38578719429E+02  0.29888412430E+03  0.50400001928E-02 0. -1.
       -1    1    3    3    0  502 -0.29160788653E+03  0.52992854762E+02  0.62461678783E+03  0.69136787155E+03  0.50400001928E-02 0.  1.
</event>
<event>
 5   0  0.1673727E-02  0.8137886E+03  0.7818609E-02  0.9540270E-01
        2   -1    0    0  501    0  0.00000000000E+00  0.00000000000E+00  0.67635116231E+03  0.67635116232E+03  0.25500000920E-02 0. -1.
       -2   -1    0    0    0  501  0.00000000000E+00  0.00000000000E+00 -0.24478847072E+03  0.24478847073E+03  0.25500000920E-02 0.  1.
    10030    2    1    2    0    0  0.00000000000E+00  0.00000000000E+00  0.43156269159E+03  0.92113963305E+03  0.81378858852E+03 0.  0.
        5    1    3    3  502    0 -0.44813858003E+02  0.38387369762E+03  0.35973309341E+03  0.52801258137E+03  0.46999998093E+01 0.  1.
       -5    1    3    3    0  502  0.44813858003E+02 -0.38387369762E+03  0.71829598184E+02  0.39312705168E+03  0.46999998093E+01 0. -1.
</event>
<event>
 5   0  0.1146083E-02  0.8008265E+03  0.7818609E-02  0.9558821E-01
       -1   -1    0    0    0  501  0.00000000000E+00  0.00000000000E+00  0.10752870620E+03  0.10752870632E+03  0.50400001928E-02 0.  1.
        1   -1    0    0  501    0  0.00000000000E+00  0.00000000000E+00 -0.14910510144E+04  0.14910510145E+04  0.50400001928E-02 0. -1.
    10030    2    1    2    0    0  0.00000000000E+00  0.00000000000E+00 -0.13835223082E+04  0.15985797208E+04  0.80082653944E+03 0.  0.
        4    1    3    3  502    0  0.23637370672E+02  0.29520336793E+03 -0.15381331126E+03  0.33371230326E+03  0.12699999809E+01 0.  1.
       -4    1    3    3    0  502 -0.23637370672E+02 -0.29520336793E+03 -0.12297089970E+04  0.12648674175E+04  0.12699999809E+01 0. -1.
</event>
<event>
 5   0  0.6872500E-03  0.8023373E+03  0.7818609E-02  0.9556640E-01
        4   -1    0    0  501    0  0.00000000000E+00  0.00000000000E+00  0.15221386036E+03  0.15221915840E+03  0.12699999809E+01 0. -1.
       -4   -1    0    0    0  501  0.00000000000E+00  0.00000000000E+00 -0.10572797029E+04  0.10572804657E+04  0.12699999809E+01 0.  1.
    10030    2    1    2    0    0  0.00000000000E+00  0.00000000000E+00 -0.90506584255E+03  0.12094996241E+04  0.80233731140E+03 0.  0.
        4    1    3    3  502    0  0.25267878233E+03  0.19234829336E+03 -0.83002043064E+02  0.32823068877E+03  0.12699999809E+01 0. -1.
       -4    1    3    3    0  502 -0.25267878233E+03 -0.19234829336E+03 -0.82206379948E+03  0.88126893529E+03  0.12699999809E+01 0.  1.
</event>
<event>
 5   0  0.1818665E-02  0.7954624E+03  0.7818609E-02  0.9566608E-01
       -2   -1    0    0    0  501  0.00000000000E+00  0.00000000000E+00  0.94448415999E+03  0.94448415999E+03  0.25500000920E-02 0.  1.
        2   -1    0    0  501    0  0.00000000000E+00  0.00000000000E+00 -0.16748835815E+03  0.16748835817E+03  0.25500000920E-02 0. -1.
    10030    2    1    2    0    0  0.00000000000E+00  0.00000000000E+00  0.77699580184E+03  0.11119725182E+04  0.79546238444E+03 0.  0.
        3    1    3    3  502    0 -0.17072727959E+03  0.35674989362E+03  0.44733914044E+03  0.59710184002E+03  0.10100000352E+00 0. -1.
       -3    1    3    3    0  502  0.17072727959E+03 -0.35674989362E+03  0.32965666140E+03  0.51487067813E+03  0.10100000352E+00 0.  1.
</event>
<event>
 5   0  0.1818665E-02  0.7596431E+03  0.7818609E-02  0.9620342E-01
        2   -1    0    0  501    0  0.00000000000E+00  0.00000000000E+00  0.22296155509E+04  0.22296155509E+04  0.25500000920E-02 0.  1.
       -2   -1    0    0    0  501  0.00000000000E+00  0.00000000000E+00 -0.64703709675E+02  0.64703709726E+02  0.25500000920E-02 0. -1.
    10030    2    1    2    0    0  0.00000000000E+00  0.00000000000E+00  0.21649118412E+04  0.22943192606E+04  0.75964306711E+03 0.  0.
        3    1    3    3  502    0  0.22668460241E+03  0.24171411848E+03  0.52185177963E+03  0.61817547197E+03  0.10100000352E+00 0. -1.
       -3    1    3    3    0  502 -0.22668460241E+03 -0.24171411848E+03  0.16430600616E+04  0.16761437886E+04  0.10100000352E+00 0.  1.
</event>
<event>
 5   0  0.1049780E-02  0.7964605E+03  0.7818609E-02  0.9565155E-01
       -1   -1    0    0    0  501  0.00000000000E+00  0.00000000000E+00  0.98888097933E+02  0.98888098062E+02  0.50400001928E-02 0.  1.
        1   -1    0    0  501    0  0.00000000000E+00  0.00000000000E+00 -0.16037048513E+04  0.16037048513E+04  0.50400001928E-02 0. -1.
    10030    2    1    2    0    0  0.00000000000E+00  0.00000000000E+00 -0.15048167534E+04  0.17025929494E+04  0.79646047613E+03 0.  0.
        5    1    3    3  502    0 -0.21842558831E+03 -0.14476599620E+03 -0.13933557087E+04  0.14177902356E+04  0.46999998093E+01 0. -1.
       -5    1    3    3    0  502  0.21842558831E+03  0.14476599620E+03 -0.11146104468E+03  0.28480271375E+03  0.46999998093E+01 0.  1.
</event>
<event>
 5   0  0.1673727E-02  0.7995873E+03  0.7818609E-02  0.9560615E-01
       -2   -1    0    0    0  501  0.00000000000E+00  0.00000000000E+00  0.84114380211E+02  0.84114380250E+02  0.25500000920E-02 0. -1.
        2   -1    0    0  501    0  0.00000000000E+00  0.00000000000E+00 -0.19002096909E+04  0.19002096909E+04  0.25500000920E-02 0.  1.
    10030    2    1    2    0    0  0.00000000000E+00  0.00000000000E+00 -0.18160953107E+04  0.19843240712E+04  0.79958729471E+03 0.  0.
        5    1    3    3  502    0  0.28413448982E+03  0.17365872807E+03 -0.14569609344E+04  0.14945390649E+04  0.46999998093E+01 0.  1.
       -5    1    3    3    0  502 -0.28413448982E+03 -0.17365872807E+03 -0.35913437638E+03  0.48978500634E+03  0.46999998093E+01 0. -1.
</event>
<event>
 5   0  0.1818665E-02  0.8000416E+03  0.7818609E-02  0.9559957E-01
       -2   -1    0    0    0  501  0.00000000000E+00  0.00000000000E+00  0.85582816026E+02  0.85582816064E+02  0.25500000920E-02 0.  1.
        2   -1    0    0  501    0  0.00000000000E+00  0.00000000000E+00 -0.18697285646E+04  0.18697285646E+04  0.25500000920E-02 0. -1.
    10030    2    1    2    0    0  0.00000000000E+00  0.00000000000E+00 -0.17841457485E+04  0.19553113806E+04  0.80004158841E+03 0.  0.
        3    1    3    3  502    0 -0.25503820746E+03 -0.30204791402E+03 -0.10415216900E+04  0.11140219345E+04  0.10100000352E+00 0.  1.
       -3    1    3    3    0  502  0.25503820746E+03  0.30204791402E+03 -0.74262405850E+03  0.84128944609E+03  0.10100000352E+00 0. -1.
</event>
<event>
 5   0  0.1030323E-02  0.8196552E+03  0.7818609E-02  0.9531995E-01
        1   -1    0    0  501    0  0.00000000000E+00  0.00000000000E+00  0.15105094695E+04  0.15105094695E+04  0.50400001928E-02 0.  1.
       -1   -1    0    0    0  501  0.00000000000E+00  0.00000000000E+00 -0.11119339028E+03  0.11119339040E+03  0.50400001928E-02 0. -1.
    10030    2    1    2    0    0  0.00000000000E+00  0.00000000000E+00  0.13993160792E+04  0.16217028599E+04  0.81965521793E+03 0.  0.
        3    1    3    3  502    0  0.24347611102E+02 -0.52438058576E+02  0.15024004948E+04  0.15035124919E+04  0.10100000352E+00 0.  1.
       -3    1    3    3    0  502 -0.24347611102E+02  0.52438058576E+02 -0.10308441561E+03  0.11819036804E+03  0.10100000352E+00 0. -1.
</event>
<event>
 5   0  0.1030323E-02  0.8037292E+03  0.7818609E-02  0.9554635E-01
        1   -1    0    0  501    0  0.00000000000E+00  0.00000000000E+00  0.15244559403E+04  0.15244559403E+04  0.50400001928E-02 0.  1.
       -1   -1    0    0    0  501  0.00000000000E+00  0.00000000000E+00 -0.10593624527E+03  0.10593624539E+03  0.50400001928E-02 0. -1.
    10030    2    1    2    0    0  0.00000000000E+00  0.00000000000E+00  0.14185196950E+04  0.16303921857E+04  0.80372915463E+03 0.  0.
        3    1    3    3  502    0  0.22682335290E+03 -0.13779037574E+03  0.97125933224E+02  0.28261011689E+03  0.10100000352E+00 0. -1.
       -3    1    3    3    0  502 -0.22682335290E+03  0.13779037574E+03  0.13213937618E+04  0.13477820688E+04  0.10100000352E+00 0.  1.
</event>
<event>
 5   0  0.1146083E-02  0.8052225E+03  0.7818609E-02  0.9552488E-01
       -1   -1    0    0    0  501  0.00000000000E+00  0.00000000000E+00  0.84947689365E+03  0.84947689366E+03  0.50400001928E-02 0. -1.
        1   -1    0    0  501    0  0.00000000000E+00  0.00000000000E+00 -0.19081839883E+03  0.19081839890E+03  0.50400001928E-02 0.  1.
    10030    2    1    2    0    0  0.00000000000E+00  0.00000000000E+00  0.65865849482E+03  0.10402952926E+04  0.80522250523E+03 0.  0.
        4    1    3    3  502    0 -0.56169344593E+02 -0.21075845176E+03  0.76653066805E+03  0.79695984731E+03  0.12699999809E+01 0. -1.
       -4    1    3    3    0  502  0.56169344593E+02  0.21075845176E+03 -0.10787217323E+03  0.24333544525E+03  0.12699999809E+01 0.  1.
</event>
<event>
 5   0  0.6872500E-03  0.7867614E+03  0.7818609E-02  0.9579380E-01
        3   -1    0    0  501    0  0.00000000000E+00  0.00000000000E+00  0.10507773825E+04  0.10507773874E+04  0.10100000352E+00 0.  1.
       -3   -1    0    0    0  501  0.00000000000E+00  0.00000000000E+00 -0.14727035475E+03  0.14727038938E+03  0.10100000352E+00 0. -1.
    10030    2    1    2    0    0  0.00000000000E+00  0.00000000000E+00  0.90350702777E+03  0.11980477768E+04  0.78676141630E+03 0.  0.
        5    1    3    3  502    0 -0.26184275637E+03 -0.27641981525E+03  0.60216591113E+03  0.71245730949E+03  0.46999998093E+01 0.  1.
       -5    1    3    3    0  502  0.26184275637E+03  0.27641981525E+03  0.30134111664E+03  0.48559046727E+03  0.46999998093E+01 0. -1.
</event>
<event>
 5   0  0.1747544E-02  0.8043912E+03  0.7818609E-02  0.9553683E-01
       -2   -1    0    0    0  501  0.00000000000E+00  0.00000000000E+00  0.42622987320E+03  0.42622987320E+03  0.25500000920E-02 0. -1.
        2   -1    0    0  501    0  0.00000000000E+00  0.00000000000E+00 -0.37951653849E+03  0.37951653850E+03  0.25500000920E-02 0.  1.
    10030    2    1    2    0    0  0.00000000000E+00  0.00000000000E+00  0.46713334702E+02  0.80574641170E+03  0.80439116376E+03 0.  0.
        1    1    3    3  502    0  0.66389665612E+02 -0.86193582270E+02  0.41120970533E+03  0.42535907549E+03  0.50400001928E-02 0. -1.
       -1    1    3    3    0  502 -0.66389665612E+02  0.86193582270E+02 -0.36449637063E+03  0.38038733621E+03  0.50400001928E-02 0.  1.
</event>
<event>
 5   0  0.6872500E-03  0.7943773E+03  0.7818609E-02  0.9568192E-01
        4   -1    0    0  501    0  0.00000000000E+00  0.00000000000E+00  0.44069389771E+03  0.44069572766E+03  0.12699999809E+01 0.  1.
       -4   -1    0    0    0  501  0.00000000000E+00  0.00000000000E+00 -0.35797449601E+03  0.35797674882E+03  0.12699999809E+01 0. -1.
    10030    2    1    2    0    0  0.00000000000E+00  0.00000000000E+00  0.82719401694E+02  0.79867247648E+03  0.79437725626E+03 0.  0.
        2    1    3    3  502    0 -0.28930056529E+03  0.26947656478E+03  0.31228902620E+01  0.39537600900E+03  0.25500000920E-02 0. -1.
       -2    1    3    3    0  502  0.28930056529E+03 -0.26947656478E+03  0.79596511432E+02  0.40329646748E+03  0.25500000920E-02 0.  1.
</event>
<event>
 5   0  0.1817089E-02  0.7894769E+03  0.7818609E-02  0.9575375E-01
       -2   -1    0    0    0  501  0.00000000000E+00  0.00000000000E+00  0.10341012948E+03  0.10341012951E+03  0.25500000920E-02 0. -1.
        2   -1    0    0  501    0  0.00000000000E+00  0.00000000000E+00 -0.15068004282E+04  0.15068004282E+04  0.25500000920E-02 0.  1.
    10030    2    1    2    0    0  0.00000000000E+00  0.00000000000E+00 -0.14033902987E+04  0.16102105577E+04  0.78947685821E+03 0.  0.
        2    1    3    3  502    0 -0.25360489379E+03  0.16233882050E+03 -0.12222871031E+04  0.12588308453E+04  0.25500000920E-02 0. -1.
       -2    1    3    3    0  502  0.25360489379E+03 -0.16233882050E+03 -0.18110319563E+03  0.35137971237E+03  0.25500000920E-02 0.  1.
</event>
<event>
 5   0  0.1818665E-02  0.8000676E+03  0.7818609E-02  0.9559919E-01
        2   -1    0    0  501    0  0.00000000000E+00  0.00000000000E+00  0.87049890038E+03  0.87049890038E+03  0.25500000920E-02 0. -1.
       -2   -1    0    0    0  501  0.00000000000E+00  0.00000000000E+00 -0.18383369781E+03  0.18383369783E+03  0.25500000920E-02 0.  1.
    10030    2    1    2    0    0  0.00000000000E+00  0.00000000000E+00  0.68666520256E+03  0.10543325982E+04  0.80006757667E+03 0.  0.
        3    1    3    3  502    0 -0.22233744819E+03 -0.33115620564E+03  0.30317418518E+03  0.50101194613E+03  0.10100000352E+00 0.  1.
       -3    1    3    3    0  502  0.22233744819E+03  0.33115620564E+03  0.38349101739E+03  0.55332065208E+03  0.10100000352E+00 0. -1.
</event>
<event>
 5   0  0.1038912E-02  0.8188565E+03  0.7818609E-02  0.9533117E-01
       -1   -1    0    0    0  501  0.00000000000E+00  0.00000000000E+00  0.11777945675E+04  0.11777945675E+04  0.50400001928E-02 0.  1.
        1   -1    0    0  501    0  0.00000000000E+00  0.00000000000E+00 -0.14232658306E+03  0.14232658315E+03  0.50400001928E-02 0. -1.
    10030    2    1    2    0    0  0.00000000000E+00  0.00000000000E+00  0.10354679844E+04  0.13201211506E+04  0.81885646214E+03 0.  0.
        2    1    3    3  502    0 -0.48489320894E+02  0.29206201132E+01  0.11731322732E+04  0.11741375876E+04  0.25500000920E-02 0.  1.
       -2    1    3    3    0  502  0.48489320894E+02 -0.29206201132E+01 -0.13766428877E+03  0.14598356302E+03  0.25500000920E-02 0. -1.
</event>
<event>
 5   0  0.1025900E-02  0.7679441E+03  0.7818609E-02  0.9607612E-01
        1   -1    0    0  501    0  0.00000000000E+00  0.00000000000E+00  0.92450602668E+03  0.92450602669E+03  0.50400001928E-02 0.  1.
       -1   -1    0    0    0  501  0.00000000000E+00  0.00000000000E+00 -0.15947384234E+03  0.15947384242E+03  0.50400001928E-02 0. -1.
    10030    2    1    2    0    0  0.00000000000E+00  0.00000000000E+00  0.76503218433E+03  0.10839798691E+04  0.76794408232E+03 0.  0.
        1    1    3    3  502    0 -0.26284736427E+03  0.68799101768E+02 -0.45617769118E+00  0.27170252378E+03  0.50400001928E-02 0. -1.
       -1    1    3    3    0  502  0.26284736427E+03 -0.68799101768E+02  0.76548836203E+03  0.81227734533E+03  0.50400001928E-02 0.  1.
</event>
<event>
 5   0  0.1818665E-02  0.7941524E+03  0.7818609E-02  0.9568520E-01
        2   -1    0    0  501    0  0.00000000000E+00  0.00000000000E+00  0.14735373467E+04  0.14735373467E+04  0.25500000920E-02 0. -1.
       -2   -1    0    0    0  501  0.00000000000E+00  0.00000000000E+00 -0.10700068421E+03  0.10700068424E+03  0.25500000920E-02 0.  1.
    10030    2    1    2    0    0  0.00000000000E+00  0.00000000000E+00  0.13665366624E+04  0.15805380309E+04  0.79415238923E+03 0.  0.
        3    1    3    3  502    0  0.22038522820E+03 -0.26789491656E+03  0.29872732628E+03  0.45779401568E+03  0.10100000352E+00 0.  1.
       -3    1    3    3    0  502 -0.22038522820E+03  0.26789491656E+03  0.10678093362E+04  0.11227440152E+04  0.10100000352E+00 0. -1.
</event>
<event>
 5   0  0.1673727E-02  0.7975775E+03  0.7818609E-02  0.9563530E-01
        2   -1    0    0  501    0  0.00000000000E+00  0.00000000000E+00  0.43973050322E+03  0.43973050323E+03  0.25500000920E-02 0. -1.
       -2   -1    0    0    0  501  0.00000000000E+00  0.00000000000E+00 -0.36165896877E+03  0.36165896877E+03  0.25500000920E-02 0.  1.
    10030    2    1    2    0    0  0.00000000000E+00  0.00000000000E+00  0.78071534458E+02  0.80138947200E+03  0.79757753313E+03 0.  0.
        5    1    3    3  502    0  0.50604699062E+02 -0.11058995501E+03  0.42061311768E+03  0.43786808343E+03  0.46999998093E+01 0. -1.
       -5    1    3    3    0  502 -0.50604699062E+02  0.11058995501E+03 -0.34254158323E+03  0.36352138858E+03  0.46999998093E+01 0.  1.
</event>
<event>
 5   0  0.1030323E-02  0.8374357E+03  0.7818609E-02  0.9507357E-01
        1   -1    0    0  501    0  0.00000000000E+00  0.00000000000E+00  0.88111686339E+03  0.88111686341E+03  0.50400001928E-02 0.  1.
       -1   -1    0    0    0  501  0.00000000000E+00  0.00000000000E+00 -0.19898000046E+03  0.19898000052E+03  0.50400001928E-02 0. -1.
    10030    2    1    2    0    0  0.00000000000E+00  0.00000000000E+00  0.68213686293E+03  0.10800968639E+04  0.83743569049E+03 0.  0.
        3    1    3    3  502    0 -0.92992233224E+02 -0.18167751663E+03 -0.13048268645E+03  0.24223958627E+03  0.10100000352E+00 0. -1.
       -3    1    3    3    0  502  0.92992233224E+02  0.18167751663E+03  0.81261954939E+03  0.83785727766E+03  0.10100000352E+00 0.  1.
</event>
<event>
 5   0  0.1038912E-02  0.8394199E+03  0.7818609E-02  0.9504648E-01
       -1   -1    0    0    0  501  0.00000000000E+00  0.00000000000E+00  0.32911723785E+03  0.32911723789E+03  0.50400001928E-02 0.  1.
        1   -1    0    0  501    0  0.00000000000E+00  0.00000000000E+00 -0.53523921726E+03  0.53523921729E+03  0.50400001928E-02 0. -1.
    10030    2    1    2    0    0  0.00000000000E+00  0.00000000000E+00 -0.20612197941E+03  0.86435645518E+03  0.83941992543E+03 0.  0.
        2    1    3    3  502    0 -0.19492124028E+03 -0.21950040347E+03 -0.41194170126E+03  0.50583661619E+03  0.25500000920E-02 0. -1.
       -2    1    3    3    0  502  0.19492124028E+03  0.21950040347E+03  0.20581972185E+03  0.35851983899E+03  0.25500000920E-02 0.  1.
</event>
<event>
 5   0  0.1038912E-02  0.7879152E+03  0.7818609E-02  0.9577676E-01
       -1   -1    0    0    0  501  0.00000000000E+00  0.00000000000E+00  0.37076632260E+03  0.37076632263E+03  0.50400001928E-02 0. -1.
        1   -1    0    0  501    0  0.00000000000E+00  0.00000000000E+00 -0.41859948325E+03  0.41859948328E+03  0.50400001928E-02 0.  1.
    10030    2    1    2    0    0  0.00000000000E+00  0.00000000000E+00 -0.47833160659E+02  0.78936580591E+03  0.78791520120E+03 0.  0.
        2    1    3    3  502    0  0.13397597816E+03 -0.57043426196E+02  0.34281620063E+03  0.37246001479E+03  0.25500000920E-02 0. -1.
       -2    1    3    3    0  502 -0.13397597816E+03  0.57043426196E+02 -0.39064936129E+03  0.41690579113E+03  0.25500000920E-02 0.  1.
</event>
<event>
 5   0  0.1731337E-02  0.6595544E+03  0.7818609E-02  0.9789014E-01
       -2   -1    0    0    0  501  0.00000000000E+00  0.00000000000E+00  0.13239146061E+03  0.13239146064E+03  0.25500000920E-02 0. -1.
        2   -1    0    0  501    0  0.00000000000E+00  0.00000000000E+00 -0.82145030380E+03  0.82145030381E+03  0.25500000920E-02 0.  1.
    10030    2    1    2    0    0  0.00000000000E+00  0.00000000000E+00 -0.68905884319E+03  0.95384176445E+03  0.65955441188E+03 0.  0.
        4    1    3    3  502    0  0.20357401027E+03 -0.14979759323E+03 -0.38190437046E+02  0.25562045884E+03  0.12699999809E+01 0. -1.
       -4    1    3    3    0  502 -0.20357401027E+03  0.14979759323E+03 -0.65086840614E+03  0.69822130561E+03  0.12699999809E+01 0.  1.
</event>
<event>
 5   0  0.1049780E-02  0.8141725E+03  0.7818609E-02  0.9539727E-01
        1   -1    0    0  501    0  0.00000000000E+00  0.00000000000E+00  0.16915301366E+04  0.16915301366E+04  0.50400001928E-02 0. -1.
       -1   -1    0    0    0  501  0.00000000000E+00  0.00000000000E+00 -0.97969994720E+02  0.97969994850E+02  0.50400001928E-02 0.  1.
    10030    2    1    2    0    0  0.00000000000E+00  0.00000000000E+00  0.15935601418E+04  0.17895001314E+04  0.81417246004E+03 0.  0.
        5    1    3    3  502    0 -0.20422144160E+03  0.29046827433E+03  0.35929171807E+03  0.50516417556E+03  0.46999998093E+01 0.  1.
       -5    1    3    3    0  502  0.20422144160E+03 -0.29046827433E+03  0.12342684238E+04  0.12843359559E+04  0.46999998093E+01 0. -1.
</event>
<event>
 5   0  0.1673727E-02  0.8144157E+03  0.7818609E-02  0.9539382E-01
        2   -1    0    0  501    0  0.00000000000E+00  0.00000000000E+00  0.10429982525E+04  0.10429982525E+04  0.25500000920E-02 0.  1.
       -2   -1    0    0    0  501  0.00000000000E+00  0.00000000000E+00 -0.15898226567E+03  0.15898226569E+03  0.25500000920E-02 0. -1.
    10030    2    1    2    0    0  0.00000000000E+00  0.00000000000E+00  0.88401598685E+03  0.12019805182E+04  0.81441568083E+03 0.  0.
        5    1    3    3  502    0 -0.14275413532E+03  0.37716891114E+03  0.52498616611E+03  0.66201789650E+03  0.46999998093E+01 0. -1.
       -5    1    3    3    0  502  0.14275413532E+03 -0.37716891114E+03  0.35902982073E+03  0.53996262172E+03  0.46999998093E+01 0.  1.
</event>
<event>
 5   0  0.1038912E-02  0.8060775E+03  0.7818609E-02  0.9551262E-01
        1   -1    0    0  501    0  0.00000000000E+00  0.00000000000E+00  0.14312653867E+04  0.14312653867E+04  0.50400001928E-02 0. -1.
       -1   -1    0    0    0  501  0.00000000000E+00  0.00000000000E+00 -0.11349413930E+03  0.11349413941E+03  0.50400001928E-02 0.  1.
    10030    2    1    2    0    0  0.00000000000E+00  0.00000000000E+00  0.13177712474E+04  0.15447595261E+04  0.80607749818E+03 0.  0.
        2    1    3    3  502    0 -0.16236450136E+01 -0.27526629789E+03  0.12230538412E+04  0.12536486228E+04  0.25500000920E-02 0. -1.
       -2    1    3    3    0  502  0.16236450136E+01  0.27526629789E+03  0.94717406169E+02  0.29111090329E+03  0.25500000920E-02 0.  1.
</event>
<event>
 5   0  0.1747544E-02  0.7842888E+03  0.7818609E-02  0.9583041E-01
        2   -1    0    0  501    0  0.00000000000E+00  0.00000000000E+00  0.14304540428E+04  0.14304540428E+04  0.25500000920E-02 0. -1.
       -2   -1    0    0    0  501  0.00000000000E+00  0.00000000000E+00 -0.10750238711E+03  0.10750238714E+03  0.25500000920E-02 0.  1.
    10030    2    1    2    0    0  0.00000000000E+00  0.00000000000E+00  0.13229516557E+04  0.15379564300E+04  0.78428878426E+03 0.  0.
        1    1    3    3  502    0  0.17040725023E+03  0.24985801238E+03  0.17198405783E+03  0.34791690596E+03  0.50400001928E-02 0.  1.
       -1    1    3    3    0  502 -0.17040725023E+03 -0.24985801238E+03  0.11509675979E+04  0.11900395240E+04  0.50400001928E-02 0. -1.
</event>
<event>
 5   0  0.1049780E-02  0.7994557E+03  0.7818609E-02  0.9560805E-01
        1   -1    0    0  501    0  0.00000000000E+00  0.00000000000E+00  0.10179496674E+04  0.10179496674E+04  0.50400001928E-02 0.  1.
       -1   -1    0    0    0  501  0.00000000000E+00  0.00000000000E+00 -0.15696487614E+03  0.15696487622E+03  0.50400001928E-02 0. -1.
    10030    2    1    2    0    0  0.00000000000E+00  0.00000000000E+00  0.86098479126E+03  0.11749145436E+04  0.79945567361E+03 0.  0.
        5    1    3    3  502    0  0.30341539990E+03  0.16750467793E+03  0.13788378434E+03  0.37303183511E+03  0.46999998093E+01 0. -1.
       -5    1    3    3    0  502 -0.30341539990E+03 -0.16750467793E+03  0.72310100692E+03  0.80188270853E+03  0.46999998093E+01 0.  1.
</event>
<event>
 5   0  0.6872500E-03  0.7958979E+03  0.7818609E-02  0.9565974E-01
       -4   -1    0    0    0  501  0.00000000000E+00  0.00000000000E+00  0.24899169817E+03  0.24899493701E+03  0.12699999809E+01 0. -1.
        4   -1    0    0  501    0  0.00000000000E+00  0.00000000000E+00 -0.63601068081E+03  0.63601194879E+03  0.12699999809E+01 0.  1.
    10030    2    1    2    0    0  0.00000000000E+00  0.00000000000E+00 -0.38701898264E+03  0.88500688580E+03  0.79589791745E+03 0.  0.
        3    1    3    3  502    0  0.61593685018E+02 -0.39218605430E+03 -0.16286130911E+03  0.42910080334E+03  0.10100000352E+00 0. -1.
       -3    1    3    3    0  502 -0.61593685018E+02  0.39218605430E+03 -0.22415767354E+03  0.45590608246E+03  0.10100000352E+00 0.  1.
</event>
<event>
 5   0  0.1817089E-02  0.7952250E+03  0.7818609E-02  0.9566955E-01
        2   -1    0    0  501    0  0.00000000000E+00  0.00000000000E+00  0.14099746958E+04  0.14099746958E+04  0.25500000920E-02 0.  1.
       -2   -1    0    0    0  501  0.00000000000E+00  0.00000000000E+00 -0.11212661572E+03  0.11212661575E+03  0.25500000920E-02 0. -1.
    10030    2    1    2    0    0  0.00000000000E+00  0.00000000000E+00  0.12978480800E+04  0.15221013115E+04  0.79522497674E+03 0.  0.
        2    1    3    3  502    0 -0.56947125601E+02 -0.23510672088E+03  0.12529203102E+04  0.12760593439E+04  0.25500000920E-02 0.  1.
       -2    1    3    3    0  502  0.56947125601E+02  0.23510672088E+03  0.44927769795E+02  0.24604196761E+03  0.25500000920E-02 0. -1.
</event>
<event>
 5   0  0.1817089E-02  0.8066386E+03  0.7818609E-02  0.9550457E-01
       -2   -1    0    0    0  501  0.00000000000E+00  0.00000000000E+00  0.13618463645E+03  0.13618463648E+03  0.25500000920E-02 0. -1.
        2   -1    0    0  501    0  0.00000000000E+00  0.00000000000E+00 -0.11944552169E+04  0.11944552169E+04  0.25500000920E-02 0.  1.
    10030    2    1    2    0    0  0.00000000000E+00  0.00000000000E+00 -0.10582705804E+04  0.13306398533E+04  0.80663857951E+03 0.  0.
        2    1    3    3  502    0 -0.39118201424E+03 -0.93006479047E+02 -0.47715615391E+03  0.62398042328E+03  0.25500000920E-02 0. -1.
       -2    1    3    3    0  502  0.39118201424E+03  0.93006479047E+02 -0.58111442650E+03  0.70665943007E+03  0.25500000920E-02 0.  1.
</event>
<event>
 5   0  0.1731337E-02  0.8037994E+03  0.7818609E-02  0.9554534E-01
        2   -1    0    0  501    0  0.00000000000E+00  0.00000000000E+00  0.83957223671E+03  0.83957223672E+03  0.25500000920E-02 0. -1.
       -2   -1    0    0    0  501  0.00000000000E+00  0.00000000000E+00 -0.19238770284E+03  0.19238770286E+03  0.25500000920E-02 0.  1.
    10030    2    1    2    0    0  0.00000000000E+00  0.00000000000E+00  0.64718453387E+03  0.10319599396E+04  0.80379941279E+03 0.  0.
        4    1    3    3  502    0 -0.38295751120E+03  0.11825119560E+03  0.36171988818E+03  0.53989136967E+03  0.12699999809E+01 0.  1.
       -4    1    3    3    0  502  0.38295751120E+03 -0.11825119560E+03  0.28546464569E+03  0.49206856990E+03  0.12699999809E+01 0. -1.
</event>
<event>
 5   0  0.1817089E-02  0.7988933E+03  0.7818609E-02  0.9561620E-01
        2   -1    0    0  501    0  0.00000000000E+00  0.00000000000E+00  0.10293455941E+04  0.10293455941E+04  0.25500000920E-02 0.  1.
       -2   -1    0    0    0  501  0.00000000000E+00  0.00000000000E+00 -0.15500880600E+03  0.15500880602E+03  0.25500000920E-02 0. -1.
    10030    2    1    2    0    0  0.00000000000E+00  0.00000000000E+00  0.87433678808E+03  0.11843544001E+04  0.79889331330E+03 0.  0.
        2    1    3    3  502    0  0.69482840440E+02 -0.39253076205E+03  0.39939047103E+03  0.56428805820E+03  0.25500000920E-02 0.  1.
       -2    1    3    3    0  502 -0.69482840440E+02  0.39253076205E+03  0.47494631705E+03  0.62006634190E+03  0.25500000920E-02 0. -1.
</event>
<event>
 5   0  0.1817089E-02  0.7406942E+03  0.7818609E-02  0.9650064E-01
        2   -1    0    0  501    0  0.00000000000E+00  0.00000000000E+00  0.43562871575E+03  0.43562871575E+03  0.25500000920E-02 0.  1.
       -2   -1    0    0    0  501  0.00000000000E+00  0.00000000000E+00 -0.31484830184E+03  0.31484830185E+03  0.25500000920E-02 0. -1.
    10030    2    1    2    0    0  0.00000000000E+00  0.00000000000E+00  0.12078041390E+03  0.75047701761E+03  0.74069416467E+03 0.  0.
        2    1    3    3  502    0 -0.35198995351E+02  0.31680011604E+03 -0.13066239631E+03  0.34449084837E+03  0.25500000920E-02 0.  1.
       -2    1    3    3    0  502  0.35198995351E+02 -0.31680011604E+03  0.25144281021E+03  0.40598616924E+03  0.25500000920E-02 0. -1.
</event>
<event>
 5   0  0.1818665E-02  0.8006766E+03  0.7818609E-02  0.9559038E-01
       -2   -1    0    0    0  501  0.00000000000E+00  0.00000000000E+00  0.23580586528E+03  0.23580586530E+03  0.25500000920E-02 0. -1.
        2   -1    0    0  501    0  0.00000000000E+00  0.00000000000E+00 -0.67967253456E+03  0.67967253457E+03  0.25500000920E-02 0.  1.
    10030    2    1    2    0    0  0.00000000000E+00  0.00000000000E+00 -0.44386666928E+03  0.91547839986E+03  0.80067663917E+03 0.  0.
        3    1    3    3  502    0  0.11825183658E+03  0.34168392442E+03 -0.25420248183E+02  0.36246048099E+03  0.10100000352E+00 0. -1.
       -3    1    3    3    0  502 -0.11825183658E+03 -0.34168392442E+03 -0.41844642109E+03  0.55301791887E+03  0.10100000352E+00 0.  1.
</event>
<event>
 5   0  0.1146083E-02  0.7937166E+03  0.7818609E-02  0.9569157E-01
        1   -1    0    0  501    0  0.00000000000E+00  0.00000000000E+00  0.21078416368E+04  0.21078416368E+04  0.50400001928E-02 0. -1.
       -1   -1    0    0    0  501  0.00000000000E+00  0.00000000000E+00 -0.74719333521E+02  0.74719333691E+02  0.50400001928E-02 0.  1.
    10030    2    1    2    0    0  0.00000000000E+00  0.00000000000E+00  0.20331223033E+04  0.21825609705E+04  0.79371663069E+03 0.  0.
        4    1    3    3  502    0 -0.25621822345E+03  0.25847647427E+03  0.58145779980E+03  0.68596840425E+03  0.12699999809E+01 0.  1.
       -4    1    3    3    0  502  0.25621822345E+03 -0.25847647427E+03  0.14516645035E+04  0.14965925662E+04  0.12699999809E+01 0. -1.
</event>
<event>
 5   0  0.1025900E-02  0.7888775E+03  0.7818609E-02  0.9576257E-01
        1   -1    0    0  501    0  0.00000000000E+00  0.00000000000E+00  0.71249436534E+03  0.71249436536E+03  0.50400001928E-02 0.  1.
       -1   -1    0    0    0  501  0.00000000000E+00  0.00000000000E+00 -0.21836235338E+03  0.21836235344E+03  0.50400001928E-02 0. -1.
    10030    2    1    2    0    0  0.00000000000E+00  0.00000000000E+00  0.49413201196E+03  0.93085671880E+03  0.78887754797E+03 0.  0.
        1    1    3    3  502    0 -0.13816708892E+02  0.35955869993E+03  0.56403665523E+02  0.36421797547E+03  0.50400001928E-02 0. -1.
       -1    1    3    3    0  502  0.13816708892E+02 -0.35955869993E+03  0.43772834644E+03  0.56663874333E+03  0.50400001928E-02 0.  1.
</event>
<event>
 5   0  0.1030323E-02  0.7945495E+03  0.7818609E-02  0.9567940E-01
       -1   -1    0    0    0  501  0.00000000000E+00  0.00000000000E+00  0.14469075311E+03  0.14469075320E+03  0.50400001928E-02 0. -1.
        1   -1    0    0  501    0  0.00000000000E+00  0.00000000000E+00 -0.10907900239E+04  0.10907900239E+04  0.50400001928E-02 0.  1.
    10030    2    1    2    0    0  0.00000000000E+00  0.00000000000E+00 -0.94609927081E+03  0.12354807771E+04  0.79454950787E+03 0.  0.
        3    1    3    3  502    0  0.28013755201E+03  0.11967104925E+03 -0.86957283958E+03  0.92138761746E+03  0.10100000352E+00 0.  1.
       -3    1    3    3    0  502 -0.28013755201E+03 -0.11967104925E+03 -0.76526431230E+02  0.31409315967E+03  0.10100000352E+00 0. -1.
</event>
<event>
 5   0  0.6872500E-03  0.7934374E+03  0.7818609E-02  0.9569565E-01
       -3   -1    0    0    0  501  0.00000000000E+00  0.00000000000E+00  0.22103926777E+03  0.22103929084E+03  0.10100000352E+00 0.  1.
        3   -1    0    0  501    0  0.00000000000E+00  0.00000000000E+00 -0.71202611998E+03  0.71202612714E+03  0.10100000352E+00 0. -1.
    10030    2    1    2    0    0  0.00000000000E+00  0.00000000000E+00 -0.49098685222E+03  0.93306541798E+03  0.79343744882E+03 0.  0.
        5    1    3    3  502    0  0.14174390877E+03  0.13469300892E+03  0.16039828048E+03  0.25294908718E+03  0.46999998093E+01 0.  1.
       -5    1    3    3    0  502 -0.14174390877E+03 -0.13469300892E+03 -0.65138513270E+03  0.68011633080E+03  0.46999998093E+01 0. -1.
</event>
<event>
 5   0  0.1038912E-02  0.8098739E+03  0.7818609E-02  0.9545834E-01
        1   -1    0    0  501    0  0.00000000000E+00  0.00000000000E+00  0.87971518455E+03  0.87971518457E+03  0.50400001928E-02 0. -1.
       -1   -1    0    0    0  501  0.00000000000E+00  0.00000000000E+00 -0.18639433759E+03  0.18639433766E+03  0.50400001928E-02 0.  1.
    10030    2    1    2    0    0  0.00000000000E+00  0.00000000000E+00  0.69332084696E+03  0.10661095222E+04  0.80987388929E+03 0.  0.
        2    1    3    3  502    0  0.10642891975E+03  0.14546398366E+03 -0.13067746254E+03  0.22262858020E+03  0.25500000920E-02 0.  1.
       -2    1    3    3    0  502 -0.10642891975E+03 -0.14546398366E+03  0.82399830950E+03  0.84348094203E+03  0.25500000920E-02 0. -1.
</event>
<event>
 5   0  0.1025900E-02  0.8039721E+03  0.7818609E-02  0.9554285E-01
       -1   -1    0    0    0  501  0.00000000000E+00  0.00000000000E+00  0.94434461510E+02  0.94434461645E+02  0.50400001928E-02 0.  1.
        1   -1    0    0  501    0  0.00000000000E+00  0.00000000000E+00 -0.17111630901E+04  0.17111630901E+04  0.50400001928E-02 0. -1.
    10030    2    1    2    0    0  0.00000000000E+00  0.00000000000E+00 -0.16167286286E+04  0.18055975517E+04  0.80397205199E+03 0.  0.
        1    1    3    3  502    0  0.32853974415E+03 -0.23099664033E+03 -0.84693496455E+03  0.93733486308E+03  0.50400001928E-02 0. -1.
       -1    1    3    3    0  502 -0.32853974415E+03  0.23099664033E+03 -0.76979366403E+03  0.86826268867E+03  0.50400001928E-02 0.  1.
</event>
<event>
 5   0  0.1731337E-02  0.7969392E+03  0.7818609E-02  0.9564458E-01
        2   -1    0    0  501    0  0.00000000000E+00  0.00000000000E+00  0.16815130702E+03  0.16815130703E+03  0.25500000920E-02 0. -1.
       -2   -1    0    0    0  501  0.00000000000E+00  0.00000000000E+00 -0.94425693193E+03  0.94425693193E+03  0.25500000920E-02 0.  1.
    10030    2    1    2    0    0  0.00000000000E+00  0.00000000000E+00 -0.77610562492E+03  0.11124082390E+04  0.79693923802E+03 0.  0.
        4    1    3    3  502    0  0.19709245726E+03  0.25491326757E+03 -0.60844988747E+02  0.32791757539E+03  0.12699999809E+01 0. -1.
       -4    1    3    3    0  502 -0.19709245726E+03 -0.25491326757E+03 -0.71526063617E+03  0.78449066358E+03  0.12699999809E+01 0.  1.
</event>
<event>
 5   0  0.1731337E-02  0.8038973E+03  0.7818609E-02  0.9554393E-01
       -2   -1    0    0    0  501  0.00000000000E+00  0.00000000000E+00  0.78339291366E+02  0.78339291407E+02  0.25500000920E-02 0.  1.
        2   -1    0    0  501    0  0.00000000000E+00  0.00000000000E+00 -0.20623456548E+04  0.20623456548E+04  0.25500000920E-02 0. -1.
    10030    2    1    2    0    0  0.00000000000E+00  0.00000000000E+00 -0.19840063635E+04  0.21406849462E+04  0.80389725014E+03 0.  0.
        4    1    3    3  502    0  0.91812415580E+02  0.21933881336E+03 -0.18549667406E+04  0.18701449827E+04  0.12699999809E+01 0. -1.
       -4    1    3    3    0  502 -0.91812415580E+02 -0.21933881336E+03 -0.12903962286E+03  0.27053996353E+03  0.12699999809E+01 0.  1.
</event>
<event>
 5   0  0.1817089E-02  0.8028132E+03  0.7818609E-02  0.9555954E-01
        2   -1    0    0  501    0  0.00000000000E+00  0.00000000000E+00  0.11763778098E+04  0.11763778098E+04  0.25500000920E-02 0. -1.
       -2   -1    0    0    0  501  0.00000000000E+00  0.00000000000E+00 -0.13696896042E+03  0.13696896044E+03  0.25500000920E-02 0.  1.
    10030    2    1    2    0    0  0.00000000000E+00  0.00000000000E+00  0.10394088493E+04  0.13133467702E+04  0.80281316801E+03 0.  0.
        2    1    3    3  502    0 -0.23406697098E+03  0.22998924025E+03  0.89790122199E+03  0.95598587960E+03  0.25500000920E-02 0. -1.
       -2    1    3    3    0  502  0.23406697098E+03 -0.22998924025E+03  0.14150762735E+03  0.35736089061E+03  0.25500000920E-02 0.  1.
</event>
<event>
 5   0  0.1049780E-02  0.8042865E+03  0.7818609E-02  0.9553833E-01
        1   -1    0    0  501    0  0.00000000000E+00  0.00000000000E+00  0.29623411535E+03  0.29623411539E+03  0.50400001928E-02 0. -1.
       -1   -1    0    0    0  501  0.00000000000E+00  0.00000000000E+00 -0.54591689024E+03  0.54591689026E+03  0.50400001928E-02 0.  1.
    10030    2    1    2    0    0  0.00000000000E+00  0.00000000000E+00 -0.24968277489E+03  0.84215100566E+03  0.80428653368E+03 0.  0.
        5    1    3    3  502    0  0.36820121354E+03 -0.13758247209E+03 -0.36018238916E+02  0.39474102119E+03  0.46999998093E+01 0. -1.
       -5    1    3    3    0  502 -0.36820121354E+03  0.13758247209E+03 -0.21366453597E+03  0.44740998447E+03  0.46999998093E+01 0.  1.
</event>
<event>
 5   0  0.1146083E-02  0.7833574E+03  0.7818609E-02  0.9584424E-01
        1   -1    0    0  501    0  0.00000000000E+00  0.00000000000E+00  0.12351037830E+04  0.12351037830E+04  0.50400001928E-02 0. -1.
       -1   -1    0    0    0  501  0.00000000000E+00  0.00000000000E+00 -0.12420996860E+03  0.12420996870E+03  0.50400001928E-02 0.  1.
    10030    2    1    2    0    0  0.00000000000E+00  0.00000000000E+00  0.11108938144E+04  0.13593137517E+04  0.78335739526E+03 0.  0.
        4    1    3    3  502    0 -0.38712210195E+03  0.45363066365E+02  0.62241146068E+03  0.73438339366E+03  0.12699999809E+01 0.  1.
       -4    1    3    3    0  502  0.38712210195E+03 -0.45363066365E+02  0.48848235375E+03  0.62493035807E+03  0.12699999809E+01 0. -1.
</event>
<event>
 5   0  0.1030323E-02  0.6834251E+03  0.7818609E-02  0.9746005E-01
       -1   -1    0    0    0  501  0.00000000000E+00  0.00000000000E+00  0.92145281596E+02  0.92145281733E+02  0.50400001928E-02 0. -1.
        1   -1    0    0  501    0  0.00000000000E+00  0.00000000000E+00 -0.12672106142E+04  0.12672106142E+04  0.50400001928E-02 0.  1.
    10030    2    1    2    0    0  0.00000000000E+00  0.00000000000E+00 -0.11750653326E+04  0.13593558959E+04  0.68342513558E+03 0.  0.
        3    1    3    3  502    0 -0.95105530339E+02  0.30503833060E+03 -0.82847706597E+03  0.88795703954E+03  0.10100000352E+00 0. -1.
       -3    1    3    3    0  502  0.95105530339E+02 -0.30503833060E+03 -0.34658826660E+03  0.47139885637E+03  0.10100000352E+00 0.  1.
</event>
<event>
 5   0  0.6872500E-03  0.7992210E+03  0.7818609E-02  0.9561145E-01
       -3   -1    0    0    0  501  0.00000000000E+00  0.00000000000E+00  0.25064167323E+03  0.25064169358E+03  0.10100000352E+00 0.  1.
        3   -1    0    0  501    0  0.00000000000E+00  0.00000000000E+00 -0.63711879643E+03  0.63711880444E+03  0.10100000352E+00 0. -1.
    10030    2    1    2    0    0  0.00000000000E+00  0.00000000000E+00 -0.38647712320E+03  0.88776049802E+03  0.79922095511E+03 0.  0.
        3    1    3    3  502    0 -0.21873946224E+03 -0.31827710211E+03 -0.30728327695E+03  0.49352840705E+03  0.10100000352E+00 0. -1.
       -3    1    3    3    0  502  0.21873946224E+03  0.31827710211E+03 -0.79193846245E+02  0.39423209097E+03  0.10100000352E+00 0.  1.
</event>
<event>
 5   0  0.1146083E-02  0.7998082E+03  0.7818609E-02  0.9560295E-01
       -1   -1    0    0    0  501  0.00000000000E+00  0.00000000000E+00  0.10188587074E+03  0.10188587086E+03  0.50400001928E-02 0. -1.
        1   -1    0    0  501    0  0.00000000000E+00  0.00000000000E+00 -0.15696316336E+04  0.15696316336E+04  0.50400001928E-02 0.  1.
    10030    2    1    2    0    0  0.00000000000E+00  0.00000000000E+00 -0.14677457628E+04  0.16715175044E+04  0.79980819159E+03 0.  0.
        4    1    3    3  502    0  0.22007570285E+03  0.49261313354E+02 -0.14240509816E+04  0.14417984613E+04  0.12699999809E+01 0.  1.
       -4    1    3    3    0  502 -0.22007570285E+03 -0.49261313354E+02 -0.43694781270E+02  0.22971904315E+03  0.12699999809E+01 0. -1.
</event>
<event>
 5   0  0.1038912E-02  0.7567772E+03  0.7818609E-02  0.9624778E-01
        1   -1    0    0  501    0  0.00000000000E+00  0.00000000000E+00  0.49947988610E+03  0.49947988612E+03  0.50400001928E-02 0.  1.
       -1   -1    0    0    0  501  0.00000000000E+00  0.00000000000E+00 -0.28665403211E+03  0.28665403216E+03  0.50400001928E-02 0. -1.
    10030    2    1    2    0    0  0.00000000000E+00  0.00000000000E+00  0.21282585399E+03  0.78613391828E+03  0.75677717549E+03 0.  0.
        2    1    3    3  502    0  0.34861144442E+02 -0.37558958276E+03  0.13749154388E+03  0.40148070777E+03  0.25500000920E-02 0.  1.
       -2    1    3    3    0  502 -0.34861144442E+02  0.37558958276E+03  0.75334310103E+02  0.38465321051E+03  0.25500000920E-02 0. -1.
</event>
<event>
 5   0  0.1747544E-02  0.7825712E+03  0.7818609E-02  0.9585593E-01
        2   -1    0    0  501    0  0.00000000000E+00  0.00000000000E+00  0.19954394691E+04  0.19954394691E+04  0.25500000920E-02 0. -1.
       -2   -1    0    0    0  501  0.00000000000E+00  0.00000000000E+00 -0.76727165359E+02  0.76727165402E+02  0.25500000920E-02 0.  1.
    10030    2    1    2    0    0  0.00000000000E+00  0.00000000000E+00  0.19187123038E+04  0.20721666345E+04  0.78257118311E+03 0.  0.
        1    1    3    3  502    0 -0.20926089430E+03  0.27937753288E+03  0.14275358557E+04  0.14695919662E+04  0.50400001928E-02 0. -1.
       -1    1    3    3    0  502  0.20926089430E+03 -0.27937753288E+03  0.49117644806E+03  0.60257466833E+03  0.50400001928E-02 0.  1.
</event>
<event>
 5   0  0.1817089E-02  0.8033762E+03  0.7818609E-02  0.9555143E-01
       -2   -1    0    0    0  501  0.00000000000E+00  0.00000000000E+00  0.98050436977E+02  0.98050437010E+02  0.25500000920E-02 0.  1.
        2   -1    0    0  501    0  0.00000000000E+00  0.00000000000E+00 -0.16456155068E+04  0.16456155068E+04  0.25500000920E-02 0. -1.
    10030    2    1    2    0    0  0.00000000000E+00  0.00000000000E+00 -0.15475650698E+04  0.17436659438E+04  0.80337617483E+03 0.  0.
        2    1    3    3  502    0  0.10056997009E+03 -0.13797663196E+03 -0.15629377776E+04  0.15722361040E+04  0.25500000920E-02 0. -1.
       -2    1    3    3    0  502 -0.10056997009E+03  0.13797663196E+03  0.15372707776E+02  0.17142983988E+03  0.25500000920E-02 0.  1.
</event>
<event>
 5   0  0.1818665E-02  0.8179855E+03  0.7818609E-02  0.9534343E-01
       -2   -1    0    0    0  501  0.00000000000E+00  0.00000000000E+00  0.21935100647E+03  0.21935100648E+03  0.25500000920E-02 0.  1.
        2   -1    0    0  501    0  0.00000000000E+00  0.00000000000E+00 -0.76259076768E+03  0.76259076768E+03  0.25500000920E-02 0. -1.
    10030    2    1    2    0    0  0.00000000000E+00  0.00000000000E+00 -0.54323976121E+03  0.98194177416E+03  0.81798545812E+03 0.  0.
        3    1    3    3  502    0 -0.38015531962E+03  0.27719819567E+02 -0.93612170942E+02  0.39249166129E+03  0.10100000352E+00 0.  1.
       -3    1    3    3    0  502  0.38015531962E+03 -0.27719819567E+02 -0.44962759027E+03  0.58945011287E+03  0.10100000352E+00 0. -1.
</event>
<event>
 5   0  0.1673727E-02  0.8053290E+03  0.7818609E-02  0.9552335E-01
        2   -1    0    0  501    0  0.00000000000E+00  0.00000000000E+00  0.35765422896E+03  0.35765422897E+03  0.25500000920E-02 0.  1.
       -2   -1    0    0    0  501  0.00000000000E+00  0.00000000000E+00 -0.45333925562E+03  0.45333925563E+03  0.25500000920E-02 0. -1.
    10030    2    1    2    0    0  0.00000000000E+00  0.00000000000E+00 -0.95685026657E+02  0.81099348460E+03  0.80532900590E+03 0.  0.
        5    1    3    3  502    0  0.55467404401E+02 -0.39597219339E+03 -0.95567850034E+02  0.41112761382E+03  0.46999998093E+01 0. -1.
       -5    1    3    3    0  502 -0.55467404401E+02  0.39597219339E+03 -0.11717662296E+00  0.39986587078E+03  0.46999998093E+01 0.  1.
</event>
<event>
 5   0  0.1049780E-02  0.7939107E+03  0.7818609E-02  0.9568873E-01
       -1   -1    0    0    0  501  0.00000000000E+00  0.00000000000E+00  0.92801641989E+02  0.92801642126E+02  0.50400001928E-02 0.  1.
        1   -1    0    0  501    0  0.00000000000E+00  0.00000000000E+00 -0.16979609749E+04  0.16979609749E+04  0.50400001928E-02 0. -1.
    10030    2    1    2    0    0  0.00000000000E+00  0.00000000000E+00 -0.16051593329E+04  0.17907626171E+04  0.79391074218E+03 0.  0.
        5    1    3    3  502    0  0.18197175012E+03 -0.15372312126E+03 -0.15187422087E+04  0.15373173070E+04  0.46999998093E+01 0. -1.
       -5    1    3    3    0  502 -0.18197175012E+03  0.15372312126E+03 -0.86417124266E+02  0.25344531011E+03  0.46999998093E+01 0.  1.
</event>
<event>
 5   0  0.1038912E-02  0.7965677E+03  0.7818609E-02  0.9564999E-01
        1   -1    0    0  501    0  0.00000000000E+00  0.00000000000E+00  0.35564382727E+03  0.35564382730E+03  0.50400001928E-02 0. -1.
       -1   -1    0    0    0  501  0.00000000000E+00  0.00000000000E+00 -0.44603618040E+03  0.44603618043E+03  0.50400001928E-02 0.  1.
    10030    2    1    2    0    0  0.00000000000E+00  0.00000000000E+00 -0.90392353135E+02  0.80168000773E+03  0.79656767276E+03 0.  0.
        2    1    3    3  502    0  0.25764745828E+03 -0.24582586865E+03 -0.22471542408E+03  0.42108145564E+03  0.25500000920E-02 0.  1.
       -2    1    3    3    0  502 -0.25764745828E+03  0.24582586865E+03  0.13432307095E+03  0.38059855209E+03  0.25500000920E-02 0. -1.
</event>
<event>
 5   0  0.1049780E-02  0.8054724E+03  0.7818609E-02  0.9552130E-01
        1   -1    0    0  501    0  0.00000000000E+00  0.00000000000E+00  0.57311358420E+03  0.57311358422E+03  0.50400001928E-02 0.  1.
       -1   -1    0    0    0  501  0.00000000000E+00  0.00000000000E+00 -0.28300927234E+03  0.28300927238E+03  0.50400001928E-02 0. -1.
    10030    2    1    2    0    0  0.00000000000E+00  0.00000000000E+00  0.29010431186E+03  0.85612285660E+03  0.80547242897E+03 0.  0.
        5    1    3    3  502    0  0.95069711149E+02 -0.22914594445E+03 -0.19211509321E+03  0.31380951686E+03  0.46999998093E+01 0. -1.
       -5    1    3    3    0  502 -0.95069711149E+02  0.22914594445E+03  0.48221940507E+03  0.54231333974E+03  0.46999998093E+01 0.  1.
</event>
<event>
 5   0  0.1817089E-02  0.8010213E+03  0.7818609E-02  0.9558540E-01
       -2   -1    0    0    0  501  0.00000000000E+00  0.00000000000E+00  0.16517917221E+03  0.16517917223E+03  0.25500000920E-02 0.  1.
        2   -1    0    0  501    0  0.00000000000E+00  0.00000000000E+00 -0.97112001393E+03  0.97112001394E+03  0.25500000920E-02 0. -1.
    10030    2    1    2    0    0  0.00000000000E+00  0.00000000000E+00 -0.80594084172E+03  0.11362991862E+04  0.80102134811E+03 0.  0.
        2    1    3    3  502    0  0.36348697887E+02  0.23310577955E+03  0.56147349623E+02  0.24251197326E+03  0.25500000920E-02 0.  1.
       -2    1    3    3    0  502 -0.36348697887E+02 -0.23310577955E+03 -0.86208819135E+03  0.89378721291E+03  0.25500000920E-02 0. -1.
</event>
<event>
 5   0  0.1747544E-02  0.7974153E+03  0.7818609E-02  0.9563766E-01
       -2   -1    0    0    0  501  0.00000000000E+00  0.00000000000E+00  0.36143264632E+03  0.36143264633E+03  0.25500000920E-02 0.  1.
        2   -1    0    0  501    0  0.00000000000E+00  0.00000000000E+00 -0.43982682876E+03  0.43982682876E+03  0.25500000920E-02 0. -1.
    10030    2    1    2    0    0  0.00000000000E+00  0.00000000000E+00 -0.78394182433E+02  0.80125947509E+03  0.79741526107E+03 0.  0.
        1    1    3    3  502    0  0.20578768162E+03 -0.25509888611E+03 -0.26732409473E+03  0.42294938616E+03  0.50400001928E-02 0. -1.
       -1    1    3    3    0  502 -0.20578768162E+03  0.25509888611E+03  0.18892991230E+03  0.37831008893E+03  0.50400001928E-02 0.  1.
</event>
<event>
 5   0  0.1747544E-02  0.9174594E+03  0.7818609E-02  0.9404016E-01
       -2   -1    0    0    0  501  0.00000000000E+00  0.00000000000E+00  0.10202490604E+03  0.10202490607E+03  0.25500000920E-02 0.  1.
        2   -1    0    0  501    0  0.00000000000E+00  0.00000000000E+00 -0.20625642525E+04  0.20625642525E+04  0.25500000920E-02 0. -1.
    10030    2    1    2    0    0  0.00000000000E+00  0.00000000000E+00 -0.19605393464E+04  0.21645891585E+04  0.91745937041E+03 0.  0.
        1    1    3    3  502    0 -0.34203778837E+03 -0.69362300381E+02 -0.16826685078E+04  0.17184802252E+04  0.50400001928E-02 0. -1.
       -1    1    3    3    0  502  0.34203778837E+03  0.69362300381E+02 -0.27787083865E+03  0.44610893331E+03  0.50400001928E-02 0.  1.
</event>
<event>
 5   0  0.1818665E-02  0.7950918E+03  0.7818609E-02  0.9567149E-01
       -2   -1    0    0    0  501  0.00000000000E+00  0.00000000000E+00  0.25416767329E+03  0.25416767330E+03  0.25500000920E-02 0.  1.
        2   -1    0    0  501    0  0.00000000000E+00  0.00000000000E+00 -0.62180505354E+03  0.62180505354E+03  0.25500000920E-02 0. -1.
    10030    2    1    2    0    0  0.00000000000E+00  0.00000000000E+00 -0.36763738025E+03  0.87597272685E+03  0.79509180276E+03 0.  0.
        3    1    3    3  502    0 -0.58978281662E+02 -0.31819225428E+03  0.70577248304E+02  0.33121881977E+03  0.10100000352E+00 0.  1.
       -3    1    3    3    0  502  0.58978281662E+02  0.31819225428E+03 -0.43821462855E+03  0.54475390707E+03  0.10100000352E+00 0. -1.
</event>
<event>
 5   0  0.1146083E-02  0.7955751E+03  0.7818609E-02  0.9566444E-01
        1   -1    0    0  501    0  0.00000000000E+00  0.00000000000E+00  0.22665483151E+04  0.22665483151E+04  0.50400001928E-02 0.  1.
       -1   -1    0    0    0  501  0.00000000000E+00  0.00000000000E+00 -0.69813171605E+02  0.69813171787E+02  0.50400001928E-02 0. -1.
    10030    2    1    2    0    0  0.00000000000E+00  0.00000000000E+00  0.21967351435E+04  0.23363614869E+04  0.79557507928E+03 0.  0.
        4    1    3    3  502    0  0.10253095863E+03 -0.37495280611E+03  0.13463594287E+04  0.14013520359E+04  0.12699999809E+01 0.  1.
       -4    1    3    3    0  502 -0.10253095863E+03  0.37495280611E+03  0.85037571476E+03  0.93500945099E+03  0.12699999809E+01 0. -1.
</event>
<event>
 5   0  0.1818665E-02  0.7893115E+03  0.7818609E-02  0.9575618E-01
        2   -1    0    0  501    0  0.00000000000E+00  0.00000000000E+00  0.25404628651E+03  0.25404628652E+03  0.25500000920E-02 0. -1.
       -2   -1    0    0    0  501  0.00000000000E+00  0.00000000000E+00 -0.61308962088E+03  0.61308962089E+03  0.25500000920E-02 0.  1.
    10030    2    1    2    0    0  0.00000000000E+00  0.00000000000E+00 -0.35904333437E+03  0.86713590741E+03  0.78931145055E+03 0.  0.
        3    1    3    3  502    0 -0.33062506409E+03  0.61099947407E+02  0.47510959006E+02  0.33956359935E+03  0.10100000352E+00 0. -1.
       -3    1    3    3    0  502  0.33062506409E+03 -0.61099947407E+02 -0.40655429337E+03  0.52757230806E+03  0.10100000352E+00 0.  1.
</event>
<event>
 5   0  0.1038912E-02  0.7953250E+03  0.7818609E-02  0.9566809E-01
        1   -1    0    0  501    0  0.00000000000E+00  0.00000000000E+00  0.11959355864E+04  0.11959355865E+04  0.50400001928E-02 0. -1.
       -1   -1    0    0    0  501  0.00000000000E+00  0.00000000000E+00 -0.13222740770E+03  0.13222740780E+03  0.50400001928E-02 0.  1.
    10030    2    1    2    0    0  0.00000000000E+00  0.00000000000E+00  0.10637081787E+04  0.13281629943E+04  0.79532499632E+03 0.  0.
        2    1    3    3  502    0  0.15380525020E+03 -0.12454278718E+03  0.11078544288E+04  0.11253925521E+04  0.25500000920E-02 0. -1.
       -2    1    3    3    0  502 -0.15380525020E+03  0.12454278718E+03 -0.44146250047E+02  0.20277044219E+03  0.25500000920E-02 0.  1.
</event>
<event>
 5   0  0.6872500E-03  0.8021199E+03  0.7818609E-02  0.9556954E-01
        4   -1    0    0  501    0  0.00000000000E+00  0.00000000000E+00  0.22854035738E+03  0.22854388605E+03  0.12699999809E+01 0.  1.
       -4   -1    0    0    0  501  0.00000000000E+00  0.00000000000E+00 -0.70380079401E+03  0.70380193986E+03  0.12699999809E+01 0. -1.
    10030    2    1    2    0    0  0.00000000000E+00  0.00000000000E+00 -0.47526043663E+03  0.93234582591E+03  0.80211985169E+03 0.  0.
        2    1    3    3  502    0  0.35063483109E+03 -0.19414222598E+03 -0.25459719463E+03  0.47482177730E+03  0.25500000920E-02 0. -1.
       -2    1    3    3    0  502 -0.35063483109E+03  0.19414222598E+03 -0.22066324201E+03  0.45752404861E+03  0.25500000920E-02 0.  1.
</event>
<event>
 5   0  0.1818665E-02  0.8149038E+03  0.7818609E-02  0.9538692E-01
       -2   -1    0    0    0  501  0.00000000000E+00  0.00000000000E+00  0.40603265615E+03  0.40603265615E+03  0.25500000920E-02 0.  1.
        2   -1    0    0  501    0  0.00000000000E+00  0.00000000000E+00 -0.40887608054E+03  0.40887608054E+03  0.25500000920E-02 0. -1.
    10030    2    1    2    0    0  0.00000000000E+00  0.00000000000E+00 -0.28434243895E+01  0.81490873670E+03  0.81490377597E+03 0.  0.
        3    1    3    3  502    0  0.98655779399E+02  0.30818098962E+03 -0.24902884473E+03  0.40831833278E+03  0.10100000352E+00 0. -1.
       -3    1    3    3    0  502 -0.98655779399E+02 -0.30818098962E+03  0.24618542034E+03  0.40659040392E+03  0.10100000352E+00 0.  1.
</event>
<event>
 5   0  0.1038912E-02  0.7307545E+03  0.7818609E-02  0.9666037E-01
        1   -1    0    0  501    0  0.00000000000E+00  0.00000000000E+00  0.11074039985E+04  0.11074039985E+04  0.50400001928E-02 0.  1.
       -1   -1    0    0    0  501  0.00000000000E+00  0.00000000000E+00 -0.12055268473E+03  0.12055268484E+03  0.50400001928E-02 0. -1.
    10030    2    1    2    0    0  0.00000000000E+00  0.00000000000E+00  0.98685131375E+03  0.12279566833E+04  0.73075447360E+03 0.  0.
        2    1    3    3  502    0 -0.52516523015E+02  0.44319365932E+02 -0.10959607717E+03  0.12935799753E+03  0.25500000920E-02 0. -1.
       -2    1    3    3    0  502  0.52516523015E+02 -0.44319365932E+02  0.10964473909E+04  0.10985986858E+04  0.25500000920E-02 0.  1.
</event>
<event>
 5   0  0.1038912E-02  0.8042850E+03  0.7818609E-02  0.9553835E-01
        1   -1    0    0  501    0  0.00000000000E+00  0.00000000000E+00  0.15799533682E+03  0.15799533690E+03  0.50400001928E-02 0.  1.
       -1   -1    0    0    0  501  0.00000000000E+00  0.00000000000E+00 -0.10235656724E+04  0.10235656725E+04  0.50400001928E-02 0. -1.
    10030    2    1    2    0    0  0.00000000000E+00  0.00000000000E+00 -0.86557033562E+03  0.11815610094E+04  0.80428503214E+03 0.  0.
        2    1    3    3  502    0  0.26158099625E+03  0.30331051967E+03 -0.48568670755E+03  0.62953432538E+03  0.25500000920E-02 0. -1.
       -2    1    3    3    0  502 -0.26158099625E+03 -0.30331051967E+03 -0.37988362807E+03  0.55202668397E+03  0.25500000920E-02 0.  1.
</event>
<event>
 5   0  0.1049780E-02  0.8013607E+03  0.7818609E-02  0.9558050E-01
       -1   -1    0    0    0  501  0.00000000000E+00  0.00000000000E+00  0.25747470616E+03  0.25747470621E+03  0.50400001928E-02 0. -1.
        1   -1    0    0  501    0  0.00000000000E+00  0.00000000000E+00 -0.62353596632E+03  0.62353596634E+03  0.50400001928E-02 0.  1.
    10030    2    1    2    0    0  0.00000000000E+00  0.00000000000E+00 -0.36606126015E+03  0.88101067255E+03  0.80136069218E+03 0.  0.
        5    1    3    3  502    0  0.24416745555E+02 -0.33727800233E+03 -0.41925960839E+03  0.53865883223E+03  0.46999998093E+01 0.  1.
       -5    1    3    3    0  502 -0.24416745555E+02  0.33727800233E+03  0.53198348236E+02  0.34235184032E+03  0.46999998093E+01 0. -1.
</event>
<event>
 5   0  0.1817089E-02  0.8103184E+03  0.7818609E-02  0.9545201E-01
        2   -1    0    0  501    0  0.00000000000E+00  0.00000000000E+00  0.57461263953E+03  0.57461263954E+03  0.25500000920E-02 0. -1.
       -2   -1    0    0    0  501  0.00000000000E+00  0.00000000000E+00 -0.28567760608E+03  0.28567760609E+03  0.25500000920E-02 0.  1.
    10030    2    1    2    0    0  0.00000000000E+00  0.00000000000E+00  0.28893503345E+03  0.86029024563E+03  0.81031836532E+03 0.  0.
        2    1    3    3  502    0  0.14205856226E+03  0.87353878559E+02 -0.24754970567E+03  0.29848315194E+03  0.25500000920E-02 0.  1.
       -2    1    3    3    0  502 -0.14205856226E+03 -0.87353878559E+02  0.53648473912E+03  0.56180709369E+03  0.25500000920E-02 0. -1.
</event>
<event>
 5   0  0.1817089E-02  0.8114943E+03  0.7818609E-02  0.9543527E-01
       -2   -1    0    0    0  501  0.00000000000E+00  0.00000000000E+00  0.11277029397E+03  0.11277029399E+03  0.25500000920E-02 0.  1.
        2   -1    0    0  501    0  0.00000000000E+00  0.00000000000E+00 -0.14598770266E+04  0.14598770266E+04  0.25500000920E-02 0. -1.
    10030    2    1    2    0    0  0.00000000000E+00  0.00000000000E+00 -0.13471067326E+04  0.15726473206E+04  0.81149432893E+03 0.  0.
        2    1    3    3  502    0 -0.12063733352E+03  0.26468918364E+03 -0.12535584504E+03  0.31674566779E+03  0.25500000920E-02 0.  1.
       -2    1    3    3    0  502  0.12063733352E+03 -0.26468918364E+03 -0.12217508876E+04  0.12559016528E+04  0.25500000920E-02 0. -1.
</event>
<event>
 5   0  0.1030323E-02  0.8032715E+03  0.7818609E-02  0.9555294E-01
       -1   -1    0    0    0  501  0.00000000000E+00  0.00000000000E+00  0.10006839016E+03  0.10006839029E+03  0.50400001928E-02 0. -1.
        1   -1    0    0  501    0  0.00000000000E+00  0.00000000000E+00 -0.16120101705E+04  0.16120101705E+04  0.50400001928E-02 0.  1.
    10030    2    1    2    0    0  0.00000000000E+00  0.00000000000E+00 -0.15119417803E+04  0.17120785608E+04  0.80327146794E+03 0.  0.
        3    1    3    3  502    0  0.26416248718E+03 -0.26749352329E+03 -0.45472394197E+03  0.59000718491E+03  0.10100000352E+00 0. -1.
       -3    1    3    3    0  502 -0.26416248718E+03  0.26749352329E+03 -0.10572178384E+04  0.11220713759E+04  0.10100000352E+00 0.  1.
</event>
<event>
 5   0  0.1731337E-02  0.7867449E+03  0.7818609E-02  0.9579404E-01
        2   -1    0    0  501    0  0.00000000000E+00  0.00000000000E+00  0.82046555568E+03  0.82046555569E+03  0.25500000920E-02 0. -1.
       -2   -1    0    0    0  501  0.00000000000E+00  0.00000000000E+00 -0.18860254149E+03  0.18860254151E+03  0.25500000920E-02 0.  1.
    10030    2    1    2    0    0  0.00000000000E+00  0.00000000000E+00  0.63186301419E+03  0.10090680972E+04  0.78674491169E+03 0.  0.
        4    1    3    3  502    0  0.33045453555E+03  0.16890363840E+03  0.14864551116E+03  0.39978211568E+03  0.12699999809E+01 0.  1.
       -4    1    3    3    0  502 -0.33045453555E+03 -0.16890363840E+03  0.48321750304E+03  0.60928598152E+03  0.12699999809E+01 0. -1.
</event>
<event>
 5   0  0.1025900E-02  0.7942452E+03  0.7818609E-02  0.9568385E-01
        1   -1    0    0  501    0  0.00000000000E+00  0.00000000000E+00  0.67676046133E+03  0.67676046135E+03  0.50400001928E-02 0.  1.
       -1   -1    0    0    0  501  0.00000000000E+00  0.00000000000E+00 -0.23303125537E+03  0.23303125542E+03  0.50400001928E-02 0. -1.
    10030    2    1    2    0    0  0.00000000000E+00  0.00000000000E+00  0.44372920596E+03  0.90979171677E+03  0.79424515087E+03 0.  0.
        1    1    3    3  502    0  0.70947465954E+02 -0.35689103779E+03  0.39659195029E+02  0.36602951733E+03  0.50400001928E-02 0. -1.
       -1    1    3    3    0  502 -0.70947465954E+02  0.35689103779E+03  0.40407001093E+03  0.54376219944E+03  0.50400001928E-02 0.  1.
</event>
<event>
 5   0  0.1817089E-02  0.7975736E+03  0.7818609E-02  0.9563536E-01
       -2   -1    0    0    0  501  0.00000000000E+00  0.00000000000E+00  0.13656598211E+03  0.13656598214E+03  0.25500000920E-02 0. -1.
        2   -1    0    0  501    0  0.00000000000E+00  0.00000000000E+00 -0.11644988549E+04  0.11644988550E+04  0.25500000920E-02 0.  1.
    10030    2    1    2    0    0  0.00000000000E+00  0.00000000000E+00 -0.10279328728E+04  0.13010648371E+04  0.79757364504E+03 0.  0.
        2    1    3    3  502    0  0.35975247045E+03 -0.94381364716E+02 -0.27925923937E+03  0.46509719928E+03  0.25500000920E-02 0.  1.
       -2    1    3    3    0  502 -0.35975247045E+03  0.94381364716E+02 -0.74867363347E+03  0.83596763780E+03  0.25500000920E-02 0. -1.
</event>
<event>
 5   0  0.1030323E-02  0.7951058E+03  0.7818609E-02  0.9567128E-01
       -1   -1    0    0    0  501  0.00000000000E+00  0.00000000000E+00  0.31744662680E+03  0.31744662684E+03  0.50400001928E-02 0. -1.
        1   -1    0    0  501    0  0.00000000000E+00  0.00000000000E+00 -0.49787362344E+03  0.49787362346E+03  0.50400001928E-02 0.  1.
    10030    2    1    2    0    0  0.00000000000E+00  0.00000000000E+00 -0.18042699664E+03  0.81532025030E+03  0.79510578506E+03 0.  0.
        3    1    3    3  502    0  0.23439329722E+03  0.23732678278E+03  0.13158179613E+03  0.35857774454E+03  0.10100000352E+00 0.  1.
       -3    1    3    3    0  502 -0.23439329722E+03 -0.23732678278E+03 -0.31200879277E+03  0.45674250576E+03  0.10100000352E+00 0. -1.
</event>
<event>
 5   0  0.1747544E-02  0.7200181E+03  0.7818609E-02  0.9683598E-01
        2   -1    0    0  501    0  0.00000000000E+00  0.00000000000E+00  0.13244068398E+04  0.13244068398E+04  0.25500000920E-02 0.  1.
       -2   -1    0    0    0  501  0.00000000000E+00  0.00000000000E+00 -0.97860048620E+02  0.97860048654E+02  0.25500000920E-02 0. -1.
    10030    2    1    2    0    0  0.00000000000E+00  0.00000000000E+00  0.12265467912E+04  0.14222668885E+04  0.72001810467E+03 0.  0.
        1    1    3    3  502    0  0.68488782671E+02 -0.34698367925E+03  0.48049816066E+03  0.59662959149E+03  0.50400001928E-02 0. -1.
       -1    1    3    3    0  502 -0.68488782671E+02  0.34698367925E+03  0.74604863053E+03  0.82563729697E+03  0.50400001928E-02 0.  1.
</event>
<event>
 5   0  0.6872500E-03  0.7960942E+03  0.7818609E-02  0.9565688E-01
       -4   -1    0    0    0  501  0.00000000000E+00  0.00000000000E+00  0.22704991639E+03  0.22705346822E+03  0.12699999809E+01 0.  1.
        4   -1    0    0  501    0  0.00000000000E+00  0.00000000000E+00 -0.69781706089E+03  0.69781821657E+03  0.12699999809E+01 0. -1.
    10030    2    1    2    0    0  0.00000000000E+00  0.00000000000E+00 -0.47076714450E+03  0.92487168479E+03  0.79609417093E+03 0.  0.
        2    1    3    3  502    0  0.23831590477E+03 -0.94350113527E+02  0.11842019365E+03  0.28234687294E+03  0.25500000920E-02 0.  1.
       -2    1    3    3    0  502 -0.23831590477E+03  0.94350113527E+02 -0.58918733815E+03  0.64252481185E+03  0.25500000920E-02 0. -1.
</event>
<event>
 5   0  0.1025900E-02  0.8020093E+03  0.7818609E-02  0.9557113E-01
       -1   -1    0    0    0  501  0.00000000000E+00  0.00000000000E+00  0.20377809732E+03  0.20377809738E+03  0.50400001928E-02 0. -1.
        1   -1    0    0  501    0  0.00000000000E+00  0.00000000000E+00 -0.78911688595E+03  0.78911688596E+03  0.50400001928E-02 0.  1.
    10030    2    1    2    0    0  0.00000000000E+00  0.00000000000E+00 -0.58533878863E+03  0.99289498335E+03  0.80200932070E+03 0.  0.
        1    1    3    3  502    0 -0.35671756563E+03  0.69683084278E+02 -0.50240725387E+03  0.62009370472E+03  0.50400001928E-02 0. -1.
       -1    1    3    3    0  502  0.35671756563E+03 -0.69683084278E+02 -0.82931534757E+02  0.37280127863E+03  0.50400001928E-02 0.  1.
</event>
<event>
 5   0  0.1038912E-02  0.8003329E+03  0.7818609E-02  0.9559535E-01
        1   -1    0    0  501    0  0.00000000000E+00  0.00000000000E+00  0.13534014438E+04  0.13534014439E+04  0.50400001928E-02 0. -1.
       -1   -1    0    0    0  501  0.00000000000E+00  0.00000000000E+00 -0.11831905308E+03  0.11831905319E+03  0.50400001928E-02 0.  1.
    10030    2    1    2    0    0  0.00000000000E+00  0.00000000000E+00  0.12350823908E+04  0.14717204970E+04  0.80033287414E+03 0.  0.
        2    1    3    3  502    0 -0.11333139637E+03 -0.36788629310E+03  0.81855120659E+03  0.90454983714E+03  0.25500000920E-02 0. -1.
       -2    1    3    3    0  502  0.11333139637E+03  0.36788629310E+03  0.41653118418E+03  0.56717065990E+03  0.25500000920E-02 0.  1.
</event>
<event>
 5   0  0.1146083E-02  0.8009540E+03  0.7818609E-02  0.9558637E-01
       -1   -1    0    0    0  501  0.00000000000E+00  0.00000000000E+00  0.47702569178E+03  0.47702569181E+03  0.50400001928E-02 0.  1.
        1   -1    0    0  501    0  0.00000000000E+00  0.00000000000E+00 -0.33621210238E+03  0.33621210242E+03  0.50400001928E-02 0. -1.
    10030    2    1    2    0    0  0.00000000000E+00  0.00000000000E+00  0.14081358940E+03  0.81323779423E+03  0.80095395810E+03 0.  0.
        4    1    3    3  502    0  0.89521807185E+02 -0.22025398418E+03  0.39761342041E+03  0.46327531393E+03  0.12699999809E+01 0.  1.
       -4    1    3    3    0  502 -0.89521807185E+02  0.22025398418E+03 -0.25679983101E+03  0.34996248029E+03  0.12699999809E+01 0. -1.
</event>
<event>
 5   0  0.1817089E-02  0.7855812E+03  0.7818609E-02  0.9581125E-01
        2   -1    0    0  501    0  0.00000000000E+00  0.00000000000E+00  0.67677696733E+03  0.67677696733E+03  0.25500000920E-02 0.  1.
       -2   -1    0    0    0  501  0.00000000000E+00  0.00000000000E+00 -0.22796942639E+03  0.22796942640E+03  0.25500000920E-02 0. -1.
    10030    2    1    2    0    0  0.00000000000E+00  0.00000000000E+00  0.44880754094E+03  0.90474639374E+03  0.78558120406E+03 0.  0.
        2    1    3    3  502    0 -0.28560909661E+03  0.26682798823E+03  0.17958057964E+03  0.43013825215E+03  0.25500000920E-02 0. -1.
       -2    1    3    3    0  502  0.28560909661E+03 -0.26682798823E+03  0.26922696129E+03  0.47460814159E+03  0.25500000920E-02 0.  1.
</event>
<event>
 5   0  0.1817089E-02  0.8047078E+03  0.7818609E-02  0.9553228E-01
        2   -1    0    0  501    0  0.00000000000E+00  0.00000000000E+00  0.44598323106E+03  0.44598323107E+03  0.25500000920E-02 0. -1.
       -2   -1    0    0    0  501  0.00000000000E+00  0.00000000000E+00 -0.36299271633E+03  0.36299271634E+03  0.25500000920E-02 0.  1.
    10030    2    1    2    0    0  0.00000000000E+00  0.00000000000E+00  0.82990514724E+02  0.80897594741E+03  0.80470780905E+03 0.  0.
        2    1    3    3  502    0 -0.13148488420E+03  0.19190220105E+03 -0.28853538395E+03  0.37063107983E+03  0.25500000920E-02 0.  1.
       -2    1    3    3    0  502  0.13148488420E+03 -0.19190220105E+03  0.37152589867E+03  0.43834486758E+03  0.25500000920E-02 0. -1.
</event>
<event>
 5   0  0.1731337E-02  0.7945224E+03  0.7818609E-02  0.9567980E-01
        2   -1    0    0  501    0  0.00000000000E+00  0.00000000000E+00  0.11691488876E+04  0.11691488876E+04  0.25500000920E-02 0. -1.
       -2   -1    0    0    0  501  0.00000000000E+00  0.00000000000E+00 -0.13498404085E+03  0.13498404087E+03  0.25500000920E-02 0.  1.
    10030    2    1    2    0    0  0.00000000000E+00  0.00000000000E+00  0.10341648467E+04  0.13041329284E+04  0.79452235013E+03 0.  0.
        4    1    3    3  502    0  0.44805708002E+02 -0.17113872114E+03  0.11009216891E+04  0.11150453766E+04  0.12699999809E+01 0. -1.
       -4    1    3    3    0  502 -0.44805708002E+02  0.17113872114E+03 -0.66756842444E+02  0.18908755183E+03  0.12699999809E+01 0.  1.
</event>
<event>
 5   0  0.1673727E-02  0.7920266E+03  0.7818609E-02  0.9571630E-01
       -2   -1    0    0    0  501  0.00000000000E+00  0.00000000000E+00  0.44436748737E+03  0.44436748738E+03  0.25500000920E-02 0.  1.
        2   -1    0    0  501    0  0.00000000000E+00  0.00000000000E+00 -0.35292085246E+03  0.35292085247E+03  0.25500000920E-02 0. -1.
    10030    2    1    2    0    0  0.00000000000E+00  0.00000000000E+00  0.91446634911E+02  0.79728833984E+03  0.79202664716E+03 0.  0.
        5    1    3    3  502    0 -0.97703827562E+02  0.24038679044E+03 -0.25538356742E+03  0.36410809308E+03  0.46999998093E+01 0. -1.
       -5    1    3    3    0  502  0.97703827562E+02 -0.24038679044E+03  0.34683020233E+03  0.43318024676E+03  0.46999998093E+01 0.  1.
</event>
<event>
 5   0  0.1817089E-02  0.8013391E+03  0.7818609E-02  0.9558081E-01
       -2   -1    0    0    0  501  0.00000000000E+00  0.00000000000E+00  0.85613011876E+02  0.85613011914E+02  0.25500000920E-02 0. -1.
        2   -1    0    0  501    0  0.00000000000E+00  0.00000000000E+00 -0.18751364174E+04  0.18751364174E+04  0.25500000920E-02 0.  1.
    10030    2    1    2    0    0  0.00000000000E+00  0.00000000000E+00 -0.17895234056E+04  0.19607494293E+04  0.80133907034E+03 0.  0.
        2    1    3    3  502    0  0.26018520376E+02  0.65670648364E+02 -0.18597807196E+04  0.18611216840E+04  0.25500000920E-02 0.  1.
       -2    1    3    3    0  502 -0.26018520376E+02 -0.65670648364E+02  0.70257314077E+02  0.99627745367E+02  0.25500000920E-02 0. -1.
</event>
<event>
 5   0  0.1747544E-02  0.7952937E+03  0.7818609E-02  0.9566854E-01
       -2   -1    0    0    0  501  0.00000000000E+00  0.00000000000E+00  0.33774386138E+03  0.33774386139E+03  0.25500000920E-02 0.  1.
        2   -1    0    0  501    0  0.00000000000E+00  0.00000000000E+00 -0.46817430810E+03  0.46817430811E+03  0.25500000920E-02 0. -1.
    10030    2    1    2    0    0  0.00000000000E+00  0.00000000000E+00 -0.13043044672E+03  0.80591816949E+03  0.79529365299E+03 0.  0.
        1    1    3    3  502    0 -0.34714054786E+03 -0.19340670759E+03 -0.79910123425E+02  0.40533731923E+03  0.50400001928E-02 0. -1.
       -1    1    3    3    0  502  0.34714054786E+03  0.19340670759E+03 -0.50520323300E+02  0.40058085027E+03  0.50400001928E-02 0.  1.
</event>
<event>
 5   0  0.1731337E-02  0.7938165E+03  0.7818609E-02  0.9569011E-01
       -2   -1    0    0    0  501  0.00000000000E+00  0.00000000000E+00  0.85134920530E+02  0.85134920568E+02  0.25500000920E-02 0.  1.
        2   -1    0    0  501    0  0.00000000000E+00  0.00000000000E+00 -0.18504293425E+04  0.18504293425E+04  0.25500000920E-02 0. -1.
    10030    2    1    2    0    0  0.00000000000E+00  0.00000000000E+00 -0.17652944219E+04  0.19355642630E+04  0.79381649027E+03 0.  0.
        4    1    3    3  502    0  0.19301796658E+02 -0.18892783397E+03 -0.32843003062E+02  0.19273443271E+03  0.12699999809E+01 0.  1.
       -4    1    3    3    0  502 -0.19301796658E+02  0.18892783397E+03 -0.17324514189E+04  0.17428298303E+04  0.12699999809E+01 0. -1.
</event>
<event>
 5   0  0.1731337E-02  0.8015988E+03  0.7818609E-02  0.9557706E-01
       -2   -1    0    0    0  501  0.00000000000E+00  0.00000000000E+00  0.34499231453E+03  0.34499231454E+03  0.25500000920E-02 0.  1.
        2   -1    0    0  501    0  0.00000000000E+00  0.00000000000E+00 -0.46563402849E+03  0.46563402850E+03  0.25500000920E-02 0. -1.
    10030    2    1    2    0    0  0.00000000000E+00  0.00000000000E+00 -0.12064171396E+03  0.81062634305E+03  0.80159880545E+03 0.  0.
        4    1    3    3  502    0  0.21051411072E+02  0.28480947271E+01  0.34442056959E+03  0.34507740466E+03  0.12699999809E+01 0.  1.
       -4    1    3    3    0  502 -0.21051411072E+02 -0.28480947271E+01 -0.46506228355E+03  0.46554893839E+03  0.12699999809E+01 0. -1.
</event>
<event>
 5   0  0.1673727E-02  0.7930650E+03  0.7818609E-02  0.9570110E-01
        2   -1    0    0  501    0  0.00000000000E+00  0.00000000000E+00  0.75864365118E+03  0.75864365118E+03  0.25500000920E-02 0. -1.
       -2   -1    0    0    0  501  0.00000000000E+00  0.00000000000E+00 -0.20726203190E+03  0.20726203192E+03  0.25500000920E-02 0.  1.
    10030    2    1    2    0    0  0.00000000000E+00  0.00000000000E+00  0.55138161928E+03  0.96590568310E+03  0.79306500274E+03 0.  0.
        5    1    3    3  502    0  0.88589331001E+02  0.16754123530E+03 -0.14849134843E+03  0.24081093341E+03  0.46999998093E+01 0.  1.
       -5    1    3    3    0  502 -0.88589331001E+02 -0.16754123530E+03  0.69987296771E+03  0.72509474969E+03  0.46999998093E+01 0. -1.
</event>
<event>
 5   0  0.1038912E-02  0.8017897E+03  0.7818609E-02  0.9557430E-01
        1   -1    0    0  501    0  0.00000000000E+00  0.00000000000E+00  0.15994016881E+04  0.15994016881E+04  0.50400001928E-02 0. -1.
       -1   -1    0    0    0  501  0.00000000000E+00  0.00000000000E+00 -0.10048551164E+03  0.10048551177E+03  0.50400001928E-02 0.  1.
    10030    2    1    2    0    0  0.00000000000E+00  0.00000000000E+00  0.14989161764E+04  0.16998871998E+04  0.80178974067E+03 0.  0.
        2    1    3    3  502    0 -0.83494202706E+02 -0.25383166523E+03  0.11584875034E+03  0.29124341902E+03  0.25500000920E-02 0.  1.
       -2    1    3    3    0  502  0.83494202706E+02  0.25383166523E+03  0.13830674261E+04  0.14086437808E+04  0.25500000920E-02 0. -1.
</event>
<event>
 5   0  0.1673727E-02  0.8008289E+03  0.7818609E-02  0.9558818E-01
        2   -1    0    0  501    0  0.00000000000E+00  0.00000000000E+00  0.68460839711E+03  0.68460839712E+03  0.25500000920E-02 0. -1.
       -2   -1    0    0    0  501  0.00000000000E+00  0.00000000000E+00 -0.23419481282E+03  0.23419481284E+03  0.25500000920E-02 0.  1.
    10030    2    1    2    0    0  0.00000000000E+00  0.00000000000E+00  0.45041358429E+03  0.91880320996E+03  0.80082890914E+03 0.  0.
        5    1    3    3  502    0  0.38658309491E+03 -0.10254094722E+03  0.24662536699E+03  0.46990136919E+03  0.46999998093E+01 0. -1.
       -5    1    3    3    0  502 -0.38658309491E+03  0.10254094722E+03  0.20378821730E+03  0.44890184076E+03  0.46999998093E+01 0.  1.
</event>
<event>
 5   0  0.1818665E-02  0.8005546E+03  0.7818609E-02  0.9559215E-01
       -2   -1    0    0    0  501  0.00000000000E+00  0.00000000000E+00  0.39950660877E+03  0.39950660877E+03  0.25500000920E-02 0. -1.
        2   -1    0    0  501    0  0.00000000000E+00  0.00000000000E+00 -0.40104951276E+03  0.40104951277E+03  0.25500000920E-02 0.  1.
    10030    2    1    2    0    0  0.00000000000E+00  0.00000000000E+00 -0.15429039950E+01  0.80055612154E+03  0.80055463473E+03 0.  0.
        3    1    3    3  502    0  0.23447385868E+03  0.32441302296E+03 -0.11189073044E+01  0.40027873042E+03  0.10100000352E+00 0. -1.
       -3    1    3    3    0  502 -0.23447385868E+03 -0.32441302296E+03 -0.42399669052E+00  0.40027739112E+03  0.10100000352E+00 0.  1.
</event>
<event>
 5   0  0.6872500E-03  0.7999088E+03  0.7818609E-02  0.9560149E-01
       -4   -1    0    0    0  501  0.00000000000E+00  0.00000000000E+00  0.47298346843E+03  0.47298517345E+03  0.12699999809E+01 0.  1.
        4   -1    0    0  501    0  0.00000000000E+00  0.00000000000E+00 -0.33819753807E+03  0.33819992261E+03  0.12699999809E+01 0. -1.
    10030    2    1    2    0    0  0.00000000000E+00  0.00000000000E+00  0.13478593036E+03  0.81118509607E+03  0.79990875296E+03 0.  0.
        4    1    3    3  502    0  0.34183294979E+03 -0.95924198011E+02  0.25413742157E+03  0.43662187219E+03  0.12699999809E+01 0.  1.
       -4    1    3    3    0  502 -0.34183294979E+03  0.95924198011E+02 -0.11935149122E+03  0.37456322388E+03  0.12699999809E+01 0. -1.
</event>
<event>
 5   0  0.1025900E-02  0.7931135E+03  0.7818609E-02  0.9570039E-01
        1   -1    0    0  501    0  0.00000000000E+00  0.00000000000E+00  0.12404564004E+04  0.12404564004E+04  0.50400001928E-02 0.  1.
       -1   -1    0    0    0  501  0.00000000000E+00  0.00000000000E+00 -0.12677371446E+03  0.12677371456E+03  0.50400001928E-02 0. -1.
    10030    2    1    2    0    0  0.00000000000E+00  0.00000000000E+00  0.11136826859E+04  0.13672301149E+04  0.79311352422E+03 0.  0.
        1    1    3    3  502    0  0.14016607876E+03  0.35851829743E+03  0.72106599188E+03  0.81738489337E+03  0.50400001928E-02 0.  1.
       -1    1    3    3    0  502 -0.14016607876E+03 -0.35851829743E+03  0.39261669401E+03  0.54984522156E+03  0.50400001928E-02 0. -1.
</event>
<event>
 5   0  0.1049780E-02  0.8061831E+03  0.7818609E-02  0.9551110E-01
       -1   -1    0    0    0  501  0.00000000000E+00  0.00000000000E+00  0.20799934368E+03  0.20799934374E+03  0.50400001928E-02 0.  1.
        1   -1    0    0  501    0  0.00000000000E+00  0.00000000000E+00 -0.78116972078E+03  0.78116972080E+03  0.50400001928E-02 0. -1.
    10030    2    1    2    0    0  0.00000000000E+00  0.00000000000E+00 -0.57317037711E+03  0.98916906454E+03  0.80618307911E+03 0.  0.
        5    1    3    3  502    0 -0.48716489475E+02 -0.38654497934E+03 -0.15984135814E+03  0.42114328579E+03  0.46999998093E+01 0.  1.
       -5    1    3    3    0  502  0.48716489475E+02  0.38654497934E+03 -0.41332901897E+03  0.56802577874E+03  0.46999998093E+01 0. -1.
</event>
<event>
 5   0  0.1049780E-02  0.7992251E+03  0.7818609E-02  0.9561139E-01
        1   -1    0    0  501    0  0.00000000000E+00  0.00000000000E+00  0.45114557320E+03  0.45114557323E+03  0.50400001928E-02 0.  1.
       -1   -1    0    0    0  501  0.00000000000E+00  0.00000000000E+00 -0.35396596636E+03  0.35396596640E+03  0.50400001928E-02 0. -1.
    10030    2    1    2    0    0  0.00000000000E+00  0.00000000000E+00  0.97179606838E+02  0.80511153963E+03  0.79922507172E+03 0.  0.
        5    1    3    3  502    0 -0.22783691102E+03 -0.22179284078E+03 -0.19519750522E+03  0.37312984106E+03  0.46999998093E+01 0. -1.
       -5    1    3    3    0  502  0.22783691102E+03  0.22179284078E+03  0.29237711206E+03  0.43198169857E+03  0.46999998093E+01 0.  1.
</event>
<event>
 5   0  0.6872500E-03  0.7711323E+03  0.7818609E-02  0.9602768E-01
       -3   -1    0    0    0  501  0.00000000000E+00  0.00000000000E+00  0.13992670150E+03  0.13992673795E+03  0.10100000352E+00 0. -1.
        3   -1    0    0  501    0  0.00000000000E+00  0.00000000000E+00 -0.10624221872E+04  0.10624221920E+04  0.10100000352E+00 0.  1.
    10030    2    1    2    0    0  0.00000000000E+00  0.00000000000E+00 -0.92249548573E+03  0.12023489300E+04  0.77113230269E+03 0.  0.
        3    1    3    3  502    0  0.13736399288E+03 -0.23463499180E+03 -0.88750784844E+03  0.92822014477E+03  0.10100000352E+00 0.  1.
       -3    1    3    3    0  502 -0.13736399288E+03  0.23463499180E+03 -0.34987637295E+02  0.27412878522E+03  0.10100000352E+00 0. -1.
</event>
<event>
 5   0  0.1747544E-02  0.8033910E+03  0.7818609E-02  0.9555122E-01
       -2   -1    0    0    0  501  0.00000000000E+00  0.00000000000E+00  0.32543734018E+03  0.32543734019E+03  0.25500000920E-02 0. -1.
        2   -1    0    0  501    0  0.00000000000E+00  0.00000000000E+00 -0.49582283401E+03  0.49582283402E+03  0.25500000920E-02 0.  1.
    10030    2    1    2    0    0  0.00000000000E+00  0.00000000000E+00 -0.17038549383E+03  0.82126017421E+03  0.80339097408E+03 0.  0.
        1    1    3    3  502    0  0.21214901375E+03  0.28464294287E+03 -0.27733745674E+03  0.45049403315E+03  0.50400001928E-02 0. -1.
       -1    1    3    3    0  502 -0.21214901375E+03 -0.28464294287E+03  0.10695196291E+03  0.37076614106E+03  0.50400001928E-02 0.  1.
</event>
<event>
 5   0  0.1747544E-02  0.8016196E+03  0.7818609E-02  0.9557676E-01
       -2   -1    0    0    0  501  0.00000000000E+00  0.00000000000E+00  0.37938604644E+03  0.37938604645E+03  0.25500000920E-02 0. -1.
        2   -1    0    0  501    0  0.00000000000E+00  0.00000000000E+00 -0.42344333139E+03  0.42344333140E+03  0.25500000920E-02 0.  1.
    10030    2    1    2    0    0  0.00000000000E+00  0.00000000000E+00 -0.44057284952E+02  0.80282937784E+03  0.80161958907E+03 0.  0.
        1    1    3    3  502    0  0.23930613984E+03  0.31776211102E+03  0.27119889696E+02  0.39871753938E+03  0.50400001928E-02 0. -1.
       -1    1    3    3    0  502 -0.23930613984E+03 -0.31776211102E+03 -0.71177174648E+02  0.40411183846E+03  0.50400001928E-02 0.  1.
</event>
<event>
 5   0  0.1146083E-02  0.7988005E+03  0.7818609E-02  0.9561755E-01
        1   -1    0    0  501    0  0.00000000000E+00  0.00000000000E+00  0.76475355716E+03  0.76475355718E+03  0.50400001928E-02 0. -1.
       -1   -1    0    0    0  501  0.00000000000E+00  0.00000000000E+00 -0.20859079802E+03  0.20859079808E+03  0.50400001928E-02 0.  1.
    10030    2    1    2    0    0  0.00000000000E+00  0.00000000000E+00  0.55616275914E+03  0.97334435526E+03  0.79880048778E+03 0.  0.
        4    1    3    3  502    0  0.11339251005E+03 -0.85784369316E+02  0.73286735142E+03  0.74653398251E+03  0.12699999809E+01 0. -1.
       -4    1    3    3    0  502 -0.11339251005E+03  0.85784369316E+02 -0.17670459229E+03  0.22681037276E+03  0.12699999809E+01 0.  1.
</event>
<event>
 5   0  0.1817089E-02  0.8026479E+03  0.7818609E-02  0.9556192E-01
        2   -1    0    0  501    0  0.00000000000E+00  0.00000000000E+00  0.14547864979E+04  0.14547864979E+04  0.25500000920E-02 0.  1.
       -2   -1    0    0    0  501  0.00000000000E+00  0.00000000000E+00 -0.11071102236E+03  0.11071102239E+03  0.25500000920E-02 0. -1.
    10030    2    1    2    0    0  0.00000000000E+00  0.00000000000E+00  0.13440754756E+04  0.15654975203E+04  0.80264786931E+03 0.  0.
        2    1    3    3  502    0  0.33535774180E+03 -0.22039286242E+03  0.68140618041E+03  0.79079214178E+03  0.25500000920E-02 0.  1.
       -2    1    3    3    0  502 -0.33535774180E+03  0.22039286242E+03  0.66266929517E+03  0.77470537855E+03  0.25500000920E-02 0. -1.
</event>
<event>
 5   0  0.6872500E-03  0.7990899E+03  0.7818609E-02  0.9561335E-01
       -3   -1    0    0    0  501  0.00000000000E+00  0.00000000000E+00  0.13104945027E+03  0.13104948919E+03  0.10100000352E+00 0.  1.
        3   -1    0    0  501    0  0.00000000000E+00  0.00000000000E+00 -0.12181367933E+04  0.12181367975E+04  0.10100000352E+00 0. -1.
    10030    2    1    2    0    0  0.00000000000E+00  0.00000000000E+00 -0.10870873431E+04  0.13491862867E+04  0.79908994789E+03 0.  0.
        4    1    3    3  502    0  0.77275763911E+02 -0.30177823750E+03 -0.12112911649E+03  0.33423872319E+03  0.12699999809E+01 0.  1.
       -4    1    3    3    0  502 -0.77275763911E+02  0.30177823750E+03 -0.96595822658E+03  0.10149475635E+04  0.12699999809E+01 0. -1.
</event>
<event>
 5   0  0.1673727E-02  0.7987461E+03  0.7818609E-02  0.9561834E-01
        2   -1    0    0  501    0  0.00000000000E+00  0.00000000000E+00  0.47252935325E+03  0.47252935326E+03  0.25500000920E-02 0. -1.
       -2   -1    0    0    0  501  0.00000000000E+00  0.00000000000E+00 -0.33754265880E+03  0.33754265881E+03  0.25500000920E-02 0.  1.
    10030    2    1    2    0    0  0.00000000000E+00  0.00000000000E+00  0.13498669445E+03  0.81007201207E+03  0.79874605292E+03 0.  0.
        5    1    3    3  502    0  0.12971858402E+03 -0.33408542967E+03  0.24616388474E+03  0.43480884708E+03  0.46999998093E+01 0. -1.
       -5    1    3    3    0  502 -0.12971858402E+03  0.33408542967E+03 -0.11117719028E+03  0.37526316498E+03  0.46999998093E+01 0.  1.
</event>
<event>
 5   0  0.1673727E-02  0.8150039E+03  0.7818609E-02  0.9538550E-01
        2   -1    0    0  501    0  0.00000000000E+00  0.00000000000E+00  0.23259339194E+03  0.23259339196E+03  0.25500000920E-02 0. -1.
       -2   -1    0    0    0  501  0.00000000000E+00  0.00000000000E+00 -0.71394051935E+03  0.71394051936E+03  0.25500000920E-02 0.  1.
    10030    2    1    2    0    0  0.00000000000E+00  0.00000000000E+00 -0.48134712741E+03  0.94653391132E+03  0.81500391914E+03 0.  0.
        5    1    3    3  502    0  0.14470651272E+03 -0.97355924415E+02 -0.66836890334E+03  0.69076568516E+03  0.46999998093E+01 0.  1.
       -5    1    3    3    0  502 -0.14470651272E+03  0.97355924415E+02  0.18702177593E+03  0.25576822616E+03  0.46999998093E+01 0. -1.
</event>
<event>
 5   0  0.1025900E-02  0.8078992E+03  0.7818609E-02  0.9548653E-01
        1   -1    0    0  501    0  0.00000000000E+00  0.00000000000E+00  0.32962074096E+03  0.32962074100E+03  0.50400001928E-02 0. -1.
       -1   -1    0    0    0  501  0.00000000000E+00  0.00000000000E+00 -0.49503943199E+03  0.49503943201E+03  0.50400001928E-02 0.  1.
    10030    2    1    2    0    0  0.00000000000E+00  0.00000000000E+00 -0.16541869103E+03  0.82466017301E+03  0.80789916302E+03 0.  0.
        1    1    3    3  502    0 -0.56373827135E+02 -0.32325235428E+03 -0.32319245945E+03  0.46056862551E+03  0.50400001928E-02 0.  1.
       -1    1    3    3    0  502  0.56373827135E+02  0.32325235428E+03  0.15777376842E+03  0.36409154750E+03  0.50400001928E-02 0. -1.
</event>
<event>
 5   0  0.1146083E-02  0.8033855E+03  0.7818609E-02  0.9555130E-01
       -1   -1    0    0    0  501  0.00000000000E+00  0.00000000000E+00  0.38218975918E+03  0.38218975922E+03  0.50400001928E-02 0.  1.
        1   -1    0    0  501    0  0.00000000000E+00  0.00000000000E+00 -0.42219093490E+03  0.42219093493E+03  0.50400001928E-02 0. -1.
    10030    2    1    2    0    0  0.00000000000E+00  0.00000000000E+00 -0.40001175712E+02  0.80438069414E+03  0.80338546604E+03 0.  0.
        4    1    3    3  502    0  0.11700286740E+03 -0.16522648482E+03  0.32736719751E+03  0.38491603912E+03  0.12699999809E+01 0.  1.
       -4    1    3    3    0  502 -0.11700286740E+03  0.16522648482E+03 -0.36736837322E+03  0.41946465502E+03  0.12699999809E+01 0. -1.
</event>
<event>
 5   0  0.1818665E-02  0.7818588E+03  0.7818609E-02  0.9586653E-01
       -2   -1    0    0    0  501  0.00000000000E+00  0.00000000000E+00  0.67748693550E+02  0.67748693598E+02  0.25500000920E-02 0. -1.
        2   -1    0    0  501    0  0.00000000000E+00  0.00000000000E+00 -0.22557746156E+04  0.22557746156E+04  0.25500000920E-02 0.  1.
    10030    2    1    2    0    0  0.00000000000E+00  0.00000000000E+00 -0.21880259220E+04  0.23235233092E+04  0.78185876782E+03 0.  0.
        3    1    3    3  502    0  0.12192578008E+03  0.10038530610E+03 -0.21567469389E+04  0.21625217858E+04  0.10100000352E+00 0.  1.
       -3    1    3    3    0  502 -0.12192578008E+03 -0.10038530610E+03 -0.31278983104E+02  0.16100152332E+03  0.10100000352E+00 0. -1.
</event>
<event>
 5   0  0.1747544E-02  0.8058289E+03  0.7818609E-02  0.9551618E-01
       -2   -1    0    0    0  501  0.00000000000E+00  0.00000000000E+00  0.17207414079E+03  0.17207414081E+03  0.25500000920E-02 0. -1.
        2   -1    0    0  501    0  0.00000000000E+00  0.00000000000E+00 -0.94343086300E+03  0.94343086301E+03  0.25500000920E-02 0.  1.
    10030    2    1    2    0    0  0.00000000000E+00  0.00000000000E+00 -0.77135672221E+03  0.11155050038E+04  0.80582890283E+03 0.  0.
        1    1    3    3  502    0  0.10790268381E+03  0.61990193559E+02 -0.91616199440E+03  0.92457480675E+03  0.50400001928E-02 0.  1.
       -1    1    3    3    0  502 -0.10790268381E+03 -0.61990193559E+02  0.14480527219E+03  0.19093019706E+03  0.50400001928E-02 0. -1.
</event>
<event>
 5   0  0.1673727E-02  0.8012098E+03  0.7818609E-02  0.9558268E-01
        2   -1    0    0  501    0  0.00000000000E+00  0.00000000000E+00  0.15832853893E+04  0.15832853893E+04  0.25500000920E-02 0. -1.
       -2   -1    0    0    0  501  0.00000000000E+00  0.00000000000E+00 -0.10136155774E+03  0.10136155777E+03  0.25500000920E-02 0.  1.
    10030    2    1    2    0    0  0.00000000000E+00  0.00000000000E+00  0.14819238316E+04  0.16846469471E+04  0.80120976888E+03 0.  0.
        5    1    3    3  502    0  0.28635045054E+03  0.17450961181E+01  0.15199093994E+03  0.32422671344E+03  0.46999998093E+01 0.  1.
       -5    1    3    3    0  502 -0.28635045054E+03 -0.17450961181E+01  0.13299328916E+04  0.13604202336E+04  0.46999998093E+01 0. -1.
</event>
<event>
 5   0  0.6872500E-03  0.8106203E+03  0.7818609E-02  0.9544771E-01
        4   -1    0    0  501    0  0.00000000000E+00  0.00000000000E+00  0.22738032375E+03  0.22738387042E+03  0.12699999809E+01 0. -1.
       -4   -1    0    0    0  501  0.00000000000E+00  0.00000000000E+00 -0.72246400481E+03  0.72246512106E+03  0.12699999809E+01 0.  1.
    10030    2    1    2    0    0  0.00000000000E+00  0.00000000000E+00 -0.49508368106E+03  0.94984899148E+03  0.81062029050E+03 0.  0.
        4    1    3    3  502    0  0.51966497682E+02 -0.39547649529E+03 -0.16326884616E+03  0.43099942487E+03  0.12699999809E+01 0. -1.
       -4    1    3    3    0  502 -0.51966497682E+02  0.39547649529E+03 -0.33181483490E+03  0.51884956661E+03  0.12699999809E+01 0.  1.
</event>
<event>
 5   0  0.1818665E-02  0.8065868E+03  0.7818609E-02  0.9550532E-01
       -2   -1    0    0    0  501  0.00000000000E+00  0.00000000000E+00  0.98919073659E+02  0.98919073692E+02  0.25500000920E-02 0.  1.
        2   -1    0    0  501    0  0.00000000000E+00  0.00000000000E+00 -0.16442284932E+04  0.16442284932E+04  0.25500000920E-02 0. -1.
    10030    2    1    2    0    0  0.00000000000E+00  0.00000000000E+00 -0.15453094195E+04  0.17431475669E+04  0.80658678258E+03 0.  0.
        3    1    3    3  502    0 -0.38437511603E+03  0.10885075620E+03 -0.65324640630E+03  0.76571769895E+03  0.10100000352E+00 0. -1.
       -3    1    3    3    0  502  0.38437511603E+03 -0.10885075620E+03 -0.89206301322E+03  0.97742986792E+03  0.10100000352E+00 0.  1.
</event>
<event>
 5   0  0.1731337E-02  0.8055988E+03  0.7818609E-02  0.9551948E-01
        2   -1    0    0  501    0  0.00000000000E+00  0.00000000000E+00  0.10073140220E+04  0.10073140220E+04  0.25500000920E-02 0. -1.
       -2   -1    0    0    0  501  0.00000000000E+00  0.00000000000E+00 -0.16106929108E+03  0.16106929110E+03  0.25500000920E-02 0.  1.
    10030    2    1    2    0    0  0.00000000000E+00  0.00000000000E+00  0.84624473092E+03  0.11683833131E+04  0.80559879701E+03 0.  0.
        4    1    3    3  502    0 -0.19370173029E+03 -0.65865405337E+01 -0.88993718935E+02  0.21327268401E+03  0.12699999809E+01 0.  1.
       -4    1    3    3    0  502  0.19370173029E+03  0.65865405337E+01  0.93523844985E+03  0.95511062910E+03  0.12699999809E+01 0. -1.
</event>
<event>
 5   0  0.1049780E-02  0.7980126E+03  0.7818609E-02  0.9562898E-01
        1   -1    0    0  501    0  0.00000000000E+00  0.00000000000E+00  0.25912338314E+03  0.25912338319E+03  0.50400001928E-02 0.  1.
       -1   -1    0    0    0  501  0.00000000000E+00  0.00000000000E+00 -0.61440239204E+03  0.61440239206E+03  0.50400001928E-02 0. -1.
    10030    2    1    2    0    0  0.00000000000E+00  0.00000000000E+00 -0.35527900890E+03  0.87352577525E+03  0.79801259755E+03 0.  0.
        5    1    3    3  502    0  0.29436971527E+03 -0.17504408064E+03  0.46398160818E+02  0.34564264603E+03  0.46999998093E+01 0.  1.
       -5    1    3    3    0  502 -0.29436971527E+03  0.17504408064E+03 -0.40167716972E+03  0.52788312921E+03  0.46999998093E+01 0. -1.
</event>
<event>
 5   0  0.1818665E-02  0.7907451E+03  0.7818609E-02  0.9573511E-01
       -2   -1    0    0    0  501  0.00000000000E+00  0.00000000000E+00  0.12837430629E+03  0.12837430631E+03  0.25500000920E-02 0.  1.
        2   -1    0    0  501    0  0.00000000000E+00  0.00000000000E+00 -0.12176848620E+04  0.12176848620E+04  0.25500000920E-02 0. -1.
    10030    2    1    2    0    0  0.00000000000E+00  0.00000000000E+00 -0.10893105557E+04  0.13460591683E+04  0.79074509029E+03 0.  0.
        3    1    3    3  502    0 -0.16026305910E+03  0.29367208184E+03 -0.90331244233E+03  0.96327613820E+03  0.10100000352E+00 0. -1.
       -3    1    3    3    0  502  0.16026305910E+03 -0.29367208184E+03 -0.18599811340E+03  0.38278303013E+03  0.10100000352E+00 0.  1.
</event>
<event>
 5   0  0.1731337E-02  0.7995157E+03  0.7818609E-02  0.9560718E-01
        2   -1    0    0  501    0  0.00000000000E+00  0.00000000000E+00  0.81692966240E+03  0.81692966240E+03  0.25500000920E-02 0. -1.
       -2   -1    0    0    0  501  0.00000000000E+00  0.00000000000E+00 -0.19561825365E+03  0.19561825367E+03  0.25500000920E-02 0.  1.
    10030    2    1    2    0    0  0.00000000000E+00  0.00000000000E+00  0.62131140875E+03  0.10125479161E+04  0.79951573825E+03 0.  0.
        4    1    3    3  502    0  0.33919287067E+03  0.19961656080E+03  0.22194833640E+03  0.45184206510E+03  0.12699999809E+01 0. -1.
       -4    1    3    3    0  502 -0.33919287067E+03 -0.19961656080E+03  0.39936307235E+03  0.56070585098E+03  0.12699999809E+01 0.  1.
</event>
<event>
 5   0  0.1747544E-02  0.7878780E+03  0.7818609E-02  0.9577731E-01
        2   -1    0    0  501    0  0.00000000000E+00  0.00000000000E+00  0.57508793867E+03  0.57508793868E+03  0.25500000920E-02 0.  1.
       -2   -1    0    0    0  501  0.00000000000E+00  0.00000000000E+00 -0.26985076538E+03  0.26985076539E+03  0.25500000920E-02 0. -1.
    10030    2    1    2    0    0  0.00000000000E+00  0.00000000000E+00  0.30523717329E+03  0.84493870407E+03  0.78787796115E+03 0.  0.
        1    1    3    3  502    0  0.47342716919E+02 -0.26449748413E+03 -0.15632062462E+03  0.31086394076E+03  0.50400001928E-02 0. -1.
       -1    1    3    3    0  502 -0.47342716919E+02  0.26449748413E+03  0.46155779791E+03  0.53407476331E+03  0.50400001928E-02 0.  1.
</event>
<event>
 5   0  0.1146083E-02  0.7853908E+03  0.7818609E-02  0.9581407E-01
        1   -1    0    0  501    0  0.00000000000E+00  0.00000000000E+00  0.20533340169E+04  0.20533340169E+04  0.50400001928E-02 0.  1.
       -1   -1    0    0    0  501  0.00000000000E+00  0.00000000000E+00 -0.75102086507E+02  0.75102086676E+02  0.50400001928E-02 0. -1.
    10030    2    1    2    0    0  0.00000000000E+00  0.00000000000E+00  0.19782319304E+04  0.21284361036E+04  0.78539077955E+03 0.  0.
        4    1    3    3  502    0  0.12656805267E+03 -0.24407673401E+02  0.19943628861E+04  0.19985244909E+04  0.12699999809E+01 0.  1.
       -4    1    3    3    0  502 -0.12656805267E+03  0.24407673401E+02 -0.16130955682E+02  0.12991161268E+03  0.12699999809E+01 0. -1.
</event>
<event>
 5   0  0.1818665E-02  0.8291328E+03  0.7818609E-02  0.9518780E-01
        2   -1    0    0  501    0  0.00000000000E+00  0.00000000000E+00  0.13021500052E+04  0.13021500052E+04  0.25500000920E-02 0. -1.
       -2   -1    0    0    0  501  0.00000000000E+00  0.00000000000E+00 -0.13198577660E+03  0.13198577663E+03  0.25500000920E-02 0.  1.
    10030    2    1    2    0    0  0.00000000000E+00  0.00000000000E+00  0.11701642286E+04  0.14341357819E+04  0.82913275105E+03 0.  0.
        3    1    3    3  502    0 -0.31470232966E+03  0.26907450715E+03  0.54935579757E+03  0.68791747268E+03  0.10100000352E+00 0.  1.
       -3    1    3    3    0  502  0.31470232966E+03 -0.26907450715E+03  0.62080843108E+03  0.74621830920E+03  0.10100000352E+00 0. -1.
</event>
<event>
 5   0  0.1673727E-02  0.7958718E+03  0.7818609E-02  0.9566012E-01
       -2   -1    0    0    0  501  0.00000000000E+00  0.00000000000E+00  0.16958455567E+03  0.16958455569E+03  0.25500000920E-02 0.  1.
        2   -1    0    0  501    0  0.00000000000E+00  0.00000000000E+00 -0.93377014631E+03  0.93377014632E+03  0.25500000920E-02 0. -1.
    10030    2    1    2    0    0  0.00000000000E+00  0.00000000000E+00 -0.76418559065E+03  0.11033547020E+04  0.79587183734E+03 0.  0.
        5    1    3    3  502    0  0.12997933292E+03 -0.16736392555E+03 -0.84899674284E+03  0.87505592387E+03  0.46999998093E+01 0. -1.
       -5    1    3    3    0  502 -0.12997933292E+03  0.16736392555E+03  0.84811152190E+02  0.22829877813E+03  0.46999998093E+01 0.  1.
</event>
<event>
 5   0  0.1030323E-02  0.7787080E+03  0.7818609E-02  0.9591358E-01
        1   -1    0    0  501    0  0.00000000000E+00  0.00000000000E+00  0.40059728676E+03  0.40059728679E+03  0.50400001928E-02 0. -1.
       -1   -1    0    0    0  501  0.00000000000E+00  0.00000000000E+00 -0.37842622477E+03  0.37842622480E+03  0.50400001928E-02 0.  1.
    10030    2    1    2    0    0  0.00000000000E+00  0.00000000000E+00  0.22171061992E+02  0.77902351160E+03  0.77870795272E+03 0.  0.
        3    1    3    3  502    0  0.15848230493E+03 -0.30054692581E+03 -0.17912676781E+03  0.38409830087E+03  0.10100000352E+00 0.  1.
       -3    1    3    3    0  502 -0.15848230493E+03  0.30054692581E+03  0.20129782980E+03  0.39492521073E+03  0.10100000352E+00 0. -1.
</event>
<event>
 5   0  0.6872500E-03  0.7908495E+03  0.7818609E-02  0.9573357E-01
        3   -1    0    0  501    0  0.00000000000E+00  0.00000000000E+00  0.10520192047E+04  0.10520192096E+04  0.10100000352E+00 0. -1.
       -3   -1    0    0    0  501  0.00000000000E+00  0.00000000000E+00 -0.14862914288E+03  0.14862917719E+03  0.10100000352E+00 0.  1.
    10030    2    1    2    0    0  0.00000000000E+00  0.00000000000E+00  0.90339006186E+03  0.12006483868E+04  0.79084950832E+03 0.  0.
        1    1    3    3  502    0 -0.23469538071E+03 -0.27160104415E+03  0.19988060533E+03  0.41085436024E+03  0.50400001928E-02 0.  1.
       -1    1    3    3    0  502  0.23469538071E+03  0.27160104415E+03  0.70350945653E+03  0.78979402654E+03  0.50400001928E-02 0. -1.
</event>
<event>
 5   0  0.1146083E-02  0.7935172E+03  0.7818609E-02  0.9569448E-01
       -1   -1    0    0    0  501  0.00000000000E+00  0.00000000000E+00  0.11365559598E+03  0.11365559609E+03  0.50400001928E-02 0.  1.
        1   -1    0    0  501    0  0.00000000000E+00  0.00000000000E+00 -0.13850385168E+04  0.13850385168E+04  0.50400001928E-02 0. -1.
    10030    2    1    2    0    0  0.00000000000E+00  0.00000000000E+00 -0.12713829208E+04  0.14986941129E+04  0.79351717855E+03 0.  0.
        4    1    3    3  502    0  0.20547686412E+03 -0.24711348865E+03 -0.19627586105E+03  0.37657886889E+03  0.12699999809E+01 0. -1.
       -4    1    3    3    0  502 -0.20547686412E+03  0.24711348865E+03 -0.10751070597E+04  0.11221152440E+04  0.12699999809E+01 0.  1.
</event>
<event>
 5   0  0.1731337E-02  0.8023718E+03  0.7818609E-02  0.9556590E-01
       -2   -1    0    0    0  501  0.00000000000E+00  0.00000000000E+00  0.15653816024E+03  0.15653816026E+03  0.25500000920E-02 0.  1.
        2   -1    0    0  501    0  0.00000000000E+00  0.00000000000E+00 -0.10281847079E+04  0.10281847079E+04  0.25500000920E-02 0. -1.
    10030    2    1    2    0    0  0.00000000000E+00  0.00000000000E+00 -0.87164654763E+03  0.11847228681E+04  0.80237184041E+03 0.  0.
        4    1    3    3  502    0  0.34400701124E+03  0.31715387275E+02 -0.73698332563E+03  0.81393656063E+03  0.12699999809E+01 0. -1.
       -4    1    3    3    0  502 -0.34400701124E+03 -0.31715387275E+02 -0.13466322200E+03  0.37078630750E+03  0.12699999809E+01 0.  1.
</event>
<event>
 5   0  0.1030323E-02  0.8002548E+03  0.7818609E-02  0.9559648E-01
       -1   -1    0    0    0  501  0.00000000000E+00  0.00000000000E+00  0.50980301491E+03  0.50980301494E+03  0.50400001928E-02 0. -1.
        1   -1    0    0  501    0  0.00000000000E+00  0.00000000000E+00 -0.31404668971E+03  0.31404668975E+03  0.50400001928E-02 0.  1.
    10030    2    1    2    0    0  0.00000000000E+00  0.00000000000E+00  0.19575632520E+03  0.82384970469E+03  0.80025483258E+03 0.  0.
        3    1    3    3  502    0 -0.95524459303E+02 -0.21623679829E+03  0.43022567718E+03  0.49089450879E+03  0.10100000352E+00 0. -1.
       -3    1    3    3    0  502  0.95524459303E+02  0.21623679829E+03 -0.23446935197E+03  0.33295519590E+03  0.10100000352E+00 0.  1.
</event>
<event>
 5   0  0.1673727E-02  0.7936303E+03  0.7818609E-02  0.9569283E-01
       -2   -1    0    0    0  501  0.00000000000E+00  0.00000000000E+00  0.20673481046E+03  0.20673481048E+03  0.25500000920E-02 0.  1.
        2   -1    0    0  501    0  0.00000000000E+00  0.00000000000E+00 -0.76166312468E+03  0.76166312468E+03  0.25500000920E-02 0. -1.
    10030    2    1    2    0    0  0.00000000000E+00  0.00000000000E+00 -0.55492831422E+03  0.96839793516E+03  0.79363034651E+03 0.  0.
        5    1    3    3  502    0  0.63762123566E+02  0.11917047167E+03 -0.73267547916E+03  0.74505211729E+03  0.46999998093E+01 0. -1.
       -5    1    3    3    0  502 -0.63762123566E+02 -0.11917047167E+03  0.17774716494E+03  0.22334581787E+03  0.46999998093E+01 0.  1.
</event>
<event>
 5   0  0.1817089E-02  0.8065852E+03  0.7818609E-02  0.9550534E-01
        2   -1    0    0  501    0  0.00000000000E+00  0.00000000000E+00  0.24441708845E+03  0.24441708847E+03  0.25500000920E-02 0.  1.
       -2   -1    0    0    0  501  0.00000000000E+00  0.00000000000E+00 -0.66544007319E+03  0.66544007319E+03  0.25500000920E-02 0. -1.
    10030    2    1    2    0    0  0.00000000000E+00  0.00000000000E+00 -0.42102298474E+03  0.90985716166E+03  0.80658520997E+03 0.  0.
        2    1    3    3  502    0  0.20524959720E+03  0.96620020785E+02 -0.58664359285E+03  0.62897816385E+03  0.25500000920E-02 0. -1.
       -2    1    3    3    0  502 -0.20524959720E+03 -0.96620020785E+02  0.16562060811E+03  0.28087899780E+03  0.25500000920E-02 0.  1.
</event>
<event>
 5   0  0.1673727E-02  0.7927338E+03  0.7818609E-02  0.9570595E-01
       -2   -1    0    0    0  501  0.00000000000E+00  0.00000000000E+00  0.21684342151E+03  0.21684342153E+03  0.25500000920E-02 0. -1.
        2   -1    0    0  501    0  0.00000000000E+00  0.00000000000E+00 -0.72451693242E+03  0.72451693242E+03  0.25500000920E-02 0.  1.
    10030    2    1    2    0    0  0.00000000000E+00  0.00000000000E+00 -0.50767351091E+03  0.94136035395E+03  0.79273382816E+03 0.  0.
        5    1    3    3  502    0  0.38165412497E+03  0.68386664257E+02 -0.35138447736E+03  0.52328744289E+03  0.46999998093E+01 0.  1.
       -5    1    3    3    0  502 -0.38165412497E+03 -0.68386664257E+02 -0.15628903355E+03  0.41807291106E+03  0.46999998093E+01 0. -1.
</event>
<event>
 5   0  0.1049780E-02  0.8018724E+03  0.7818609E-02  0.9557311E-01
       -1   -1    0    0    0  501  0.00000000000E+00  0.00000000000E+00  0.57316890548E+03  0.57316890550E+03  0.50400001928E-02 0. -1.
        1   -1    0    0  501    0  0.00000000000E+00  0.00000000000E+00 -0.28045807551E+03  0.28045807556E+03  0.50400001928E-02 0.  1.
    10030    2    1    2    0    0  0.00000000000E+00  0.00000000000E+00  0.29271082997E+03  0.85362698106E+03  0.80187242926E+03 0.  0.
        5    1    3    3  502    0  0.38335826580E+03  0.44442502686E+02  0.30770147643E+02  0.38717901284E+03  0.46999998093E+01 0.  1.
       -5    1    3    3    0  502 -0.38335826580E+03 -0.44442502686E+02  0.26194068232E+03  0.46644796822E+03  0.46999998093E+01 0. -1.
</event>
<event>
 5   0  0.1038912E-02  0.8063254E+03  0.7818609E-02  0.9550906E-01
       -1   -1    0    0    0  501  0.00000000000E+00  0.00000000000E+00  0.84104693026E+02  0.84104693177E+02  0.50400001928E-02 0. -1.
        1   -1    0    0  501    0  0.00000000000E+00  0.00000000000E+00 -0.19325931314E+04  0.19325931314E+04  0.50400001928E-02 0.  1.
    10030    2    1    2    0    0  0.00000000000E+00  0.00000000000E+00 -0.18484884383E+04  0.20166978246E+04  0.80632537407E+03 0.  0.
        2    1    3    3  502    0 -0.95885190803E+02  0.26832295937E+03 -0.21088785960E+03  0.35449241131E+03  0.25500000920E-02 0. -1.
       -2    1    3    3    0  502  0.95885190803E+02 -0.26832295937E+03 -0.16376005787E+04  0.16622054133E+04  0.25500000920E-02 0.  1.
</event>
<event>
 5   0  0.1818665E-02  0.8014674E+03  0.7818609E-02  0.9557896E-01
       -2   -1    0    0    0  501  0.00000000000E+00  0.00000000000E+00  0.14065990398E+03  0.14065990400E+03  0.25500000920E-02 0.  1.
        2   -1    0    0  501    0  0.00000000000E+00  0.00000000000E+00 -0.11416720564E+04  0.11416720564E+04  0.25500000920E-02 0. -1.
    10030    2    1    2    0    0  0.00000000000E+00  0.00000000000E+00 -0.10010121524E+04  0.12823319604E+04  0.80146735890E+03 0.  0.
        3    1    3    3  502    0 -0.24428637738E+03  0.29834593344E+03 -0.67505315499E+03  0.77742067276E+03  0.10100000352E+00 0.  1.
       -3    1    3    3    0  502  0.24428637738E+03 -0.29834593344E+03 -0.32595899742E+03  0.50491128763E+03  0.10100000352E+00 0. -1.
</event>
<event>
 5   0  0.1038912E-02  0.7992168E+03  0.7818609E-02  0.9561151E-01
       -1   -1    0    0    0  501  0.00000000000E+00  0.00000000000E+00  0.56295333870E+03  0.56295333872E+03  0.50400001928E-02 0.  1.
        1   -1    0    0  501    0  0.00000000000E+00  0.00000000000E+00 -0.28365919094E+03  0.28365919099E+03  0.50400001928E-02 0. -1.
    10030    2    1    2    0    0  0.00000000000E+00  0.00000000000E+00  0.27929414776E+03  0.84661252971E+03  0.79921683821E+03 0.  0.
        2    1    3    3  502    0  0.94763094858E+01 -0.11645174951E+03  0.54445606243E+03  0.55685115994E+03  0.25500000920E-02 0.  1.
       -2    1    3    3    0  502 -0.94763094858E+01  0.11645174951E+03 -0.26516191468E+03  0.28976136976E+03  0.25500000920E-02 0. -1.
</event>
<event>
 5   0  0.1731337E-02  0.8052479E+03  0.7818609E-02  0.9552452E-01
        2   -1    0    0  501    0  0.00000000000E+00  0.00000000000E+00  0.51974657886E+03  0.51974657886E+03  0.25500000920E-02 0. -1.
       -2   -1    0    0    0  501  0.00000000000E+00  0.00000000000E+00 -0.31189435856E+03  0.31189435857E+03  0.25500000920E-02 0.  1.
    10030    2    1    2    0    0  0.00000000000E+00  0.00000000000E+00  0.20785222030E+03  0.83164093744E+03  0.80524785212E+03 0.  0.
        4    1    3    3  502    0  0.32759320984E+03 -0.21418965863E+03  0.20141216662E+03  0.44018518235E+03  0.12699999809E+01 0. -1.
       -4    1    3    3    0  502 -0.32759320984E+03  0.21418965863E+03  0.64400536722E+01  0.39145575509E+03  0.12699999809E+01 0.  1.
</event>
<event>
 5   0  0.1146083E-02  0.7991756E+03  0.7818609E-02  0.9561211E-01
        1   -1    0    0  501    0  0.00000000000E+00  0.00000000000E+00  0.13397441816E+03  0.13397441826E+03  0.50400001928E-02 0. -1.
       -1   -1    0    0    0  501  0.00000000000E+00  0.00000000000E+00 -0.11917977687E+04  0.11917977687E+04  0.50400001928E-02 0.  1.
    10030    2    1    2    0    0  0.00000000000E+00  0.00000000000E+00 -0.10578233505E+04  0.13257721870E+04  0.79917560697E+03 0.  0.
        4    1    3    3  502    0 -0.22985790366E+03 -0.11250548925E+03 -0.19817270968E+02  0.25668361481E+03  0.12699999809E+01 0. -1.
       -4    1    3    3    0  502  0.22985790366E+03  0.11250548925E+03 -0.10380060796E+04  0.10690885721E+04  0.12699999809E+01 0.  1.
</event>
<event>
 5   0  0.1025900E-02  0.7927318E+03  0.7818609E-02  0.9570597E-01
        1   -1    0    0  501    0  0.00000000000E+00  0.00000000000E+00  0.59314669391E+03  0.59314669393E+03  0.50400001928E-02 0. -1.
       -1   -1    0    0    0  501  0.00000000000E+00  0.00000000000E+00 -0.26486860607E+03  0.26486860612E+03  0.50400001928E-02 0.  1.
    10030    2    1    2    0    0  0.00000000000E+00  0.00000000000E+00  0.32827808784E+03  0.85801530005E+03  0.79273182865E+03 0.  0.
        1    1    3    3  502    0  0.12025798180E+03  0.14472070362E+03 -0.21344514514E+03  0.28454330822E+03  0.50400001928E-02 0.  1.
       -1    1    3    3    0  502 -0.12025798180E+03 -0.14472070362E+03  0.54172323298E+03  0.57347199183E+03  0.50400001928E-02 0. -1.
</event>
<event>
 5   0  0.1049780E-02  0.8092586E+03  0.7818609E-02  0.9546712E-01
       -1   -1    0    0    0  501  0.00000000000E+00  0.00000000000E+00  0.71107036123E+03  0.71107036125E+03  0.50400001928E-02 0. -1.
        1   -1    0    0  501    0  0.00000000000E+00  0.00000000000E+00 -0.23025129601E+03  0.23025129607E+03  0.50400001928E-02 0.  1.
    10030    2    1    2    0    0  0.00000000000E+00  0.00000000000E+00  0.48081906522E+03  0.94132165732E+03  0.80925860456E+03 0.  0.
        5    1    3    3  502    0 -0.63510457056E+02 -0.15388630105E+03  0.66935428025E+03  0.68976214327E+03  0.46999998093E+01 0. -1.
       -5    1    3    3    0  502  0.63510457056E+02  0.15388630105E+03 -0.18853521503E+03  0.25155951405E+03  0.46999998093E+01 0.  1.
</event>
<event>
 5   0  0.1030323E-02  0.7926244E+03  0.7818609E-02  0.9570755E-01
        1   -1    0    0  501    0  0.00000000000E+00  0.00000000000E+00  0.58142537725E+03  0.58142537727E+03  0.50400001928E-02 0. -1.
       -1   -1    0    0    0  501  0.00000000000E+00  0.00000000000E+00 -0.27013502526E+03  0.27013502531E+03  0.50400001928E-02 0.  1.
    10030    2    1    2    0    0  0.00000000000E+00  0.00000000000E+00  0.31129035199E+03  0.85156040258E+03  0.79262439781E+03 0.  0.
        3    1    3    3  502    0 -0.34921344262E+03  0.87894232984E+02 -0.22153114194E+02  0.36078552544E+03  0.10100000352E+00 0.  1.
       -3    1    3    3    0  502  0.34921344262E+03 -0.87894232984E+02  0.33344346618E+03  0.49077487715E+03  0.10100000352E+00 0. -1.
</event>
<event>
 5   0  0.1817089E-02  0.7780053E+03  0.7818609E-02  0.9592411E-01
       -2   -1    0    0    0  501  0.00000000000E+00  0.00000000000E+00  0.16541522685E+03  0.16541522687E+03  0.25500000920E-02 0. -1.
        2   -1    0    0  501    0  0.00000000000E+00  0.00000000000E+00 -0.91480735006E+03  0.91480735006E+03  0.25500000920E-02 0.  1.
    10030    2    1    2    0    0  0.00000000000E+00  0.00000000000E+00 -0.74939212321E+03  0.10802225769E+04  0.77800530937E+03 0.  0.
        2    1    3    3  502    0 -0.12683151869E+03 -0.25241139089E+03 -0.74602653974E+03  0.79771758310E+03  0.25500000920E-02 0.  1.
       -2    1    3    3    0  502  0.12683151869E+03  0.25241139089E+03 -0.33655834634E+01  0.28250499384E+03  0.25500000920E-02 0. -1.
</event>
<event>
 5   0  0.1146083E-02  0.8086636E+03  0.7818609E-02  0.9547561E-01
        1   -1    0    0  501    0  0.00000000000E+00  0.00000000000E+00  0.47696277274E+03  0.47696277276E+03  0.50400001928E-02 0.  1.
       -1   -1    0    0    0  501  0.00000000000E+00  0.00000000000E+00 -0.34276092442E+03  0.34276092446E+03  0.50400001928E-02 0. -1.
    10030    2    1    2    0    0  0.00000000000E+00  0.00000000000E+00  0.13420184832E+03  0.81972369722E+03  0.80866359117E+03 0.  0.
        4    1    3    3  502    0 -0.33011858157E+03 -0.19957371449E+02 -0.16868743930E+03  0.37125953140E+03  0.12699999809E+01 0. -1.
       -4    1    3    3    0  502  0.33011858157E+03  0.19957371449E+02  0.30288928762E+03  0.44846416582E+03  0.12699999809E+01 0.  1.
</event>
<event>
 5   0  0.1673727E-02  0.8005271E+03  0.7818609E-02  0.9559254E-01
       -2   -1    0    0    0  501  0.00000000000E+00  0.00000000000E+00  0.21850438728E+03  0.21850438730E+03  0.25500000920E-02 0. -1.
        2   -1    0    0  501    0  0.00000000000E+00  0.00000000000E+00 -0.73321599607E+03  0.73321599608E+03  0.25500000920E-02 0.  1.
    10030    2    1    2    0    0  0.00000000000E+00  0.00000000000E+00 -0.51471160879E+03  0.95172038337E+03  0.80052710629E+03 0.  0.
        5    1    3    3  502    0  0.30821605448E+03  0.51745001342E+02  0.39894604988E+02  0.31510054095E+03  0.46999998093E+01 0. -1.
       -5    1    3    3    0  502 -0.30821605448E+03 -0.51745001342E+02 -0.55460621378E+03  0.63661984242E+03  0.46999998093E+01 0.  1.
</event>
<event>
 5   0  0.6872500E-03  0.7889307E+03  0.7818609E-02  0.9576179E-01
        3   -1    0    0  501    0  0.00000000000E+00  0.00000000000E+00  0.10193650951E+04  0.10193651001E+04  0.10100000352E+00 0. -1.
       -3   -1    0    0    0  501  0.00000000000E+00  0.00000000000E+00 -0.15264688172E+03  0.15264691513E+03  0.10100000352E+00 0.  1.
    10030    2    1    2    0    0  0.00000000000E+00  0.00000000000E+00  0.86671821340E+03  0.11720120153E+04  0.78893073363E+03 0.  0.
        3    1    3    3  502    0 -0.30076081373E+03 -0.79578081374E+02  0.79363110657E+03  0.85243186334E+03  0.10100000352E+00 0. -1.
       -3    1    3    3    0  502  0.30076081373E+03  0.79578081374E+02  0.73087106830E+02  0.31958015192E+03  0.10100000352E+00 0.  1.
</event>
<event>
 5   0  0.1731337E-02  0.7516513E+03  0.7818609E-02  0.9632763E-01
       -2   -1    0    0    0  501  0.00000000000E+00  0.00000000000E+00  0.18878089337E+03  0.18878089338E+03  0.25500000920E-02 0.  1.
        2   -1    0    0  501    0  0.00000000000E+00  0.00000000000E+00 -0.74819508831E+03  0.74819508831E+03  0.25500000920E-02 0. -1.
    10030    2    1    2    0    0  0.00000000000E+00  0.00000000000E+00 -0.55941419494E+03  0.93697598169E+03  0.75165134788E+03 0.  0.
        4    1    3    3  502    0 -0.93437079031E+02 -0.19760702410E+03  0.10138934792E+03  0.24095733333E+03  0.12699999809E+01 0.  1.
       -4    1    3    3    0  502  0.93437079031E+02  0.19760702410E+03 -0.66080354287E+03  0.69601864837E+03  0.12699999809E+01 0. -1.
</event>
<event>
 5   0  0.1025900E-02  0.7776052E+03  0.7818609E-02  0.9593011E-01
        1   -1    0    0  501    0  0.00000000000E+00  0.00000000000E+00  0.20167102577E+03  0.20167102584E+03  0.50400001928E-02 0.  1.
       -1   -1    0    0    0  501  0.00000000000E+00  0.00000000000E+00 -0.74957450098E+03  0.74957450100E+03  0.50400001928E-02 0. -1.
    10030    2    1    2    0    0  0.00000000000E+00  0.00000000000E+00 -0.54790347521E+03  0.95124552684E+03  0.77760519171E+03 0.  0.
        1    1    3    3  502    0 -0.19271705315E+02 -0.34225703019E+02  0.19923772626E+03  0.20307257068E+03  0.50400001928E-02 0.  1.
       -1    1    3    3    0  502  0.19271705315E+02  0.34225703019E+02 -0.74714120147E+03  0.74817295616E+03  0.50400001928E-02 0. -1.
</event>
<event>
 5   0  0.1673727E-02  0.7533333E+03  0.7818609E-02  0.9630135E-01
       -2   -1    0    0    0  501  0.00000000000E+00  0.00000000000E+00  0.69696652740E+03  0.69696652741E+03  0.25500000920E-02 0.  1.
        2   -1    0    0  501    0  0.00000000000E+00  0.00000000000E+00 -0.20356468353E+03  0.20356468355E+03  0.25500000920E-02 0. -1.
    10030    2    1    2    0    0  0.00000000000E+00  0.00000000000E+00  0.49340184387E+03  0.90053121096E+03  0.75333331426E+03 0.  0.
        5    1    3    3  502    0  0.62091785334E+01 -0.34485676206E+03  0.42756129106E+03  0.54935916106E+03  0.46999998093E+01 0. -1.
       -5    1    3    3    0  502 -0.62091785334E+01  0.34485676206E+03  0.65840552811E+02  0.35117204990E+03  0.46999998093E+01 0.  1.
</event>
<event>
 5   0  0.6872500E-03  0.7546504E+03  0.7818609E-02  0.9628083E-01
        3   -1    0    0  501    0  0.00000000000E+00  0.00000000000E+00  0.56206674463E+03  0.56206675371E+03  0.10100000352E+00 0.  1.
       -3   -1    0    0    0  501  0.00000000000E+00  0.00000000000E+00 -0.25330497600E+03  0.25330499614E+03  0.10100000352E+00 0. -1.
    10030    2    1    2    0    0  0.00000000000E+00  0.00000000000E+00  0.30876176863E+03  0.81537174984E+03  0.75465042283E+03 0.  0.
        1    1    3    3  502    0  0.30852080209E+03  0.21708200980E+03  0.14569468580E+03  0.40439661942E+03  0.50400001928E-02 0.  1.
       -1    1    3    3    0  502 -0.30852080209E+03 -0.21708200980E+03  0.16306708283E+03  0.41097513042E+03  0.50400001928E-02 0. -1.
</event>
<event>
 5   0  0.1747544E-02  0.7980035E+03  0.7818609E-02  0.9562911E-01
       -2   -1    0    0    0  501  0.00000000000E+00  0.00000000000E+00  0.10636595520E+03  0.10636595523E+03  0.25500000920E-02 0. -1.
        2   -1    0    0  501    0  0.00000000000E+00  0.00000000000E+00 -0.14967421407E+04  0.14967421407E+04  0.25500000920E-02 0.  1.
    10030    2    1    2    0    0  0.00000000000E+00  0.00000000000E+00 -0.13903761855E+04  0.16031080959E+04  0.79800352757E+03 0.  0.
        1    1    3    3  502    0 -0.10790015381E+03  0.17310100172E+03 -0.13840850790E+04  0.13990346336E+04  0.50400001928E-02 0.  1.
       -1    1    3    3    0  502  0.10790015381E+03 -0.17310100172E+03 -0.62911064837E+01  0.20407346234E+03  0.50400001928E-02 0. -1.
</event>
<event>
 5   0  0.1818665E-02  0.7971538E+03  0.7818609E-02  0.9564146E-01
        2   -1    0    0  501    0  0.00000000000E+00  0.00000000000E+00  0.57651560191E+03  0.57651560191E+03  0.25500000920E-02 0. -1.
       -2   -1    0    0    0  501  0.00000000000E+00  0.00000000000E+00 -0.27555810880E+03  0.27555810881E+03  0.25500000920E-02 0.  1.
    10030    2    1    2    0    0  0.00000000000E+00  0.00000000000E+00  0.30095749311E+03  0.85207371073E+03  0.79715380941E+03 0.  0.
        3    1    3    3  502    0 -0.28450218377E+01  0.39847389036E+03  0.14128355806E+03  0.42278906020E+03  0.10100000352E+00 0. -1.
       -3    1    3    3    0  502  0.28450218377E+01 -0.39847389036E+03  0.15967393504E+03  0.42928465053E+03  0.10100000352E+00 0.  1.
</event>
<event>
 5   0  0.1025900E-02  0.8000733E+03  0.7818609E-02  0.9559911E-01
        1   -1    0    0  501    0  0.00000000000E+00  0.00000000000E+00  0.93155154318E+03  0.93155154319E+03  0.50400001928E-02 0. -1.
       -1   -1    0    0    0  501  0.00000000000E+00  0.00000000000E+00 -0.17178794812E+03  0.17178794819E+03  0.50400001928E-02 0.  1.
    10030    2    1    2    0    0  0.00000000000E+00  0.00000000000E+00  0.75976359506E+03  0.11033394914E+04  0.80007331719E+03 0.  0.
        1    1    3    3  502    0 -0.17815054611E+02  0.12856542409E+03  0.90170685397E+03  0.91100038143E+03  0.50400001928E-02 0. -1.
       -1    1    3    3    0  502  0.17815054611E+02 -0.12856542409E+03 -0.14194325891E+03  0.19233910996E+03  0.50400001928E-02 0.  1.
</event>
<event>
 5   0  0.6872500E-03  0.7955376E+03  0.7818609E-02  0.9566499E-01
        4   -1    0    0  501    0  0.00000000000E+00  0.00000000000E+00  0.14079002849E+04  0.14079008577E+04  0.12699999809E+01 0.  1.
       -4   -1    0    0    0  501  0.00000000000E+00  0.00000000000E+00 -0.11237594127E+03  0.11238311740E+03  0.12699999809E+01 0. -1.
    10030    2    1    2    0    0  0.00000000000E+00  0.00000000000E+00  0.12955243437E+04  0.15202839751E+04  0.79553757928E+03 0.  0.
        5    1    3    3  502    0 -0.25206640056E+03 -0.28785905068E+03  0.44019380967E+03  0.58326064793E+03  0.46999998093E+01 0. -1.
       -5    1    3    3    0  502  0.25206640056E+03  0.28785905068E+03  0.85533053400E+03  0.93702332721E+03  0.46999998093E+01 0.  1.
</event>
<event>
 5   0  0.1747544E-02  0.8017200E+03  0.7818609E-02  0.9557531E-01
       -2   -1    0    0    0  501  0.00000000000E+00  0.00000000000E+00  0.57065364043E+03  0.57065364044E+03  0.25500000920E-02 0.  1.
        2   -1    0    0  501    0  0.00000000000E+00  0.00000000000E+00 -0.28158717894E+03  0.28158717895E+03  0.25500000920E-02 0. -1.
    10030    2    1    2    0    0  0.00000000000E+00  0.00000000000E+00  0.28906646149E+03  0.85224081938E+03  0.80172002287E+03 0.  0.
        1    1    3    3  502    0  0.56634246979E+01  0.63621165186E+02 -0.27614301521E+03  0.28343375225E+03  0.50400001928E-02 0. -1.
       -1    1    3    3    0  502 -0.56634246979E+01 -0.63621165186E+02  0.56520947670E+03  0.56880706713E+03  0.50400001928E-02 0.  1.
</event>
<event>
 5   0  0.1818665E-02  0.7947718E+03  0.7818609E-02  0.9567616E-01
       -2   -1    0    0    0  501  0.00000000000E+00  0.00000000000E+00  0.53698879677E+03  0.53698879678E+03  0.25500000920E-02 0. -1.
        2   -1    0    0  501    0  0.00000000000E+00  0.00000000000E+00 -0.29407603471E+03  0.29407603472E+03  0.25500000920E-02 0.  1.
    10030    2    1    2    0    0  0.00000000000E+00  0.00000000000E+00  0.24291276206E+03  0.83106483150E+03  0.79477175603E+03 0.  0.
        3    1    3    3  502    0  0.22401937822E+03  0.25307601123E+03 -0.97093502611E+02  0.35165225397E+03  0.10100000352E+00 0.  1.
       -3    1    3    3    0  502 -0.22401937822E+03 -0.25307601123E+03  0.34000626467E+03  0.47941257753E+03  0.10100000352E+00 0. -1.
</event>
<event>
 5   0  0.1049780E-02  0.7996564E+03  0.7818609E-02  0.9560515E-01
       -1   -1    0    0    0  501  0.00000000000E+00  0.00000000000E+00  0.46043319849E+03  0.46043319851E+03  0.50400001928E-02 0. -1.
        1   -1    0    0  501    0  0.00000000000E+00  0.00000000000E+00 -0.34720039892E+03  0.34720039895E+03  0.50400001928E-02 0.  1.
    10030    2    1    2    0    0  0.00000000000E+00  0.00000000000E+00  0.11323279957E+03  0.80763359747E+03  0.79965640175E+03 0.  0.
        5    1    3    3  502    0  0.29035852024E+03 -0.10392918251E+03  0.31357765014E+03  0.43984358347E+03  0.46999998093E+01 0. -1.
       -5    1    3    3    0  502 -0.29035852024E+03  0.10392918251E+03 -0.20034485056E+03  0.36779001400E+03  0.46999998093E+01 0.  1.
</event>
<event>
 5   0  0.1818665E-02  0.8053386E+03  0.7818609E-02  0.9552322E-01
        2   -1    0    0  501    0  0.00000000000E+00  0.00000000000E+00  0.31520697953E+03  0.31520697954E+03  0.25500000920E-02 0. -1.
       -2   -1    0    0    0  501  0.00000000000E+00  0.00000000000E+00 -0.51440034287E+03  0.51440034287E+03  0.25500000920E-02 0.  1.
    10030    2    1    2    0    0  0.00000000000E+00  0.00000000000E+00 -0.19919336334E+03  0.82960732241E+03  0.80533863275E+03 0.  0.
        3    1    3    3  502    0 -0.25802692282E+03  0.26668306479E+03  0.61463227360E+02  0.37613227522E+03  0.10100000352E+00 0. -1.
       -3    1    3    3    0  502  0.25802692282E+03 -0.26668306479E+03 -0.26065659070E+03  0.45347504719E+03  0.10100000352E+00 0.  1.
</event>
<event>
 5   0  0.1038912E-02  0.8010380E+03  0.7818609E-02  0.9558516E-01
       -1   -1    0    0    0  501  0.00000000000E+00  0.00000000000E+00  0.75674632497E+02  0.75674632665E+02  0.50400001928E-02 0. -1.
        1   -1    0    0  501    0  0.00000000000E+00  0.00000000000E+00 -0.21198051676E+04  0.21198051676E+04  0.50400001928E-02 0.  1.
    10030    2    1    2    0    0  0.00000000000E+00  0.00000000000E+00 -0.20441305351E+04  0.21954798003E+04  0.80103801961E+03 0.  0.
        2    1    3    3  502    0 -0.27389811448E+03  0.71475067189E+02 -0.24546436710E+03  0.37467534996E+03  0.25500000920E-02 0.  1.
       -2    1    3    3    0  502  0.27389811448E+03 -0.71475067189E+02 -0.17986661680E+04  0.18208044503E+04  0.25500000920E-02 0. -1.
</event>
<event>
 5   0  0.1146083E-02  0.7927043E+03  0.7818609E-02  0.9570638E-01
        1   -1    0    0  501    0  0.00000000000E+00  0.00000000000E+00  0.65540084153E+03  0.65540084155E+03  0.50400001928E-02 0. -1.
       -1   -1    0    0    0  501  0.00000000000E+00  0.00000000000E+00 -0.23969307600E+03  0.23969307606E+03  0.50400001928E-02 0.  1.
    10030    2    1    2    0    0  0.00000000000E+00  0.00000000000E+00  0.41570776553E+03  0.89509391761E+03  0.79270434275E+03 0.  0.
        4    1    3    3  502    0 -0.25401948475E+02 -0.22889142012E+03 -0.15639043775E+03  0.27838125495E+03  0.12699999809E+01 0.  1.
       -4    1    3    3    0  502  0.25401948475E+02  0.22889142012E+03  0.57209820328E+03  0.61671266266E+03  0.12699999809E+01 0. -1.
</event>
<event>
 5   0  0.1818665E-02  0.7990316E+03  0.7818609E-02  0.9561420E-01
        2   -1    0    0  501    0  0.00000000000E+00  0.00000000000E+00  0.11254174524E+04  0.11254174524E+04  0.25500000920E-02 0. -1.
       -2   -1    0    0    0  501  0.00000000000E+00  0.00000000000E+00 -0.14182547028E+03  0.14182547030E+03  0.25500000920E-02 0.  1.
    10030    2    1    2    0    0  0.00000000000E+00  0.00000000000E+00  0.98359198211E+03  0.12672429227E+04  0.79903156248E+03 0.  0.
        3    1    3    3  502    0 -0.73644439693E+02 -0.17206983638E+03  0.10515824630E+04  0.10681091792E+04  0.10100000352E+00 0. -1.
       -3    1    3    3    0  502  0.73644439693E+02  0.17206983638E+03 -0.67990480886E+02  0.19913374345E+03  0.10100000352E+00 0.  1.
</event>
<event>
 5   0  0.1030323E-02  0.8100167E+03  0.7818609E-02  0.9545630E-01
        1   -1    0    0  501    0  0.00000000000E+00  0.00000000000E+00  0.85453370555E+03  0.85453370557E+03  0.50400001928E-02 0. -1.
       -1   -1    0    0    0  501  0.00000000000E+00  0.00000000000E+00 -0.19195471841E+03  0.19195471848E+03  0.50400001928E-02 0.  1.
    10030    2    1    2    0    0  0.00000000000E+00  0.00000000000E+00  0.66257898714E+03  0.10464884240E+04  0.81001673282E+03 0.  0.
        3    1    3    3  502    0  0.12449994245E+03 -0.41421013162E+02  0.82631420767E+03  0.83666666958E+03  0.10100000352E+00 0. -1.
       -3    1    3    3    0  502 -0.12449994245E+03  0.41421013162E+02 -0.16373522053E+03  0.20982175446E+03  0.10100000352E+00 0.  1.
</event>
<event>
 5   0  0.1025900E-02  0.8033230E+03  0.7818609E-02  0.9555220E-01
       -1   -1    0    0    0  501  0.00000000000E+00  0.00000000000E+00  0.17664819431E+03  0.17664819438E+03  0.50400001928E-02 0.  1.
        1   -1    0    0  501    0  0.00000000000E+00  0.00000000000E+00 -0.91329527229E+03  0.91329527231E+03  0.50400001928E-02 0. -1.
    10030    2    1    2    0    0  0.00000000000E+00  0.00000000000E+00 -0.73664707798E+03  0.10899434667E+04  0.80332300047E+03 0.  0.
        1    1    3    3  502    0  0.20925387599E+02  0.29518311987E+02  0.17443247783E+03  0.17814570423E+03  0.50400001928E-02 0.  1.
       -1    1    3    3    0  502 -0.20925387599E+02 -0.29518311987E+02 -0.91107955581E+03  0.91179776246E+03  0.50400001928E-02 0. -1.
</event>
<event>
 5   0  0.1146083E-02  0.7963185E+03  0.7818609E-02  0.9565361E-01
       -1   -1    0    0    0  501  0.00000000000E+00  0.00000000000E+00  0.53609986043E+03  0.53609986046E+03  0.50400001928E-02 0.  1.
        1   -1    0    0  501    0  0.00000000000E+00  0.00000000000E+00 -0.29571131805E+03  0.29571131810E+03  0.50400001928E-02 0. -1.
    10030    2    1    2    0    0  0.00000000000E+00  0.00000000000E+00  0.24038854238E+03  0.83181117855E+03  0.79631852010E+03 0.  0.
        4    1    3    3  502    0 -0.92646706795E+02 -0.38850257881E+01  0.52466135918E+03  0.53279420082E+03  0.12699999809E+01 0.  1.
       -4    1    3    3    0  502  0.92646706795E+02  0.38850257881E+01 -0.28427281680E+03  0.29901697774E+03  0.12699999809E+01 0. -1.
</event>
<event>
 5   0  0.1817089E-02  0.7972486E+03  0.7818609E-02  0.9564008E-01
       -2   -1    0    0    0  501  0.00000000000E+00  0.00000000000E+00  0.25480480787E+03  0.25480480788E+03  0.25500000920E-02 0.  1.
        2   -1    0    0  501    0  0.00000000000E+00  0.00000000000E+00 -0.62361989880E+03  0.62361989880E+03  0.25500000920E-02 0. -1.
    10030    2    1    2    0    0  0.00000000000E+00  0.00000000000E+00 -0.36881509093E+03  0.87842470668E+03  0.79724864002E+03 0.  0.
        2    1    3    3  502    0  0.12586428218E+03  0.37823197006E+03 -0.18404580106E+03  0.43906047146E+03  0.25500000920E-02 0. -1.
       -2    1    3    3    0  502 -0.12586428218E+03 -0.37823197006E+03 -0.18476928987E+03  0.43936423522E+03  0.25500000920E-02 0.  1.
</event>
<event>
 5   0  0.1817089E-02  0.7912243E+03  0.7818609E-02  0.9572807E-01
       -2   -1    0    0    0  501  0.00000000000E+00  0.00000000000E+00  0.25336556570E+03  0.25336556571E+03  0.25500000920E-02 0. -1.
        2   -1    0    0  501    0  0.00000000000E+00  0.00000000000E+00 -0.61772002788E+03  0.61772002788E+03  0.25500000920E-02 0.  1.
    10030    2    1    2    0    0  0.00000000000E+00  0.00000000000E+00 -0.36435446218E+03  0.87108559359E+03  0.79122432802E+03 0.  0.
        2    1    3    3  502    0  0.33015796626E+03 -0.19069042667E+03 -0.65968140597E+02  0.38693528798E+03  0.25500000920E-02 0. -1.
       -2    1    3    3    0  502 -0.33015796626E+03  0.19069042667E+03 -0.29838632158E+03  0.48415030561E+03  0.25500000920E-02 0.  1.
</event>
<event>
 5   0  0.1817089E-02  0.8062689E+03  0.7818609E-02  0.9550987E-01
       -2   -1    0    0    0  501  0.00000000000E+00  0.00000000000E+00  0.11850217606E+03  0.11850217609E+03  0.25500000920E-02 0. -1.
        2   -1    0    0  501    0  0.00000000000E+00  0.00000000000E+00 -0.13714295297E+04  0.13714295297E+04  0.25500000920E-02 0.  1.
    10030    2    1    2    0    0  0.00000000000E+00  0.00000000000E+00 -0.12529273537E+04  0.14899317058E+04  0.80626889710E+03 0.  0.
        2    1    3    3  502    0  0.49238665196E+02 -0.16123630183E+03 -0.13031603337E+04  0.13140199567E+04  0.25500000920E-02 0.  1.
       -2    1    3    3    0  502 -0.49238665196E+02  0.16123630183E+03  0.50232980087E+02  0.17591174910E+03  0.25500000920E-02 0. -1.
</event>
<event>
 5   0  0.1038912E-02  0.8049478E+03  0.7818609E-02  0.9552883E-01
       -1   -1    0    0    0  501  0.00000000000E+00  0.00000000000E+00  0.32234988592E+03  0.32234988596E+03  0.50400001928E-02 0. -1.
        1   -1    0    0  501    0  0.00000000000E+00  0.00000000000E+00 -0.50251372875E+03  0.50251372878E+03  0.50400001928E-02 0.  1.
    10030    2    1    2    0    0  0.00000000000E+00  0.00000000000E+00 -0.18016384284E+03  0.82486361473E+03  0.80494780741E+03 0.  0.
        2    1    3    3  502    0 -0.16123935826E+03  0.37906651146E+02 -0.46596830725E+03  0.49453160488E+03  0.25500000920E-02 0.  1.
       -2    1    3    3    0  502  0.16123935826E+03 -0.37906651146E+02  0.28580446441E+03  0.33033200986E+03  0.25500000920E-02 0. -1.
</event>
<event>
 5   0  0.1146083E-02  0.7896648E+03  0.7818609E-02  0.9575099E-01
       -1   -1    0    0    0  501  0.00000000000E+00  0.00000000000E+00  0.19822685122E+03  0.19822685128E+03  0.50400001928E-02 0. -1.
        1   -1    0    0  501    0  0.00000000000E+00  0.00000000000E+00 -0.78643537528E+03  0.78643537529E+03  0.50400001928E-02 0.  1.
    10030    2    1    2    0    0  0.00000000000E+00  0.00000000000E+00 -0.58820852406E+03  0.98466222658E+03  0.78966475967E+03 0.  0.
        4    1    3    3  502    0  0.88278939908E+02 -0.49513890076E+02 -0.76998058573E+03  0.77660576346E+03  0.12699999809E+01 0.  1.
       -4    1    3    3    0  502 -0.88278939908E+02  0.49513890076E+02  0.18177206167E+03  0.20805646312E+03  0.12699999809E+01 0. -1.
</event>
<event>
 5   0  0.1030323E-02  0.8122097E+03  0.7818609E-02  0.9542510E-01
        1   -1    0    0  501    0  0.00000000000E+00  0.00000000000E+00  0.25594391299E+03  0.25594391304E+03  0.50400001928E-02 0. -1.
       -1   -1    0    0    0  501  0.00000000000E+00  0.00000000000E+00 -0.64436435650E+03  0.64436435652E+03  0.50400001928E-02 0.  1.
    10030    2    1    2    0    0  0.00000000000E+00  0.00000000000E+00 -0.38842044352E+03  0.90030826956E+03  0.81220966462E+03 0.  0.
        3    1    3    3  502    0  0.11125868895E+03  0.16875350196E+03 -0.58464412620E+03  0.61859922793E+03  0.10100000352E+00 0.  1.
       -3    1    3    3    0  502 -0.11125868895E+03 -0.16875350196E+03  0.19622368269E+03  0.28170904163E+03  0.10100000352E+00 0. -1.
</event>
<event>
 5   0  0.1673727E-02  0.8004049E+03  0.7818609E-02  0.9559431E-01
        2   -1    0    0  501    0  0.00000000000E+00  0.00000000000E+00  0.96461425614E+03  0.96461425614E+03  0.25500000920E-02 0.  1.
       -2   -1    0    0    0  501  0.00000000000E+00  0.00000000000E+00 -0.16603735935E+03  0.16603735937E+03  0.25500000920E-02 0. -1.
    10030    2    1    2    0    0  0.00000000000E+00  0.00000000000E+00  0.79857689679E+03  0.11306516155E+04  0.80040490726E+03 0.  0.
        5    1    3    3  502    0 -0.80615722746E+02  0.31202405648E+03  0.73441115439E+03  0.80202228165E+03  0.46999998093E+01 0.  1.
       -5    1    3    3    0  502  0.80615722746E+02 -0.31202405648E+03  0.64165742400E+02  0.32862933386E+03  0.46999998093E+01 0. -1.
</event>
<event>
 5   0  0.1146083E-02  0.7956364E+03  0.7818609E-02  0.9566355E-01
        1   -1    0    0  501    0  0.00000000000E+00  0.00000000000E+00  0.37802383252E+03  0.37802383256E+03  0.50400001928E-02 0.  1.
       -1   -1    0    0    0  501  0.00000000000E+00  0.00000000000E+00 -0.41864902440E+03  0.41864902443E+03  0.50400001928E-02 0. -1.
    10030    2    1    2    0    0  0.00000000000E+00  0.00000000000E+00 -0.40625191881E+02  0.79667285699E+03  0.79563637099E+03 0.  0.
        4    1    3    3  502    0 -0.22161819779E+03  0.71389308018E+01 -0.35103381158E+03  0.41520108345E+03  0.12699999809E+01 0. -1.
       -4    1    3    3    0  502  0.22161819779E+03 -0.71389308018E+01  0.31040861970E+03  0.38147177354E+03  0.12699999809E+01 0.  1.
</event>
<event>
 5   0  0.1673727E-02  0.7947521E+03  0.7818609E-02  0.9567644E-01
        2   -1    0    0  501    0  0.00000000000E+00  0.00000000000E+00  0.78340032794E+03  0.78340032795E+03  0.25500000920E-02 0.  1.
       -2   -1    0    0    0  501  0.00000000000E+00  0.00000000000E+00 -0.20156709317E+03  0.20156709318E+03  0.25500000920E-02 0. -1.
    10030    2    1    2    0    0  0.00000000000E+00  0.00000000000E+00  0.58183323478E+03  0.98496742113E+03  0.79475210449E+03 0.  0.
        5    1    3    3  502    0 -0.11138620107E+03  0.17891856141E+03  0.70838613810E+03  0.73908845753E+03  0.46999998093E+01 0.  1.
       -5    1    3    3    0  502  0.11138620107E+03 -0.17891856141E+03 -0.12655290332E+03  0.24587896360E+03  0.46999998093E+01 0. -1.
</event>
<event>
 5   0  0.1146083E-02  0.7968223E+03  0.7818609E-02  0.9564628E-01
       -1   -1    0    0    0  501  0.00000000000E+00  0.00000000000E+00  0.45983604049E+03  0.45983604051E+03  0.50400001928E-02 0.  1.
        1   -1    0    0  501    0  0.00000000000E+00  0.00000000000E+00 -0.34519137571E+03  0.34519137575E+03  0.50400001928E-02 0. -1.
    10030    2    1    2    0    0  0.00000000000E+00  0.00000000000E+00  0.11464466478E+03  0.80502741626E+03  0.79682227740E+03 0.  0.
        4    1    3    3  502    0 -0.13858752002E+03  0.36187219603E+03  0.15085991021E+03  0.41583447713E+03  0.12699999809E+01 0. -1.
       -4    1    3    3    0  502  0.13858752002E+03 -0.36187219603E+03 -0.36215245434E+02  0.38919293913E+03  0.12699999809E+01 0.  1.
</event>
<event>
 5   0  0.1049780E-02  0.8145296E+03  0.7818609E-02  0.9539221E-01
        1   -1    0    0  501    0  0.00000000000E+00  0.00000000000E+00  0.10424895207E+04  0.10424895207E+04  0.50400001928E-02 0.  1.
       -1   -1    0    0    0  501  0.00000000000E+00  0.00000000000E+00 -0.15910433264E+03  0.15910433272E+03  0.50400001928E-02 0. -1.
    10030    2    1    2    0    0  0.00000000000E+00  0.00000000000E+00  0.88338518807E+03  0.12015938534E+04  0.81452955632E+03 0.  0.
        5    1    3    3  502    0 -0.29649102341E+03  0.11689996899E+03  0.81567823846E+03  0.87574288944E+03  0.46999998093E+01 0. -1.
       -5    1    3    3    0  502  0.29649102341E+03 -0.11689996899E+03  0.67706949608E+02  0.32585096400E+03  0.46999998093E+01 0.  1.
</event>
<event>
 5   0  0.1030323E-02  0.7958156E+03  0.7818609E-02  0.9566094E-01
       -1   -1    0    0    0  501  0.00000000000E+00  0.00000000000E+00  0.14254873330E+03  0.14254873339E+03  0.50400001928E-02 0.  1.
        1   -1    0    0  501    0  0.00000000000E+00  0.00000000000E+00 -0.11107122167E+04  0.11107122167E+04  0.50400001928E-02 0. -1.
    10030    2    1    2    0    0  0.00000000000E+00  0.00000000000E+00 -0.96816348337E+03  0.12532609501E+04  0.79581560581E+03 0.  0.
        3    1    3    3  502    0  0.20409704929E+03 -0.26258219867E+03 -0.82811840136E+03  0.89240412004E+03  0.10100000352E+00 0. -1.
       -3    1    3    3    0  502 -0.20409704929E+03  0.26258219867E+03 -0.14004508201E+03  0.36085683004E+03  0.10100000352E+00 0.  1.
</event>
<event>
 5   0  0.1025900E-02  0.8013241E+03  0.7818609E-02  0.9558102E-01
       -1   -1    0    0    0  501  0.00000000000E+00  0.00000000000E+00  0.26350060454E+03  0.26350060459E+03  0.50400001928E-02 0. -1.
        1   -1    0    0  501    0  0.00000000000E+00  0.00000000000E+00 -0.60922097850E+03  0.60922097852E+03  0.50400001928E-02 0.  1.
    10030    2    1    2    0    0  0.00000000000E+00  0.00000000000E+00 -0.34572037396E+03  0.87272158311E+03  0.80132414456E+03 0.  0.
        1    1    3    3  502    0  0.13427711832E+02 -0.11458583522E+03 -0.59073935010E+03  0.60189965680E+03  0.50400001928E-02 0.  1.
       -1    1    3    3    0  502 -0.13427711832E+02  0.11458583522E+03  0.24501897614E+03  0.27082192631E+03  0.50400001928E-02 0. -1.
</event>
<event>
 5   0  0.1731337E-02  0.8026641E+03  0.7818609E-02  0.9556169E-01
        2   -1    0    0  501    0  0.00000000000E+00  0.00000000000E+00  0.15901654111E+04  0.15901654111E+04  0.25500000920E-02 0. -1.
       -2   -1    0    0    0  501  0.00000000000E+00  0.00000000000E+00 -0.10128973095E+03  0.10128973098E+03  0.25500000920E-02 0.  1.
    10030    2    1    2    0    0  0.00000000000E+00  0.00000000000E+00  0.14888756802E+04  0.16914551421E+04  0.80266413072E+03 0.  0.
        4    1    3    3  502    0  0.32158539636E+03  0.23345117418E+03  0.62618094609E+03  0.74163387735E+03  0.12699999809E+01 0.  1.
       -4    1    3    3    0  502 -0.32158539636E+03 -0.23345117418E+03  0.86269473407E+03  0.94982126475E+03  0.12699999809E+01 0. -1.
</event>
<event>
 5   0  0.1817089E-02  0.8017821E+03  0.7818609E-02  0.9557441E-01
       -2   -1    0    0    0  501  0.00000000000E+00  0.00000000000E+00  0.56823560152E+03  0.56823560152E+03  0.25500000920E-02 0.  1.
        2   -1    0    0  501    0  0.00000000000E+00  0.00000000000E+00 -0.28282925006E+03  0.28282925007E+03  0.25500000920E-02 0. -1.
    10030    2    1    2    0    0  0.00000000000E+00  0.00000000000E+00  0.28540635145E+03  0.85106485160E+03  0.80178213760E+03 0.  0.
        2    1    3    3  502    0 -0.16254309200E+03 -0.66665697667E+02 -0.23979177960E+03  0.29726195446E+03  0.25500000920E-02 0. -1.
       -2    1    3    3    0  502  0.16254309200E+03  0.66665697667E+02  0.52519813105E+03  0.55380289713E+03  0.25500000920E-02 0.  1.
</event>
<event>
 5   0  0.1030323E-02  0.8004793E+03  0.7818609E-02  0.9559324E-01
        1   -1    0    0  501    0  0.00000000000E+00  0.00000000000E+00  0.12694984765E+04  0.12694984765E+04  0.50400001928E-02 0.  1.
       -1   -1    0    0    0  501  0.00000000000E+00  0.00000000000E+00 -0.12618509594E+03  0.12618509604E+03  0.50400001928E-02 0. -1.
    10030    2    1    2    0    0  0.00000000000E+00  0.00000000000E+00  0.11433133805E+04  0.13956835725E+04  0.80047932422E+03 0.  0.
        3    1    3    3  502    0 -0.28034076716E+03 -0.11837693623E+03  0.10249411030E+04  0.10691624384E+04  0.10100000352E+00 0.  1.
       -3    1    3    3    0  502  0.28034076716E+03  0.11837693623E+03  0.11837227751E+03  0.32652113415E+03  0.10100000352E+00 0. -1.
</event>
<event>
 5   0  0.1818665E-02  0.7960141E+03  0.7818609E-02  0.9565804E-01
        2   -1    0    0  501    0  0.00000000000E+00  0.00000000000E+00  0.64816978415E+03  0.64816978415E+03  0.25500000920E-02 0.  1.
       -2   -1    0    0    0  501  0.00000000000E+00  0.00000000000E+00 -0.24439527326E+03  0.24439527328E+03  0.25500000920E-02 0. -1.
    10030    2    1    2    0    0  0.00000000000E+00  0.00000000000E+00  0.40377451088E+03  0.89256505743E+03  0.79601414944E+03 0.  0.
        3    1    3    3  502    0  0.89136371634E+02  0.11306730439E+03 -0.21417153350E+03  0.25806775086E+03  0.10100000352E+00 0. -1.
       -3    1    3    3    0  502 -0.89136371634E+02 -0.11306730439E+03  0.61794604439E+03  0.63449730657E+03  0.10100000352E+00 0.  1.
</event>
<event>
 5   0  0.1025900E-02  0.7950022E+03  0.7818609E-02  0.9567279E-01
        1   -1    0    0  501    0  0.00000000000E+00  0.00000000000E+00  0.15250161809E+04  0.15250161809E+04  0.50400001928E-02 0.  1.
       -1   -1    0    0    0  501  0.00000000000E+00  0.00000000000E+00 -0.10361013400E+03  0.10361013412E+03  0.50400001928E-02 0. -1.
    10030    2    1    2    0    0  0.00000000000E+00  0.00000000000E+00  0.14214060469E+04  0.16286263151E+04  0.79500221625E+03 0.  0.
        1    1    3    3  502    0  0.74024550600E+02  0.38986313920E+03  0.66335334254E+03  0.77298807137E+03  0.50400001928E-02 0.  1.
       -1    1    3    3    0  502 -0.74024550600E+02 -0.38986313920E+03  0.75805270439E+03  0.85563824368E+03  0.50400001928E-02 0. -1.
</event>
<event>
 5   0  0.1146083E-02  0.8084009E+03  0.7818609E-02  0.9547936E-01
        1   -1    0    0  501    0  0.00000000000E+00  0.00000000000E+00  0.16456336359E+04  0.16456336359E+04  0.50400001928E-02 0.  1.
       -1   -1    0    0    0  501  0.00000000000E+00  0.00000000000E+00 -0.99279691790E+02  0.99279691918E+02  0.50400001928E-02 0. -1.
    10030    2    1    2    0    0  0.00000000000E+00  0.00000000000E+00  0.15463539441E+04  0.17449133278E+04  0.80840089136E+03 0.  0.
        4    1    3    3  502    0  0.48231715854E+02  0.86933048580E+02 -0.72473678065E+02  0.12303536183E+03  0.12699999809E+01 0. -1.
       -4    1    3    3    0  502 -0.48231715854E+02 -0.86933048580E+02  0.16188276222E+04  0.16218779660E+04  0.12699999809E+01 0.  1.
</event>
<event>
 5   0  0.1049780E-02  0.8100750E+03  0.7818609E-02  0.9545547E-01
       -1   -1    0    0    0  501  0.00000000000E+00  0.00000000000E+00  0.28057730997E+03  0.28057731001E+03  0.50400001928E-02 0. -1.
        1   -1    0    0  501    0  0.00000000000E+00  0.00000000000E+00 -0.58470654282E+03  0.58470654284E+03  0.50400001928E-02 0.  1.
    10030    2    1    2    0    0  0.00000000000E+00  0.00000000000E+00 -0.30412923285E+03  0.86528385285E+03  0.81007503093E+03 0.  0.
        5    1    3    3  502    0 -0.25416540044E+03 -0.27570457105E+03  0.11401973231E+02  0.37518682849E+03  0.46999998093E+01 0. -1.
       -5    1    3    3    0  502  0.25416540044E+03  0.27570457105E+03 -0.31553120608E+03  0.49009702436E+03  0.46999998093E+01 0.  1.
</event>
<event>
 5   0  0.1818665E-02  0.8160165E+03  0.7818609E-02  0.9537119E-01
        2   -1    0    0  501    0  0.00000000000E+00  0.00000000000E+00  0.10442939136E+04  0.10442939136E+04  0.25500000920E-02 0.  1.
       -2   -1    0    0    0  501  0.00000000000E+00  0.00000000000E+00 -0.15940983087E+03  0.15940983089E+03  0.25500000920E-02 0. -1.
    10030    2    1    2    0    0  0.00000000000E+00  0.00000000000E+00  0.88488408275E+03  0.12037037445E+04  0.81601646101E+03 0.  0.
        3    1    3    3  502    0 -0.27287783630E+03  0.14042776515E+03  0.83904422756E+03  0.89340779982E+03  0.10100000352E+00 0.  1.
       -3    1    3    3    0  502  0.27287783630E+03 -0.14042776515E+03  0.45839855188E+02  0.31029594469E+03  0.10100000352E+00 0. -1.
</event>
<event>
 5   0  0.1025900E-02  0.7960848E+03  0.7818609E-02  0.9565702E-01
        1   -1    0    0  501    0  0.00000000000E+00  0.00000000000E+00  0.84304399084E+03  0.84304399085E+03  0.50400001928E-02 0.  1.
       -1   -1    0    0    0  501  0.00000000000E+00  0.00000000000E+00 -0.18793530992E+03  0.18793530999E+03  0.50400001928E-02 0. -1.
    10030    2    1    2    0    0  0.00000000000E+00  0.00000000000E+00  0.65510868092E+03  0.10309793008E+04  0.79608475363E+03 0.  0.
        1    1    3    3  502    0 -0.21830601302E+03 -0.24293937623E+03  0.62219360181E+03  0.70271041973E+03  0.50400001928E-02 0.  1.
       -1    1    3    3    0  502  0.21830601302E+03  0.24293937623E+03  0.32915079108E+02  0.32826888111E+03  0.50400001928E-02 0. -1.
</event>
<event>
 5   0  0.1747544E-02  0.7712729E+03  0.7818609E-02  0.9602555E-01
        2   -1    0    0  501    0  0.00000000000E+00  0.00000000000E+00  0.16069824197E+04  0.16069824197E+04  0.25500000920E-02 0.  1.
       -2   -1    0    0    0  501  0.00000000000E+00  0.00000000000E+00 -0.92543301068E+02  0.92543301103E+02  0.25500000920E-02 0. -1.
    10030    2    1    2    0    0  0.00000000000E+00  0.00000000000E+00  0.15144391186E+04  0.16995257208E+04  0.77127286457E+03 0.  0.
        1    1    3    3  502    0  0.14526169375E+02  0.24170130819E+03  0.14185914799E+04  0.14391081679E+04  0.50400001928E-02 0.  1.
       -1    1    3    3    0  502 -0.14526169375E+02 -0.24170130819E+03  0.95847638665E+02  0.26041755286E+03  0.50400001928E-02 0. -1.
</event>
<event>
 5   0  0.1146083E-02  0.8096014E+03  0.7818609E-02  0.9546222E-01
        1   -1    0    0  501    0  0.00000000000E+00  0.00000000000E+00  0.35602793388E+03  0.35602793391E+03  0.50400001928E-02 0. -1.
       -1   -1    0    0    0  501  0.00000000000E+00  0.00000000000E+00 -0.46025496135E+03  0.46025496138E+03  0.50400001928E-02 0.  1.
    10030    2    1    2    0    0  0.00000000000E+00  0.00000000000E+00 -0.10422702748E+03  0.81628289529E+03  0.80960144015E+03 0.  0.
        4    1    3    3  502    0  0.99490481852E+02 -0.16766406251E+03 -0.40979808165E+03  0.45381237803E+03  0.12699999809E+01 0.  1.
       -4    1    3    3    0  502 -0.99490481852E+02  0.16766406251E+03  0.30557105417E+03  0.36247051726E+03  0.12699999809E+01 0. -1.
</event>
<event>
 5   0  0.1049780E-02  0.7989373E+03  0.7818609E-02  0.9561557E-01
       -1   -1    0    0    0  501  0.00000000000E+00  0.00000000000E+00  0.19109770112E+03  0.19109770118E+03  0.50400001928E-02 0.  1.
        1   -1    0    0  501    0  0.00000000000E+00  0.00000000000E+00 -0.83504519691E+03  0.83504519693E+03  0.50400001928E-02 0. -1.
    10030    2    1    2    0    0  0.00000000000E+00  0.00000000000E+00 -0.64394749580E+03  0.10261428981E+04  0.79893733797E+03 0.  0.
        5    1    3    3  502    0 -0.80774880176E+02  0.37375092459E+03 -0.47031207797E+03  0.60615994225E+03  0.46999998093E+01 0. -1.
       -5    1    3    3    0  502  0.80774880176E+02 -0.37375092459E+03 -0.17363541782E+03  0.41998295586E+03  0.46999998093E+01 0.  1.
</event>
<event>
 5   0  0.1038912E-02  0.8002583E+03  0.7818609E-02  0.9559643E-01
        1   -1    0    0  501    0  0.00000000000E+00  0.00000000000E+00  0.45846113418E+03  0.45846113420E+03  0.50400001928E-02 0.  1.
       -1   -1    0    0    0  501  0.00000000000E+00  0.00000000000E+00 -0.34921895250E+03  0.34921895253E+03  0.50400001928E-02 0. -1.
    10030    2    1    2    0    0  0.00000000000E+00  0.00000000000E+00  0.10924218168E+03  0.80768008674E+03  0.80025825098E+03 0.  0.
        2    1    3    3  502    0  0.69317011238E+02  0.31130353235E+03 -0.18925721574E+03  0.37085446070E+03  0.25500000920E-02 0. -1.
       -2    1    3    3    0  502 -0.69317011238E+02 -0.31130353235E+03  0.29849939742E+03  0.43682562604E+03  0.25500000920E-02 0.  1.
</event>
<event>
 5   0  0.1038912E-02  0.7941073E+03  0.7818609E-02  0.9568586E-01
        1   -1    0    0  501    0  0.00000000000E+00  0.00000000000E+00  0.26569085577E+03  0.26569085582E+03  0.50400001928E-02 0.  1.
       -1   -1    0    0    0  501  0.00000000000E+00  0.00000000000E+00 -0.59336477563E+03  0.59336477565E+03  0.50400001928E-02 0. -1.
    10030    2    1    2    0    0  0.00000000000E+00  0.00000000000E+00 -0.32767391986E+03  0.85905563147E+03  0.79410728507E+03 0.  0.
        2    1    3    3  502    0  0.47606895814E+02 -0.10518130885E+03 -0.57480541215E+03  0.58628558409E+03  0.25500000920E-02 0. -1.
       -2    1    3    3    0  502 -0.47606895814E+02  0.10518130885E+03  0.24713149229E+03  0.27277004738E+03  0.25500000920E-02 0.  1.
</event>
<event>
 5   0  0.1049780E-02  0.8025509E+03  0.7818609E-02  0.9556332E-01
        1   -1    0    0  501    0  0.00000000000E+00  0.00000000000E+00  0.58281632170E+03  0.58281632172E+03  0.50400001928E-02 0. -1.
       -1   -1    0    0    0  501  0.00000000000E+00  0.00000000000E+00 -0.27628257731E+03  0.27628257736E+03  0.50400001928E-02 0.  1.
    10030    2    1    2    0    0  0.00000000000E+00  0.00000000000E+00  0.30653374439E+03  0.85909889908E+03  0.80255092172E+03 0.  0.
        5    1    3    3  502    0  0.14582881641E+03 -0.30833557330E+03 -0.72960257521E+02  0.34882969862E+03  0.46999998093E+01 0.  1.
       -5    1    3    3    0  502 -0.14582881641E+03  0.30833557330E+03  0.37949400191E+03  0.51026920047E+03  0.46999998093E+01 0. -1.
</event>
<event>
 5   0  0.1817089E-02  0.7910556E+03  0.7818609E-02  0.9573055E-01
       -2   -1    0    0    0  501  0.00000000000E+00  0.00000000000E+00  0.22301191459E+03  0.22301191460E+03  0.25500000920E-02 0. -1.
        2   -1    0    0  501    0  0.00000000000E+00  0.00000000000E+00 -0.70149727890E+03  0.70149727890E+03  0.25500000920E-02 0.  1.
    10030    2    1    2    0    0  0.00000000000E+00  0.00000000000E+00 -0.47848536431E+03  0.92450919350E+03  0.79105562700E+03 0.  0.
        2    1    3    3  502    0 -0.23772248074E+03 -0.25094855577E+03 -0.46391076328E+03  0.57853293060E+03  0.25500000920E-02 0.  1.
       -2    1    3    3    0  502  0.23772248074E+03  0.25094855577E+03 -0.14574601027E+02  0.34597626290E+03  0.25500000920E-02 0. -1.
</event>
<event>
 5   0  0.1025900E-02  0.8842827E+03  0.7818609E-02  0.9445445E-01
       -1   -1    0    0    0  501  0.00000000000E+00  0.00000000000E+00  0.15870143580E+03  0.15870143588E+03  0.50400001928E-02 0.  1.
        1   -1    0    0  501    0  0.00000000000E+00  0.00000000000E+00 -0.12318033099E+04  0.12318033099E+04  0.50400001928E-02 0. -1.
    10030    2    1    2    0    0  0.00000000000E+00  0.00000000000E+00 -0.10731018741E+04  0.13905047458E+04  0.88428265610E+03 0.  0.
        1    1    3    3  502    0  0.31019914413E+03 -0.25150824851E+03 -0.23815893706E+03  0.46497267384E+03  0.50400001928E-02 0.  1.
       -1    1    3    3    0  502 -0.31019914413E+03  0.25150824851E+03 -0.83494293706E+03  0.92553207198E+03  0.50400001928E-02 0. -1.
</event>
<event>
 5   0  0.1025900E-02  0.8061506E+03  0.7818609E-02  0.9551157E-01
       -1   -1    0    0    0  501  0.00000000000E+00  0.00000000000E+00  0.12222367084E+03  0.12222367095E+03  0.50400001928E-02 0. -1.
        1   -1    0    0  501    0  0.00000000000E+00  0.00000000000E+00 -0.13292816693E+04  0.13292816694E+04  0.50400001928E-02 0.  1.
    10030    2    1    2    0    0  0.00000000000E+00  0.00000000000E+00 -0.12070579985E+04  0.14515053403E+04  0.80615056979E+03 0.  0.
        1    1    3    3  502    0 -0.27503517140E+02 -0.29176301818E+03 -0.10523959214E+03  0.31137995121E+03  0.50400001928E-02 0. -1.
       -1    1    3    3    0  502  0.27503517140E+02  0.29176301818E+03 -0.11018184064E+04  0.11401253891E+04  0.50400001928E-02 0.  1.
</event>
<event>
 5   0  0.1025900E-02  0.7780565E+03  0.7818609E-02  0.9592334E-01
       -1   -1    0    0    0  501  0.00000000000E+00  0.00000000000E+00  0.28312857701E+03  0.28312857705E+03  0.50400001928E-02 0. -1.
        1   -1    0    0  501    0  0.00000000000E+00  0.00000000000E+00 -0.53453796094E+03  0.53453796097E+03  0.50400001928E-02 0.  1.
    10030    2    1    2    0    0  0.00000000000E+00  0.00000000000E+00 -0.25140938393E+03  0.81766653802E+03  0.77805648193E+03 0.  0.
        1    1    3    3  502    0  0.24478946181E+03 -0.29423069643E+03 -0.52521961806E+02  0.38633164488E+03  0.50400001928E-02 0. -1.
       -1    1    3    3    0  502 -0.24478946181E+03  0.29423069643E+03 -0.19888742213E+03  0.43133489314E+03  0.50400001928E-02 0.  1.
</event>
<event>
 5   0  0.6872500E-03  0.7676573E+03  0.7818609E-02  0.9608049E-01
        3   -1    0    0  501    0  0.00000000000E+00  0.00000000000E+00  0.53611940684E+03  0.53611941635E+03  0.10100000352E+00 0.  1.
       -3   -1    0    0    0  501  0.00000000000E+00  0.00000000000E+00 -0.27479775250E+03  0.27479777106E+03  0.10100000352E+00 0. -1.
    10030    2    1    2    0    0  0.00000000000E+00  0.00000000000E+00  0.26132165434E+03  0.81091718741E+03  0.76765726585E+03 0.  0.
        3    1    3    3  502    0  0.35343620930E+03 -0.61302784913E+02  0.27491869886E+03  0.45194633162E+03  0.10100000352E+00 0.  1.
       -3    1    3    3    0  502 -0.35343620930E+03  0.61302784913E+02 -0.13597044519E+02  0.35897085579E+03  0.10100000352E+00 0. -1.
</event>
<event>
 5   0  0.1731337E-02  0.7652977E+03  0.7818609E-02  0.9611652E-01
       -2   -1    0    0    0  501  0.00000000000E+00  0.00000000000E+00  0.32566539275E+03  0.32566539276E+03  0.25500000920E-02 0. -1.
        2   -1    0    0  501    0  0.00000000000E+00  0.00000000000E+00 -0.44960297272E+03  0.44960297273E+03  0.25500000920E-02 0.  1.
    10030    2    1    2    0    0  0.00000000000E+00  0.00000000000E+00 -0.12393757997E+03  0.77526836549E+03  0.76529766418E+03 0.  0.
        4    1    3    3  502    0 -0.36495726709E+02  0.90628962806E+02  0.31281475868E+03  0.32771974782E+03  0.12699999809E+01 0. -1.
       -4    1    3    3    0  502  0.36495726709E+02 -0.90628962806E+02 -0.43675233864E+03  0.44754861767E+03  0.12699999809E+01 0.  1.
</event>
<event>
 5   0  0.1030323E-02  0.8109128E+03  0.7818609E-02  0.9544354E-01
       -1   -1    0    0    0  501  0.00000000000E+00  0.00000000000E+00  0.13496636929E+03  0.13496636938E+03  0.50400001928E-02 0.  1.
        1   -1    0    0  501    0  0.00000000000E+00  0.00000000000E+00 -0.12180434228E+04  0.12180434228E+04  0.50400001928E-02 0. -1.
    10030    2    1    2    0    0  0.00000000000E+00  0.00000000000E+00 -0.10830770535E+04  0.13530097922E+04  0.81091281526E+03 0.  0.
        3    1    3    3  502    0 -0.21056020347E+02 -0.19827570752E+03 -0.11305889776E+04  0.11480366103E+04  0.10100000352E+00 0. -1.
       -3    1    3    3    0  502  0.21056020347E+02  0.19827570752E+03  0.47511924026E+02  0.20497318193E+03  0.10100000352E+00 0.  1.
</event>
<event>
 5   0  0.1731337E-02  0.8030077E+03  0.7818609E-02  0.9555674E-01
        2   -1    0    0  501    0  0.00000000000E+00  0.00000000000E+00  0.13612399371E+04  0.13612399371E+04  0.25500000920E-02 0. -1.
       -2   -1    0    0    0  501  0.00000000000E+00  0.00000000000E+00 -0.11842535826E+03  0.11842535829E+03  0.25500000920E-02 0.  1.
    10030    2    1    2    0    0  0.00000000000E+00  0.00000000000E+00  0.12428145789E+04  0.14796652954E+04  0.80300766436E+03 0.  0.
        4    1    3    3  502    0  0.34145215254E+03  0.19733828720E+03  0.48263522736E+03  0.62327389457E+03  0.12699999809E+01 0.  1.
       -4    1    3    3    0  502 -0.34145215254E+03 -0.19733828720E+03  0.76017935151E+03  0.85639140084E+03  0.12699999809E+01 0. -1.
</event>
<event>
 5   0  0.1818665E-02  0.7953550E+03  0.7818609E-02  0.9566765E-01
       -2   -1    0    0    0  501  0.00000000000E+00  0.00000000000E+00  0.23269293113E+03  0.23269293115E+03  0.25500000920E-02 0.  1.
        2   -1    0    0  501    0  0.00000000000E+00  0.00000000000E+00 -0.67963982335E+03  0.67963982335E+03  0.25500000920E-02 0. -1.
    10030    2    1    2    0    0  0.00000000000E+00  0.00000000000E+00 -0.44694689222E+03  0.91233275450E+03  0.79535497136E+03 0.  0.
        3    1    3    3  502    0 -0.11932225787E+03  0.37676031886E+03 -0.27427264923E+03  0.48105263268E+03  0.10100000352E+00 0.  1.
       -3    1    3    3    0  502  0.11932225787E+03 -0.37676031886E+03 -0.17267424298E+03  0.43128012182E+03  0.10100000352E+00 0. -1.
</event>
<event>
 5   0  0.1747544E-02  0.8022182E+03  0.7818609E-02  0.9556812E-01
       -2   -1    0    0    0  501  0.00000000000E+00  0.00000000000E+00  0.29002000103E+03  0.29002000104E+03  0.25500000920E-02 0.  1.
        2   -1    0    0  501    0  0.00000000000E+00  0.00000000000E+00 -0.55474976448E+03  0.55474976449E+03  0.25500000920E-02 0. -1.
    10030    2    1    2    0    0  0.00000000000E+00  0.00000000000E+00 -0.26472976345E+03  0.84476976553E+03  0.80221824281E+03 0.  0.
        1    1    3    3  502    0 -0.17198830609E+03  0.25531904467E+03  0.13841392201E+03  0.33752956291E+03  0.50400001928E-02 0.  1.
       -1    1    3    3    0  502  0.17198830609E+03 -0.25531904467E+03 -0.40314368546E+03  0.50724020262E+03  0.50400001928E-02 0. -1.
</event>
<event>
 5   0  0.1731337E-02  0.8085795E+03  0.7818609E-02  0.9547681E-01
        2   -1    0    0  501    0  0.00000000000E+00  0.00000000000E+00  0.80600913596E+03  0.80600913597E+03  0.25500000920E-02 0.  1.
       -2   -1    0    0    0  501  0.00000000000E+00  0.00000000000E+00 -0.20278949469E+03  0.20278949471E+03  0.25500000920E-02 0. -1.
    10030    2    1    2    0    0  0.00000000000E+00  0.00000000000E+00  0.60321964127E+03  0.10087986307E+04  0.80857945907E+03 0.  0.
        4    1    3    3  502    0 -0.67569477623E+02  0.30065000356E+03 -0.24905325519E+02  0.30915683250E+03  0.12699999809E+01 0. -1.
       -4    1    3    3    0  502  0.67569477623E+02 -0.30065000356E+03  0.62812496679E+03  0.69964179817E+03  0.12699999809E+01 0.  1.
</event>
<event>
 5   0  0.1030323E-02  0.7953912E+03  0.7818609E-02  0.9566712E-01
        1   -1    0    0  501    0  0.00000000000E+00  0.00000000000E+00  0.42931237881E+03  0.42931237884E+03  0.50400001928E-02 0.  1.
       -1   -1    0    0    0  501  0.00000000000E+00  0.00000000000E+00 -0.36840720575E+03  0.36840720579E+03  0.50400001928E-02 0. -1.
    10030    2    1    2    0    0  0.00000000000E+00  0.00000000000E+00  0.60905173057E+02  0.79771958463E+03  0.79539115886E+03 0.  0.
        3    1    3    3  502    0  0.39356342479E+02 -0.35637597514E+03  0.20302898910E+03  0.41203584549E+03  0.10100000352E+00 0.  1.
       -3    1    3    3    0  502 -0.39356342479E+02  0.35637597514E+03 -0.14212381604E+03  0.38568373914E+03  0.10100000352E+00 0. -1.
</event>
<event>
 5   0  0.1818665E-02  0.7520198E+03  0.7818609E-02  0.9632187E-01
       -2   -1    0    0    0  501  0.00000000000E+00  0.00000000000E+00  0.31772957402E+03  0.31772957403E+03  0.25500000920E-02 0. -1.
        2   -1    0    0  501    0  0.00000000000E+00  0.00000000000E+00 -0.44498040940E+03  0.44498040941E+03  0.25500000920E-02 0.  1.
    10030    2    1    2    0    0  0.00000000000E+00  0.00000000000E+00 -0.12725083538E+03  0.76270998344E+03  0.75201977616E+03 0.  0.
        3    1    3    3  502    0 -0.31336623778E+03  0.61842815070E+02 -0.26484045529E+03  0.41492578820E+03  0.10100000352E+00 0.  1.
       -3    1    3    3    0  502  0.31336623778E+03 -0.61842815070E+02  0.13758961991E+03  0.34778419524E+03  0.10100000352E+00 0. -1.
</event>
<event>
 5   0  0.1025900E-02  0.8047648E+03  0.7818609E-02  0.9553146E-01
        1   -1    0    0  501    0  0.00000000000E+00  0.00000000000E+00  0.91231501753E+03  0.91231501755E+03  0.50400001928E-02 0. -1.
       -1   -1    0    0    0  501  0.00000000000E+00  0.00000000000E+00 -0.17747335606E+03  0.17747335613E+03  0.50400001928E-02 0.  1.
    10030    2    1    2    0    0  0.00000000000E+00  0.00000000000E+00  0.73484166147E+03  0.10897883737E+04  0.80476483023E+03 0.  0.
        1    1    3    3  502    0 -0.10176588695E+03  0.32929098431E+03  0.86213618028E+02  0.35527684425E+03  0.50400001928E-02 0.  1.
       -1    1    3    3    0  502  0.10176588695E+03 -0.32929098431E+03  0.64862804345E+03  0.73451152943E+03  0.50400001928E-02 0. -1.
</event>
<event>
 5   0  0.1731337E-02  0.8016374E+03  0.7818609E-02  0.9557650E-01
        2   -1    0    0  501    0  0.00000000000E+00  0.00000000000E+00  0.15967953638E+04  0.15967953638E+04  0.25500000920E-02 0.  1.
       -2   -1    0    0    0  501  0.00000000000E+00  0.00000000000E+00 -0.10061127255E+03  0.10061127258E+03  0.25500000920E-02 0. -1.
    10030    2    1    2    0    0  0.00000000000E+00  0.00000000000E+00  0.14961840913E+04  0.16974066364E+04  0.80163735836E+03 0.  0.
        4    1    3    3  502    0  0.56003436218E+02 -0.14112260376E+03  0.15335453346E+04  0.15410434388E+04  0.12699999809E+01 0.  1.
       -4    1    3    3    0  502 -0.56003436218E+02  0.14112260376E+03 -0.37361243314E+02  0.15636319760E+03  0.12699999809E+01 0. -1.
</event>
<event>
 5   0  0.1817089E-02  0.8019910E+03  0.7818609E-02  0.9557140E-01
       -2   -1    0    0    0  501  0.00000000000E+00  0.00000000000E+00  0.10187177261E+03  0.10187177264E+03  0.25500000920E-02 0. -1.
        2   -1    0    0  501    0  0.00000000000E+00  0.00000000000E+00 -0.15784291480E+04  0.15784291480E+04  0.25500000920E-02 0.  1.
    10030    2    1    2    0    0  0.00000000000E+00  0.00000000000E+00 -0.14765573754E+04  0.16803009206E+04  0.80199096072E+03 0.  0.
        2    1    3    3  502    0  0.71626608793E+02  0.24481769448E+03 -0.90025633319E+02  0.27050081198E+03  0.25500000920E-02 0. -1.
       -2    1    3    3    0  502 -0.71626608793E+02 -0.24481769448E+03 -0.13865317420E+04  0.14098001086E+04  0.25500000920E-02 0.  1.
</event>
<event>
 5   0  0.1747544E-02  0.7964098E+03  0.7818609E-02  0.9565228E-01
       -2   -1    0    0    0  501  0.00000000000E+00  0.00000000000E+00  0.14226507371E+03  0.14226507373E+03  0.25500000920E-02 0. -1.
        2   -1    0    0  501    0  0.00000000000E+00  0.00000000000E+00 -0.11145894275E+04  0.11145894275E+04  0.25500000920E-02 0.  1.
    10030    2    1    2    0    0  0.00000000000E+00  0.00000000000E+00 -0.97232435381E+03  0.12568545012E+04  0.79640981178E+03 0.  0.
        1    1    3    3  502    0 -0.18765948619E+03 -0.26983394648E+03 -0.84095028407E+03  0.90289745915E+03  0.50400001928E-02 0.  1.
       -1    1    3    3    0  502  0.18765948619E+03  0.26983394648E+03 -0.13137406974E+03  0.35395704210E+03  0.50400001928E-02 0. -1.
</event>
<event>
 5   0  0.1818665E-02  0.8010105E+03  0.7818609E-02  0.9558556E-01
        2   -1    0    0  501    0  0.00000000000E+00  0.00000000000E+00  0.65116517439E+03  0.65116517439E+03  0.25500000920E-02 0.  1.
       -2   -1    0    0    0  501  0.00000000000E+00  0.00000000000E+00 -0.24633451973E+03  0.24633451974E+03  0.25500000920E-02 0. -1.
    10030    2    1    2    0    0  0.00000000000E+00  0.00000000000E+00  0.40483065466E+03  0.89749969413E+03  0.80101051305E+03 0.  0.
        3    1    3    3  502    0 -0.50223020659E+02 -0.37929901146E+03  0.33505782869E+03  0.50858023031E+03  0.10100000352E+00 0.  1.
       -3    1    3    3    0  502  0.50223020659E+02  0.37929901146E+03  0.69772825978E+02  0.38891946383E+03  0.10100000352E+00 0. -1.
</event>
<event>
 5   0  0.6872500E-03  0.8026948E+03  0.7818609E-02  0.9556125E-01
       -3   -1    0    0    0  501  0.00000000000E+00  0.00000000000E+00  0.18148999084E+03  0.18149001894E+03  0.10100000352E+00 0. -1.
        3   -1    0    0  501    0  0.00000000000E+00  0.00000000000E+00 -0.88754047491E+03  0.88754048066E+03  0.10100000352E+00 0.  1.
    10030    2    1    2    0    0  0.00000000000E+00  0.00000000000E+00 -0.70605048408E+03  0.10690304996E+04  0.80269478821E+03 0.  0.
        3    1    3    3  502    0  0.13641403578E+03  0.15368575301E+03 -0.81216215182E+03  0.83775621208E+03  0.10100000352E+00 0.  1.
       -3    1    3    3    0  502 -0.13641403578E+03 -0.15368575301E+03  0.10611166774E+03  0.23127428752E+03  0.10100000352E+00 0. -1.
</event>
<event>
 5   0  0.1817089E-02  0.7983806E+03  0.7818609E-02  0.9562364E-01
       -2   -1    0    0    0  501  0.00000000000E+00  0.00000000000E+00  0.19531468659E+03  0.19531468660E+03  0.25500000920E-02 0.  1.
        2   -1    0    0  501    0  0.00000000000E+00  0.00000000000E+00 -0.81587773310E+03  0.81587773310E+03  0.25500000920E-02 0. -1.
    10030    2    1    2    0    0  0.00000000000E+00  0.00000000000E+00 -0.62056304651E+03  0.10111924197E+04  0.79838062036E+03 0.  0.
        2    1    3    3  502    0 -0.18881553733E+03  0.22538317286E+03 -0.65226062164E+03  0.71546684080E+03  0.25500000920E-02 0. -1.
       -2    1    3    3    0  502  0.18881553733E+03 -0.22538317286E+03  0.31697575124E+02  0.29572557890E+03  0.25500000920E-02 0.  1.
</event>
<event>
 5   0  0.1038912E-02  0.7965322E+03  0.7818609E-02  0.9565050E-01
       -1   -1    0    0    0  501  0.00000000000E+00  0.00000000000E+00  0.26129510610E+03  0.26129510614E+03  0.50400001928E-02 0. -1.
        1   -1    0    0  501    0  0.00000000000E+00  0.00000000000E+00 -0.60703730008E+03  0.60703730010E+03  0.50400001928E-02 0.  1.
    10030    2    1    2    0    0  0.00000000000E+00  0.00000000000E+00 -0.34574219398E+03  0.86833240625E+03  0.79653217326E+03 0.  0.
        2    1    3    3  502    0  0.26223463689E+03 -0.14511700851E+03  0.11304927767E+03  0.32032185397E+03  0.25500000920E-02 0.  1.
       -2    1    3    3    0  502 -0.26223463689E+03  0.14511700851E+03 -0.45879147165E+03  0.54801055228E+03  0.25500000920E-02 0. -1.
</event>
<event>
 5   0  0.1038912E-02  0.7959374E+03  0.7818609E-02  0.9565916E-01
       -1   -1    0    0    0  501  0.00000000000E+00  0.00000000000E+00  0.26830241200E+03  0.26830241205E+03  0.50400001928E-02 0. -1.
        1   -1    0    0  501    0  0.00000000000E+00  0.00000000000E+00 -0.59030070638E+03  0.59030070640E+03  0.50400001928E-02 0.  1.
    10030    2    1    2    0    0  0.00000000000E+00  0.00000000000E+00 -0.32199829438E+03  0.85860311845E+03  0.79593744317E+03 0.  0.
        2    1    3    3  502    0  0.38605264536E+03 -0.96006331957E+02 -0.14892686033E+03  0.42477414057E+03  0.25500000920E-02 0. -1.
       -2    1    3    3    0  502 -0.38605264536E+03  0.96006331957E+02 -0.17307143405E+03  0.43382897788E+03  0.25500000920E-02 0.  1.
</event>
<event>
 5   0  0.1146083E-02  0.7962420E+03  0.7818609E-02  0.9565473E-01
       -1   -1    0    0    0  501  0.00000000000E+00  0.00000000000E+00  0.32629004440E+03  0.32629004444E+03  0.50400001928E-02 0.  1.
        1   -1    0    0  501    0  0.00000000000E+00  0.00000000000E+00 -0.48576514591E+03  0.48576514594E+03  0.50400001928E-02 0. -1.
    10030    2    1    2    0    0  0.00000000000E+00  0.00000000000E+00 -0.15947510151E+03  0.81205519037E+03  0.79624200103E+03 0.  0.
        4    1    3    3  502    0 -0.40032640499E+02 -0.48026054425E+02 -0.48072484004E+03  0.48477530768E+03  0.12699999809E+01 0. -1.
       -4    1    3    3    0  502  0.40032640499E+02  0.48026054425E+02  0.32124973853E+03  0.32727988269E+03  0.12699999809E+01 0.  1.
</event>
<event>
 5   0  0.1049780E-02  0.7930878E+03  0.7818609E-02  0.9570076E-01
       -1   -1    0    0    0  501  0.00000000000E+00  0.00000000000E+00  0.32755978542E+03  0.32755978546E+03  0.50400001928E-02 0. -1.
        1   -1    0    0  501    0  0.00000000000E+00  0.00000000000E+00 -0.48005604957E+03  0.48005604959E+03  0.50400001928E-02 0.  1.
    10030    2    1    2    0    0  0.00000000000E+00  0.00000000000E+00 -0.15249626414E+03  0.80761583506E+03  0.79308777979E+03 0.  0.
        5    1    3    3  502    0  0.26398434167E+03 -0.24129936515E+03  0.98095136897E+02  0.37088793746E+03  0.46999998093E+01 0. -1.
       -5    1    3    3    0  502 -0.26398434167E+03  0.24129936515E+03 -0.25059140104E+03  0.43672789760E+03  0.46999998093E+01 0.  1.
</event>
<event>
 5   0  0.1049780E-02  0.7944758E+03  0.7818609E-02  0.9568048E-01
       -1   -1    0    0    0  501  0.00000000000E+00  0.00000000000E+00  0.14020425656E+03  0.14020425665E+03  0.50400001928E-02 0.  1.
        1   -1    0    0  501    0  0.00000000000E+00  0.00000000000E+00 -0.11254862032E+04  0.11254862033E+04  0.50400001928E-02 0. -1.
    10030    2    1    2    0    0  0.00000000000E+00  0.00000000000E+00 -0.98528194668E+03  0.12656904599E+04  0.79447581829E+03 0.  0.
        5    1    3    3  502    0  0.15771604138E+03 -0.18532616057E+03 -0.99277656906E+03  0.10221778424E+04  0.46999998093E+01 0. -1.
       -5    1    3    3    0  502 -0.15771604138E+03  0.18532616057E+03  0.74946223886E+01  0.24351261746E+03  0.46999998093E+01 0.  1.
</event>
<event>
 5   0  0.1818665E-02  0.7884467E+03  0.7818609E-02  0.9576892E-01
       -2   -1    0    0    0  501  0.00000000000E+00  0.00000000000E+00  0.18499145187E+03  0.18499145189E+03  0.25500000920E-02 0.  1.
        2   -1    0    0  501    0  0.00000000000E+00  0.00000000000E+00 -0.84010393258E+03  0.84010393258E+03  0.25500000920E-02 0. -1.
    10030    2    1    2    0    0  0.00000000000E+00  0.00000000000E+00 -0.65511248071E+03  0.10250953845E+04  0.78844669121E+03 0.  0.
        3    1    3    3  502    0 -0.28658607653E+03 -0.26773320960E+03 -0.37955206665E+03  0.54577690707E+03  0.10100000352E+00 0.  1.
       -3    1    3    3    0  502  0.28658607653E+03  0.26773320960E+03 -0.27556041405E+03  0.47931847740E+03  0.10100000352E+00 0. -1.
</event>
<event>
 5   0  0.1818665E-02  0.7994602E+03  0.7818609E-02  0.9560799E-01
       -2   -1    0    0    0  501  0.00000000000E+00  0.00000000000E+00  0.10378709886E+03  0.10378709890E+03  0.25500000920E-02 0. -1.
        2   -1    0    0  501    0  0.00000000000E+00  0.00000000000E+00 -0.15395378479E+04  0.15395378479E+04  0.25500000920E-02 0.  1.
    10030    2    1    2    0    0  0.00000000000E+00  0.00000000000E+00 -0.14357507490E+04  0.16433249468E+04  0.79946023503E+03 0.  0.
        3    1    3    3  502    0  0.20255688229E+02  0.25002869886E+03 -0.13576068558E+04  0.13805872041E+04  0.10100000352E+00 0. -1.
       -3    1    3    3    0  502 -0.20255688229E+02 -0.25002869886E+03 -0.78143893246E+02  0.26273774265E+03  0.10100000352E+00 0.  1.
</event>
<event>
 5   0  0.1049780E-02  0.8001564E+03  0.7818609E-02  0.9559791E-01
        1   -1    0    0  501    0  0.00000000000E+00  0.00000000000E+00  0.81128559941E+03  0.81128559943E+03  0.50400001928E-02 0.  1.
       -1   -1    0    0    0  501  0.00000000000E+00  0.00000000000E+00 -0.19729497776E+03  0.19729497783E+03  0.50400001928E-02 0. -1.
    10030    2    1    2    0    0  0.00000000000E+00  0.00000000000E+00  0.61399062165E+03  0.10085805773E+04  0.80015642055E+03 0.  0.
        5    1    3    3  502    0 -0.73597805782E+02  0.36205407332E+03  0.11360026296E+03  0.38655775605E+03  0.46999998093E+01 0. -1.
       -5    1    3    3    0  502  0.73597805782E+02 -0.36205407332E+03  0.50039035869E+03  0.62202282120E+03  0.46999998093E+01 0.  1.
</event>
<event>
 5   0  0.1747544E-02  0.7929197E+03  0.7818609E-02  0.9570322E-01
       -2   -1    0    0    0  501  0.00000000000E+00  0.00000000000E+00  0.15007412277E+03  0.15007412279E+03  0.25500000920E-02 0.  1.
        2   -1    0    0  501    0  0.00000000000E+00  0.00000000000E+00 -0.10473518004E+04  0.10473518004E+04  0.25500000920E-02 0. -1.
    10030    2    1    2    0    0  0.00000000000E+00  0.00000000000E+00 -0.89727767763E+03  0.11974259232E+04  0.79291967486E+03 0.  0.
        1    1    3    3  502    0 -0.39516470722E+03  0.22292057533E+02 -0.48334994074E+03  0.62472333629E+03  0.50400001928E-02 0. -1.
       -1    1    3    3    0  502  0.39516470722E+03 -0.22292057533E+02 -0.41392773689E+03  0.57270258691E+03  0.50400001928E-02 0.  1.
</event>
<event>
 5   0  0.1038912E-02  0.7968451E+03  0.7818609E-02  0.9564595E-01
        1   -1    0    0  501    0  0.00000000000E+00  0.00000000000E+00  0.83751012604E+03  0.83751012605E+03  0.50400001928E-02 0. -1.
       -1   -1    0    0    0  501  0.00000000000E+00  0.00000000000E+00 -0.18953862134E+03  0.18953862141E+03  0.50400001928E-02 0.  1.
    10030    2    1    2    0    0  0.00000000000E+00  0.00000000000E+00  0.64797150469E+03  0.10270487475E+04  0.79684506572E+03 0.  0.
        2    1    3    3  502    0 -0.22062976396E+03 -0.66494070516E+02  0.74290910788E+03  0.77782574960E+03  0.25500000920E-02 0. -1.
       -2    1    3    3    0  502  0.22062976396E+03  0.66494070516E+02 -0.94937603190E+02  0.24922299786E+03  0.25500000920E-02 0.  1.
</event>
<event>
 5   0  0.1818665E-02  0.7290226E+03  0.7818609E-02  0.9668848E-01
       -2   -1    0    0    0  501  0.00000000000E+00  0.00000000000E+00  0.13237746338E+03  0.13237746340E+03  0.25500000920E-02 0. -1.
        2   -1    0    0  501    0  0.00000000000E+00  0.00000000000E+00 -0.10037093630E+04  0.10037093630E+04  0.25500000920E-02 0.  1.
    10030    2    1    2    0    0  0.00000000000E+00  0.00000000000E+00 -0.87133189962E+03  0.11360868264E+04  0.72902263191E+03 0.  0.
        3    1    3    3  502    0  0.32546730488E+03  0.11936154888E+02 -0.18056386149E+03  0.37239059685E+03  0.10100000352E+00 0.  1.
       -3    1    3    3    0  502 -0.32546730488E+03 -0.11936154888E+02 -0.69076803812E+03  0.76369622955E+03  0.10100000352E+00 0. -1.
</event>
<event>
 5   0  0.1731337E-02  0.8039038E+03  0.7818609E-02  0.9554384E-01
       -2   -1    0    0    0  501  0.00000000000E+00  0.00000000000E+00  0.26599044301E+03  0.26599044303E+03  0.25500000920E-02 0.  1.
        2   -1    0    0  501    0  0.00000000000E+00  0.00000000000E+00 -0.60741033729E+03  0.60741033729E+03  0.25500000920E-02 0. -1.
    10030    2    1    2    0    0  0.00000000000E+00  0.00000000000E+00 -0.34141989428E+03  0.87340078032E+03  0.80390383682E+03 0.  0.
        4    1    3    3  502    0 -0.18363766529E+03  0.25113379922E+03  0.10579675184E+03  0.32861153787E+03  0.12699999809E+01 0.  1.
       -4    1    3    3    0  502  0.18363766529E+03 -0.25113379922E+03 -0.44721664612E+03  0.54478924245E+03  0.12699999809E+01 0. -1.
</event>
<event>
 5   0  0.1673727E-02  0.7912935E+03  0.7818609E-02  0.9572706E-01
       -2   -1    0    0    0  501  0.00000000000E+00  0.00000000000E+00  0.23392679828E+03  0.23392679829E+03  0.25500000920E-02 0.  1.
        2   -1    0    0  501    0  0.00000000000E+00  0.00000000000E+00 -0.66916814245E+03  0.66916814246E+03  0.25500000920E-02 0. -1.
    10030    2    1    2    0    0  0.00000000000E+00  0.00000000000E+00 -0.43524134418E+03  0.90309494075E+03  0.79129352603E+03 0.  0.
        5    1    3    3  502    0  0.96275991413E+02  0.25093736289E+03 -0.54894005051E+03  0.61122491414E+03  0.46999998093E+01 0. -1.
       -5    1    3    3    0  502 -0.96275991413E+02 -0.25093736289E+03  0.11369870633E+03  0.29187002661E+03  0.46999998093E+01 0.  1.
</event>
<event>
 5   0  0.1025900E-02  0.7841914E+03  0.7818609E-02  0.9583186E-01
        1   -1    0    0  501    0  0.00000000000E+00  0.00000000000E+00  0.64443823544E+03  0.64443823546E+03  0.50400001928E-02 0.  1.
       -1   -1    0    0    0  501  0.00000000000E+00  0.00000000000E+00 -0.23856285583E+03  0.23856285589E+03  0.50400001928E-02 0. -1.
    10030    2    1    2    0    0  0.00000000000E+00  0.00000000000E+00  0.40587537961E+03  0.88300109135E+03  0.78419136921E+03 0.  0.
        1    1    3    3  502    0  0.35615702474E+03 -0.13279173531E+03  0.31127731375E+03  0.49129933576E+03  0.50400001928E-02 0.  1.
       -1    1    3    3    0  502 -0.35615702474E+03  0.13279173531E+03  0.94598065858E+02  0.39170175559E+03  0.50400001928E-02 0. -1.
</event>
<event>
 5   0  0.1030323E-02  0.7994450E+03  0.7818609E-02  0.9560821E-01
        1   -1    0    0  501    0  0.00000000000E+00  0.00000000000E+00  0.48573053221E+03  0.48573053224E+03  0.50400001928E-02 0.  1.
       -1   -1    0    0    0  501  0.00000000000E+00  0.00000000000E+00 -0.32894383461E+03  0.32894383464E+03  0.50400001928E-02 0. -1.
    10030    2    1    2    0    0  0.00000000000E+00  0.00000000000E+00  0.15678669761E+03  0.81467436688E+03  0.79944496716E+03 0.  0.
        3    1    3    3  502    0  0.31406602265E+03 -0.18190720924E+03  0.24906628292E+03  0.44018373760E+03  0.10100000352E+00 0.  1.
       -3    1    3    3    0  502 -0.31406602265E+03  0.18190720924E+03 -0.92279585310E+02  0.37449062929E+03  0.10100000352E+00 0. -1.
</event>
<event>
 5   0  0.1146083E-02  0.7700225E+03  0.7818609E-02  0.9604451E-01
        1   -1    0    0  501    0  0.00000000000E+00  0.00000000000E+00  0.29747969345E+03  0.29747969349E+03  0.50400001928E-02 0.  1.
       -1   -1    0    0    0  501  0.00000000000E+00  0.00000000000E+00 -0.49829842026E+03  0.49829842028E+03  0.50400001928E-02 0. -1.
    10030    2    1    2    0    0  0.00000000000E+00  0.00000000000E+00 -0.20081872681E+03  0.79577811378E+03  0.77002249664E+03 0.  0.
        4    1    3    3  502    0 -0.17339669306E+03 -0.13215144122E+03  0.22754002946E+03  0.31512932978E+03  0.12699999809E+01 0.  1.
       -4    1    3    3    0  502  0.17339669306E+03  0.13215144122E+03 -0.42835875627E+03  0.48064878399E+03  0.12699999809E+01 0. -1.
</event>
<event>
 5   0  0.1049780E-02  0.8285086E+03  0.7818609E-02  0.9519645E-01
        1   -1    0    0  501    0  0.00000000000E+00  0.00000000000E+00  0.79688839280E+03  0.79688839281E+03  0.50400001928E-02 0.  1.
       -1   -1    0    0    0  501  0.00000000000E+00  0.00000000000E+00 -0.21534589111E+03  0.21534589117E+03  0.50400001928E-02 0. -1.
    10030    2    1    2    0    0  0.00000000000E+00  0.00000000000E+00  0.58154250169E+03  0.10122342840E+04  0.82850863870E+03 0.  0.
        5    1    3    3  502    0 -0.38065501135E+03  0.15499808435E+03  0.35380606308E+03  0.54233150756E+03  0.46999998093E+01 0.  1.
       -5    1    3    3    0  502  0.38065501135E+03 -0.15499808435E+03  0.22773643861E+03  0.46990277642E+03  0.46999998093E+01 0. -1.
</event>
<event>
 5   0  0.1818665E-02  0.8159949E+03  0.7818609E-02  0.9537149E-01
        2   -1    0    0  501    0  0.00000000000E+00  0.00000000000E+00  0.20166635889E+03  0.20166635891E+03  0.25500000920E-02 0.  1.
       -2   -1    0    0    0  501  0.00000000000E+00  0.00000000000E+00 -0.82543228940E+03  0.82543228940E+03  0.25500000920E-02 0. -1.
    10030    2    1    2    0    0  0.00000000000E+00  0.00000000000E+00 -0.62376593051E+03  0.10270986483E+04  0.81599491254E+03 0.  0.
        3    1    3    3  502    0  0.26537088500E+03 -0.49148065546E+02  0.73258136613E+02  0.27964978765E+03  0.10100000352E+00 0.  1.
       -3    1    3    3    0  502 -0.26537088500E+03  0.49148065546E+02 -0.69702406712E+03  0.74744886066E+03  0.10100000352E+00 0. -1.
</event>
<event>
 5   0  0.1038912E-02  0.8058878E+03  0.7818609E-02  0.9551534E-01
        1   -1    0    0  501    0  0.00000000000E+00  0.00000000000E+00  0.10347308978E+04  0.10347308978E+04  0.50400001928E-02 0. -1.
       -1   -1    0    0    0  501  0.00000000000E+00  0.00000000000E+00 -0.15691400779E+03  0.15691400787E+03  0.50400001928E-02 0.  1.
    10030    2    1    2    0    0  0.00000000000E+00  0.00000000000E+00  0.87781689000E+03  0.11916449057E+04  0.80588776442E+03 0.  0.
        2    1    3    3  502    0  0.31648302516E+03  0.56205206568E+02  0.79608297276E+02  0.33114651057E+03  0.25500000920E-02 0.  1.
       -2    1    3    3    0  502 -0.31648302516E+03 -0.56205206568E+02  0.79820859273E+03  0.86049839510E+03  0.25500000920E-02 0. -1.
</event>
<event>
 5   0  0.1146083E-02  0.8028311E+03  0.7818609E-02  0.9555928E-01
        1   -1    0    0  501    0  0.00000000000E+00  0.00000000000E+00  0.85574698544E+03  0.85574698545E+03  0.50400001928E-02 0.  1.
       -1   -1    0    0    0  501  0.00000000000E+00  0.00000000000E+00 -0.18829683342E+03  0.18829683349E+03  0.50400001928E-02 0. -1.
    10030    2    1    2    0    0  0.00000000000E+00  0.00000000000E+00  0.66745015201E+03  0.10440438189E+04  0.80283110954E+03 0.  0.
        4    1    3    3  502    0  0.28842488940E+03  0.26257442650E+03  0.21036298326E+03  0.44315735794E+03  0.12699999809E+01 0. -1.
       -4    1    3    3    0  502 -0.28842488940E+03 -0.26257442650E+03  0.45708716876E+03  0.60088646100E+03  0.12699999809E+01 0.  1.
</event>
<event>
 5   0  0.1030323E-02  0.8017974E+03  0.7818609E-02  0.9557419E-01
       -1   -1    0    0    0  501  0.00000000000E+00  0.00000000000E+00  0.98705060061E+02  0.98705060190E+02  0.50400001928E-02 0. -1.
        1   -1    0    0  501    0  0.00000000000E+00  0.00000000000E+00 -0.16282829082E+04  0.16282829082E+04  0.50400001928E-02 0.  1.
    10030    2    1    2    0    0  0.00000000000E+00  0.00000000000E+00 -0.15295778481E+04  0.17269879684E+04  0.80179738679E+03 0.  0.
        3    1    3    3  502    0 -0.23052429391E+03 -0.12128795265E+03 -0.10840696821E+03  0.28214233730E+03  0.10100000352E+00 0. -1.
       -3    1    3    3    0  502  0.23052429391E+03  0.12128795265E+03 -0.14211708799E+04  0.14448456311E+04  0.10100000352E+00 0.  1.
</event>
<event>
 5   0  0.1146083E-02  0.8013607E+03  0.7818609E-02  0.9558050E-01
       -1   -1    0    0    0  501  0.00000000000E+00  0.00000000000E+00  0.52039788125E+03  0.52039788127E+03  0.50400001928E-02 0.  1.
        1   -1    0    0  501    0  0.00000000000E+00  0.00000000000E+00 -0.30850381633E+03  0.30850381637E+03  0.50400001928E-02 0. -1.
    10030    2    1    2    0    0  0.00000000000E+00  0.00000000000E+00  0.21189406491E+03  0.82890169765E+03  0.80136067386E+03 0.  0.
        4    1    3    3  502    0  0.22019167713E+03  0.17829480269E+03 -0.18710912114E+03  0.33953622407E+03  0.12699999809E+01 0. -1.
       -4    1    3    3    0  502 -0.22019167713E+03 -0.17829480269E+03  0.39900318605E+03  0.48936547357E+03  0.12699999809E+01 0.  1.
</event>
<event>
 5   0  0.1817089E-02  0.7831317E+03  0.7818609E-02  0.9584759E-01
        2   -1    0    0  501    0  0.00000000000E+00  0.00000000000E+00  0.41804803716E+03  0.41804803717E+03  0.25500000920E-02 0. -1.
       -2   -1    0    0    0  501  0.00000000000E+00  0.00000000000E+00 -0.36676126212E+03  0.36676126213E+03  0.25500000920E-02 0.  1.
    10030    2    1    2    0    0  0.00000000000E+00  0.00000000000E+00  0.51286775044E+02  0.78480929930E+03  0.78313172772E+03 0.  0.
        2    1    3    3  502    0  0.62181884534E+02  0.59058321589E+02  0.40852116789E+03  0.41742546249E+03  0.25500000920E-02 0. -1.
       -2    1    3    3    0  502 -0.62181884534E+02 -0.59058321589E+02 -0.35723439284E+03  0.36738383681E+03  0.25500000920E-02 0.  1.
</event>
<event>
 5   0  0.1673727E-02  0.8121567E+03  0.7818609E-02  0.9542586E-01
       -2   -1    0    0    0  501  0.00000000000E+00  0.00000000000E+00  0.10235333435E+03  0.10235333439E+03  0.25500000920E-02 0.  1.
        2   -1    0    0  501    0  0.00000000000E+00  0.00000000000E+00 -0.16110819822E+04  0.16110819822E+04  0.25500000920E-02 0. -1.
    10030    2    1    2    0    0  0.00000000000E+00  0.00000000000E+00 -0.15087286478E+04  0.17134353166E+04  0.81215666671E+03 0.  0.
        5    1    3    3  502    0  0.24013876795E+03 -0.28093010521E+03 -0.39951987920E+03  0.54426700778E+03  0.46999998093E+01 0.  1.
       -5    1    3    3    0  502 -0.24013876795E+03  0.28093010521E+03 -0.11092087686E+04  0.11691683088E+04  0.46999998093E+01 0. -1.
</event>
<event>
 5   0  0.1818665E-02  0.7987150E+03  0.7818609E-02  0.9561879E-01
        2   -1    0    0  501    0  0.00000000000E+00  0.00000000000E+00  0.48150313046E+03  0.48150313047E+03  0.25500000920E-02 0.  1.
       -2   -1    0    0    0  501  0.00000000000E+00  0.00000000000E+00 -0.33122612585E+03  0.33122612586E+03  0.25500000920E-02 0. -1.
    10030    2    1    2    0    0  0.00000000000E+00  0.00000000000E+00  0.15027700461E+03  0.81272925633E+03  0.79871500924E+03 0.  0.
        3    1    3    3  502    0 -0.15187449885E+03  0.36464230434E+03  0.15314648338E+02  0.39530294987E+03  0.10100000352E+00 0. -1.
       -3    1    3    3    0  502  0.15187449885E+03 -0.36464230434E+03  0.13496235627E+03  0.41742630647E+03  0.10100000352E+00 0.  1.
</event>
<event>
 5   0  0.1673727E-02  0.7974458E+03  0.7818609E-02  0.9563722E-01
        2   -1    0    0  501    0  0.00000000000E+00  0.00000000000E+00  0.17609536613E+04  0.17609536613E+04  0.25500000920E-02 0.  1.
       -2   -1    0    0    0  501  0.00000000000E+00  0.00000000000E+00 -0.90280591913E+02  0.90280591949E+02  0.25500000920E-02 0. -1.
    10030    2    1    2    0    0  0.00000000000E+00  0.00000000000E+00  0.16706730694E+04  0.18512342532E+04  0.79744576971E+03 0.  0.
        5    1    3    3  502    0 -0.11151839624E+03  0.24117277474E+03  0.15253874941E+04  0.15483635740E+04  0.46999998093E+01 0.  1.
       -5    1    3    3    0  502  0.11151839624E+03 -0.24117277474E+03  0.14528557522E+03  0.30287067923E+03  0.46999998093E+01 0. -1.
</event>
<event>
 5   0  0.1146083E-02  0.8002145E+03  0.7818609E-02  0.9559707E-01
       -1   -1    0    0    0  501  0.00000000000E+00  0.00000000000E+00  0.17846048046E+03  0.17846048053E+03  0.50400001928E-02 0.  1.
        1   -1    0    0  501    0  0.00000000000E+00  0.00000000000E+00 -0.89703785075E+03  0.89703785076E+03  0.50400001928E-02 0. -1.
    10030    2    1    2    0    0  0.00000000000E+00  0.00000000000E+00 -0.71857737029E+03  0.10754983313E+04  0.80021448595E+03 0.  0.
        4    1    3    3  502    0  0.12906921061E+03  0.26318965112E+03 -0.72528613492E+03  0.78228463106E+03  0.12699999809E+01 0. -1.
       -4    1    3    3    0  502 -0.12906921061E+03 -0.26318965112E+03  0.67087646248E+01  0.29321370024E+03  0.12699999809E+01 0.  1.
</event>
<event>
 5   0  0.1030323E-02  0.7914214E+03  0.7818609E-02  0.9572518E-01
        1   -1    0    0  501    0  0.00000000000E+00  0.00000000000E+00  0.54731050040E+03  0.54731050043E+03  0.50400001928E-02 0. -1.
       -1   -1    0    0    0  501  0.00000000000E+00  0.00000000000E+00 -0.28610257544E+03  0.28610257548E+03  0.50400001928E-02 0.  1.
    10030    2    1    2    0    0  0.00000000000E+00  0.00000000000E+00  0.26120792497E+03  0.83341307591E+03  0.79142136377E+03 0.  0.
        3    1    3    3  502    0 -0.38937185877E+03  0.63008093803E+02  0.97195783753E+02  0.40623576266E+03  0.10100000352E+00 0.  1.
       -3    1    3    3    0  502  0.38937185877E+03 -0.63008093803E+02  0.16401214121E+03  0.42717731325E+03  0.10100000352E+00 0. -1.
</event>
<event>
 5   0  0.1030323E-02  0.7921776E+03  0.7818609E-02  0.9571409E-01
       -1   -1    0    0    0  501  0.00000000000E+00  0.00000000000E+00  0.21670953975E+03  0.21670953981E+03  0.50400001928E-02 0. -1.
        1   -1    0    0  501    0  0.00000000000E+00  0.00000000000E+00 -0.72394756236E+03  0.72394756238E+03  0.50400001928E-02 0.  1.
    10030    2    1    2    0    0  0.00000000000E+00  0.00000000000E+00 -0.50723802262E+03  0.94065710219E+03  0.79217761412E+03 0.  0.
        3    1    3    3  502    0  0.14159873475E+03  0.36607081710E+03 -0.31676860980E+03  0.50438121215E+03  0.10100000352E+00 0.  1.
       -3    1    3    3    0  502 -0.14159873475E+03 -0.36607081710E+03 -0.19046941282E+03  0.43627589004E+03  0.10100000352E+00 0. -1.
</event>
<event>
 5   0  0.1049780E-02  0.8200942E+03  0.7818609E-02  0.9531379E-01
        1   -1    0    0  501    0  0.00000000000E+00  0.00000000000E+00  0.97303264983E+03  0.97303264985E+03  0.50400001928E-02 0. -1.
       -1   -1    0    0    0  501  0.00000000000E+00  0.00000000000E+00 -0.17279853604E+03  0.17279853611E+03  0.50400001928E-02 0.  1.
    10030    2    1    2    0    0  0.00000000000E+00  0.00000000000E+00  0.80023411380E+03  0.11458311860E+04  0.82009418351E+03 0.  0.
        5    1    3    3  502    0  0.32543365132E+03  0.21988687358E+03  0.23563200356E+03  0.45804129692E+03  0.46999998093E+01 0.  1.
       -5    1    3    3    0  502 -0.32543365132E+03 -0.21988687358E+03  0.56460211023E+03  0.68778988904E+03  0.46999998093E+01 0. -1.
</event>
<event>
 5   0  0.1817089E-02  0.8009160E+03  0.7818609E-02  0.9558692E-01
       -2   -1    0    0    0  501  0.00000000000E+00  0.00000000000E+00  0.29126088645E+03  0.29126088646E+03  0.25500000920E-02 0.  1.
        2   -1    0    0  501    0  0.00000000000E+00  0.00000000000E+00 -0.55059445692E+03  0.55059445693E+03  0.25500000920E-02 0. -1.
    10030    2    1    2    0    0  0.00000000000E+00  0.00000000000E+00 -0.25933357047E+03  0.84185534339E+03  0.80091604955E+03 0.  0.
        2    1    3    3  502    0 -0.97142096544E+02 -0.38826767497E+03 -0.11563310268E+03  0.41660459525E+03  0.25500000920E-02 0.  1.
       -2    1    3    3    0  502  0.97142096544E+02  0.38826767497E+03 -0.14370046779E+03  0.42525074814E+03  0.25500000920E-02 0. -1.
</event>
<event>
 5   0  0.1818665E-02  0.7813848E+03  0.7818609E-02  0.9587360E-01
        2   -1    0    0  501    0  0.00000000000E+00  0.00000000000E+00  0.18625056774E+03  0.18625056776E+03  0.25500000920E-02 0. -1.
       -2   -1    0    0    0  501  0.00000000000E+00  0.00000000000E+00 -0.81954400494E+03  0.81954400494E+03  0.25500000920E-02 0.  1.
    10030    2    1    2    0    0  0.00000000000E+00  0.00000000000E+00 -0.63329343719E+03  0.10057945727E+04  0.78138476111E+03 0.  0.
        3    1    3    3  502    0  0.12231297814E+02  0.28718719326E+03 -0.65724162778E+03  0.71735113864E+03  0.10100000352E+00 0.  1.
       -3    1    3    3    0  502 -0.12231297814E+02 -0.28718719326E+03  0.23948190590E+02  0.28844343406E+03  0.10100000352E+00 0. -1.
</event>
<event>
 5   0  0.1818665E-02  0.7920749E+03  0.7818609E-02  0.9571560E-01
       -2   -1    0    0    0  501  0.00000000000E+00  0.00000000000E+00  0.17870043067E+03  0.17870043069E+03  0.25500000920E-02 0.  1.
        2   -1    0    0  501    0  0.00000000000E+00  0.00000000000E+00 -0.87770163691E+03  0.87770163692E+03  0.25500000920E-02 0. -1.
    10030    2    1    2    0    0  0.00000000000E+00  0.00000000000E+00 -0.69900120625E+03  0.10564020676E+04  0.79207489678E+03 0.  0.
        3    1    3    3  502    0  0.19933662854E+03 -0.32706993222E+03 -0.48377474979E+03  0.61704768922E+03  0.10100000352E+00 0.  1.
       -3    1    3    3    0  502 -0.19933662854E+03  0.32706993222E+03 -0.21522645646E+03  0.43935437838E+03  0.10100000352E+00 0. -1.
</event>
<event>
 5   0  0.1038912E-02  0.7992350E+03  0.7818609E-02  0.9561125E-01
       -1   -1    0    0    0  501  0.00000000000E+00  0.00000000000E+00  0.16304119003E+03  0.16304119011E+03  0.50400001928E-02 0.  1.
        1   -1    0    0  501    0  0.00000000000E+00  0.00000000000E+00 -0.97947111018E+03  0.97947111020E+03  0.50400001928E-02 0. -1.
    10030    2    1    2    0    0  0.00000000000E+00  0.00000000000E+00 -0.81642992015E+03  0.11425123003E+04  0.79923497285E+03 0.  0.
        2    1    3    3  502    0  0.79936652888E+02  0.20565741907E+03  0.68069128622E+02  0.23090744633E+03  0.25500000920E-02 0.  1.
       -2    1    3    3    0  502 -0.79936652888E+02 -0.20565741907E+03 -0.88449904877E+03  0.91160485397E+03  0.25500000920E-02 0. -1.
</event>
<event>
 5   0  0.1731337E-02  0.8036009E+03  0.7818609E-02  0.9554820E-01
       -2   -1    0    0    0  501  0.00000000000E+00  0.00000000000E+00  0.12488797411E+03  0.12488797414E+03  0.25500000920E-02 0.  1.
        2   -1    0    0  501    0  0.00000000000E+00  0.00000000000E+00 -0.12927073850E+04  0.12927073850E+04  0.25500000920E-02 0. -1.
    10030    2    1    2    0    0  0.00000000000E+00  0.00000000000E+00 -0.11678194109E+04  0.14175953591E+04  0.80360091203E+03 0.  0.
        4    1    3    3  502    0  0.33947872386E+03 -0.11278862624E+03 -0.90666368498E+03  0.97468339923E+03  0.12699999809E+01 0. -1.
       -4    1    3    3    0  502 -0.33947872386E+03  0.11278862624E+03 -0.26115572590E+03  0.44291195991E+03  0.12699999809E+01 0.  1.
</event>
<event>
 5   0  0.1818665E-02  0.8070303E+03  0.7818609E-02  0.9549896E-01
        2   -1    0    0  501    0  0.00000000000E+00  0.00000000000E+00  0.61162907681E+03  0.61162907682E+03  0.25500000920E-02 0. -1.
       -2   -1    0    0    0  501  0.00000000000E+00  0.00000000000E+00 -0.26621438623E+03  0.26621438624E+03  0.25500000920E-02 0.  1.
    10030    2    1    2    0    0  0.00000000000E+00  0.00000000000E+00  0.34541469059E+03  0.87784346305E+03  0.80703025789E+03 0.  0.
        3    1    3    3  502    0 -0.19122146500E+03  0.31434163362E+03 -0.75046536865E+01  0.36801174075E+03  0.10100000352E+00 0. -1.
       -3    1    3    3    0  502  0.19122146500E+03 -0.31434163362E+03  0.35291934427E+03  0.50983172230E+03  0.10100000352E+00 0.  1.
</event>
<event>
 5   0  0.1818665E-02  0.7976847E+03  0.7818609E-02  0.9563374E-01
        2   -1    0    0  501    0  0.00000000000E+00  0.00000000000E+00  0.69511673971E+03  0.69511673971E+03  0.25500000920E-02 0.  1.
       -2   -1    0    0    0  501  0.00000000000E+00  0.00000000000E+00 -0.22884679511E+03  0.22884679512E+03  0.25500000920E-02 0. -1.
    10030    2    1    2    0    0  0.00000000000E+00  0.00000000000E+00  0.46626994460E+03  0.92396353484E+03  0.79768474504E+03 0.  0.
        3    1    3    3  502    0 -0.54327889639E+02 -0.29260536576E+03 -0.74429376371E+02  0.30677216616E+03  0.10100000352E+00 0. -1.
       -3    1    3    3    0  502  0.54327889639E+02  0.29260536576E+03  0.54069932097E+03  0.61719136867E+03  0.10100000352E+00 0.  1.
</event>
<event>
 5   0  0.6872500E-03  0.8035818E+03  0.7818609E-02  0.9554847E-01
        3   -1    0    0  501    0  0.00000000000E+00  0.00000000000E+00  0.28189660753E+03  0.28189662562E+03  0.10100000352E+00 0.  1.
       -3   -1    0    0    0  501  0.00000000000E+00  0.00000000000E+00 -0.57267775169E+03  0.57267776059E+03  0.10100000352E+00 0. -1.
    10030    2    1    2    0    0  0.00000000000E+00  0.00000000000E+00 -0.29078114416E+03  0.85457438622E+03  0.80358179906E+03 0.  0.
        5    1    3    3  502    0  0.30040973097E+03 -0.23131817285E+03 -0.40678962963E+01  0.37920013361E+03  0.46999998093E+01 0.  1.
       -5    1    3    3    0  502 -0.30040973097E+03  0.23131817285E+03 -0.28671324786E+03  0.47537425261E+03  0.46999998093E+01 0. -1.
</event>
<event>
 5   0  0.1818665E-02  0.8003849E+03  0.7818609E-02  0.9559460E-01
       -2   -1    0    0    0  501  0.00000000000E+00  0.00000000000E+00  0.16305134159E+03  0.16305134161E+03  0.25500000920E-02 0. -1.
        2   -1    0    0  501    0  0.00000000000E+00  0.00000000000E+00 -0.98223053401E+03  0.98223053401E+03  0.25500000920E-02 0.  1.
    10030    2    1    2    0    0  0.00000000000E+00  0.00000000000E+00 -0.81917919241E+03  0.11452818756E+04  0.80038492324E+03 0.  0.
        3    1    3    3  502    0  0.12397798703E+02 -0.22905231071E+03 -0.87882316533E+03  0.90826693905E+03  0.10100000352E+00 0.  1.
       -3    1    3    3    0  502 -0.12397798703E+02  0.22905231071E+03  0.59643972915E+02  0.23701493657E+03  0.10100000352E+00 0. -1.
</event>
<event>
 5   0  0.1673727E-02  0.7988417E+03  0.7818609E-02  0.9561695E-01
       -2   -1    0    0    0  501  0.00000000000E+00  0.00000000000E+00  0.16623126653E+03  0.16623126654E+03  0.25500000920E-02 0. -1.
        2   -1    0    0  501    0  0.00000000000E+00  0.00000000000E+00 -0.95972918895E+03  0.95972918895E+03  0.25500000920E-02 0.  1.
    10030    2    1    2    0    0  0.00000000000E+00  0.00000000000E+00 -0.79349792242E+03  0.11259604555E+04  0.79884165794E+03 0.  0.
        5    1    3    3  502    0 -0.29445228418E+03 -0.23512406531E+03 -0.58336389337E+03  0.69449333750E+03  0.46999998093E+01 0.  1.
       -5    1    3    3    0  502  0.29445228418E+03  0.23512406531E+03 -0.21013402906E+03  0.43146711800E+03  0.46999998093E+01 0. -1.
</event>
<event>
 5   0  0.1030323E-02  0.8100493E+03  0.7818609E-02  0.9545584E-01
       -1   -1    0    0    0  501  0.00000000000E+00  0.00000000000E+00  0.18302658183E+03  0.18302658190E+03  0.50400001928E-02 0. -1.
        1   -1    0    0  501    0  0.00000000000E+00  0.00000000000E+00 -0.89629040617E+03  0.89629040618E+03  0.50400001928E-02 0.  1.
    10030    2    1    2    0    0  0.00000000000E+00  0.00000000000E+00 -0.71326382434E+03  0.10793169881E+04  0.81004930569E+03 0.  0.
        3    1    3    3  502    0  0.27369533234E+03 -0.43807867503E+02  0.36861414425E+02  0.27961945261E+03  0.10100000352E+00 0. -1.
       -3    1    3    3    0  502 -0.27369533234E+03  0.43807867503E+02 -0.75012523877E+03  0.79969753547E+03  0.10100000352E+00 0.  1.
</event>
<event>
 5   0  0.6872500E-03  0.8006603E+03  0.7818609E-02  0.9559062E-01
        3   -1    0    0  501    0  0.00000000000E+00  0.00000000000E+00  0.27595544440E+03  0.27595546289E+03  0.10100000352E+00 0.  1.
       -3   -1    0    0    0  501  0.00000000000E+00  0.00000000000E+00 -0.58076123033E+03  0.58076123911E+03  0.10100000352E+00 0. -1.
    10030    2    1    2    0    0  0.00000000000E+00  0.00000000000E+00 -0.30480578592E+03  0.85671670200E+03  0.80066031521E+03 0.  0.
        3    1    3    3  502    0 -0.14534243965E+03 -0.13874452003E+02  0.24645113849E+03  0.28645261221E+03  0.10100000352E+00 0.  1.
       -3    1    3    3    0  502  0.14534243965E+03  0.13874452003E+02 -0.55125692441E+03  0.57026408978E+03  0.10100000352E+00 0. -1.
</event>
<event>
 5   0  0.1038912E-02  0.8202712E+03  0.7818609E-02  0.9531130E-01
       -1   -1    0    0    0  501  0.00000000000E+00  0.00000000000E+00  0.23272635649E+03  0.23272635654E+03  0.50400001928E-02 0.  1.
        1   -1    0    0  501    0  0.00000000000E+00  0.00000000000E+00 -0.72278536436E+03  0.72278536438E+03  0.50400001928E-02 0. -1.
    10030    2    1    2    0    0  0.00000000000E+00  0.00000000000E+00 -0.49005900787E+03  0.95551172092E+03  0.82027118542E+03 0.  0.
        2    1    3    3  502    0 -0.26907015599E+03 -0.30274300219E+03 -0.16990531092E+03  0.43922646654E+03  0.25500000920E-02 0.  1.
       -2    1    3    3    0  502  0.26907015599E+03  0.30274300219E+03 -0.32015369695E+03  0.51628525439E+03  0.25500000920E-02 0. -1.
</event>
<event>
 5   0  0.1146083E-02  0.8055585E+03  0.7818609E-02  0.9552006E-01
        1   -1    0    0  501    0  0.00000000000E+00  0.00000000000E+00  0.32710192584E+03  0.32710192588E+03  0.50400001928E-02 0.  1.
       -1   -1    0    0    0  501  0.00000000000E+00  0.00000000000E+00 -0.49596510252E+03  0.49596510255E+03  0.50400001928E-02 0. -1.
    10030    2    1    2    0    0  0.00000000000E+00  0.00000000000E+00 -0.16886317668E+03  0.82306702843E+03  0.80555853968E+03 0.  0.
        4    1    3    3  502    0  0.19756503896E+03 -0.15090983901E+02  0.27386065905E+03  0.33802508175E+03  0.12699999809E+01 0.  1.
       -4    1    3    3    0  502 -0.19756503896E+03  0.15090983901E+02 -0.44272383573E+03  0.48504194668E+03  0.12699999809E+01 0. -1.
</event>
<event>
 5   0  0.1818665E-02  0.8024980E+03  0.7818609E-02  0.9556408E-01
       -2   -1    0    0    0  501  0.00000000000E+00  0.00000000000E+00  0.39883693154E+03  0.39883693155E+03  0.25500000920E-02 0.  1.
        2   -1    0    0  501    0  0.00000000000E+00  0.00000000000E+00 -0.40367564273E+03  0.40367564274E+03  0.25500000920E-02 0. -1.
    10030    2    1    2    0    0  0.00000000000E+00  0.00000000000E+00 -0.48387111882E+01  0.80251257429E+03  0.80249798677E+03 0.  0.
        3    1    3    3  502    0  0.80341717762E+02 -0.28713778673E+03 -0.27093465398E+03  0.40287528730E+03  0.10100000352E+00 0. -1.
       -3    1    3    3    0  502 -0.80341717762E+02  0.28713778673E+03  0.26609594280E+03  0.39963728699E+03  0.10100000352E+00 0.  1.
</event>
<event>
 5   0  0.1818665E-02  0.7961320E+03  0.7818609E-02  0.9565633E-01
        2   -1    0    0  501    0  0.00000000000E+00  0.00000000000E+00  0.10880054789E+04  0.10880054789E+04  0.25500000920E-02 0.  1.
       -2   -1    0    0    0  501  0.00000000000E+00  0.00000000000E+00 -0.14563948088E+03  0.14563948090E+03  0.25500000920E-02 0. -1.
    10030    2    1    2    0    0  0.00000000000E+00  0.00000000000E+00  0.94236599802E+03  0.12336449598E+04  0.79613203215E+03 0.  0.
        3    1    3    3  502    0  0.17614818609E+03 -0.21061642258E+03  0.91778924888E+03  0.95797942383E+03  0.10100000352E+00 0.  1.
       -3    1    3    3    0  502 -0.17614818609E+03  0.21061642258E+03  0.24576749142E+02  0.27566553597E+03  0.10100000352E+00 0. -1.
</event>
<event>
 5   0  0.1747544E-02  0.8115015E+03  0.7818609E-02  0.9543517E-01
       -2   -1    0    0    0  501  0.00000000000E+00  0.00000000000E+00  0.28153056337E+03  0.28153056338E+03  0.25500000920E-02 0. -1.
        2   -1    0    0  501    0  0.00000000000E+00  0.00000000000E+00 -0.58478078804E+03  0.58478078805E+03  0.25500000920E-02 0.  1.
    10030    2    1    2    0    0  0.00000000000E+00  0.00000000000E+00 -0.30325022467E+03  0.86631135143E+03  0.81150148420E+03 0.  0.
        1    1    3    3  502    0 -0.69498513176E+02  0.11565898744E+03 -0.56012759977E+03  0.57615099823E+03  0.50400001928E-02 0.  1.
       -1    1    3    3    0  502  0.69498513176E+02 -0.11565898744E+03  0.25687737510E+03  0.29016035320E+03  0.50400001928E-02 0. -1.
</event>
<event>
 5   0  0.1025900E-02  0.7987627E+03  0.7818609E-02  0.9561810E-01
        1   -1    0    0  501    0  0.00000000000E+00  0.00000000000E+00  0.11585687053E+04  0.11585687053E+04  0.50400001928E-02 0.  1.
       -1   -1    0    0    0  501  0.00000000000E+00  0.00000000000E+00 -0.13767456630E+03  0.13767456639E+03  0.50400001928E-02 0. -1.
    10030    2    1    2    0    0  0.00000000000E+00  0.00000000000E+00  0.10208941390E+04  0.12962432717E+04  0.79876265336E+03 0.  0.
        1    1    3    3  502    0 -0.20154808547E+03  0.31794047005E+03  0.72694330504E+03  0.81862955115E+03  0.50400001928E-02 0.  1.
       -1    1    3    3    0  502  0.20154808547E+03 -0.31794047005E+03  0.29395083396E+03  0.47761372055E+03  0.50400001928E-02 0. -1.
</event>
<event>
 5   0  0.1817089E-02  0.7189999E+03  0.7818609E-02  0.9685280E-01
       -2   -1    0    0    0  501  0.00000000000E+00  0.00000000000E+00  0.11551415385E+03  0.11551415387E+03  0.25500000920E-02 0.  1.
        2   -1    0    0  501    0  0.00000000000E+00  0.00000000000E+00 -0.11188258975E+04  0.11188258975E+04  0.25500000920E-02 0. -1.
    10030    2    1    2    0    0  0.00000000000E+00  0.00000000000E+00 -0.10033117437E+04  0.12343400514E+04  0.71899993566E+03 0.  0.
        2    1    3    3  502    0  0.20750254939E+03 -0.19562907728E+03 -0.87743179367E+03  0.92261291799E+03  0.25500000920E-02 0. -1.
       -2    1    3    3    0  502 -0.20750254939E+03  0.19562907728E+03 -0.12587994999E+03  0.31172713340E+03  0.25500000920E-02 0.  1.
</event>
<event>
 5   0  0.1818665E-02  0.8022744E+03  0.7818609E-02  0.9556731E-01
       -2   -1    0    0    0  501  0.00000000000E+00  0.00000000000E+00  0.94135284824E+02  0.94135284858E+02  0.25500000920E-02 0. -1.
        2   -1    0    0  501    0  0.00000000000E+00  0.00000000000E+00 -0.17093598041E+04  0.17093598041E+04  0.25500000920E-02 0.  1.
    10030    2    1    2    0    0  0.00000000000E+00  0.00000000000E+00 -0.16152245193E+04  0.18034950890E+04  0.80227444695E+03 0.  0.
        3    1    3    3  502    0 -0.38505426556E+03  0.99655508619E+02 -0.69052187685E+03  0.79688046810E+03  0.10100000352E+00 0.  1.
       -3    1    3    3    0  502  0.38505426556E+03 -0.99655508619E+02 -0.92470264242E+03  0.10066146209E+04  0.10100000352E+00 0. -1.
</event>
<event>
 5   0  0.1025900E-02  0.7991326E+03  0.7818609E-02  0.9561273E-01
        1   -1    0    0  501    0  0.00000000000E+00  0.00000000000E+00  0.48821299246E+03  0.48821299248E+03  0.50400001928E-02 0.  1.
       -1   -1    0    0    0  501  0.00000000000E+00  0.00000000000E+00 -0.32701553915E+03  0.32701553919E+03  0.50400001928E-02 0. -1.
    10030    2    1    2    0    0  0.00000000000E+00  0.00000000000E+00  0.16119745331E+03  0.81522853168E+03  0.79913261722E+03 0.  0.
        1    1    3    3  502    0  0.29597913777E+03  0.19947437560E+02  0.35366855467E+03  0.46160913861E+03  0.50400001928E-02 0.  1.
       -1    1    3    3    0  502 -0.29597913777E+03 -0.19947437560E+02 -0.19247110137E+03  0.35361939306E+03  0.50400001928E-02 0. -1.
</event>
<event>
 5   0  0.1731337E-02  0.8029565E+03  0.7818609E-02  0.9555748E-01
        2   -1    0    0  501    0  0.00000000000E+00  0.00000000000E+00  0.47201344607E+03  0.47201344608E+03  0.25500000920E-02 0. -1.
       -2   -1    0    0    0  501  0.00000000000E+00  0.00000000000E+00 -0.34148344696E+03  0.34148344697E+03  0.25500000920E-02 0.  1.
    10030    2    1    2    0    0  0.00000000000E+00  0.00000000000E+00  0.13052999911E+03  0.81349689305E+03  0.80295648347E+03 0.  0.
        4    1    3    3  502    0  0.29243793209E+03 -0.21919800279E+03 -0.10309542328E+03  0.37973410138E+03  0.12699999809E+01 0.  1.
       -4    1    3    3    0  502 -0.29243793209E+03  0.21919800279E+03  0.23362542239E+03  0.43376279167E+03  0.12699999809E+01 0. -1.
</event>
<event>
 5   0  0.1049780E-02  0.7889397E+03  0.7818609E-02  0.9576166E-01
       -1   -1    0    0    0  501  0.00000000000E+00  0.00000000000E+00  0.14386215326E+03  0.14386215335E+03  0.50400001928E-02 0. -1.
        1   -1    0    0  501    0  0.00000000000E+00  0.00000000000E+00 -0.10816358609E+04  0.10816358609E+04  0.50400001928E-02 0.  1.
    10030    2    1    2    0    0  0.00000000000E+00  0.00000000000E+00 -0.93777370760E+03  0.12254980142E+04  0.78893970378E+03 0.  0.
        5    1    3    3  502    0 -0.19933697229E+03  0.31197638126E+03 -0.25749515967E+03  0.45098817971E+03  0.46999998093E+01 0. -1.
       -5    1    3    3    0  502  0.19933697229E+03 -0.31197638126E+03 -0.68027854793E+03  0.77450983451E+03  0.46999998093E+01 0.  1.
</event>
<event>
 5   0  0.1673727E-02  0.8039239E+03  0.7818609E-02  0.9554355E-01
       -2   -1    0    0    0  501  0.00000000000E+00  0.00000000000E+00  0.13139439882E+03  0.13139439884E+03  0.25500000920E-02 0.  1.
        2   -1    0    0  501    0  0.00000000000E+00  0.00000000000E+00 -0.12296826760E+04  0.12296826760E+04  0.25500000920E-02 0. -1.
    10030    2    1    2    0    0  0.00000000000E+00  0.00000000000E+00 -0.10982882772E+04  0.13610770749E+04  0.80392391672E+03 0.  0.
        5    1    3    3  502    0 -0.56651851025E+02  0.13484520858E+03  0.84693089540E+02  0.16907889258E+03  0.46999998093E+01 0.  1.
       -5    1    3    3    0  502  0.56651851025E+02 -0.13484520858E+03 -0.11829813667E+04  0.11919981823E+04  0.46999998093E+01 0. -1.
</event>
<event>
 5   0  0.1731337E-02  0.8134980E+03  0.7818609E-02  0.9540682E-01
        2   -1    0    0  501    0  0.00000000000E+00  0.00000000000E+00  0.13606020194E+04  0.13606020194E+04  0.25500000920E-02 0.  1.
       -2   -1    0    0    0  501  0.00000000000E+00  0.00000000000E+00 -0.12159673816E+03  0.12159673818E+03  0.25500000920E-02 0. -1.
    10030    2    1    2    0    0  0.00000000000E+00  0.00000000000E+00  0.12390052813E+04  0.14821987576E+04  0.81349804550E+03 0.  0.
        4    1    3    3  502    0  0.22912406974E+03  0.30456045301E+03  0.36062221006E+03  0.52469505445E+03  0.12699999809E+01 0. -1.
       -4    1    3    3    0  502 -0.22912406974E+03 -0.30456045301E+03  0.87838307120E+03  0.95750370315E+03  0.12699999809E+01 0.  1.
</event>
<event>
 5   0  0.1818665E-02  0.8068062E+03  0.7818609E-02  0.9550217E-01
        2   -1    0    0  501    0  0.00000000000E+00  0.00000000000E+00  0.69636253065E+03  0.69636253065E+03  0.25500000920E-02 0. -1.
       -2   -1    0    0    0  501  0.00000000000E+00  0.00000000000E+00 -0.23369156877E+03  0.23369156879E+03  0.25500000920E-02 0.  1.
    10030    2    1    2    0    0  0.00000000000E+00  0.00000000000E+00  0.46267096187E+03  0.93005409944E+03  0.80680617804E+03 0.  0.
        3    1    3    3  502    0 -0.17737310350E+03  0.44753922591E+02 -0.18312938407E+03  0.25884457295E+03  0.10100000352E+00 0.  1.
       -3    1    3    3    0  502  0.17737310350E+03 -0.44753922591E+02  0.64580034594E+03  0.67120952649E+03  0.10100000352E+00 0. -1.
</event>
<event>
 5   0  0.1673727E-02  0.8656800E+03  0.7818609E-02  0.9469530E-01
        2   -1    0    0  501    0  0.00000000000E+00  0.00000000000E+00  0.48086572398E+03  0.48086572399E+03  0.25500000920E-02 0.  1.
       -2   -1    0    0    0  501  0.00000000000E+00  0.00000000000E+00 -0.38961076415E+03  0.38961076416E+03  0.25500000920E-02 0. -1.
    10030    2    1    2    0    0  0.00000000000E+00  0.00000000000E+00  0.91254959830E+02  0.87047648815E+03  0.86567999210E+03 0.  0.
        5    1    3    3  502    0 -0.29812737627E+03  0.29432676806E+03  0.15495058405E+03  0.44669895049E+03  0.46999998093E+01 0.  1.
       -5    1    3    3    0  502  0.29812737627E+03 -0.29432676806E+03 -0.63695624218E+02  0.42377753765E+03  0.46999998093E+01 0. -1.
</event>
<event>
 5   0  0.1731337E-02  0.7884935E+03  0.7818609E-02  0.9576823E-01
        2   -1    0    0  501    0  0.00000000000E+00  0.00000000000E+00  0.12121919806E+04  0.12121919806E+04  0.25500000920E-02 0.  1.
       -2   -1    0    0    0  501  0.00000000000E+00  0.00000000000E+00 -0.12822266179E+03  0.12822266182E+03  0.25500000920E-02 0. -1.
    10030    2    1    2    0    0  0.00000000000E+00  0.00000000000E+00  0.10839693188E+04  0.13404146424E+04  0.78849345559E+03 0.  0.
        4    1    3    3  502    0  0.19806818846E+03  0.12694063703E+03  0.10797877088E+04  0.11051190170E+04  0.12699999809E+01 0.  1.
       -4    1    3    3    0  502 -0.19806818846E+03 -0.12694063703E+03  0.41816099944E+01  0.23529562548E+03  0.12699999809E+01 0. -1.
</event>
<event>
 5   0  0.1818665E-02  0.7998833E+03  0.7818609E-02  0.9560186E-01
       -2   -1    0    0    0  501  0.00000000000E+00  0.00000000000E+00  0.14129069420E+04  0.14129069420E+04  0.25500000920E-02 0. -1.
        2   -1    0    0  501    0  0.00000000000E+00  0.00000000000E+00 -0.11320868506E+03  0.11320868509E+03  0.25500000920E-02 0.  1.
    10030    2    1    2    0    0  0.00000000000E+00  0.00000000000E+00  0.12996982569E+04  0.15261156271E+04  0.79988333408E+03 0.  0.
        3    1    3    3  502    0  0.11740830847E+03  0.38024617778E+03  0.57397566183E+03  0.69844107639E+03  0.10100000352E+00 0.  1.
       -3    1    3    3    0  502 -0.11740830847E+03 -0.38024617778E+03  0.72572259509E+03  0.82767455067E+03  0.10100000352E+00 0. -1.
</event>
<event>
 5   0  0.6872500E-03  0.8120773E+03  0.7818609E-02  0.9542698E-01
        3   -1    0    0  501    0  0.00000000000E+00  0.00000000000E+00  0.14427505226E+04  0.14427505261E+04  0.10100000352E+00 0.  1.
       -3   -1    0    0    0  501  0.00000000000E+00  0.00000000000E+00 -0.11427294947E+03  0.11427299411E+03  0.10100000352E+00 0. -1.
    10030    2    1    2    0    0  0.00000000000E+00  0.00000000000E+00  0.13284775731E+04  0.15570235202E+04  0.81207732408E+03 0.  0.
        3    1    3    3  502    0 -0.27362627300E+03 -0.27135583343E+03  0.41898440785E+03  0.56925676969E+03  0.10100000352E+00 0.  1.
       -3    1    3    3    0  502  0.27362627300E+03  0.27135583343E+03  0.90949316524E+03  0.98776675052E+03  0.10100000352E+00 0. -1.
</event>
<event>
 5   0  0.1049780E-02  0.7897587E+03  0.7818609E-02  0.9574960E-01
       -1   -1    0    0    0  501  0.00000000000E+00  0.00000000000E+00  0.23402422160E+03  0.23402422165E+03  0.50400001928E-02 0.  1.
        1   -1    0    0  501    0  0.00000000000E+00  0.00000000000E+00 -0.66629725211E+03  0.66629725213E+03  0.50400001928E-02 0. -1.
    10030    2    1    2    0    0  0.00000000000E+00  0.00000000000E+00 -0.43227303051E+03  0.90032147378E+03  0.78975868672E+03 0.  0.
        5    1    3    3  502    0 -0.32518112068E+03 -0.14185422096E+03 -0.41372846255E+03  0.54503092754E+03  0.46999998093E+01 0. -1.
       -5    1    3    3    0  502  0.32518112068E+03  0.14185422096E+03 -0.18544567957E+02  0.35529054624E+03  0.46999998093E+01 0.  1.
</event>
<event>
 5   0  0.1747544E-02  0.7999448E+03  0.7818609E-02  0.9560097E-01
       -2   -1    0    0    0  501  0.00000000000E+00  0.00000000000E+00  0.11118248712E+03  0.11118248715E+03  0.25500000920E-02 0.  1.
        2   -1    0    0  501    0  0.00000000000E+00  0.00000000000E+00 -0.14388768526E+04  0.14388768526E+04  0.25500000920E-02 0. -1.
    10030    2    1    2    0    0  0.00000000000E+00  0.00000000000E+00 -0.13276943654E+04  0.15500593397E+04  0.79994476596E+03 0.  0.
        1    1    3    3  502    0 -0.35529716080E+03 -0.12952899991E+03 -0.41146808275E+03  0.55885581095E+03  0.50400001928E-02 0. -1.
       -1    1    3    3    0  502  0.35529716080E+03  0.12952899991E+03 -0.91622628270E+03  0.99120352876E+03  0.50400001928E-02 0.  1.
</event>
<event>
 5   0  0.1025900E-02  0.7993504E+03  0.7818609E-02  0.9560958E-01
        1   -1    0    0  501    0  0.00000000000E+00  0.00000000000E+00  0.17701443043E+04  0.17701443043E+04  0.50400001928E-02 0. -1.
       -1   -1    0    0    0  501  0.00000000000E+00  0.00000000000E+00 -0.90241377685E+02  0.90241377826E+02  0.50400001928E-02 0.  1.
    10030    2    1    2    0    0  0.00000000000E+00  0.00000000000E+00  0.16799029266E+04  0.18603856821E+04  0.79935038839E+03 0.  0.
        1    1    3    3  502    0  0.28465041033E+03  0.63035476594E+02  0.20367617443E+03  0.35564492329E+03  0.50400001928E-02 0.  1.
       -1    1    3    3    0  502 -0.28465041033E+03 -0.63035476594E+02  0.14762267521E+04  0.15047407588E+04  0.50400001928E-02 0. -1.
</event>
<event>
 5   0  0.1731337E-02  0.7977139E+03  0.7818609E-02  0.9563332E-01
       -2   -1    0    0    0  501  0.00000000000E+00  0.00000000000E+00  0.17997115774E+03  0.17997115776E+03  0.25500000920E-02 0. -1.
        2   -1    0    0  501    0  0.00000000000E+00  0.00000000000E+00 -0.88395765868E+03  0.88395765868E+03  0.25500000920E-02 0.  1.
    10030    2    1    2    0    0  0.00000000000E+00  0.00000000000E+00 -0.70398650094E+03  0.10639288164E+04  0.79771394180E+03 0.  0.
        4    1    3    3  502    0 -0.19838456798E+03 -0.28513022116E+03 -0.61344904292E+03  0.70496597151E+03  0.12699999809E+01 0.  1.
       -4    1    3    3    0  502  0.19838456798E+03  0.28513022116E+03 -0.90537458020E+02  0.35896284493E+03  0.12699999809E+01 0. -1.
</event>
<event>
 5   0  0.1731337E-02  0.8028475E+03  0.7818609E-02  0.9555905E-01
       -2   -1    0    0    0  501  0.00000000000E+00  0.00000000000E+00  0.11811662065E+03  0.11811662068E+03  0.25500000920E-02 0.  1.
        2   -1    0    0  501    0  0.00000000000E+00  0.00000000000E+00 -0.13642536072E+04  0.13642536072E+04  0.25500000920E-02 0. -1.
    10030    2    1    2    0    0  0.00000000000E+00  0.00000000000E+00 -0.12461369866E+04  0.14823702279E+04  0.80284749689E+03 0.  0.
        4    1    3    3  502    0 -0.41849032286E+02  0.36364960892E+03 -0.92728642858E+03  0.99692232050E+03  0.12699999809E+01 0. -1.
       -4    1    3    3    0  502  0.41849032286E+02 -0.36364960892E+03 -0.31885055800E+03  0.48544790741E+03  0.12699999809E+01 0.  1.
</event>
<event>
 5   0  0.6872500E-03  0.7973420E+03  0.7818609E-02  0.9563872E-01
        3   -1    0    0  501    0  0.00000000000E+00  0.00000000000E+00  0.62907891770E+03  0.62907892581E+03  0.10100000352E+00 0. -1.
       -3   -1    0    0    0  501  0.00000000000E+00  0.00000000000E+00 -0.25265282065E+03  0.25265284084E+03  0.10100000352E+00 0.  1.
    10030    2    1    2    0    0  0.00000000000E+00  0.00000000000E+00  0.37642609705E+03  0.88173176665E+03  0.79734202308E+03 0.  0.
        4    1    3    3  502    0 -0.33761967425E+03 -0.16375205991E+03  0.33713296393E+03  0.50444229584E+03  0.12699999809E+01 0. -1.
       -4    1    3    3    0  502  0.33761967425E+03  0.16375205991E+03  0.39293133123E+02  0.37728947080E+03  0.12699999809E+01 0.  1.
</event>
<event>
 5   0  0.1731337E-02  0.8144702E+03  0.7818609E-02  0.9539305E-01
        2   -1    0    0  501    0  0.00000000000E+00  0.00000000000E+00  0.38668104922E+03  0.38668104923E+03  0.25500000920E-02 0. -1.
       -2   -1    0    0    0  501  0.00000000000E+00  0.00000000000E+00 -0.42888173494E+03  0.42888173495E+03  0.25500000920E-02 0.  1.
    10030    2    1    2    0    0  0.00000000000E+00  0.00000000000E+00 -0.42200685720E+02  0.81556278418E+03  0.81447023093E+03 0.  0.
        4    1    3    3  502    0  0.36418056777E+03 -0.14501088986E+02 -0.20300596488E+03  0.41719396232E+03  0.12699999809E+01 0.  1.
       -4    1    3    3    0  502 -0.36418056777E+03  0.14501088986E+02  0.16080527916E+03  0.39836882186E+03  0.12699999809E+01 0. -1.
</event>
<event>
 5   0  0.1747544E-02  0.8216113E+03  0.7818609E-02  0.9529252E-01
        2   -1    0    0  501    0  0.00000000000E+00  0.00000000000E+00  0.15055003195E+03  0.15055003197E+03  0.25500000920E-02 0. -1.
       -2   -1    0    0    0  501  0.00000000000E+00  0.00000000000E+00 -0.11209646666E+04  0.11209646666E+04  0.25500000920E-02 0.  1.
    10030    2    1    2    0    0  0.00000000000E+00  0.00000000000E+00 -0.97041463467E+03  0.12715146986E+04  0.82161126183E+03 0.  0.
        1    1    3    3  502    0  0.19620229318E+03  0.18463742711E+03 -0.96514624776E+03  0.10020447090E+04  0.50400001928E-02 0.  1.
       -1    1    3    3    0  502 -0.19620229318E+03 -0.18463742711E+03 -0.52683869045E+01  0.26946998955E+03  0.50400001928E-02 0. -1.
</event>
<event>
 5   0  0.1146083E-02  0.8009384E+03  0.7818609E-02  0.9558660E-01
       -1   -1    0    0    0  501  0.00000000000E+00  0.00000000000E+00  0.35112111929E+03  0.35112111932E+03  0.50400001928E-02 0. -1.
        1   -1    0    0  501    0  0.00000000000E+00  0.00000000000E+00 -0.45675292804E+03  0.45675292807E+03  0.50400001928E-02 0.  1.
    10030    2    1    2    0    0  0.00000000000E+00  0.00000000000E+00 -0.10563180875E+03  0.80787404739E+03  0.80093844796E+03 0.  0.
        4    1    3    3  502    0 -0.36227919275E+03 -0.14382970946E+02  0.11871818453E+03  0.38150845809E+03  0.12699999809E+01 0.  1.
       -4    1    3    3    0  502  0.36227919275E+03  0.14382970946E+02 -0.22434999329E+03  0.42636558930E+03  0.12699999809E+01 0. -1.
</event>
<event>
 5   0  0.6872500E-03  0.8007716E+03  0.7818609E-02  0.9558901E-01
       -3   -1    0    0    0  501  0.00000000000E+00  0.00000000000E+00  0.13910736284E+03  0.13910739950E+03  0.10100000352E+00 0. -1.
        3   -1    0    0  501    0  0.00000000000E+00  0.00000000000E+00 -0.11524102931E+04  0.11524102975E+04  0.10100000352E+00 0.  1.
    10030    2    1    2    0    0  0.00000000000E+00  0.00000000000E+00 -0.10133029302E+04  0.12915176970E+04  0.80077158618E+03 0.  0.
        4    1    3    3  502    0  0.66905912270E+01 -0.33406456656E+03 -0.86244033584E+03  0.92490477587E+03  0.12699999809E+01 0.  1.
       -4    1    3    3    0  502 -0.66905912270E+01  0.33406456656E+03 -0.15086259437E+03  0.36661292111E+03  0.12699999809E+01 0. -1.
</event>
<event>
 5   0  0.1049780E-02  0.7945700E+03  0.7818609E-02  0.9567910E-01
       -1   -1    0    0    0  501  0.00000000000E+00  0.00000000000E+00  0.79308369275E+03  0.79308369277E+03  0.50400001928E-02 0.  1.
        1   -1    0    0  501    0  0.00000000000E+00  0.00000000000E+00 -0.19901476897E+03  0.19901476904E+03  0.50400001928E-02 0. -1.
    10030    2    1    2    0    0  0.00000000000E+00  0.00000000000E+00  0.59406892378E+03  0.99209846180E+03  0.79456999170E+03 0.  0.
        5    1    3    3  502    0 -0.22146347674E+03 -0.26327102986E+03  0.49020126030E+02  0.34753815538E+03  0.46999998093E+01 0. -1.
       -5    1    3    3    0  502  0.22146347674E+03  0.26327102986E+03  0.54504879775E+03  0.64456030642E+03  0.46999998093E+01 0.  1.
</event>
<event>
 5   0  0.1731337E-02  0.7932670E+03  0.7818609E-02  0.9569814E-01
        2   -1    0    0  501    0  0.00000000000E+00  0.00000000000E+00  0.31661582130E+03  0.31661582131E+03  0.25500000920E-02 0. -1.
       -2   -1    0    0    0  501  0.00000000000E+00  0.00000000000E+00 -0.49687383619E+03  0.49687383620E+03  0.25500000920E-02 0.  1.
    10030    2    1    2    0    0  0.00000000000E+00  0.00000000000E+00 -0.18025801489E+03  0.81348965751E+03  0.79326696071E+03 0.  0.
        4    1    3    3  502    0 -0.28318826462E+03 -0.16717114006E+03 -0.31753590016E+03  0.45713503922E+03  0.12699999809E+01 0.  1.
       -4    1    3    3    0  502  0.28318826462E+03  0.16717114006E+03  0.13727788528E+03  0.35635461829E+03  0.12699999809E+01 0. -1.
</event>
<event>
 5   0  0.1747544E-02  0.8095915E+03  0.7818609E-02  0.9546237E-01
       -2   -1    0    0    0  501  0.00000000000E+00  0.00000000000E+00  0.22122790333E+03  0.22122790334E+03  0.25500000920E-02 0. -1.
        2   -1    0    0  501    0  0.00000000000E+00  0.00000000000E+00 -0.74068238748E+03  0.74068238749E+03  0.25500000920E-02 0.  1.
    10030    2    1    2    0    0  0.00000000000E+00  0.00000000000E+00 -0.51945448416E+03  0.96191029083E+03  0.80959153065E+03 0.  0.
        1    1    3    3  502    0 -0.24875392262E+03  0.94935593549E+02  0.10254589441E+03  0.28531901694E+03  0.50400001928E-02 0. -1.
       -1    1    3    3    0  502  0.24875392262E+03 -0.94935593549E+02 -0.62200037857E+03  0.67659127389E+03  0.50400001928E-02 0.  1.
</event>
<event>
 5   0  0.1731337E-02  0.8066774E+03  0.7818609E-02  0.9550402E-01
        2   -1    0    0  501    0  0.00000000000E+00  0.00000000000E+00  0.12948579099E+04  0.12948579099E+04  0.25500000920E-02 0. -1.
       -2   -1    0    0    0  501  0.00000000000E+00  0.00000000000E+00 -0.12563703386E+03  0.12563703389E+03  0.25500000920E-02 0.  1.
    10030    2    1    2    0    0  0.00000000000E+00  0.00000000000E+00  0.11692208761E+04  0.14204949438E+04  0.80667740044E+03 0.  0.
        4    1    3    3  502    0 -0.15463380814E+03  0.29453007983E+03  0.18297800002E+03  0.37966056410E+03  0.12699999809E+01 0.  1.
       -4    1    3    3    0  502  0.15463380814E+03 -0.29453007983E+03  0.98624287604E+03  0.10408343797E+04  0.12699999809E+01 0. -1.
</event>
<event>
 5   0  0.1673727E-02  0.8018996E+03  0.7818609E-02  0.9557272E-01
        2   -1    0    0  501    0  0.00000000000E+00  0.00000000000E+00  0.41965867939E+03  0.41965867940E+03  0.25500000920E-02 0. -1.
       -2   -1    0    0    0  501  0.00000000000E+00  0.00000000000E+00 -0.38307495747E+03  0.38307495748E+03  0.25500000920E-02 0.  1.
    10030    2    1    2    0    0  0.00000000000E+00  0.00000000000E+00  0.36583721913E+02  0.80273363688E+03  0.80189957168E+03 0.  0.
        5    1    3    3  502    0 -0.11326361206E+03  0.27452993785E+02 -0.36571673966E+03  0.38386603959E+03  0.46999998093E+01 0.  1.
       -5    1    3    3    0  502  0.11326361206E+03 -0.27452993785E+02  0.40230046157E+03  0.41886759729E+03  0.46999998093E+01 0. -1.
</event>
<event>
 5   0  0.1817089E-02  0.8050240E+03  0.7818609E-02  0.9552773E-01
        2   -1    0    0  501    0  0.00000000000E+00  0.00000000000E+00  0.87053691057E+03  0.87053691057E+03  0.25500000920E-02 0. -1.
       -2   -1    0    0    0  501  0.00000000000E+00  0.00000000000E+00 -0.18611031057E+03  0.18611031059E+03  0.25500000920E-02 0.  1.
    10030    2    1    2    0    0  0.00000000000E+00  0.00000000000E+00  0.68442659999E+03  0.10566472212E+04  0.80502396189E+03 0.  0.
        2    1    3    3  502    0  0.16472040622E+03  0.11298145405E+03 -0.11646852916E+03  0.23121967796E+03  0.25500000920E-02 0.  1.
       -2    1    3    3    0  502 -0.16472040622E+03 -0.11298145405E+03  0.80089512915E+03  0.82542754321E+03  0.25500000920E-02 0. -1.
</event>
<event>
 5   0  0.1030323E-02  0.8132271E+03  0.7818609E-02  0.9541066E-01
        1   -1    0    0  501    0  0.00000000000E+00  0.00000000000E+00  0.10222852549E+04  0.10222852549E+04  0.50400001928E-02 0.  1.
       -1   -1    0    0    0  501  0.00000000000E+00  0.00000000000E+00 -0.16173038649E+03  0.16173038657E+03  0.50400001928E-02 0. -1.
    10030    2    1    2    0    0  0.00000000000E+00  0.00000000000E+00  0.86055486840E+03  0.11840156415E+04  0.81322712554E+03 0.  0.
        3    1    3    3  502    0 -0.36745166907E+03  0.16970415998E+03  0.37361979715E+03  0.55082846154E+03  0.10100000352E+00 0.  1.
       -3    1    3    3    0  502  0.36745166907E+03 -0.16970415998E+03  0.48693507124E+03  0.63318717993E+03  0.10100000352E+00 0. -1.
</event>
<event>
 5   0  0.1747544E-02  0.7818189E+03  0.7818609E-02  0.9586713E-01
       -2   -1    0    0    0  501  0.00000000000E+00  0.00000000000E+00  0.22706993117E+03  0.22706993119E+03  0.25500000920E-02 0. -1.
        2   -1    0    0  501    0  0.00000000000E+00  0.00000000000E+00 -0.67296542117E+03  0.67296542118E+03  0.25500000920E-02 0.  1.
    10030    2    1    2    0    0  0.00000000000E+00  0.00000000000E+00 -0.44589549000E+03  0.90003535236E+03  0.78181893524E+03 0.  0.
        1    1    3    3  502    0 -0.43123974844E+02  0.13505115077E+03 -0.64232804385E+03  0.65778705253E+03  0.50400001928E-02 0.  1.
       -1    1    3    3    0  502  0.43123974844E+02 -0.13505115077E+03  0.19643255386E+03  0.24224829983E+03  0.50400001928E-02 0. -1.
</event>
<event>
 5   0  0.1038912E-02  0.7075515E+03  0.7818609E-02  0.9704405E-01
       -1   -1    0    0    0  501  0.00000000000E+00  0.00000000000E+00  0.23316727748E+03  0.23316727753E+03  0.50400001928E-02 0. -1.
        1   -1    0    0  501    0  0.00000000000E+00  0.00000000000E+00 -0.53677037102E+03  0.53677037105E+03  0.50400001928E-02 0.  1.
    10030    2    1    2    0    0  0.00000000000E+00  0.00000000000E+00 -0.30360309354E+03  0.76993764858E+03  0.70755151352E+03 0.  0.
        2    1    3    3  502    0  0.24918052743E+03  0.58406799280E+02 -0.41758069470E+03  0.48977129974E+03  0.25500000920E-02 0.  1.
       -2    1    3    3    0  502 -0.24918052743E+03 -0.58406799280E+02  0.11397760116E+03  0.28016634884E+03  0.25500000920E-02 0. -1.
</event>
<event>
 5   0  0.1146083E-02  0.6708742E+03  0.7818609E-02  0.9768380E-01
       -1   -1    0    0    0  501  0.00000000000E+00  0.00000000000E+00  0.49909599052E+03  0.49909599054E+03  0.50400001928E-02 0.  1.
        1   -1    0    0  501    0  0.00000000000E+00  0.00000000000E+00 -0.22544367762E+03  0.22544367767E+03  0.50400001928E-02 0. -1.
    10030    2    1    2    0    0  0.00000000000E+00  0.00000000000E+00  0.27365231290E+03  0.72453966822E+03  0.67087416291E+03 0.  0.
        4    1    3    3  502    0  0.25838467071E+03 -0.12663327963E+03  0.32300460564E+03  0.43258781043E+03  0.12699999809E+01 0.  1.
       -4    1    3    3    0  502 -0.25838467071E+03  0.12663327963E+03 -0.49352292737E+02  0.29195185779E+03  0.12699999809E+01 0. -1.
</event>
<event>
 5   0  0.1818665E-02  0.7990608E+03  0.7818609E-02  0.9561378E-01
        2   -1    0    0  501    0  0.00000000000E+00  0.00000000000E+00  0.37155143761E+03  0.37155143762E+03  0.25500000920E-02 0.  1.
       -2   -1    0    0    0  501  0.00000000000E+00  0.00000000000E+00 -0.42961622599E+03  0.42961622599E+03  0.25500000920E-02 0. -1.
    10030    2    1    2    0    0  0.00000000000E+00  0.00000000000E+00 -0.58064788372E+02  0.80116766362E+03  0.79906076463E+03 0.  0.
        3    1    3    3  502    0 -0.40944156389E+02  0.39509780575E+03  0.14043849509E+02  0.39746187234E+03  0.10100000352E+00 0.  1.
       -3    1    3    3    0  502  0.40944156389E+02 -0.39509780575E+03 -0.72108637881E+02  0.40370579128E+03  0.10100000352E+00 0. -1.
</event>
<event>
 5   0  0.1673727E-02  0.8045084E+03  0.7818609E-02  0.9553514E-01
       -2   -1    0    0    0  501  0.00000000000E+00  0.00000000000E+00  0.17636591814E+03  0.17636591816E+03  0.25500000920E-02 0. -1.
        2   -1    0    0  501    0  0.00000000000E+00  0.00000000000E+00 -0.91745862591E+03  0.91745862591E+03  0.25500000920E-02 0.  1.
    10030    2    1    2    0    0  0.00000000000E+00  0.00000000000E+00 -0.74109270777E+03  0.10938245441E+04  0.80450837890E+03 0.  0.
        5    1    3    3  502    0  0.35055120137E+03 -0.19392426095E+03 -0.32164582033E+03  0.51378097231E+03  0.46999998093E+01 0.  1.
       -5    1    3    3    0  502 -0.35055120137E+03  0.19392426095E+03 -0.41944688743E+03  0.58004357176E+03  0.46999998093E+01 0. -1.
</event>
<event>
 5   0  0.6872500E-03  0.8045603E+03  0.7818609E-02  0.9553440E-01
        3   -1    0    0  501    0  0.00000000000E+00  0.00000000000E+00  0.36933688762E+03  0.36933690143E+03  0.10100000352E+00 0. -1.
       -3   -1    0    0    0  501  0.00000000000E+00  0.00000000000E+00 -0.43816176667E+03  0.43816177831E+03  0.10100000352E+00 0.  1.
    10030    2    1    2    0    0  0.00000000000E+00  0.00000000000E+00 -0.68824879053E+02  0.80749867973E+03  0.80456028599E+03 0.  0.
        3    1    3    3  502    0 -0.37754150957E+03 -0.10182224077E+03 -0.12922407220E+03  0.41183034274E+03  0.10100000352E+00 0.  1.
       -3    1    3    3    0  502  0.37754150957E+03  0.10182224077E+03  0.60399193143E+02  0.39566833699E+03  0.10100000352E+00 0. -1.
</event>
<event>
 5   0  0.6872500E-03  0.8154697E+03  0.7818609E-02  0.9537891E-01
       -3   -1    0    0    0  501  0.00000000000E+00  0.00000000000E+00  0.14902414624E+03  0.14902418047E+03  0.10100000352E+00 0.  1.
        3   -1    0    0  501    0  0.00000000000E+00  0.00000000000E+00 -0.11155754809E+04  0.11155754855E+04  0.10100000352E+00 0. -1.
    10030    2    1    2    0    0  0.00000000000E+00  0.00000000000E+00 -0.96655133469E+03  0.12645996660E+04  0.81546970060E+03 0.  0.
        4    1    3    3  502    0 -0.13134088767E+03 -0.38036310565E+03 -0.38135419011E+03  0.55439981253E+03  0.12699999809E+01 0.  1.
       -4    1    3    3    0  502  0.13134088767E+03  0.38036310565E+03 -0.58519714458E+03  0.71019985345E+03  0.12699999809E+01 0. -1.
</event>
<event>
 5   0  0.1673727E-02  0.7929114E+03  0.7818609E-02  0.9570335E-01
       -2   -1    0    0    0  501  0.00000000000E+00  0.00000000000E+00  0.30091384887E+03  0.30091384888E+03  0.25500000920E-02 0.  1.
        2   -1    0    0  501    0  0.00000000000E+00  0.00000000000E+00 -0.52233268482E+03  0.52233268482E+03  0.25500000920E-02 0. -1.
    10030    2    1    2    0    0  0.00000000000E+00  0.00000000000E+00 -0.22141883595E+03  0.82324653370E+03  0.79291144167E+03 0.  0.
        5    1    3    3  502    0  0.31954574032E+03 -0.22916610135E+03 -0.58501806901E+02  0.39758160618E+03  0.46999998093E+01 0. -1.
       -5    1    3    3    0  502 -0.31954574032E+03  0.22916610135E+03 -0.16291702905E+03  0.42566492752E+03  0.46999998093E+01 0.  1.
</event>
<event>
 5   0  0.1747544E-02  0.8070893E+03  0.7818609E-02  0.9549812E-01
       -2   -1    0    0    0  501  0.00000000000E+00  0.00000000000E+00  0.10086466748E+04  0.10086466748E+04  0.25500000920E-02 0. -1.
        2   -1    0    0  501    0  0.00000000000E+00  0.00000000000E+00 -0.16145225437E+03  0.16145225439E+03  0.25500000920E-02 0.  1.
    10030    2    1    2    0    0  0.00000000000E+00  0.00000000000E+00  0.84719442045E+03  0.11700989292E+04  0.80708928757E+03 0.  0.
        1    1    3    3  502    0 -0.26239869032E+03  0.50797594663E-01  0.86807887109E+03  0.90687044374E+03  0.50400001928E-02 0. -1.
       -1    1    3    3    0  502  0.26239869032E+03 -0.50797594663E-01 -0.20884450639E+02  0.26322848548E+03  0.50400001928E-02 0.  1.
</event>
<event>
 5   0  0.1146083E-02  0.7951417E+03  0.7818609E-02  0.9567076E-01
        1   -1    0    0  501    0  0.00000000000E+00  0.00000000000E+00  0.72482496384E+03  0.72482496386E+03  0.50400001928E-02 0.  1.
       -1   -1    0    0    0  501  0.00000000000E+00  0.00000000000E+00 -0.21806998772E+03  0.21806998778E+03  0.50400001928E-02 0. -1.
    10030    2    1    2    0    0  0.00000000000E+00  0.00000000000E+00  0.50675497612E+03  0.94289495164E+03  0.79514167543E+03 0.  0.
        4    1    3    3  502    0 -0.31387352995E+03  0.22312511261E+03  0.37052516415E+03  0.53440800784E+03  0.12699999809E+01 0.  1.
       -4    1    3    3    0  502  0.31387352995E+03 -0.22312511261E+03  0.13622981197E+03  0.40848694379E+03  0.12699999809E+01 0. -1.
</event>
<event>
 5   0  0.1049780E-02  0.8149885E+03  0.7818609E-02  0.9538572E-01
        1   -1    0    0  501    0  0.00000000000E+00  0.00000000000E+00  0.11593707066E+04  0.11593707066E+04  0.50400001928E-02 0.  1.
       -1   -1    0    0    0  501  0.00000000000E+00  0.00000000000E+00 -0.14322560497E+03  0.14322560505E+03  0.50400001928E-02 0. -1.
    10030    2    1    2    0    0  0.00000000000E+00  0.00000000000E+00  0.10161451017E+04  0.13025963117E+04  0.81498851747E+03 0.  0.
        5    1    3    3  502    0  0.26951640098E+03  0.25019490764E+03  0.22760434209E+03  0.43250711988E+03  0.46999998093E+01 0. -1.
       -5    1    3    3    0  502 -0.26951640098E+03 -0.25019490764E+03  0.78854075957E+03  0.87008919181E+03  0.46999998093E+01 0.  1.
</event>
<event>
 5   0  0.1673727E-02  0.8384274E+03  0.7818609E-02  0.9506002E-01
       -2   -1    0    0    0  501  0.00000000000E+00  0.00000000000E+00  0.71957336401E+03  0.71957336401E+03  0.25500000920E-02 0.  1.
        2   -1    0    0  501    0  0.00000000000E+00  0.00000000000E+00 -0.24422823971E+03  0.24422823972E+03  0.25500000920E-02 0. -1.
    10030    2    1    2    0    0  0.00000000000E+00  0.00000000000E+00  0.47534512430E+03  0.96380160373E+03  0.83842742331E+03 0.  0.
        5    1    3    3  502    0  0.21368521440E+03  0.35876653052E+03  0.27980347601E+03  0.50267968873E+03  0.46999998093E+01 0.  1.
       -5    1    3    3    0  502 -0.21368521440E+03 -0.35876653052E+03  0.19554164829E+03  0.46112191500E+03  0.46999998093E+01 0. -1.
</event>
<event>
 5   0  0.1817089E-02  0.8023162E+03  0.7818609E-02  0.9556671E-01
        2   -1    0    0  501    0  0.00000000000E+00  0.00000000000E+00  0.77300057946E+03  0.77300057946E+03  0.25500000920E-02 0.  1.
       -2   -1    0    0    0  501  0.00000000000E+00  0.00000000000E+00 -0.20818591174E+03  0.20818591175E+03  0.25500000920E-02 0. -1.
    10030    2    1    2    0    0  0.00000000000E+00  0.00000000000E+00  0.56481466772E+03  0.98118649122E+03  0.80231622299E+03 0.  0.
        2    1    3    3  502    0  0.37240445015E+02 -0.37626056887E+03  0.11847391148E+03  0.39622586253E+03  0.25500000920E-02 0.  1.
       -2    1    3    3    0  502 -0.37240445015E+02  0.37626056887E+03  0.44634075624E+03  0.58496062869E+03  0.25500000920E-02 0. -1.
</event>
<event>
 5   0  0.1818665E-02  0.8091202E+03  0.7818609E-02  0.9546909E-01
       -2   -1    0    0    0  501  0.00000000000E+00  0.00000000000E+00  0.74189855797E+02  0.74189855841E+02  0.25500000920E-02 0. -1.
        2   -1    0    0  501    0  0.00000000000E+00  0.00000000000E+00 -0.22060815456E+04  0.22060815456E+04  0.25500000920E-02 0.  1.
    10030    2    1    2    0    0  0.00000000000E+00  0.00000000000E+00 -0.21318916898E+04  0.22802714015E+04  0.80912019329E+03 0.  0.
        3    1    3    3  502    0 -0.11079985677E+03  0.38892555483E+03 -0.10979751739E+04  0.11700808468E+04  0.10100000352E+00 0. -1.
       -3    1    3    3    0  502  0.11079985677E+03 -0.38892555483E+03 -0.10339165159E+04  0.11101905546E+04  0.10100000352E+00 0.  1.
</event>
<event>
 5   0  0.1025900E-02  0.7834448E+03  0.7818609E-02  0.9584294E-01
       -1   -1    0    0    0  501  0.00000000000E+00  0.00000000000E+00  0.10972032990E+03  0.10972033002E+03  0.50400001928E-02 0.  1.
        1   -1    0    0  501    0  0.00000000000E+00  0.00000000000E+00 -0.13985231306E+04  0.13985231306E+04  0.50400001928E-02 0. -1.
    10030    2    1    2    0    0  0.00000000000E+00  0.00000000000E+00 -0.12888028007E+04  0.15082434607E+04  0.78344475074E+03 0.  0.
        1    1    3    3  502    0  0.12040883204E+03  0.36140343163E+03 -0.46863578919E+03  0.60392899431E+03  0.50400001928E-02 0.  1.
       -1    1    3    3    0  502 -0.12040883204E+03 -0.36140343163E+03 -0.82016701154E+03  0.90431446636E+03  0.50400001928E-02 0. -1.
</event>
<event>
 5   0  0.1818665E-02  0.7961331E+03  0.7818609E-02  0.9565631E-01
        2   -1    0    0  501    0  0.00000000000E+00  0.00000000000E+00  0.68567419439E+03  0.68567419440E+03  0.25500000920E-02 0. -1.
       -2   -1    0    0    0  501  0.00000000000E+00  0.00000000000E+00 -0.23109659945E+03  0.23109659946E+03  0.25500000920E-02 0.  1.
    10030    2    1    2    0    0  0.00000000000E+00  0.00000000000E+00  0.45457759495E+03  0.91677079386E+03  0.79613309104E+03 0.  0.
        3    1    3    3  502    0 -0.33571260109E+03 -0.17308783224E+03  0.82568437837E+02  0.38662631225E+03  0.10100000352E+00 0.  1.
       -3    1    3    3    0  502  0.33571260109E+03  0.17308783224E+03  0.37200915711E+03  0.53014448160E+03  0.10100000352E+00 0. -1.
</event>
<event>
 5   0  0.1673727E-02  0.7037671E+03  0.7818609E-02  0.9710812E-01
       -2   -1    0    0    0  501  0.00000000000E+00  0.00000000000E+00  0.25414941213E+03  0.25414941214E+03  0.25500000920E-02 0. -1.
        2   -1    0    0  501    0  0.00000000000E+00  0.00000000000E+00 -0.48720175175E+03  0.48720175176E+03  0.25500000920E-02 0.  1.
    10030    2    1    2    0    0  0.00000000000E+00  0.00000000000E+00 -0.23305233962E+03  0.74135116390E+03  0.70376711717E+03 0.  0.
        5    1    3    3  502    0 -0.31957385198E+03 -0.14720730331E+03 -0.11485666926E+03  0.37015075508E+03  0.46999998093E+01 0. -1.
       -5    1    3    3    0  502  0.31957385198E+03  0.14720730331E+03 -0.11819567036E+03  0.37120040882E+03  0.46999998093E+01 0.  1.
</event>
<event>
 5   0  0.1025900E-02  0.7976154E+03  0.7818609E-02  0.9563475E-01
       -1   -1    0    0    0  501  0.00000000000E+00  0.00000000000E+00  0.13557156568E+03  0.13557156577E+03  0.50400001928E-02 0. -1.
        1   -1    0    0  501    0  0.00000000000E+00  0.00000000000E+00 -0.11731633033E+04  0.11731633033E+04  0.50400001928E-02 0.  1.
    10030    2    1    2    0    0  0.00000000000E+00  0.00000000000E+00 -0.10375917376E+04  0.13087348691E+04  0.79761541082E+03 0.  0.
        1    1    3    3  502    0 -0.22881148291E+02  0.12890650376E+03 -0.11368980548E+04  0.11444114735E+04  0.50400001928E-02 0.  1.
       -1    1    3    3    0  502  0.22881148291E+02 -0.12890650376E+03  0.99306317213E+02  0.16432339554E+03  0.50400001928E-02 0. -1.
</event>
<event>
 5   0  0.1038912E-02  0.8011852E+03  0.7818609E-02  0.9558303E-01
       -1   -1    0    0    0  501  0.00000000000E+00  0.00000000000E+00  0.24869244359E+03  0.24869244364E+03  0.50400001928E-02 0.  1.
        1   -1    0    0  501    0  0.00000000000E+00  0.00000000000E+00 -0.64527262676E+03  0.64527262678E+03  0.50400001928E-02 0. -1.
    10030    2    1    2    0    0  0.00000000000E+00  0.00000000000E+00 -0.39658018317E+03  0.89396507042E+03  0.80118518798E+03 0.  0.
        2    1    3    3  502    0  0.15575472415E+02 -0.17961803687E+03 -0.59744396874E+03  0.62405490968E+03  0.25500000920E-02 0. -1.
       -2    1    3    3    0  502 -0.15575472415E+02  0.17961803687E+03  0.20086378557E+03  0.26991016074E+03  0.25500000920E-02 0.  1.
</event>
<event>
 5   0  0.1731337E-02  0.8038816E+03  0.7818609E-02  0.9554416E-01
       -2   -1    0    0    0  501  0.00000000000E+00  0.00000000000E+00  0.14142189192E+03  0.14142189194E+03  0.25500000920E-02 0. -1.
        2   -1    0    0  501    0  0.00000000000E+00  0.00000000000E+00 -0.11423719723E+04  0.11423719723E+04  0.25500000920E-02 0.  1.
    10030    2    1    2    0    0  0.00000000000E+00  0.00000000000E+00 -0.10009500804E+04  0.12837938643E+04  0.80388159731E+03 0.  0.
        4    1    3    3  502    0  0.18488789998E+03  0.77110318851E+02  0.56015418572E+02  0.20801172287E+03  0.12699999809E+01 0. -1.
       -4    1    3    3    0  502 -0.18488789998E+03 -0.77110318851E+02 -0.10569654990E+04  0.10757821414E+04  0.12699999809E+01 0.  1.
</event>
<event>
 5   0  0.1731337E-02  0.8013658E+03  0.7818609E-02  0.9558042E-01
       -2   -1    0    0    0  501  0.00000000000E+00  0.00000000000E+00  0.20771858277E+03  0.20771858278E+03  0.25500000920E-02 0. -1.
        2   -1    0    0  501    0  0.00000000000E+00  0.00000000000E+00 -0.77290524044E+03  0.77290524044E+03  0.25500000920E-02 0.  1.
    10030    2    1    2    0    0  0.00000000000E+00  0.00000000000E+00 -0.56518665767E+03  0.98062382323E+03  0.80136578706E+03 0.  0.
        4    1    3    3  502    0 -0.12201392290E+03  0.37536485198E+03 -0.36701023663E+03  0.53896595085E+03  0.12699999809E+01 0. -1.
       -4    1    3    3    0  502  0.12201392290E+03 -0.37536485198E+03 -0.19817642104E+03  0.44165787238E+03  0.12699999809E+01 0.  1.
</event>
<event>
 5   0  0.1817089E-02  0.7873284E+03  0.7818609E-02  0.9578542E-01
       -2   -1    0    0    0  501  0.00000000000E+00  0.00000000000E+00  0.11121030020E+03  0.11121030023E+03  0.25500000920E-02 0. -1.
        2   -1    0    0  501    0  0.00000000000E+00  0.00000000000E+00 -0.13934994597E+04  0.13934994597E+04  0.25500000920E-02 0.  1.
    10030    2    1    2    0    0  0.00000000000E+00  0.00000000000E+00 -0.12822891595E+04  0.15047097599E+04  0.78732837689E+03 0.  0.
        2    1    3    3  502    0 -0.36289379657E+03 -0.12985536647E+02 -0.93168451837E+03  0.99994828543E+03  0.25500000920E-02 0.  1.
       -2    1    3    3    0  502  0.36289379657E+03  0.12985536647E+02 -0.35060464111E+03  0.50476147449E+03  0.25500000920E-02 0. -1.
</event>
<event>
 5   0  0.1747544E-02  0.8009847E+03  0.7818609E-02  0.9558593E-01
        2   -1    0    0  501    0  0.00000000000E+00  0.00000000000E+00  0.20399084030E+04  0.20399084030E+04  0.25500000920E-02 0. -1.
       -2   -1    0    0    0  501  0.00000000000E+00  0.00000000000E+00 -0.78628102578E+02  0.78628102619E+02  0.25500000920E-02 0.  1.
    10030    2    1    2    0    0  0.00000000000E+00  0.00000000000E+00  0.19612803004E+04  0.21185365056E+04  0.80098471197E+03 0.  0.
        1    1    3    3  502    0 -0.83899499044E+02  0.66245469604E+02 -0.40196112359E+02  0.11420733627E+03  0.50400001928E-02 0.  1.
       -1    1    3    3    0  502  0.83899499044E+02 -0.66245469604E+02  0.20014764128E+04  0.20043291693E+04  0.50400001928E-02 0. -1.
</event>
<event>
 5   0  0.1731337E-02  0.7966576E+03  0.7818609E-02  0.9564868E-01
        2   -1    0    0  501    0  0.00000000000E+00  0.00000000000E+00  0.40718418469E+03  0.40718418470E+03  0.25500000920E-02 0. -1.
       -2   -1    0    0    0  501  0.00000000000E+00  0.00000000000E+00 -0.38966595848E+03  0.38966595849E+03  0.25500000920E-02 0.  1.
    10030    2    1    2    0    0  0.00000000000E+00  0.00000000000E+00  0.17518226215E+02  0.79685014318E+03  0.79665755657E+03 0.  0.
        4    1    3    3  502    0 -0.27732368569E+03  0.28229161351E+03  0.54236806563E+02  0.39942486877E+03  0.12699999809E+01 0. -1.
       -4    1    3    3    0  502  0.27732368569E+03 -0.28229161351E+03 -0.36718580349E+02  0.39742527442E+03  0.12699999809E+01 0.  1.
</event>
<event>
 5   0  0.1673727E-02  0.7959089E+03  0.7818609E-02  0.9565958E-01
       -2   -1    0    0    0  501  0.00000000000E+00  0.00000000000E+00  0.11847430786E+03  0.11847430789E+03  0.25500000920E-02 0.  1.
        2   -1    0    0  501    0  0.00000000000E+00  0.00000000000E+00 -0.13367264411E+04  0.13367264411E+04  0.25500000920E-02 0. -1.
    10030    2    1    2    0    0  0.00000000000E+00  0.00000000000E+00 -0.12182521333E+04  0.14552007490E+04  0.79590888909E+03 0.  0.
        5    1    3    3  502    0  0.35209986369E+03 -0.48911698019E+02 -0.93608399263E+03  0.10013201284E+04  0.46999998093E+01 0. -1.
       -5    1    3    3    0  502 -0.35209986369E+03  0.48911698019E+02 -0.28216814064E+03  0.45388062065E+03  0.46999998093E+01 0.  1.
</event>
<event>
 5   0  0.1025900E-02  0.8561561E+03  0.7818609E-02  0.9482111E-01
        1   -1    0    0  501    0  0.00000000000E+00  0.00000000000E+00  0.25536708587E+03  0.25536708592E+03  0.50400001928E-02 0.  1.
       -1   -1    0    0    0  501  0.00000000000E+00  0.00000000000E+00 -0.71759767990E+03  0.71759767992E+03  0.50400001928E-02 0. -1.
    10030    2    1    2    0    0  0.00000000000E+00  0.00000000000E+00 -0.46223059403E+03  0.97296476584E+03  0.85615612683E+03 0.  0.
        1    1    3    3  502    0  0.59165187216E+02 -0.33913664285E+02 -0.71138487891E+03  0.71464613759E+03  0.50400001928E-02 0. -1.
       -1    1    3    3    0  502 -0.59165187216E+02  0.33913664285E+02  0.24915428488E+03  0.25831862825E+03  0.50400001928E-02 0.  1.
</event>
<event>
 5   0  0.1030323E-02  0.7856064E+03  0.7818609E-02  0.9581088E-01
        1   -1    0    0  501    0  0.00000000000E+00  0.00000000000E+00  0.30666594975E+03  0.30666594979E+03  0.50400001928E-02 0.  1.
       -1   -1    0    0    0  501  0.00000000000E+00  0.00000000000E+00 -0.50313490398E+03  0.50313490400E+03  0.50400001928E-02 0. -1.
    10030    2    1    2    0    0  0.00000000000E+00  0.00000000000E+00 -0.19646895423E+03  0.80980085379E+03  0.78560637270E+03 0.  0.
        3    1    3    3  502    0 -0.37236835391E+03  0.59297214291E+02  0.15246803210E+02  0.37736828938E+03  0.10100000352E+00 0. -1.
       -3    1    3    3    0  502  0.37236835391E+03 -0.59297214291E+02 -0.21171575744E+03  0.43243256442E+03  0.10100000352E+00 0.  1.
</event>
<event>
 5   0  0.1146083E-02  0.7995010E+03  0.7818609E-02  0.9560740E-01
        1   -1    0    0  501    0  0.00000000000E+00  0.00000000000E+00  0.19534750109E+04  0.19534750109E+04  0.50400001928E-02 0.  1.
       -1   -1    0    0    0  501  0.00000000000E+00  0.00000000000E+00 -0.81803181345E+02  0.81803181500E+02  0.50400001928E-02 0. -1.
    10030    2    1    2    0    0  0.00000000000E+00  0.00000000000E+00  0.18716718295E+04  0.20352781924E+04  0.79950102121E+03 0.  0.
        4    1    3    3  502    0 -0.31661192390E+03  0.12821262881E+03  0.14644398361E+04  0.15037510549E+04  0.12699999809E+01 0.  1.
       -4    1    3    3    0  502  0.31661192390E+03 -0.12821262881E+03  0.40723199340E+03  0.53152713749E+03  0.12699999809E+01 0. -1.
</event>
<event>
 5   0  0.1025900E-02  0.7975051E+03  0.7818609E-02  0.9563635E-01
        1   -1    0    0  501    0  0.00000000000E+00  0.00000000000E+00  0.58519047107E+03  0.58519047109E+03  0.50400001928E-02 0.  1.
       -1   -1    0    0    0  501  0.00000000000E+00  0.00000000000E+00 -0.27171256835E+03  0.27171256839E+03  0.50400001928E-02 0. -1.
    10030    2    1    2    0    0  0.00000000000E+00  0.00000000000E+00  0.31347790272E+03  0.85690303949E+03  0.79750512449E+03 0.  0.
        1    1    3    3  502    0 -0.62197887280E+02 -0.19369224531E+03  0.52523745525E+03  0.56325806475E+03  0.50400001928E-02 0.  1.
       -1    1    3    3    0  502  0.62197887280E+02  0.19369224531E+03 -0.21175955253E+03  0.29364497474E+03  0.50400001928E-02 0. -1.
</event>
<event>
 5   0  0.1747544E-02  0.7998781E+03  0.7818609E-02  0.9560194E-01
       -2   -1    0    0    0  501  0.00000000000E+00  0.00000000000E+00  0.53847057781E+02  0.53847057842E+02  0.25500000920E-02 0.  1.
        2   -1    0    0  501    0  0.00000000000E+00  0.00000000000E+00 -0.29704733310E+04  0.29704733310E+04  0.25500000920E-02 0. -1.
    10030    2    1    2    0    0  0.00000000000E+00  0.00000000000E+00 -0.29166262732E+04  0.30243203888E+04  0.79987811368E+03 0.  0.
        1    1    3    3  502    0  0.36940813110E+03  0.10450067779E+03 -0.18821956869E+04  0.19209485580E+04  0.50400001928E-02 0.  1.
       -1    1    3    3    0  502 -0.36940813110E+03 -0.10450067779E+03 -0.10344305863E+04  0.11033718308E+04  0.50400001928E-02 0. -1.
</event>
<event>
 5   0  0.1731337E-02  0.7909961E+03  0.7818609E-02  0.9573142E-01
        2   -1    0    0  501    0  0.00000000000E+00  0.00000000000E+00  0.42971260334E+03  0.42971260335E+03  0.25500000920E-02 0.  1.
       -2   -1    0    0    0  501  0.00000000000E+00  0.00000000000E+00 -0.36400776774E+03  0.36400776775E+03  0.25500000920E-02 0. -1.
    10030    2    1    2    0    0  0.00000000000E+00  0.00000000000E+00  0.65704835598E+02  0.79372037109E+03  0.79099614542E+03 0.  0.
        4    1    3    3  502    0  0.23867858413E+03  0.31183306789E+03 -0.14317819215E+02  0.39295539391E+03  0.12699999809E+01 0. -1.
       -4    1    3    3    0  502 -0.23867858413E+03 -0.31183306789E+03  0.80022654813E+02  0.40076497719E+03  0.12699999809E+01 0.  1.
</event>
<event>
 5   0  0.1817089E-02  0.7841484E+03  0.7818609E-02  0.9583249E-01
        2   -1    0    0  501    0  0.00000000000E+00  0.00000000000E+00  0.20394955152E+04  0.20394955152E+04  0.25500000920E-02 0.  1.
       -2   -1    0    0    0  501  0.00000000000E+00  0.00000000000E+00 -0.75372644886E+02  0.75372644929E+02  0.25500000920E-02 0. -1.
    10030    2    1    2    0    0  0.00000000000E+00  0.00000000000E+00  0.19641228703E+04  0.21148681601E+04  0.78414838203E+03 0.  0.
        2    1    3    3  502    0  0.39566070233E+02  0.38902772611E+03  0.10590153591E+04  0.11289028197E+04  0.25500000920E-02 0. -1.
       -2    1    3    3    0  502 -0.39566070233E+02 -0.38902772611E+03  0.90510751125E+03  0.98596534043E+03  0.25500000920E-02 0.  1.
</event>
<event>
 5   0  0.1049780E-02  0.8027952E+03  0.7818609E-02  0.9555980E-01
       -1   -1    0    0    0  501  0.00000000000E+00  0.00000000000E+00  0.11633100064E+03  0.11633100075E+03  0.50400001928E-02 0.  1.
        1   -1    0    0  501    0  0.00000000000E+00  0.00000000000E+00 -0.13850136759E+04  0.13850136760E+04  0.50400001928E-02 0. -1.
    10030    2    1    2    0    0  0.00000000000E+00  0.00000000000E+00 -0.12686826753E+04  0.15013446767E+04  0.80279518411E+03 0.  0.
        5    1    3    3  502    0 -0.91379694844E+02 -0.29855708657E+03 -0.16266621507E+03  0.35209227497E+03  0.46999998093E+01 0. -1.
       -5    1    3    3    0  502  0.91379694844E+02  0.29855708657E+03 -0.11060164602E+04  0.11492524017E+04  0.46999998093E+01 0.  1.
</event>
<event>
 5   0  0.1030323E-02  0.7911544E+03  0.7818609E-02  0.9572910E-01
        1   -1    0    0  501    0  0.00000000000E+00  0.00000000000E+00  0.12122281034E+04  0.12122281034E+04  0.50400001928E-02 0. -1.
       -1   -1    0    0    0  501  0.00000000000E+00  0.00000000000E+00 -0.12908569757E+03  0.12908569767E+03  0.50400001928E-02 0.  1.
    10030    2    1    2    0    0  0.00000000000E+00  0.00000000000E+00  0.10831424059E+04  0.13413138011E+04  0.79115437284E+03 0.  0.
        3    1    3    3  502    0 -0.25780194046E+03  0.18734753160E+03  0.93888702163E+03  0.99149875829E+03  0.10100000352E+00 0. -1.
       -3    1    3    3    0  502  0.25780194046E+03 -0.18734753160E+03  0.14425538424E+03  0.34981504282E+03  0.10100000352E+00 0.  1.
</event>
<event>
 5   0  0.1747544E-02  0.8020908E+03  0.7818609E-02  0.9556996E-01
        2   -1    0    0  501    0  0.00000000000E+00  0.00000000000E+00  0.75707298955E+03  0.75707298955E+03  0.25500000920E-02 0.  1.
       -2   -1    0    0    0  501  0.00000000000E+00  0.00000000000E+00 -0.21244635289E+03  0.21244635291E+03  0.25500000920E-02 0. -1.
    10030    2    1    2    0    0  0.00000000000E+00  0.00000000000E+00  0.54462663666E+03  0.96951934246E+03  0.80209075674E+03 0.  0.
        1    1    3    3  502    0  0.46916680686E+02 -0.37413807540E+03  0.43741555386E+03  0.57750570661E+03  0.50400001928E-02 0.  1.
       -1    1    3    3    0  502 -0.46916680686E+02  0.37413807540E+03  0.10721108280E+03  0.39201363585E+03  0.50400001928E-02 0. -1.
</event>
<event>
 5   0  0.1146083E-02  0.7962149E+03  0.7818609E-02  0.9565512E-01
        1   -1    0    0  501    0  0.00000000000E+00  0.00000000000E+00  0.52352889261E+03  0.52352889263E+03  0.50400001928E-02 0.  1.
       -1   -1    0    0    0  501  0.00000000000E+00  0.00000000000E+00 -0.30273313117E+03  0.30273313121E+03  0.50400001928E-02 0. -1.
    10030    2    1    2    0    0  0.00000000000E+00  0.00000000000E+00  0.22079576144E+03  0.82626202384E+03  0.79621489799E+03 0.  0.
        4    1    3    3  502    0 -0.15345288524E+03  0.95631236141E+01  0.49147322762E+03  0.51496289933E+03  0.12699999809E+01 0.  1.
       -4    1    3    3    0  502  0.15345288524E+03 -0.95631236141E+01 -0.27067746618E+03  0.31129912451E+03  0.12699999809E+01 0. -1.
</event>
<event>
 5   0  0.1030323E-02  0.7989050E+03  0.7818609E-02  0.9561603E-01
       -1   -1    0    0    0  501  0.00000000000E+00  0.00000000000E+00  0.15890054199E+03  0.15890054207E+03  0.50400001928E-02 0.  1.
        1   -1    0    0  501    0  0.00000000000E+00  0.00000000000E+00 -0.10041645531E+04  0.10041645531E+04  0.50400001928E-02 0. -1.
    10030    2    1    2    0    0  0.00000000000E+00  0.00000000000E+00 -0.84526401109E+03  0.11630650952E+04  0.79890498006E+03 0.  0.
        3    1    3    3  502    0  0.31059237249E+03  0.23133750660E+03 -0.56510667058E+03  0.68507680091E+03  0.10100000352E+00 0.  1.
       -3    1    3    3    0  502 -0.31059237249E+03 -0.23133750660E+03 -0.28015734051E+03  0.47798829426E+03  0.10100000352E+00 0. -1.
</event>
<event>
 5   0  0.1025900E-02  0.8159468E+03  0.7818609E-02  0.9537217E-01
       -1   -1    0    0    0  501  0.00000000000E+00  0.00000000000E+00  0.52348105401E+03  0.52348105404E+03  0.50400001928E-02 0.  1.
        1   -1    0    0  501    0  0.00000000000E+00  0.00000000000E+00 -0.31795282614E+03  0.31795282618E+03  0.50400001928E-02 0. -1.
    10030    2    1    2    0    0  0.00000000000E+00  0.00000000000E+00  0.20552822787E+03  0.84143388022E+03  0.81594676439E+03 0.  0.
        1    1    3    3  502    0 -0.28435584354E+03 -0.65464180677E+02  0.39679934620E+03  0.49253784207E+03  0.50400001928E-02 0.  1.
       -1    1    3    3    0  502  0.28435584354E+03  0.65464180677E+02 -0.19127111832E+03  0.34889603815E+03  0.50400001928E-02 0. -1.
</event>
<event>
 5   0  0.6872500E-03  0.8009291E+03  0.7818609E-02  0.9558673E-01
       -3   -1    0    0    0  501  0.00000000000E+00  0.00000000000E+00  0.52845957516E+03  0.52845958482E+03  0.10100000352E+00 0.  1.
        3   -1    0    0  501    0  0.00000000000E+00  0.00000000000E+00 -0.30347044501E+03  0.30347046182E+03  0.10100000352E+00 0. -1.
    10030    2    1    2    0    0  0.00000000000E+00  0.00000000000E+00  0.22498913015E+03  0.83193004663E+03  0.80092914406E+03 0.  0.
        3    1    3    3  502    0 -0.75933813192E+02 -0.30283189716E+03 -0.14800905292E+03  0.34551380851E+03  0.10100000352E+00 0. -1.
       -3    1    3    3    0  502  0.75933813192E+02  0.30283189716E+03  0.37299818308E+03  0.48641623812E+03  0.10100000352E+00 0.  1.
</event>
<event>
 5   0  0.1049780E-02  0.8024184E+03  0.7818609E-02  0.9556523E-01
        1   -1    0    0  501    0  0.00000000000E+00  0.00000000000E+00  0.69446483441E+03  0.69446483442E+03  0.50400001928E-02 0.  1.
       -1   -1    0    0    0  501  0.00000000000E+00  0.00000000000E+00 -0.23178827271E+03  0.23178827276E+03  0.50400001928E-02 0. -1.
    10030    2    1    2    0    0  0.00000000000E+00  0.00000000000E+00  0.46267656170E+03  0.92625310719E+03  0.80241835586E+03 0.  0.
        5    1    3    3  502    0 -0.19160440951E+03 -0.20684901437E+03  0.56077264668E+03  0.62768369084E+03  0.46999998093E+01 0.  1.
       -5    1    3    3    0  502  0.19160440951E+03  0.20684901437E+03 -0.98096084978E+02  0.29856941634E+03  0.46999998093E+01 0. -1.
</event>
<event>
 5   0  0.1030323E-02  0.7984164E+03  0.7818609E-02  0.9562312E-01
        1   -1    0    0  501    0  0.00000000000E+00  0.00000000000E+00  0.41089832619E+03  0.41089832622E+03  0.50400001928E-02 0.  1.
       -1   -1    0    0    0  501  0.00000000000E+00  0.00000000000E+00 -0.38785066743E+03  0.38785066746E+03  0.50400001928E-02 0. -1.
    10030    2    1    2    0    0  0.00000000000E+00  0.00000000000E+00  0.23047658764E+02  0.79874899369E+03  0.79841640786E+03 0.  0.
        3    1    3    3  502    0 -0.31643863229E+02 -0.24127240200E+03 -0.30507833493E+03  0.39023903789E+03  0.10100000352E+00 0. -1.
       -3    1    3    3    0  502  0.31643863229E+02  0.24127240200E+03  0.32812599369E+03  0.40850995580E+03  0.10100000352E+00 0.  1.
</event>
<event>
 5   0  0.1731337E-02  0.7881753E+03  0.7818609E-02  0.9577292E-01
       -2   -1    0    0    0  501  0.00000000000E+00  0.00000000000E+00  0.15429536910E+03  0.15429536912E+03  0.25500000920E-02 0. -1.
        2   -1    0    0  501    0  0.00000000000E+00  0.00000000000E+00 -0.10065439133E+04  0.10065439133E+04  0.25500000920E-02 0.  1.
    10030    2    1    2    0    0  0.00000000000E+00  0.00000000000E+00 -0.85224854418E+03  0.11608392824E+04  0.78817527144E+03 0.  0.
        4    1    3    3  502    0 -0.28193858296E+03 -0.63538274323E+02 -0.31538095862E+02  0.29072795059E+03  0.12699999809E+01 0. -1.
       -4    1    3    3    0  502  0.28193858296E+03  0.63538274323E+02 -0.82071044832E+03  0.87011133181E+03  0.12699999809E+01 0.  1.
</event>
<event>
 5   0  0.1747544E-02  0.8019097E+03  0.7818609E-02  0.9557257E-01
        2   -1    0    0  501    0  0.00000000000E+00  0.00000000000E+00  0.15682762658E+04  0.15682762658E+04  0.25500000920E-02 0.  1.
       -2   -1    0    0    0  501  0.00000000000E+00  0.00000000000E+00 -0.10251051341E+03  0.10251051344E+03  0.25500000920E-02 0. -1.
    10030    2    1    2    0    0  0.00000000000E+00  0.00000000000E+00  0.14657657524E+04  0.16707867793E+04  0.80190973357E+03 0.  0.
        1    1    3    3  502    0 -0.25793718002E+02 -0.15410359532E+03 -0.36470065113E+02  0.16044718650E+03  0.50400001928E-02 0. -1.
       -1    1    3    3    0  502  0.25793718002E+02  0.15410359532E+03  0.15022358175E+04  0.15103395928E+04  0.50400001928E-02 0.  1.
</event>
<event>
 5   0  0.1146083E-02  0.7955579E+03  0.7818609E-02  0.9566469E-01
        1   -1    0    0  501    0  0.00000000000E+00  0.00000000000E+00  0.76753807381E+03  0.76753807383E+03  0.50400001928E-02 0.  1.
       -1   -1    0    0    0  501  0.00000000000E+00  0.00000000000E+00 -0.20615016979E+03  0.20615016985E+03  0.50400001928E-02 0. -1.
    10030    2    1    2    0    0  0.00000000000E+00  0.00000000000E+00  0.56138790403E+03  0.97368824368E+03  0.79555792818E+03 0.  0.
        4    1    3    3  502    0  0.38504208827E+03 -0.98045799284E+01  0.15908329701E+03  0.41672850612E+03  0.12699999809E+01 0. -1.
       -4    1    3    3    0  502 -0.38504208827E+03  0.98045799284E+01  0.40230460702E+03  0.55695973755E+03  0.12699999809E+01 0.  1.
</event>
<event>
 5   0  0.1673727E-02  0.8068136E+03  0.7818609E-02  0.9550207E-01
       -2   -1    0    0    0  501  0.00000000000E+00  0.00000000000E+00  0.75631709168E+03  0.75631709169E+03  0.25500000920E-02 0.  1.
        2   -1    0    0  501    0  0.00000000000E+00  0.00000000000E+00 -0.21517040198E+03  0.21517040199E+03  0.25500000920E-02 0. -1.
    10030    2    1    2    0    0  0.00000000000E+00  0.00000000000E+00  0.54114668971E+03  0.97148749368E+03  0.80681361577E+03 0.  0.
        5    1    3    3  502    0  0.17152256090E+03 -0.36377339629E+03  0.30795665126E+03  0.50656733196E+03  0.46999998093E+01 0.  1.
       -5    1    3    3    0  502 -0.17152256090E+03  0.36377339629E+03  0.23319003844E+03  0.46492016172E+03  0.46999998093E+01 0. -1.
</event>
<event>
 5   0  0.1146083E-02  0.8011288E+03  0.7818609E-02  0.9558385E-01
       -1   -1    0    0    0  501  0.00000000000E+00  0.00000000000E+00  0.51594950265E+03  0.51594950268E+03  0.50400001928E-02 0. -1.
        1   -1    0    0  501    0  0.00000000000E+00  0.00000000000E+00 -0.31098361176E+03  0.31098361180E+03  0.50400001928E-02 0.  1.
    10030    2    1    2    0    0  0.00000000000E+00  0.00000000000E+00  0.20496589089E+03  0.82693311448E+03  0.80112880325E+03 0.  0.
        4    1    3    3  502    0 -0.39221535328E+03  0.53693262746E+01  0.18626707686E+03  0.43423351993E+03  0.12699999809E+01 0. -1.
       -4    1    3    3    0  502  0.39221535328E+03 -0.53693262746E+01  0.18698814034E+02  0.39269959455E+03  0.12699999809E+01 0.  1.
</event>
<event>
 5   0  0.1025900E-02  0.7652020E+03  0.7818609E-02  0.9611798E-01
       -1   -1    0    0    0  501  0.00000000000E+00  0.00000000000E+00  0.12644907982E+03  0.12644907992E+03  0.50400001928E-02 0. -1.
        1   -1    0    0  501    0  0.00000000000E+00  0.00000000000E+00 -0.11576481425E+04  0.11576481425E+04  0.50400001928E-02 0.  1.
    10030    2    1    2    0    0  0.00000000000E+00  0.00000000000E+00 -0.10311990626E+04  0.12840972224E+04  0.76520204507E+03 0.  0.
        1    1    3    3  502    0  0.18276227655E+03 -0.21264825027E+03 -0.95243267223E+03  0.99284909388E+03  0.50400001928E-02 0.  1.
       -1    1    3    3    0  502 -0.18276227655E+03  0.21264825027E+03 -0.78766390409E+02  0.29124812851E+03  0.50400001928E-02 0. -1.
</event>
<event>
 5   0  0.1025900E-02  0.8015523E+03  0.7818609E-02  0.9557773E-01
        1   -1    0    0  501    0  0.00000000000E+00  0.00000000000E+00  0.36615035748E+03  0.36615035752E+03  0.50400001928E-02 0.  1.
       -1   -1    0    0    0  501  0.00000000000E+00  0.00000000000E+00 -0.43867637824E+03  0.43867637827E+03  0.50400001928E-02 0. -1.
    10030    2    1    2    0    0  0.00000000000E+00  0.00000000000E+00 -0.72526020756E+02  0.80482673579E+03  0.80155227587E+03 0.  0.
        1    1    3    3  502    0  0.14472561425E+03  0.21921136742E+03 -0.34019145062E+03  0.42980152411E+03  0.50400001928E-02 0. -1.
       -1    1    3    3    0  502 -0.14472561425E+03 -0.21921136742E+03  0.26766542986E+03  0.37502521168E+03  0.50400001928E-02 0.  1.
</event>
<event>
 5   0  0.1030323E-02  0.7986003E+03  0.7818609E-02  0.9562045E-01
       -1   -1    0    0    0  501  0.00000000000E+00  0.00000000000E+00  0.14531679955E+03  0.14531679964E+03  0.50400001928E-02 0.  1.
        1   -1    0    0  501    0  0.00000000000E+00  0.00000000000E+00 -0.10971931867E+04  0.10971931867E+04  0.50400001928E-02 0. -1.
    10030    2    1    2    0    0  0.00000000000E+00  0.00000000000E+00 -0.95187638717E+03  0.12425099864E+04  0.79860028161E+03 0.  0.
        3    1    3    3  502    0  0.62338004556E+02  0.45832610434E+02 -0.10854181767E+04  0.10881724512E+04  0.10100000352E+00 0. -1.
       -3    1    3    3    0  502 -0.62338004556E+02 -0.45832610434E+02  0.13354178958E+03  0.15433753515E+03  0.10100000352E+00 0.  1.
</event>
<event>
 5   0  0.1673727E-02  0.8171688E+03  0.7818609E-02  0.9535493E-01
        2   -1    0    0  501    0  0.00000000000E+00  0.00000000000E+00  0.91356870920E+03  0.91356870921E+03  0.25500000920E-02 0.  1.
       -2   -1    0    0    0  501  0.00000000000E+00  0.00000000000E+00 -0.18273526420E+03  0.18273526422E+03  0.25500000920E-02 0. -1.
    10030    2    1    2    0    0  0.00000000000E+00  0.00000000000E+00  0.73083344500E+03  0.10963039734E+04  0.81716881843E+03 0.  0.
        5    1    3    3  502    0 -0.34273955419E+02  0.23172665093E+03  0.81449254722E+03  0.84752117628E+03  0.46999998093E+01 0.  1.
       -5    1    3    3    0  502  0.34273955419E+02 -0.23172665093E+03 -0.83659102222E+02  0.24878279714E+03  0.46999998093E+01 0. -1.
</event>
<event>
 5   0  0.1747544E-02  0.7979771E+03  0.7818609E-02  0.9562950E-01
        2   -1    0    0  501    0  0.00000000000E+00  0.00000000000E+00  0.66250033167E+03  0.66250033168E+03  0.25500000920E-02 0.  1.
       -2   -1    0    0    0  501  0.00000000000E+00  0.00000000000E+00 -0.24028949593E+03  0.24028949594E+03  0.25500000920E-02 0. -1.
    10030    2    1    2    0    0  0.00000000000E+00  0.00000000000E+00  0.42221083575E+03  0.90278982762E+03  0.79797711937E+03 0.  0.
        1    1    3    3  502    0 -0.20131392019E+03 -0.11020020145E+03 -0.15813803172E+03  0.27870955485E+03  0.50400001928E-02 0. -1.
       -1    1    3    3    0  502  0.20131392019E+03  0.11020020145E+03  0.58034886747E+03  0.62408027277E+03  0.50400001928E-02 0.  1.
</event>
<event>
 5   0  0.1146083E-02  0.7975619E+03  0.7818609E-02  0.9563553E-01
        1   -1    0    0  501    0  0.00000000000E+00  0.00000000000E+00  0.48014500861E+03  0.48014500864E+03  0.50400001928E-02 0.  1.
       -1   -1    0    0    0  501  0.00000000000E+00  0.00000000000E+00 -0.33120460403E+03  0.33120460407E+03  0.50400001928E-02 0. -1.
    10030    2    1    2    0    0  0.00000000000E+00  0.00000000000E+00  0.14894040458E+03  0.81134961271E+03  0.79756187843E+03 0.  0.
        4    1    3    3  502    0 -0.11404713492E+03 -0.19246670981E+03  0.41028974895E+03  0.46732159630E+03  0.12699999809E+01 0.  1.
       -4    1    3    3    0  502  0.11404713492E+03  0.19246670981E+03 -0.26134934438E+03  0.34402801641E+03  0.12699999809E+01 0. -1.
</event>
<event>
 5   0  0.1030323E-02  0.8019058E+03  0.7818609E-02  0.9557263E-01
        1   -1    0    0  501    0  0.00000000000E+00  0.00000000000E+00  0.51890311961E+03  0.51890311963E+03  0.50400001928E-02 0. -1.
       -1   -1    0    0    0  501  0.00000000000E+00  0.00000000000E+00 -0.30981359346E+03  0.30981359350E+03  0.50400001928E-02 0.  1.
    10030    2    1    2    0    0  0.00000000000E+00  0.00000000000E+00  0.20908952615E+03  0.82871671314E+03  0.80190583031E+03 0.  0.
        3    1    3    3  502    0 -0.11794383073E+03 -0.32737730359E+03 -0.10130475886E+03  0.36242145423E+03  0.10100000352E+00 0.  1.
       -3    1    3    3    0  502  0.11794383073E+03  0.32737730359E+03  0.31039428501E+03  0.46629525891E+03  0.10100000352E+00 0. -1.
</event>
<event>
 5   0  0.1673727E-02  0.8005858E+03  0.7818609E-02  0.9559170E-01
       -2   -1    0    0    0  501  0.00000000000E+00  0.00000000000E+00  0.13019683379E+03  0.13019683381E+03  0.25500000920E-02 0.  1.
        2   -1    0    0  501    0  0.00000000000E+00  0.00000000000E+00 -0.12307090062E+04  0.12307090062E+04  0.25500000920E-02 0. -1.
    10030    2    1    2    0    0  0.00000000000E+00  0.00000000000E+00 -0.11005121724E+04  0.13609058400E+04  0.80058582535E+03 0.  0.
        5    1    3    3  502    0  0.44008372891E+01  0.78826509155E+02 -0.12172953649E+04  0.12198619108E+04  0.46999998093E+01 0. -1.
       -5    1    3    3    0  502 -0.44008372891E+01 -0.78826509155E+02  0.11678319253E+03  0.14104392922E+03  0.46999998093E+01 0.  1.
</event>
<event>
 5   0  0.1030323E-02  0.7940743E+03  0.7818609E-02  0.9568634E-01
       -1   -1    0    0    0  501  0.00000000000E+00  0.00000000000E+00  0.10969153765E+03  0.10969153776E+03  0.50400001928E-02 0. -1.
        1   -1    0    0  501    0  0.00000000000E+00  0.00000000000E+00 -0.14371072838E+04  0.14371072838E+04  0.50400001928E-02 0.  1.
    10030    2    1    2    0    0  0.00000000000E+00  0.00000000000E+00 -0.13274157462E+04  0.15467988216E+04  0.79407432352E+03 0.  0.
        3    1    3    3  502    0  0.31602521458E+03  0.18929926300E+03 -0.95218757926E+03  0.10209639286E+04  0.10100000352E+00 0.  1.
       -3    1    3    3    0  502 -0.31602521458E+03 -0.18929926300E+03 -0.37522816691E+03  0.52583489297E+03  0.10100000352E+00 0. -1.
</event>
<event>
 5   0  0.1030323E-02  0.8123876E+03  0.7818609E-02  0.9542258E-01
        1   -1    0    0  501    0  0.00000000000E+00  0.00000000000E+00  0.58379367533E+03  0.58379367535E+03  0.50400001928E-02 0. -1.
       -1   -1    0    0    0  501  0.00000000000E+00  0.00000000000E+00 -0.28262278002E+03  0.28262278006E+03  0.50400001928E-02 0.  1.
    10030    2    1    2    0    0  0.00000000000E+00  0.00000000000E+00  0.30117089532E+03  0.86641645542E+03  0.81238757132E+03 0.  0.
        3    1    3    3  502    0 -0.31061308660E+03 -0.24882560326E+03  0.23722036641E+03  0.46332297897E+03  0.10100000352E+00 0. -1.
       -3    1    3    3    0  502  0.31061308660E+03  0.24882560326E+03  0.63950528908E+02  0.40309347644E+03  0.10100000352E+00 0.  1.
</event>
<event>
 5   0  0.1731337E-02  0.8092571E+03  0.7818609E-02  0.9546714E-01
        2   -1    0    0  501    0  0.00000000000E+00  0.00000000000E+00  0.95011087132E+03  0.95011087132E+03  0.25500000920E-02 0.  1.
       -2   -1    0    0    0  501  0.00000000000E+00  0.00000000000E+00 -0.17232119859E+03  0.17232119861E+03  0.25500000920E-02 0. -1.
    10030    2    1    2    0    0  0.00000000000E+00  0.00000000000E+00  0.77778967273E+03  0.11224320699E+04  0.80925705224E+03 0.  0.
        4    1    3    3  502    0 -0.44405850813E+02 -0.21058302908E+03 -0.86350505024E+02  0.23189461904E+03  0.12699999809E+01 0. -1.
       -4    1    3    3    0  502  0.44405850813E+02  0.21058302908E+03  0.86414017775E+03  0.89053745089E+03  0.12699999809E+01 0.  1.
</event>
<event>
 5   0  0.1817089E-02  0.8017742E+03  0.7818609E-02  0.9557453E-01
        2   -1    0    0  501    0  0.00000000000E+00  0.00000000000E+00  0.79875886512E+03  0.79875886513E+03  0.25500000920E-02 0.  1.
       -2   -1    0    0    0  501  0.00000000000E+00  0.00000000000E+00 -0.20120023275E+03  0.20120023277E+03  0.25500000920E-02 0. -1.
    10030    2    1    2    0    0  0.00000000000E+00  0.00000000000E+00  0.59755863237E+03  0.99995909789E+03  0.80177420658E+03 0.  0.
        2    1    3    3  502    0 -0.38931779891E+03  0.30778031752E+01  0.17959241769E+03  0.42875547567E+03  0.25500000920E-02 0. -1.
       -2    1    3    3    0  502  0.38931779891E+03 -0.30778031752E+01  0.41796621468E+03  0.57120362222E+03  0.25500000920E-02 0.  1.
</event>
<event>
 5   0  0.1038912E-02  0.7975752E+03  0.7818609E-02  0.9563534E-01
       -1   -1    0    0    0  501  0.00000000000E+00  0.00000000000E+00  0.34792894216E+03  0.34792894219E+03  0.50400001928E-02 0. -1.
        1   -1    0    0  501    0  0.00000000000E+00  0.00000000000E+00 -0.45708051232E+03  0.45708051235E+03  0.50400001928E-02 0.  1.
    10030    2    1    2    0    0  0.00000000000E+00  0.00000000000E+00 -0.10915157017E+03  0.80500945454E+03  0.79757517303E+03 0.  0.
        2    1    3    3  502    0  0.13077583494E+03 -0.36887986903E+03  0.22667700617E+02  0.39203125059E+03  0.25500000920E-02 0. -1.
       -2    1    3    3    0  502 -0.13077583494E+03  0.36887986903E+03 -0.13181927078E+03  0.41297820395E+03  0.25500000920E-02 0.  1.
</event>
<event>
 5   0  0.1817089E-02  0.7948030E+03  0.7818609E-02  0.9567570E-01
        2   -1    0    0  501    0  0.00000000000E+00  0.00000000000E+00  0.11006893781E+03  0.11006893784E+03  0.25500000920E-02 0.  1.
       -2   -1    0    0    0  501  0.00000000000E+00  0.00000000000E+00 -0.14348096231E+04  0.14348096231E+04  0.25500000920E-02 0. -1.
    10030    2    1    2    0    0  0.00000000000E+00  0.00000000000E+00 -0.13247406853E+04  0.15448785609E+04  0.79480304781E+03 0.  0.
        2    1    3    3  502    0 -0.38501033694E+03 -0.91626317360E+02 -0.73244236015E+03  0.83252636747E+03  0.25500000920E-02 0.  1.
       -2    1    3    3    0  502  0.38501033694E+03  0.91626317360E+02 -0.59229832511E+03  0.71235219345E+03  0.25500000920E-02 0. -1.
</event>
<event>
 5   0  0.1038912E-02  0.7986751E+03  0.7818609E-02  0.9561937E-01
        1   -1    0    0  501    0  0.00000000000E+00  0.00000000000E+00  0.87186756366E+03  0.87186756368E+03  0.50400001928E-02 0.  1.
       -1   -1    0    0    0  501  0.00000000000E+00  0.00000000000E+00 -0.18290675848E+03  0.18290675855E+03  0.50400001928E-02 0. -1.
    10030    2    1    2    0    0  0.00000000000E+00  0.00000000000E+00  0.68896080518E+03  0.10547743222E+04  0.79867507772E+03 0.  0.
        2    1    3    3  502    0  0.37976104045E+03 -0.22512020051E+02  0.50484747717E+03  0.63213623066E+03  0.25500000920E-02 0.  1.
       -2    1    3    3    0  502 -0.37976104045E+03  0.22512020051E+02  0.18411332800E+03  0.42263809157E+03  0.25500000920E-02 0. -1.
</event>
<event>
 5   0  0.6872500E-03  0.7881019E+03  0.7818609E-02  0.9577401E-01
       -3   -1    0    0    0  501  0.00000000000E+00  0.00000000000E+00  0.16078305686E+04  0.16078305717E+04  0.10100000352E+00 0. -1.
        3   -1    0    0  501    0  0.00000000000E+00  0.00000000000E+00 -0.96574922390E+02  0.96574975204E+02  0.10100000352E+00 0.  1.
    10030    2    1    2    0    0  0.00000000000E+00  0.00000000000E+00  0.15112556462E+04  0.17044055469E+04  0.78810192256E+03 0.  0.
        4    1    3    3  502    0 -0.12132931495E+03 -0.12369515178E+03  0.15210218357E+04  0.15308593439E+04  0.12699999809E+01 0. -1.
       -4    1    3    3    0  502  0.12132931495E+03  0.12369515178E+03 -0.97661894967E+01  0.17354620307E+03  0.12699999809E+01 0.  1.
</event>
<event>
 5   0  0.1025900E-02  0.8016841E+03  0.7818609E-02  0.9557583E-01
        1   -1    0    0  501    0  0.00000000000E+00  0.00000000000E+00  0.98177525863E+03  0.98177525864E+03  0.50400001928E-02 0.  1.
       -1   -1    0    0    0  501  0.00000000000E+00  0.00000000000E+00 -0.16365696004E+03  0.16365696012E+03  0.50400001928E-02 0. -1.
    10030    2    1    2    0    0  0.00000000000E+00  0.00000000000E+00  0.81811829859E+03  0.11454322188E+04  0.80168411316E+03 0.  0.
        1    1    3    3  502    0 -0.28130878957E+03 -0.27867673342E+03  0.32007229286E+03  0.50915776486E+03  0.50400001928E-02 0. -1.
       -1    1    3    3    0  502  0.28130878957E+03  0.27867673342E+03  0.49804600573E+03  0.63627445390E+03  0.50400001928E-02 0.  1.
</event>
<event>
 5   0  0.1817089E-02  0.8063508E+03  0.7818609E-02  0.9550870E-01
       -2   -1    0    0    0  501  0.00000000000E+00  0.00000000000E+00  0.11956329036E+03  0.11956329039E+03  0.25500000920E-02 0.  1.
        2   -1    0    0  501    0  0.00000000000E+00  0.00000000000E+00 -0.13595344595E+04  0.13595344595E+04  0.25500000920E-02 0. -1.
    10030    2    1    2    0    0  0.00000000000E+00  0.00000000000E+00 -0.12399711691E+04  0.14790977499E+04  0.80635082528E+03 0.  0.
        2    1    3    3  502    0 -0.39000486480E+03 -0.95829235786E+02 -0.55478684296E+03  0.68489085125E+03  0.25500000920E-02 0. -1.
       -2    1    3    3    0  502  0.39000486480E+03  0.95829235786E+02 -0.68518432614E+03  0.79420689861E+03  0.25500000920E-02 0.  1.
</event>
<event>
 5   0  0.1731337E-02  0.7877541E+03  0.7818609E-02  0.9577914E-01
       -2   -1    0    0    0  501  0.00000000000E+00  0.00000000000E+00  0.15584040245E+03  0.15584040247E+03  0.25500000920E-02 0.  1.
        2   -1    0    0  501    0  0.00000000000E+00  0.00000000000E+00 -0.99549998855E+03  0.99549998855E+03  0.25500000920E-02 0. -1.
    10030    2    1    2    0    0  0.00000000000E+00  0.00000000000E+00 -0.83965958610E+03  0.11513403910E+04  0.78775407043E+03 0.  0.
        4    1    3    3  502    0 -0.27121198284E+03 -0.25549432709E+03 -0.60645187657E+03  0.71177158015E+03  0.12699999809E+01 0. -1.
       -4    1    3    3    0  502  0.27121198284E+03  0.25549432709E+03 -0.23320770953E+03  0.43956881087E+03  0.12699999809E+01 0.  1.
</event>
<event>
 5   0  0.1747544E-02  0.8005515E+03  0.7818609E-02  0.9559219E-01
       -2   -1    0    0    0  501  0.00000000000E+00  0.00000000000E+00  0.27103137825E+03  0.27103137826E+03  0.25500000920E-02 0. -1.
        2   -1    0    0  501    0  0.00000000000E+00  0.00000000000E+00 -0.59115178415E+03  0.59115178416E+03  0.25500000920E-02 0.  1.
    10030    2    1    2    0    0  0.00000000000E+00  0.00000000000E+00 -0.32012040590E+03  0.86218316242E+03  0.80055151695E+03 0.  0.
        1    1    3    3  502    0 -0.62295092691E+02  0.81404267719E+02 -0.57677652925E+03  0.58581438877E+03  0.50400001928E-02 0.  1.
       -1    1    3    3    0  502  0.62295092691E+02 -0.81404267719E+02  0.25665612334E+03  0.27636877365E+03  0.50400001928E-02 0. -1.
</event>
<event>
 5   0  0.1747544E-02  0.7965930E+03  0.7818609E-02  0.9564962E-01
        2   -1    0    0  501    0  0.00000000000E+00  0.00000000000E+00  0.82536825449E+03  0.82536825450E+03  0.25500000920E-02 0.  1.
       -2   -1    0    0    0  501  0.00000000000E+00  0.00000000000E+00 -0.19220523012E+03  0.19220523013E+03  0.25500000920E-02 0. -1.
    10030    2    1    2    0    0  0.00000000000E+00  0.00000000000E+00  0.63316302438E+03  0.10175734846E+04  0.79659298339E+03 0.  0.
        1    1    3    3  502    0 -0.18989943989E+03  0.34823703736E+03  0.36280289001E+03  0.53754699188E+03  0.50400001928E-02 0.  1.
       -1    1    3    3    0  502  0.18989943989E+03 -0.34823703736E+03  0.27036013437E+03  0.48002649274E+03  0.50400001928E-02 0. -1.
</event>
<event>
 5   0  0.1038912E-02  0.7986663E+03  0.7818609E-02  0.9561950E-01
        1   -1    0    0  501    0  0.00000000000E+00  0.00000000000E+00  0.11426069664E+04  0.11426069664E+04  0.50400001928E-02 0. -1.
       -1   -1    0    0    0  501  0.00000000000E+00  0.00000000000E+00 -0.13956414169E+03  0.13956414178E+03  0.50400001928E-02 0.  1.
    10030    2    1    2    0    0  0.00000000000E+00  0.00000000000E+00  0.10030428247E+04  0.12821711082E+04  0.79866628982E+03 0.  0.
        2    1    3    3  502    0 -0.33935469963E+03 -0.87589070599E+02  0.19425162634E+03  0.40070831261E+03  0.25500000920E-02 0. -1.
       -2    1    3    3    0  502  0.33935469963E+03  0.87589070599E+02  0.80879119838E+03  0.88146279560E+03  0.25500000920E-02 0.  1.
</event>
<event>
 5   0  0.6872500E-03  0.8042350E+03  0.7818609E-02  0.9553907E-01
       -4   -1    0    0    0  501  0.00000000000E+00  0.00000000000E+00  0.31857897800E+03  0.31858150939E+03  0.12699999809E+01 0.  1.
        4   -1    0    0  501    0  0.00000000000E+00  0.00000000000E+00 -0.50755629693E+03  0.50755788582E+03  0.12699999809E+01 0. -1.
    10030    2    1    2    0    0  0.00000000000E+00  0.00000000000E+00 -0.18897731893E+03  0.82613939521E+03  0.80423496147E+03 0.  0.
        4    1    3    3  502    0  0.32118885355E+03  0.24193578382E+03 -0.93168242900E+02  0.41276765562E+03  0.12699999809E+01 0.  1.
       -4    1    3    3    0  502 -0.32118885355E+03 -0.24193578382E+03 -0.95809076026E+02  0.41337173959E+03  0.12699999809E+01 0. -1.
</event>
<event>
 5   0  0.1747544E-02  0.8077589E+03  0.7818609E-02  0.9548854E-01
        2   -1    0    0  501    0  0.00000000000E+00  0.00000000000E+00  0.25403268074E+03  0.25403268075E+03  0.25500000920E-02 0. -1.
       -2   -1    0    0    0  501  0.00000000000E+00  0.00000000000E+00 -0.64211664702E+03  0.64211664702E+03  0.25500000920E-02 0.  1.
    10030    2    1    2    0    0  0.00000000000E+00  0.00000000000E+00 -0.38808396628E+03  0.89614932777E+03  0.80775890759E+03 0.  0.
        1    1    3    3  502    0 -0.10417383068E+03  0.12061979521E+03  0.21766938923E+03  0.26978006789E+03  0.50400001928E-02 0. -1.
       -1    1    3    3    0  502  0.10417383068E+03 -0.12061979521E+03 -0.60575335551E+03  0.62636925989E+03  0.50400001928E-02 0.  1.
</event>
<event>
 5   0  0.1673727E-02  0.8015521E+03  0.7818609E-02  0.9557773E-01
        2   -1    0    0  501    0  0.00000000000E+00  0.00000000000E+00  0.74306990042E+03  0.74306990042E+03  0.25500000920E-02 0.  1.
       -2   -1    0    0    0  501  0.00000000000E+00  0.00000000000E+00 -0.21615925027E+03  0.21615925028E+03  0.25500000920E-02 0. -1.
    10030    2    1    2    0    0  0.00000000000E+00  0.00000000000E+00  0.52691065015E+03  0.95922915070E+03  0.80155207586E+03 0.  0.
        5    1    3    3  502    0 -0.24278527067E+03  0.28888942881E+03  0.10202054000E+03  0.39093742506E+03  0.46999998093E+01 0. -1.
       -5    1    3    3    0  502  0.24278527067E+03 -0.28888942881E+03  0.42489011015E+03  0.56829172564E+03  0.46999998093E+01 0.  1.
</event>
<event>
 5   0  0.1731337E-02  0.7992828E+03  0.7818609E-02  0.9561056E-01
       -2   -1    0    0    0  501  0.00000000000E+00  0.00000000000E+00  0.79904369237E+02  0.79904369278E+02  0.25500000920E-02 0.  1.
        2   -1    0    0  501    0  0.00000000000E+00  0.00000000000E+00 -0.19988050376E+04  0.19988050376E+04  0.25500000920E-02 0. -1.
    10030    2    1    2    0    0  0.00000000000E+00  0.00000000000E+00 -0.19189006684E+04  0.20787094069E+04  0.79928281804E+03 0.  0.
        4    1    3    3  502    0 -0.84950301753E+02  0.75521723229E+02 -0.19558735666E+04  0.19591740876E+04  0.12699999809E+01 0. -1.
       -4    1    3    3    0  502  0.84950301753E+02 -0.75521723229E+02  0.36972898181E+02  0.11953531925E+03  0.12699999809E+01 0.  1.
</event>
<event>
 5   0  0.1025900E-02  0.7907805E+03  0.7818609E-02  0.9573459E-01
       -1   -1    0    0    0  501  0.00000000000E+00  0.00000000000E+00  0.33535491971E+03  0.33535491974E+03  0.50400001928E-02 0.  1.
        1   -1    0    0  501    0  0.00000000000E+00  0.00000000000E+00 -0.46617310724E+03  0.46617310727E+03  0.50400001928E-02 0. -1.
    10030    2    1    2    0    0  0.00000000000E+00  0.00000000000E+00 -0.13081818753E+03  0.80152802701E+03  0.79078048781E+03 0.  0.
        1    1    3    3  502    0  0.31802427098E+03 -0.21483455742E+03 -0.16178087561E+03  0.41649294800E+03  0.50400001928E-02 0. -1.
       -1    1    3    3    0  502 -0.31802427098E+03  0.21483455742E+03  0.30962688075E+02  0.38503507901E+03  0.50400001928E-02 0.  1.
</event>
<event>
 5   0  0.1818665E-02  0.7614878E+03  0.7818609E-02  0.9617498E-01
        2   -1    0    0  501    0  0.00000000000E+00  0.00000000000E+00  0.10365318366E+04  0.10365318366E+04  0.25500000920E-02 0.  1.
       -2   -1    0    0    0  501  0.00000000000E+00  0.00000000000E+00 -0.13985671320E+03  0.13985671323E+03  0.25500000920E-02 0. -1.
    10030    2    1    2    0    0  0.00000000000E+00  0.00000000000E+00  0.89667512339E+03  0.11763885498E+04  0.76148784839E+03 0.  0.
        3    1    3    3  502    0  0.22108797620E+02  0.16344642152E+03 -0.81803110280E+02  0.18410673723E+03  0.10100000352E+00 0. -1.
       -3    1    3    3    0  502 -0.22108797620E+02 -0.16344642152E+03  0.97847823367E+03  0.99228181260E+03  0.10100000352E+00 0.  1.
</event>
<event>
 5   0  0.1747544E-02  0.7962864E+03  0.7818609E-02  0.9565408E-01
        2   -1    0    0  501    0  0.00000000000E+00  0.00000000000E+00  0.21061154026E+04  0.21061154026E+04  0.25500000920E-02 0.  1.
       -2   -1    0    0    0  501  0.00000000000E+00  0.00000000000E+00 -0.75265582364E+02  0.75265582407E+02  0.25500000920E-02 0. -1.
    10030    2    1    2    0    0  0.00000000000E+00  0.00000000000E+00  0.20308498203E+04  0.21813809850E+04  0.79628638656E+03 0.  0.
        1    1    3    3  502    0  0.19171813505E+02  0.26355360971E+03  0.18312544182E+04  0.18502218267E+04  0.50400001928E-02 0.  1.
       -1    1    3    3    0  502 -0.19171813505E+02 -0.26355360971E+03  0.19959540204E+03  0.33115915836E+03  0.50400001928E-02 0. -1.
</event>
<event>
 5   0  0.1146083E-02  0.7966441E+03  0.7818609E-02  0.9564887E-01
       -1   -1    0    0    0  501  0.00000000000E+00  0.00000000000E+00  0.81331635831E+03  0.81331635833E+03  0.50400001928E-02 0. -1.
        1   -1    0    0  501    0  0.00000000000E+00  0.00000000000E+00 -0.19507837933E+03  0.19507837939E+03  0.50400001928E-02 0.  1.
    10030    2    1    2    0    0  0.00000000000E+00  0.00000000000E+00  0.61823797899E+03  0.10083947377E+04  0.79664405377E+03 0.  0.
        4    1    3    3  502    0  0.18942194589E+03 -0.99243246360E+02  0.73449094704E+03  0.76498918928E+03  0.12699999809E+01 0. -1.
       -4    1    3    3    0  502 -0.18942194589E+03  0.99243246360E+02 -0.11625296805E+03  0.24340554844E+03  0.12699999809E+01 0.  1.
</event>
<event>
 5   0  0.1818665E-02  0.7996938E+03  0.7818609E-02  0.9560460E-01
       -2   -1    0    0    0  501  0.00000000000E+00  0.00000000000E+00  0.33482489582E+03  0.33482489583E+03  0.25500000920E-02 0. -1.
        2   -1    0    0  501    0  0.00000000000E+00  0.00000000000E+00 -0.47749603078E+03  0.47749603079E+03  0.25500000920E-02 0.  1.
    10030    2    1    2    0    0  0.00000000000E+00  0.00000000000E+00 -0.14267113496E+03  0.81232092662E+03  0.79969383834E+03 0.  0.
        3    1    3    3  502    0 -0.10177055887E+03  0.23572617472E+03  0.24002263382E+03  0.35147539180E+03  0.10100000352E+00 0. -1.
       -3    1    3    3    0  502  0.10177055887E+03 -0.23572617472E+03 -0.38269376878E+03  0.46084553482E+03  0.10100000352E+00 0.  1.
</event>
<event>
 5   0  0.1747544E-02  0.7997036E+03  0.7818609E-02  0.9560446E-01
        2   -1    0    0  501    0  0.00000000000E+00  0.00000000000E+00  0.46745910602E+03  0.46745910603E+03  0.25500000920E-02 0.  1.
       -2   -1    0    0    0  501  0.00000000000E+00  0.00000000000E+00 -0.34202235936E+03  0.34202235937E+03  0.25500000920E-02 0. -1.
    10030    2    1    2    0    0  0.00000000000E+00  0.00000000000E+00  0.12543674666E+03  0.80948146540E+03  0.79970361098E+03 0.  0.
        1    1    3    3  502    0  0.18274136174E+03  0.30848977899E+03  0.24185998422E+03  0.43250040580E+03  0.50400001928E-02 0.  1.
       -1    1    3    3    0  502 -0.18274136174E+03 -0.30848977899E+03 -0.11642323756E+03  0.37698105960E+03  0.50400001928E-02 0. -1.
</event>
<event>
 5   0  0.1038912E-02  0.8356258E+03  0.7818609E-02  0.9509835E-01
        1   -1    0    0  501    0  0.00000000000E+00  0.00000000000E+00  0.60897363210E+03  0.60897363212E+03  0.50400001928E-02 0. -1.
       -1   -1    0    0    0  501  0.00000000000E+00  0.00000000000E+00 -0.28665876300E+03  0.28665876304E+03  0.50400001928E-02 0.  1.
    10030    2    1    2    0    0  0.00000000000E+00  0.00000000000E+00  0.32231486910E+03  0.89563239516E+03  0.83562582082E+03 0.  0.
        2    1    3    3  502    0 -0.16762943803E+03  0.20611392050E+03  0.50678104122E+03  0.57219716922E+03  0.25500000920E-02 0. -1.
       -2    1    3    3    0  502  0.16762943803E+03 -0.20611392050E+03 -0.18446617212E+03  0.32343522594E+03  0.25500000920E-02 0.  1.
</event>
<event>
 5   0  0.1673727E-02  0.7903854E+03  0.7818609E-02  0.9574039E-01
        2   -1    0    0  501    0  0.00000000000E+00  0.00000000000E+00  0.18480580561E+04  0.18480580561E+04  0.25500000920E-02 0. -1.
       -2   -1    0    0    0  501  0.00000000000E+00  0.00000000000E+00 -0.84508862735E+02  0.84508862774E+02  0.25500000920E-02 0.  1.
    10030    2    1    2    0    0  0.00000000000E+00  0.00000000000E+00  0.17635491934E+04  0.19325669189E+04  0.79038543669E+03 0.  0.
        5    1    3    3  502    0 -0.15232953682E+03 -0.29578265574E+03  0.14031219534E+04  0.14420350111E+04  0.46999998093E+01 0. -1.
       -5    1    3    3    0  502  0.15232953682E+03  0.29578265574E+03  0.36042724003E+03  0.49053190781E+03  0.46999998093E+01 0.  1.
</event>
<event>
 5   0  0.1025900E-02  0.8074240E+03  0.7818609E-02  0.9549333E-01
        1   -1    0    0  501    0  0.00000000000E+00  0.00000000000E+00  0.21450024662E+04  0.21450024662E+04  0.50400001928E-02 0.  1.
       -1   -1    0    0    0  501  0.00000000000E+00  0.00000000000E+00 -0.75982839028E+02  0.75982839195E+02  0.50400001928E-02 0. -1.
    10030    2    1    2    0    0  0.00000000000E+00  0.00000000000E+00  0.20690196272E+04  0.22209853054E+04  0.80742399592E+03 0.  0.
        1    1    3    3  502    0 -0.16544237378E+03 -0.27216426324E+03  0.17168777115E+04  0.17461711375E+04  0.50400001928E-02 0.  1.
       -1    1    3    3    0  502  0.16544237378E+03  0.27216426324E+03  0.35214191568E+03  0.47481416790E+03  0.50400001928E-02 0. -1.
</event>
<event>
 5   0  0.1747544E-02  0.8062464E+03  0.7818609E-02  0.9551019E-01
        2   -1    0    0  501    0  0.00000000000E+00  0.00000000000E+00  0.52975759194E+03  0.52975759195E+03  0.25500000920E-02 0. -1.
       -2   -1    0    0    0  501  0.00000000000E+00  0.00000000000E+00 -0.30675975631E+03  0.30675975632E+03  0.25500000920E-02 0.  1.
    10030    2    1    2    0    0  0.00000000000E+00  0.00000000000E+00  0.22299783563E+03  0.83651734827E+03  0.80624638868E+03 0.  0.
        1    1    3    3  502    0 -0.37636884731E+03  0.65744599714E+02 -0.21907202596E+02  0.38269542351E+03  0.50400001928E-02 0.  1.
       -1    1    3    3    0  502  0.37636884731E+03 -0.65744599714E+02  0.24490503822E+03  0.45382192476E+03  0.50400001928E-02 0. -1.
</event>
<event>
 5   0  0.1817089E-02  0.7823103E+03  0.7818609E-02  0.9585981E-01
       -2   -1    0    0    0  501  0.00000000000E+00  0.00000000000E+00  0.76061131501E+02  0.76061131543E+02  0.25500000920E-02 0.  1.
        2   -1    0    0  501    0  0.00000000000E+00  0.00000000000E+00 -0.20115707000E+04  0.20115707000E+04  0.25500000920E-02 0. -1.
    10030    2    1    2    0    0  0.00000000000E+00  0.00000000000E+00 -0.19355095685E+04  0.20876318315E+04  0.78231028008E+03 0.  0.
        2    1    3    3  502    0  0.11144098475E+02 -0.33656586698E+03 -0.14987994783E+04  0.15361642653E+04  0.25500000920E-02 0.  1.
       -2    1    3    3    0  502 -0.11144098475E+02  0.33656586698E+03 -0.43671009015E+03  0.55146756622E+03  0.25500000920E-02 0. -1.
</event>
<event>
 5   0  0.1049780E-02  0.7920140E+03  0.7818609E-02  0.9571649E-01
        1   -1    0    0  501    0  0.00000000000E+00  0.00000000000E+00  0.10805333106E+04  0.10805333106E+04  0.50400001928E-02 0. -1.
       -1   -1    0    0    0  501  0.00000000000E+00  0.00000000000E+00 -0.14513348324E+03  0.14513348332E+03  0.50400001928E-02 0.  1.
    10030    2    1    2    0    0  0.00000000000E+00  0.00000000000E+00  0.93539982736E+03  0.12256667939E+04  0.79201404831E+03 0.  0.
        5    1    3    3  502    0 -0.64081784870E+02 -0.19443768484E+03  0.99223549204E+03  0.10131465097E+04  0.46999998093E+01 0. -1.
       -5    1    3    3    0  502  0.64081784870E+02  0.19443768484E+03 -0.56835664680E+02  0.21252028424E+03  0.46999998093E+01 0.  1.
</event>
<event>
 5   0  0.1030323E-02  0.8056128E+03  0.7818609E-02  0.9551928E-01
       -1   -1    0    0    0  501  0.00000000000E+00  0.00000000000E+00  0.14672825778E+03  0.14672825787E+03  0.50400001928E-02 0. -1.
        1   -1    0    0  501    0  0.00000000000E+00  0.00000000000E+00 -0.11058060574E+04  0.11058060574E+04  0.50400001928E-02 0.  1.
    10030    2    1    2    0    0  0.00000000000E+00  0.00000000000E+00 -0.95907779965E+03  0.12525343153E+04  0.80561280106E+03 0.  0.
        3    1    3    3  502    0  0.21686044994E+03 -0.26595494498E+03 -0.80748817259E+03  0.87738112961E+03  0.10100000352E+00 0.  1.
       -3    1    3    3    0  502 -0.21686044994E+03  0.26595494498E+03 -0.15158962705E+03  0.37515318570E+03  0.10100000352E+00 0. -1.
</event>
<event>
 5   0  0.1818665E-02  0.8029759E+03  0.7818609E-02  0.9555720E-01
        2   -1    0    0  501    0  0.00000000000E+00  0.00000000000E+00  0.88442713432E+03  0.88442713433E+03  0.25500000920E-02 0. -1.
       -2   -1    0    0    0  501  0.00000000000E+00  0.00000000000E+00 -0.18225648854E+03  0.18225648856E+03  0.25500000920E-02 0.  1.
    10030    2    1    2    0    0  0.00000000000E+00  0.00000000000E+00  0.70217064578E+03  0.10666836229E+04  0.80297592462E+03 0.  0.
        3    1    3    3  502    0  0.21821990693E+03  0.26568185613E+03  0.62650540028E+03  0.71464382963E+03  0.10100000352E+00 0. -1.
       -3    1    3    3    0  502 -0.21821990693E+03 -0.26568185613E+03  0.75665245504E+02  0.35203979325E+03  0.10100000352E+00 0.  1.
</event>
<event>
 5   0  0.1673727E-02  0.7883412E+03  0.7818609E-02  0.9577048E-01
        2   -1    0    0  501    0  0.00000000000E+00  0.00000000000E+00  0.24725643781E+03  0.24725643783E+03  0.25500000920E-02 0.  1.
       -2   -1    0    0    0  501  0.00000000000E+00  0.00000000000E+00 -0.62837783496E+03  0.62837783496E+03  0.25500000920E-02 0. -1.
    10030    2    1    2    0    0  0.00000000000E+00  0.00000000000E+00 -0.38112139714E+03  0.87563427279E+03  0.78834120806E+03 0.  0.
        5    1    3    3  502    0  0.13397209717E+03  0.33284239829E+03 -0.93523488882E+01  0.35894587524E+03  0.46999998093E+01 0.  1.
       -5    1    3    3    0  502 -0.13397209717E+03 -0.33284239829E+03 -0.37176904826E+03  0.51668839755E+03  0.46999998093E+01 0. -1.
</event>
<event>
 5   0  0.1049780E-02  0.8060021E+03  0.7818609E-02  0.9551370E-01
       -1   -1    0    0    0  501  0.00000000000E+00  0.00000000000E+00  0.14031268811E+03  0.14031268820E+03  0.50400001928E-02 0.  1.
        1   -1    0    0  501    0  0.00000000000E+00  0.00000000000E+00 -0.11574850562E+04  0.11574850562E+04  0.50400001928E-02 0. -1.
    10030    2    1    2    0    0  0.00000000000E+00  0.00000000000E+00 -0.10171723680E+04  0.12977977444E+04  0.80600208373E+03 0.  0.
        5    1    3    3  502    0  0.13165032926E+03  0.12124209602E+03  0.72762714755E+02  0.19325619705E+03  0.46999998093E+01 0.  1.
       -5    1    3    3    0  502 -0.13165032926E+03 -0.12124209602E+03 -0.10899350828E+04  0.11045415473E+04  0.46999998093E+01 0. -1.
</event>
<event>
 5   0  0.1747544E-02  0.7963094E+03  0.7818609E-02  0.9565375E-01
       -2   -1    0    0    0  501  0.00000000000E+00  0.00000000000E+00  0.37952392907E+03  0.37952392908E+03  0.25500000920E-02 0.  1.
        2   -1    0    0  501    0  0.00000000000E+00  0.00000000000E+00 -0.41770003540E+03  0.41770003541E+03  0.25500000920E-02 0. -1.
    10030    2    1    2    0    0  0.00000000000E+00  0.00000000000E+00 -0.38176106328E+02  0.79722396449E+03  0.79630938363E+03 0.  0.
        1    1    3    3  502    0  0.14871477919E+03  0.20722880946E+03  0.28698729021E+03  0.38395516638E+03  0.50400001928E-02 0.  1.
       -1    1    3    3    0  502 -0.14871477919E+03 -0.20722880946E+03 -0.32516339654E+03  0.41326879811E+03  0.50400001928E-02 0. -1.
</event>
<event>
 5   0  0.1025900E-02  0.8194950E+03  0.7818609E-02  0.9532220E-01
        1   -1    0    0  501    0  0.00000000000E+00  0.00000000000E+00  0.51762160040E+03  0.51762160042E+03  0.50400001928E-02 0.  1.
       -1   -1    0    0    0  501  0.00000000000E+00  0.00000000000E+00 -0.32435475625E+03  0.32435475629E+03  0.50400001928E-02 0. -1.
    10030    2    1    2    0    0  0.00000000000E+00  0.00000000000E+00  0.19326684415E+03  0.84197635671E+03  0.81949503490E+03 0.  0.
        1    1    3    3  502    0 -0.33031780879E+03  0.17687641541E+03  0.26700744895E+03  0.46009574977E+03  0.50400001928E-02 0.  1.
       -1    1    3    3    0  502  0.33031780879E+03 -0.17687641541E+03 -0.73740604803E+02  0.38188060694E+03  0.50400001928E-02 0. -1.
</event>
<event>
 5   0  0.1818665E-02  0.8014176E+03  0.7818609E-02  0.9557967E-01
       -2   -1    0    0    0  501  0.00000000000E+00  0.00000000000E+00  0.48075363968E+03  0.48075363969E+03  0.25500000920E-02 0. -1.
        2   -1    0    0  501    0  0.00000000000E+00  0.00000000000E+00 -0.33399134596E+03  0.33399134597E+03  0.25500000920E-02 0.  1.
    10030    2    1    2    0    0  0.00000000000E+00  0.00000000000E+00  0.14676229372E+03  0.81474498566E+03  0.80141763195E+03 0.  0.
        3    1    3    3  502    0  0.29125271315E+03 -0.27485704874E+03  0.87504795225E+02  0.40991662512E+03  0.10100000352E+00 0. -1.
       -3    1    3    3    0  502 -0.29125271315E+03  0.27485704874E+03  0.59257498495E+02  0.40482836053E+03  0.10100000352E+00 0.  1.
</event>
<event>
 5   0  0.1731337E-02  0.8042354E+03  0.7818609E-02  0.9553907E-01
        2   -1    0    0  501    0  0.00000000000E+00  0.00000000000E+00  0.98777091597E+03  0.98777091598E+03  0.25500000920E-02 0. -1.
       -2   -1    0    0    0  501  0.00000000000E+00  0.00000000000E+00 -0.16370053719E+03  0.16370053721E+03  0.25500000920E-02 0.  1.
    10030    2    1    2    0    0  0.00000000000E+00  0.00000000000E+00  0.82407037878E+03  0.11514714532E+04  0.80423536252E+03 0.  0.
        4    1    3    3  502    0  0.80822710757E+02  0.24450799117E+03  0.85421602676E+03  0.89219005912E+03  0.12699999809E+01 0. -1.
       -4    1    3    3    0  502 -0.80822710757E+02 -0.24450799117E+03 -0.30145647979E+02  0.25928139407E+03  0.12699999809E+01 0.  1.
</event>
<event>
 5   0  0.1817089E-02  0.8016232E+03  0.7818609E-02  0.9557671E-01
        2   -1    0    0  501    0  0.00000000000E+00  0.00000000000E+00  0.12541319053E+04  0.12541319053E+04  0.25500000920E-02 0.  1.
       -2   -1    0    0    0  501  0.00000000000E+00  0.00000000000E+00 -0.12809652522E+03  0.12809652525E+03  0.25500000920E-02 0. -1.
    10030    2    1    2    0    0  0.00000000000E+00  0.00000000000E+00  0.11260353801E+04  0.13822284305E+04  0.80162320140E+03 0.  0.
        2    1    3    3  502    0  0.32409991233E+03 -0.23576738966E+03  0.57127341415E+03  0.69783975877E+03  0.25500000920E-02 0. -1.
       -2    1    3    3    0  502 -0.32409991233E+03  0.23576738966E+03  0.55476196591E+03  0.68438867176E+03  0.25500000920E-02 0.  1.
</event>
<event>
 5   0  0.1731337E-02  0.7831973E+03  0.7818609E-02  0.9584662E-01
        2   -1    0    0  501    0  0.00000000000E+00  0.00000000000E+00  0.71033981616E+03  0.71033981616E+03  0.25500000920E-02 0. -1.
       -2   -1    0    0    0  501  0.00000000000E+00  0.00000000000E+00 -0.21588187378E+03  0.21588187380E+03  0.25500000920E-02 0.  1.
    10030    2    1    2    0    0  0.00000000000E+00  0.00000000000E+00  0.49445794237E+03  0.92622168996E+03  0.78319726900E+03 0.  0.
        4    1    3    3  502    0 -0.26645188399E+03 -0.11821455664E+03 -0.62012336389E+02  0.29802421151E+03  0.12699999809E+01 0.  1.
       -4    1    3    3    0  502  0.26645188399E+03  0.11821455664E+03  0.55647027876E+03  0.62819747845E+03  0.12699999809E+01 0. -1.
</event>
<event>
 5   0  0.1747544E-02  0.7747340E+03  0.7818609E-02  0.9597326E-01
       -2   -1    0    0    0  501  0.00000000000E+00  0.00000000000E+00  0.10547468654E+03  0.10547468657E+03  0.25500000920E-02 0. -1.
        2   -1    0    0  501    0  0.00000000000E+00  0.00000000000E+00 -0.14226465534E+04  0.14226465534E+04  0.25500000920E-02 0.  1.
    10030    2    1    2    0    0  0.00000000000E+00  0.00000000000E+00 -0.13171718668E+04  0.15281212399E+04  0.77473401707E+03 0.  0.
        1    1    3    3  502    0  0.38511868106E+03 -0.15481796041E+02 -0.58226692239E+03  0.69827706066E+03  0.50400001928E-02 0. -1.
       -1    1    3    3    0  502 -0.38511868106E+03  0.15481796041E+02 -0.73490494444E+03  0.82984417928E+03  0.50400001928E-02 0.  1.
</event>
<event>
 5   0  0.1049780E-02  0.8066062E+03  0.7818609E-02  0.9550504E-01
       -1   -1    0    0    0  501  0.00000000000E+00  0.00000000000E+00  0.17405222692E+03  0.17405222700E+03  0.50400001928E-02 0.  1.
        1   -1    0    0  501    0  0.00000000000E+00  0.00000000000E+00 -0.93450900689E+03  0.93450900691E+03  0.50400001928E-02 0. -1.
    10030    2    1    2    0    0  0.00000000000E+00  0.00000000000E+00 -0.76045677997E+03  0.11085612339E+04  0.80660615861E+03 0.  0.
        5    1    3    3  502    0 -0.39679957263E+03  0.78703724796E+01 -0.28189310293E+03  0.48682404941E+03  0.46999998093E+01 0.  1.
       -5    1    3    3    0  502  0.39679957263E+03 -0.78703724796E+01 -0.47856367704E+03  0.62173718450E+03  0.46999998093E+01 0. -1.
</event>
<event>
 5   0  0.1025900E-02  0.8098491E+03  0.7818609E-02  0.9545869E-01
        1   -1    0    0  501    0  0.00000000000E+00  0.00000000000E+00  0.19646599470E+04  0.19646599470E+04  0.50400001928E-02 0. -1.
       -1   -1    0    0    0  501  0.00000000000E+00  0.00000000000E+00 -0.83456633400E+02  0.83456633552E+02  0.50400001928E-02 0.  1.
    10030    2    1    2    0    0  0.00000000000E+00  0.00000000000E+00  0.18812033136E+04  0.20481165805E+04  0.80984913437E+03 0.  0.
        1    1    3    3  502    0  0.19992761415E+03 -0.35138902267E+03  0.99819476930E+03  0.10769577957E+04  0.50400001928E-02 0.  1.
       -1    1    3    3    0  502 -0.19992761415E+03  0.35138902267E+03  0.88300854427E+03  0.97115878486E+03  0.50400001928E-02 0. -1.
</event>
<event>
 5   0  0.1747544E-02  0.7610950E+03  0.7818609E-02  0.9618103E-01
       -2   -1    0    0    0  501  0.00000000000E+00  0.00000000000E+00  0.18516068837E+03  0.18516068839E+03  0.25500000920E-02 0.  1.
        2   -1    0    0  501    0  0.00000000000E+00  0.00000000000E+00 -0.78211209479E+03  0.78211209479E+03  0.25500000920E-02 0. -1.
    10030    2    1    2    0    0  0.00000000000E+00  0.00000000000E+00 -0.59695140642E+03  0.96727278318E+03  0.76109503707E+03 0.  0.
        1    1    3    3  502    0 -0.20085001377E+03 -0.32217542783E+03 -0.26536697896E+03  0.46320337636E+03  0.50400001928E-02 0.  1.
       -1    1    3    3    0  502  0.20085001377E+03  0.32217542783E+03 -0.33158442746E+03  0.50406940682E+03  0.50400001928E-02 0. -1.
</event>
<event>
 5   0  0.1038912E-02  0.8094321E+03  0.7818609E-02  0.9546464E-01
       -1   -1    0    0    0  501  0.00000000000E+00  0.00000000000E+00  0.21754703321E+03  0.21754703327E+03  0.50400001928E-02 0.  1.
        1   -1    0    0  501    0  0.00000000000E+00  0.00000000000E+00 -0.75291799762E+03  0.75291799764E+03  0.50400001928E-02 0. -1.
    10030    2    1    2    0    0  0.00000000000E+00  0.00000000000E+00 -0.53537096441E+03  0.97046503091E+03  0.80943208899E+03 0.  0.
        2    1    3    3  502    0  0.15464988265E+03  0.33910654770E+03 -0.45681982218E+03  0.58957118895E+03  0.25500000920E-02 0. -1.
       -2    1    3    3    0  502 -0.15464988265E+03 -0.33910654770E+03 -0.78551142230E+02  0.38089384197E+03  0.25500000920E-02 0.  1.
</event>
<event>
 5   0  0.1030323E-02  0.7975765E+03  0.7818609E-02  0.9563532E-01
       -1   -1    0    0    0  501  0.00000000000E+00  0.00000000000E+00  0.37539273865E+03  0.37539273868E+03  0.50400001928E-02 0.  1.
        1   -1    0    0  501    0  0.00000000000E+00  0.00000000000E+00 -0.42364184619E+03  0.42364184622E+03  0.50400001928E-02 0. -1.
    10030    2    1    2    0    0  0.00000000000E+00  0.00000000000E+00 -0.48249107547E+02  0.79903458490E+03  0.79757651137E+03 0.  0.
        3    1    3    3  502    0 -0.17798710751E+03 -0.10976075171E+03 -0.36431156244E+03  0.42005923128E+03  0.10100000352E+00 0. -1.
       -3    1    3    3    0  502  0.17798710751E+03  0.10976075171E+03  0.31606245490E+03  0.37897535362E+03  0.10100000352E+00 0.  1.
</event>
<event>
 5   0  0.1146083E-02  0.7985767E+03  0.7818609E-02  0.9562080E-01
       -1   -1    0    0    0  501  0.00000000000E+00  0.00000000000E+00  0.35516530100E+03  0.35516530104E+03  0.50400001928E-02 0. -1.
        1   -1    0    0  501    0  0.00000000000E+00  0.00000000000E+00 -0.44889290844E+03  0.44889290847E+03  0.50400001928E-02 0.  1.
    10030    2    1    2    0    0  0.00000000000E+00  0.00000000000E+00 -0.93727607443E+02  0.80405820951E+03  0.79857669630E+03 0.  0.
        4    1    3    3  502    0  0.38196051702E+03  0.90198683846E+02  0.27124835677E+02  0.39340438323E+03  0.12699999809E+01 0. -1.
       -4    1    3    3    0  502 -0.38196051702E+03 -0.90198683846E+02 -0.12085244312E+03  0.41065382628E+03  0.12699999809E+01 0.  1.
</event>
<event>
 5   0  0.1747544E-02  0.7940997E+03  0.7818609E-02  0.9568597E-01
        2   -1    0    0  501    0  0.00000000000E+00  0.00000000000E+00  0.19624248168E+04  0.19624248168E+04  0.25500000920E-02 0. -1.
       -2   -1    0    0    0  501  0.00000000000E+00  0.00000000000E+00 -0.80333557456E+02  0.80333557496E+02  0.25500000920E-02 0.  1.
    10030    2    1    2    0    0  0.00000000000E+00  0.00000000000E+00  0.18820912593E+04  0.20427583743E+04  0.79409965827E+03 0.  0.
        1    1    3    3  502    0 -0.26160759567E+03 -0.25344881283E+03  0.13475673113E+04  0.13959271089E+04  0.50400001928E-02 0. -1.
       -1    1    3    3    0  502  0.26160759567E+03  0.25344881283E+03  0.53452394799E+03  0.64683126536E+03  0.50400001928E-02 0.  1.
</event>
<event>
 5   0  0.1038912E-02  0.7992564E+03  0.7818609E-02  0.9561094E-01
       -1   -1    0    0    0  501  0.00000000000E+00  0.00000000000E+00  0.10068681534E+04  0.10068681534E+04  0.50400001928E-02 0. -1.
        1   -1    0    0  501    0  0.00000000000E+00  0.00000000000E+00 -0.15861330708E+03  0.15861330716E+03  0.50400001928E-02 0.  1.
    10030    2    1    2    0    0  0.00000000000E+00  0.00000000000E+00  0.84825484635E+03  0.11654814606E+04  0.79925637355E+03 0.  0.
        2    1    3    3  502    0  0.26066653532E+03 -0.16510594026E+02 -0.16924345418E+02  0.26173665358E+03  0.25500000920E-02 0.  1.
       -2    1    3    3    0  502 -0.26066653532E+03  0.16510594026E+02  0.86517919176E+03  0.90374480702E+03  0.25500000920E-02 0. -1.
</event>
<event>
 5   0  0.1030323E-02  0.7951759E+03  0.7818609E-02  0.9567026E-01
        1   -1    0    0  501    0  0.00000000000E+00  0.00000000000E+00  0.20136698470E+03  0.20136698476E+03  0.50400001928E-02 0. -1.
       -1   -1    0    0    0  501  0.00000000000E+00  0.00000000000E+00 -0.78501531853E+03  0.78501531854E+03  0.50400001928E-02 0.  1.
    10030    2    1    2    0    0  0.00000000000E+00  0.00000000000E+00 -0.58364833383E+03  0.98638230330E+03  0.79517587406E+03 0.  0.
        3    1    3    3  502    0 -0.27893242974E+03 -0.33765856304E+02  0.57123368348E+02  0.28671679899E+03  0.10100000352E+00 0. -1.
       -3    1    3    3    0  502  0.27893242974E+03  0.33765856304E+02 -0.64077170218E+03  0.69966550431E+03  0.10100000352E+00 0.  1.
</event>
<event>
 5   0  0.1049780E-02  0.8108782E+03  0.7818609E-02  0.9544404E-01
        1   -1    0    0  501    0  0.00000000000E+00  0.00000000000E+00  0.38137266242E+03  0.38137266246E+03  0.50400001928E-02 0.  1.
       -1   -1    0    0    0  501  0.00000000000E+00  0.00000000000E+00 -0.43102419910E+03  0.43102419913E+03  0.50400001928E-02 0. -1.
    10030    2    1    2    0    0  0.00000000000E+00  0.00000000000E+00 -0.49651536681E+02  0.81239686159E+03  0.81087815708E+03 0.  0.
        5    1    3    3  502    0  0.14059948933E+03 -0.38025042748E+03 -0.24434641264E+02  0.40617452615E+03  0.46999998093E+01 0. -1.
       -5    1    3    3    0  502 -0.14059948933E+03  0.38025042748E+03 -0.25216895417E+02  0.40622233544E+03  0.46999998093E+01 0.  1.
</event>
<event>
 5   0  0.1747544E-02  0.8010106E+03  0.7818609E-02  0.9558555E-01
        2   -1    0    0  501    0  0.00000000000E+00  0.00000000000E+00  0.27246602225E+03  0.27246602226E+03  0.25500000920E-02 0.  1.
       -2   -1    0    0    0  501  0.00000000000E+00  0.00000000000E+00 -0.58871380061E+03  0.58871380062E+03  0.25500000920E-02 0. -1.
    10030    2    1    2    0    0  0.00000000000E+00  0.00000000000E+00 -0.31624777836E+03  0.86117982288E+03  0.80101063040E+03 0.  0.
        1    1    3    3  502    0  0.15844153810E+03  0.30187194713E+03 -0.38408801202E+03  0.51356985354E+03  0.50400001928E-02 0. -1.
       -1    1    3    3    0  502 -0.15844153810E+03 -0.30187194713E+03  0.67840233662E+02  0.34760996934E+03  0.50400001928E-02 0.  1.
</event>
<event>
 5   0  0.6872500E-03  0.8022162E+03  0.7818609E-02  0.9556815E-01
        3   -1    0    0  501    0  0.00000000000E+00  0.00000000000E+00  0.63567645612E+03  0.63567646414E+03  0.10100000352E+00 0.  1.
       -3   -1    0    0    0  501  0.00000000000E+00  0.00000000000E+00 -0.25309684458E+03  0.25309686473E+03  0.10100000352E+00 0. -1.
    10030    2    1    2    0    0  0.00000000000E+00  0.00000000000E+00  0.38257961153E+03  0.88877332887E+03  0.80221622457E+03 0.  0.
        1    1    3    3  502    0  0.37718327930E+03 -0.65304582298E+02  0.32403332223E+03  0.50152717632E+03  0.50400001928E-02 0.  1.
       -1    1    3    3    0  502 -0.37718327930E+03  0.65304582298E+02  0.58546289306E+02  0.38724615255E+03  0.50400001928E-02 0. -1.
</event>
<event>
 5   0  0.1049780E-02  0.8032830E+03  0.7818609E-02  0.9555277E-01
       -1   -1    0    0    0  501  0.00000000000E+00  0.00000000000E+00  0.94270234396E+02  0.94270234531E+02  0.50400001928E-02 0.  1.
        1   -1    0    0  501    0  0.00000000000E+00  0.00000000000E+00 -0.17112073124E+04  0.17112073124E+04  0.50400001928E-02 0. -1.
    10030    2    1    2    0    0  0.00000000000E+00  0.00000000000E+00 -0.16169370780E+04  0.18054775470E+04  0.80328304992E+03 0.  0.
        5    1    3    3  502    0  0.12393109614E+03  0.22333965167E+03 -0.15050660408E+04  0.15265927400E+04  0.46999998093E+01 0. -1.
       -5    1    3    3    0  502 -0.12393109614E+03 -0.22333965167E+03 -0.11187103724E+03  0.27888480699E+03  0.46999998093E+01 0.  1.
</event>
<event>
 5   0  0.1817089E-02  0.8061009E+03  0.7818609E-02  0.9551228E-01
       -2   -1    0    0    0  501  0.00000000000E+00  0.00000000000E+00  0.51047066775E+03  0.51047066776E+03  0.25500000920E-02 0.  1.
        2   -1    0    0  501    0  0.00000000000E+00  0.00000000000E+00 -0.31823506442E+03  0.31823506443E+03  0.25500000920E-02 0. -1.
    10030    2    1    2    0    0  0.00000000000E+00  0.00000000000E+00  0.19223560333E+03  0.82870573219E+03  0.80610090149E+03 0.  0.
        2    1    3    3  502    0 -0.12767866309E+03  0.37420025030E+03  0.15680496878E+02  0.39569375320E+03  0.25500000920E-02 0.  1.
       -2    1    3    3    0  502  0.12767866309E+03 -0.37420025030E+03  0.17655510645E+03  0.43301197899E+03  0.25500000920E-02 0. -1.
</event>
<event>
 5   0  0.1038912E-02  0.8114318E+03  0.7818609E-02  0.9543616E-01
        1   -1    0    0  501    0  0.00000000000E+00  0.00000000000E+00  0.26522960472E+03  0.26522960477E+03  0.50400001928E-02 0.  1.
       -1   -1    0    0    0  501  0.00000000000E+00  0.00000000000E+00 -0.62061467481E+03  0.62061467483E+03  0.50400001928E-02 0. -1.
    10030    2    1    2    0    0  0.00000000000E+00  0.00000000000E+00 -0.35538507009E+03  0.88584427960E+03  0.81143178373E+03 0.  0.
        2    1    3    3  502    0  0.25633305718E+03  0.29581550156E+03 -0.29421352653E+03  0.48966830239E+03  0.25500000920E-02 0. -1.
       -2    1    3    3    0  502 -0.25633305718E+03 -0.29581550156E+03 -0.61171543560E+02  0.39617597721E+03  0.25500000920E-02 0.  1.
</event>
<event>
 5   0  0.1673727E-02  0.7508260E+03  0.7818609E-02  0.9634055E-01
        2   -1    0    0  501    0  0.00000000000E+00  0.00000000000E+00  0.26814358664E+04  0.26814358664E+04  0.25500000920E-02 0.  1.
       -2   -1    0    0    0  501  0.00000000000E+00  0.00000000000E+00 -0.52559493576E+02  0.52559493638E+02  0.25500000920E-02 0. -1.
    10030    2    1    2    0    0  0.00000000000E+00  0.00000000000E+00  0.26288763728E+04  0.27339953600E+04  0.75082597525E+03 0.  0.
        5    1    3    3  502    0 -0.19248181486E+03 -0.34459226779E+02  0.24812296367E+04  0.24889273367E+04  0.46999998093E+01 0.  1.
       -5    1    3    3    0  502  0.19248181486E+03  0.34459226779E+02  0.14764673606E+03  0.24506802327E+03  0.46999998093E+01 0. -1.
</event>
<event>
 5   0  0.1731337E-02  0.6658647E+03  0.7818609E-02  0.9777457E-01
        2   -1    0    0  501    0  0.00000000000E+00  0.00000000000E+00  0.12520122173E+04  0.12520122173E+04  0.25500000920E-02 0. -1.
       -2   -1    0    0    0  501  0.00000000000E+00  0.00000000000E+00 -0.88532644232E+02  0.88532644268E+02  0.25500000920E-02 0.  1.
    10030    2    1    2    0    0  0.00000000000E+00  0.00000000000E+00  0.11634795731E+04  0.13405448616E+04  0.66586470769E+03 0.  0.
        4    1    3    3  502    0 -0.69045433971E+02  0.16109960363E+03  0.11516037650E+04  0.11648661721E+04  0.12699999809E+01 0. -1.
       -4    1    3    3    0  502  0.69045433971E+02 -0.16109960363E+03  0.11875808048E+02  0.17567868954E+03  0.12699999809E+01 0.  1.
</event>
<event>
 5   0  0.1731337E-02  0.7964580E+03  0.7818609E-02  0.9565158E-01
        2   -1    0    0  501    0  0.00000000000E+00  0.00000000000E+00  0.29883462021E+03  0.29883462022E+03  0.25500000920E-02 0.  1.
       -2   -1    0    0    0  501  0.00000000000E+00  0.00000000000E+00 -0.53068265964E+03  0.53068265965E+03  0.25500000920E-02 0. -1.
    10030    2    1    2    0    0  0.00000000000E+00  0.00000000000E+00 -0.23184803943E+03  0.82951727986E+03  0.79645803669E+03 0.  0.
        4    1    3    3  502    0  0.21175112299E+02 -0.39576518351E+03 -0.15634569245E+03  0.42605639804E+03  0.12699999809E+01 0. -1.
       -4    1    3    3    0  502 -0.21175112299E+02  0.39576518351E+03 -0.75502346981E+02  0.40346088182E+03  0.12699999809E+01 0.  1.
</event>
<event>
 5   0  0.1049780E-02  0.8063744E+03  0.7818609E-02  0.9550836E-01
        1   -1    0    0  501    0  0.00000000000E+00  0.00000000000E+00  0.78295508129E+03  0.78295508131E+03  0.50400001928E-02 0.  1.
       -1   -1    0    0    0  501  0.00000000000E+00  0.00000000000E+00 -0.20762358007E+03  0.20762358013E+03  0.50400001928E-02 0. -1.
    10030    2    1    2    0    0  0.00000000000E+00  0.00000000000E+00  0.57533150122E+03  0.99057866144E+03  0.80637444665E+03 0.  0.
        5    1    3    3  502    0  0.24562233975E+03  0.21870463363E+03  0.12116607460E+01  0.32891580788E+03  0.46999998093E+01 0. -1.
       -5    1    3    3    0  502 -0.24562233975E+03 -0.21870463363E+03  0.57411984047E+03  0.66166285356E+03  0.46999998093E+01 0.  1.
</event>
<event>
 5   0  0.1049780E-02  0.7979027E+03  0.7818609E-02  0.9563058E-01
       -1   -1    0    0    0  501  0.00000000000E+00  0.00000000000E+00  0.39786522284E+03  0.39786522287E+03  0.50400001928E-02 0. -1.
        1   -1    0    0  501    0  0.00000000000E+00  0.00000000000E+00 -0.40004042456E+03  0.40004042459E+03  0.50400001928E-02 0.  1.
    10030    2    1    2    0    0  0.00000000000E+00  0.00000000000E+00 -0.21752017269E+01  0.79790564746E+03  0.79790268251E+03 0.  0.
        5    1    3    3  502    0  0.26320751084E+03  0.84526555677E+02 -0.28869456367E+03  0.39973688030E+03  0.46999998093E+01 0.  1.
       -5    1    3    3    0  502 -0.26320751084E+03 -0.84526555677E+02  0.28651936194E+03  0.39816876716E+03  0.46999998093E+01 0. -1.
</event>
<event>
 5   0  0.1049780E-02  0.8210106E+03  0.7818609E-02  0.9530093E-01
       -1   -1    0    0    0  501  0.00000000000E+00  0.00000000000E+00  0.45968473236E+03  0.45968473238E+03  0.50400001928E-02 0.  1.
        1   -1    0    0  501    0  0.00000000000E+00  0.00000000000E+00 -0.36658734840E+03  0.36658734844E+03  0.50400001928E-02 0. -1.
    10030    2    1    2    0    0  0.00000000000E+00  0.00000000000E+00  0.93097383951E+02  0.82627208082E+03  0.82101061421E+03 0.  0.
        5    1    3    3  502    0  0.32589866461E+03 -0.31816582087E+02 -0.20256594671E+03  0.38506789954E+03  0.46999998093E+01 0. -1.
       -5    1    3    3    0  502 -0.32589866461E+03  0.31816582087E+02  0.29566333066E+03  0.44120418129E+03  0.46999998093E+01 0.  1.
</event>
<event>
 5   0  0.1747544E-02  0.8040711E+03  0.7818609E-02  0.9554143E-01
        2   -1    0    0  501    0  0.00000000000E+00  0.00000000000E+00  0.35605407001E+03  0.35605407002E+03  0.25500000920E-02 0.  1.
       -2   -1    0    0    0  501  0.00000000000E+00  0.00000000000E+00 -0.45395519455E+03  0.45395519456E+03  0.25500000920E-02 0. -1.
    10030    2    1    2    0    0  0.00000000000E+00  0.00000000000E+00 -0.97901124540E+02  0.81000926458E+03  0.80407112777E+03 0.  0.
        1    1    3    3  502    0  0.12301642078E+03  0.15101428216E+03 -0.40324983349E+03  0.44782673148E+03  0.50400001928E-02 0. -1.
       -1    1    3    3    0  502 -0.12301642078E+03 -0.15101428216E+03  0.30534870895E+03  0.36218253309E+03  0.50400001928E-02 0.  1.
</event>
<event>
 5   0  0.1673727E-02  0.6510560E+03  0.7818609E-02  0.9804800E-01
       -2   -1    0    0    0  501  0.00000000000E+00  0.00000000000E+00  0.63931638736E+02  0.63931638787E+02  0.25500000920E-02 0. -1.
        2   -1    0    0  501    0  0.00000000000E+00  0.00000000000E+00 -0.16575281671E+04  0.16575281671E+04  0.25500000920E-02 0.  1.
    10030    2    1    2    0    0  0.00000000000E+00  0.00000000000E+00 -0.15935965284E+04  0.17214598059E+04  0.65105604066E+03 0.  0.
        5    1    3    3  502    0 -0.15795083760E+03  0.16149908896E+03 -0.14164217634E+04  0.14343302007E+04  0.46999998093E+01 0.  1.
       -5    1    3    3    0  502  0.15795083760E+03 -0.16149908896E+03 -0.17717476497E+03  0.28712960518E+03  0.46999998093E+01 0. -1.
</event>
<event>
 5   0  0.1030323E-02  0.7828164E+03  0.7818609E-02  0.9585228E-01
       -1   -1    0    0    0  501  0.00000000000E+00  0.00000000000E+00  0.16504700559E+03  0.16504700567E+03  0.50400001928E-02 0. -1.
        1   -1    0    0  501    0  0.00000000000E+00  0.00000000000E+00 -0.92822276473E+03  0.92822276474E+03  0.50400001928E-02 0.  1.
    10030    2    1    2    0    0  0.00000000000E+00  0.00000000000E+00 -0.76317575913E+03  0.10932697704E+04  0.78281642265E+03 0.  0.
        3    1    3    3  502    0  0.25131135737E+03  0.76223278710E+02  0.23741909847E+02  0.26368745713E+03  0.10100000352E+00 0. -1.
       -3    1    3    3    0  502 -0.25131135737E+03 -0.76223278710E+02 -0.78691766898E+03  0.82958231329E+03  0.10100000352E+00 0.  1.
</event>
<event>
 5   0  0.1731337E-02  0.8131861E+03  0.7818609E-02  0.9541125E-01
        2   -1    0    0  501    0  0.00000000000E+00  0.00000000000E+00  0.75047401426E+03  0.75047401427E+03  0.25500000920E-02 0. -1.
       -2   -1    0    0    0  501  0.00000000000E+00  0.00000000000E+00 -0.22028464164E+03  0.22028464165E+03  0.25500000920E-02 0.  1.
    10030    2    1    2    0    0  0.00000000000E+00  0.00000000000E+00  0.53018937262E+03  0.97075865592E+03  0.81318607785E+03 0.  0.
        4    1    3    3  502    0  0.15135259045E+03 -0.24280430961E+03 -0.79768518229E+02  0.29702890230E+03  0.12699999809E+01 0.  1.
       -4    1    3    3    0  502 -0.15135259045E+03  0.24280430961E+03  0.60995789085E+03  0.67372975362E+03  0.12699999809E+01 0. -1.
</event>
<event>
 5   0  0.1747544E-02  0.7983491E+03  0.7818609E-02  0.9562410E-01
       -2   -1    0    0    0  501  0.00000000000E+00  0.00000000000E+00  0.32825830295E+03  0.32825830296E+03  0.25500000920E-02 0.  1.
        2   -1    0    0  501    0  0.00000000000E+00  0.00000000000E+00 -0.48541140100E+03  0.48541140101E+03  0.25500000920E-02 0. -1.
    10030    2    1    2    0    0  0.00000000000E+00  0.00000000000E+00 -0.15715309805E+03  0.81366970397E+03  0.79834910342E+03 0.  0.
        1    1    3    3  502    0  0.78698354388E+02  0.52765445769E+02  0.31663111768E+03  0.33050399083E+03  0.50400001928E-02 0.  1.
       -1    1    3    3    0  502 -0.78698354388E+02 -0.52765445769E+02 -0.47378421573E+03  0.48316571314E+03  0.50400001928E-02 0. -1.
</event>
<event>
 5   0  0.1030323E-02  0.8040532E+03  0.7818609E-02  0.9554169E-01
       -1   -1    0    0    0  501  0.00000000000E+00  0.00000000000E+00  0.35947960608E+03  0.35947960611E+03  0.50400001928E-02 0.  1.
        1   -1    0    0  501    0  0.00000000000E+00  0.00000000000E+00 -0.44960928432E+03  0.44960928435E+03  0.50400001928E-02 0. -1.
    10030    2    1    2    0    0  0.00000000000E+00  0.00000000000E+00 -0.90129678241E+02  0.80908889046E+03  0.80405315357E+03 0.  0.
        3    1    3    3  502    0  0.17659795600E+03  0.32419031732E+03  0.11511489592E+03  0.38670098186E+03  0.10100000352E+00 0.  1.
       -3    1    3    3    0  502 -0.17659795600E+03 -0.32419031732E+03 -0.20524457416E+03  0.42238790860E+03  0.10100000352E+00 0. -1.
</event>
<event>
 5   0  0.1818665E-02  0.8006137E+03  0.7818609E-02  0.9559129E-01
        2   -1    0    0  501    0  0.00000000000E+00  0.00000000000E+00  0.11444236176E+04  0.11444236176E+04  0.25500000920E-02 0. -1.
       -2   -1    0    0    0  501  0.00000000000E+00  0.00000000000E+00 -0.14002295704E+03  0.14002295706E+03  0.25500000920E-02 0.  1.
    10030    2    1    2    0    0  0.00000000000E+00  0.00000000000E+00  0.10044006606E+04  0.12844465747E+04  0.80061371225E+03 0.  0.
        3    1    3    3  502    0  0.67680004782E+02  0.32104643814E+03  0.13427318970E+03  0.35451473617E+03  0.10100000352E+00 0.  1.
       -3    1    3    3    0  502 -0.67680004782E+02 -0.32104643814E+03  0.87012747087E+03  0.92993183850E+03  0.10100000352E+00 0. -1.
</event>
<event>
 5   0  0.1030323E-02  0.7944903E+03  0.7818609E-02  0.9568027E-01
       -1   -1    0    0    0  501  0.00000000000E+00  0.00000000000E+00  0.49392487588E+03  0.49392487591E+03  0.50400001928E-02 0.  1.
        1   -1    0    0  501    0  0.00000000000E+00  0.00000000000E+00 -0.31948929332E+03  0.31948929336E+03  0.50400001928E-02 0. -1.
    10030    2    1    2    0    0  0.00000000000E+00  0.00000000000E+00  0.17443558256E+03  0.81341416927E+03  0.79449030095E+03 0.  0.
        3    1    3    3  502    0 -0.25101570600E+03  0.27869462400E+03 -0.46758293130E+02  0.37797609221E+03  0.10100000352E+00 0. -1.
       -3    1    3    3    0  502  0.25101570600E+03 -0.27869462400E+03  0.22119387569E+03  0.43543807706E+03  0.10100000352E+00 0.  1.
</event>
<event>
 5   0  0.1049780E-02  0.8025254E+03  0.7818609E-02  0.9556369E-01
       -1   -1    0    0    0  501  0.00000000000E+00  0.00000000000E+00  0.23371108963E+03  0.23371108969E+03  0.50400001928E-02 0.  1.
        1   -1    0    0  501    0  0.00000000000E+00  0.00000000000E+00 -0.68893498425E+03  0.68893498427E+03  0.50400001928E-02 0. -1.
    10030    2    1    2    0    0  0.00000000000E+00  0.00000000000E+00 -0.45522389462E+03  0.92264607395E+03  0.80252537876E+03 0.  0.
        5    1    3    3  502    0 -0.14175549233E+03 -0.77231333972E+02 -0.64992178466E+03  0.66968628083E+03  0.46999998093E+01 0. -1.
       -5    1    3    3    0  502  0.14175549233E+03  0.77231333972E+02  0.19469789005E+03  0.25295979313E+03  0.46999998093E+01 0.  1.
</event>
<event>
 5   0  0.1025900E-02  0.8053617E+03  0.7818609E-02  0.9552289E-01
       -1   -1    0    0    0  501  0.00000000000E+00  0.00000000000E+00  0.67761770813E+03  0.67761770815E+03  0.50400001928E-02 0. -1.
        1   -1    0    0  501    0  0.00000000000E+00  0.00000000000E+00 -0.23929698434E+03  0.23929698439E+03  0.50400001928E-02 0.  1.
    10030    2    1    2    0    0  0.00000000000E+00  0.00000000000E+00  0.43832072379E+03  0.91691469254E+03  0.80536171779E+03 0.  0.
        1    1    3    3  502    0 -0.11350660612E+03  0.27955241555E+03  0.52277972301E+03  0.60359915630E+03  0.50400001928E-02 0. -1.
       -1    1    3    3    0  502  0.11350660612E+03 -0.27955241555E+03 -0.84458999217E+02  0.31331553623E+03  0.50400001928E-02 0.  1.
</event>
<event>
 5   0  0.1025900E-02  0.7975377E+03  0.7818609E-02  0.9563588E-01
        1   -1    0    0  501    0  0.00000000000E+00  0.00000000000E+00  0.69997854949E+03  0.69997854951E+03  0.50400001928E-02 0. -1.
       -1   -1    0    0    0  501  0.00000000000E+00  0.00000000000E+00 -0.22717351392E+03  0.22717351397E+03  0.50400001928E-02 0.  1.
    10030    2    1    2    0    0  0.00000000000E+00  0.00000000000E+00  0.47280503558E+03  0.92715206348E+03  0.79753767758E+03 0.  0.
        1    1    3    3  502    0  0.12313304538E+03  0.16239128058E+02  0.67692042512E+03  0.68821996347E+03  0.50400001928E-02 0. -1.
       -1    1    3    3    0  502 -0.12313304538E+03 -0.16239128058E+02 -0.20411538954E+03  0.23893210002E+03  0.50400001928E-02 0.  1.
</event>
<event>
 5   0  0.1818665E-02  0.7869481E+03  0.7818609E-02  0.9579104E-01
        2   -1    0    0  501    0  0.00000000000E+00  0.00000000000E+00  0.13460213696E+04  0.13460213696E+04  0.25500000920E-02 0.  1.
       -2   -1    0    0    0  501  0.00000000000E+00  0.00000000000E+00 -0.11502181862E+03  0.11502181864E+03  0.25500000920E-02 0. -1.
    10030    2    1    2    0    0  0.00000000000E+00  0.00000000000E+00  0.12309995509E+04  0.14610431882E+04  0.78694809446E+03 0.  0.
        3    1    3    3  502    0  0.45661761300E+02  0.39074002453E+03  0.62976688035E+03  0.74254232001E+03  0.10100000352E+00 0.  1.
       -3    1    3    3    0  502 -0.45661761300E+02 -0.39074002453E+03  0.60123267059E+03  0.71850086820E+03  0.10100000352E+00 0. -1.
</event>
<event>
 5   0  0.1025900E-02  0.8098481E+03  0.7818609E-02  0.9545871E-01
       -1   -1    0    0    0  501  0.00000000000E+00  0.00000000000E+00  0.41825618633E+03  0.41825618636E+03  0.50400001928E-02 0. -1.
        1   -1    0    0  501    0  0.00000000000E+00  0.00000000000E+00 -0.39201691356E+03  0.39201691359E+03  0.50400001928E-02 0.  1.
    10030    2    1    2    0    0  0.00000000000E+00  0.00000000000E+00  0.26239272769E+02  0.81027309995E+03  0.80984813210E+03 0.  0.
        1    1    3    3  502    0 -0.29033512434E+03 -0.21782204771E+03 -0.16648102289E+03  0.39932049772E+03  0.50400001928E-02 0.  1.
       -1    1    3    3    0  502  0.29033512434E+03  0.21782204771E+03  0.19272029566E+03  0.41095260223E+03  0.50400001928E-02 0. -1.
</event>
<event>
 5   0  0.1038912E-02  0.8073119E+03  0.7818609E-02  0.9549493E-01
       -1   -1    0    0    0  501  0.00000000000E+00  0.00000000000E+00  0.10450109588E+03  0.10450109601E+03  0.50400001928E-02 0.  1.
        1   -1    0    0  501    0  0.00000000000E+00  0.00000000000E+00 -0.15592003508E+04  0.15592003509E+04  0.50400001928E-02 0. -1.
    10030    2    1    2    0    0  0.00000000000E+00  0.00000000000E+00 -0.14546992550E+04  0.16637014469E+04  0.80731194832E+03 0.  0.
        2    1    3    3  502    0  0.98391157672E+02  0.15120122046E+03  0.16808695775E+02  0.18117715429E+03  0.25500000920E-02 0.  1.
       -2    1    3    3    0  502 -0.98391157672E+02 -0.15120122046E+03 -0.14715079507E+04  0.14825242926E+04  0.25500000920E-02 0. -1.
</event>
<event>
 5   0  0.1049780E-02  0.7950357E+03  0.7818609E-02  0.9567231E-01
       -1   -1    0    0    0  501  0.00000000000E+00  0.00000000000E+00  0.61703508781E+02  0.61703508987E+02  0.50400001928E-02 0.  1.
        1   -1    0    0  501    0  0.00000000000E+00  0.00000000000E+00 -0.25609635461E+04  0.25609635461E+04  0.50400001928E-02 0. -1.
    10030    2    1    2    0    0  0.00000000000E+00  0.00000000000E+00 -0.24992600373E+04  0.26226670551E+04  0.79503568959E+03 0.  0.
        5    1    3    3  502    0 -0.29669175705E+03  0.13080409296E+03 -0.49117304309E+03  0.58856499870E+03  0.46999998093E+01 0.  1.
       -5    1    3    3    0  502  0.29669175705E+03 -0.13080409296E+03 -0.20080869942E+04  0.20341020564E+04  0.46999998093E+01 0. -1.
</event>
<event>
 5   0  0.1747544E-02  0.8016960E+03  0.7818609E-02  0.9557565E-01
        2   -1    0    0  501    0  0.00000000000E+00  0.00000000000E+00  0.16838107128E+04  0.16838107128E+04  0.25500000920E-02 0.  1.
       -2   -1    0    0    0  501  0.00000000000E+00  0.00000000000E+00 -0.95425885734E+02  0.95425885768E+02  0.25500000920E-02 0. -1.
    10030    2    1    2    0    0  0.00000000000E+00  0.00000000000E+00  0.15883848270E+04  0.17792365985E+04  0.80169602395E+03 0.  0.
        1    1    3    3  502    0  0.23645380941E+03 -0.27355694430E+03  0.11781789059E+04  0.12324160580E+04  0.50400001928E-02 0.  1.
       -1    1    3    3    0  502 -0.23645380941E+03  0.27355694430E+03  0.41020592112E+03  0.54682054050E+03  0.50400001928E-02 0. -1.
</event>
<event>
 5   0  0.1818665E-02  0.7920112E+03  0.7818609E-02  0.9571653E-01
       -2   -1    0    0    0  501  0.00000000000E+00  0.00000000000E+00  0.38970350521E+03  0.38970350522E+03  0.25500000920E-02 0. -1.
        2   -1    0    0  501    0  0.00000000000E+00  0.00000000000E+00 -0.40240961181E+03  0.40240961182E+03  0.25500000920E-02 0.  1.
    10030    2    1    2    0    0  0.00000000000E+00  0.00000000000E+00 -0.12706106600E+02  0.79211311704E+03  0.79201120260E+03 0.  0.
        3    1    3    3  502    0  0.89067629545E+02  0.17563473202E+03  0.33726039893E+03  0.39054473318E+03  0.10100000352E+00 0. -1.
       -3    1    3    3    0  502 -0.89067629545E+02 -0.17563473202E+03 -0.34996650553E+03  0.40156838386E+03  0.10100000352E+00 0.  1.
</event>
<event>
 5   0  0.1146083E-02  0.7984746E+03  0.7818609E-02  0.9562228E-01
        1   -1    0    0  501    0  0.00000000000E+00  0.00000000000E+00  0.13744245254E+04  0.13744245254E+04  0.50400001928E-02 0. -1.
       -1   -1    0    0    0  501  0.00000000000E+00  0.00000000000E+00 -0.11596883694E+03  0.11596883705E+03  0.50400001928E-02 0.  1.
    10030    2    1    2    0    0  0.00000000000E+00  0.00000000000E+00  0.12584556885E+04  0.14903933625E+04  0.79847458008E+03 0.  0.
        4    1    3    3  502    0  0.17932760010E+03 -0.35315100033E+03  0.53562476656E+03  0.66616028149E+03  0.12699999809E+01 0. -1.
       -4    1    3    3    0  502 -0.17932760010E+03  0.35315100033E+03  0.72283092193E+03  0.82423308098E+03  0.12699999809E+01 0.  1.
</event>
<event>
 5   0  0.1038912E-02  0.7986717E+03  0.7818609E-02  0.9561942E-01
       -1   -1    0    0    0  501  0.00000000000E+00  0.00000000000E+00  0.25423704760E+03  0.25423704765E+03  0.50400001928E-02 0. -1.
        1   -1    0    0  501    0  0.00000000000E+00  0.00000000000E+00 -0.62724574170E+03  0.62724574172E+03  0.50400001928E-02 0.  1.
    10030    2    1    2    0    0  0.00000000000E+00  0.00000000000E+00 -0.37300869410E+03  0.88148278937E+03  0.79867166099E+03 0.  0.
        2    1    3    3  502    0 -0.24537958001E+02  0.28875504321E+03 -0.48974200861E+03  0.56905959387E+03  0.25500000920E-02 0.  1.
       -2    1    3    3    0  502  0.24537958001E+02 -0.28875504321E+03  0.11673331451E+03  0.31242319550E+03  0.25500000920E-02 0. -1.
</event>
<event>
 5   0  0.1146083E-02  0.7914983E+03  0.7818609E-02  0.9572405E-01
        1   -1    0    0  501    0  0.00000000000E+00  0.00000000000E+00  0.31965098409E+03  0.31965098413E+03  0.50400001928E-02 0.  1.
       -1   -1    0    0    0  501  0.00000000000E+00  0.00000000000E+00 -0.48996378559E+03  0.48996378561E+03  0.50400001928E-02 0. -1.
    10030    2    1    2    0    0  0.00000000000E+00  0.00000000000E+00 -0.17031280150E+03  0.80961476974E+03  0.79149834177E+03 0.  0.
        4    1    3    3  502    0 -0.12494212658E+03  0.11611829916E+03  0.28011917032E+03  0.32796700577E+03  0.12699999809E+01 0.  1.
       -4    1    3    3    0  502  0.12494212658E+03 -0.11611829916E+03 -0.45043197182E+03  0.48164776397E+03  0.12699999809E+01 0. -1.
</event>
<event>
 5   0  0.1025900E-02  0.8011894E+03  0.7818609E-02  0.9558297E-01
       -1   -1    0    0    0  501  0.00000000000E+00  0.00000000000E+00  0.19807534784E+03  0.19807534790E+03  0.50400001928E-02 0. -1.
        1   -1    0    0  501    0  0.00000000000E+00  0.00000000000E+00 -0.81017706112E+03  0.81017706114E+03  0.50400001928E-02 0.  1.
    10030    2    1    2    0    0  0.00000000000E+00  0.00000000000E+00 -0.61210171328E+03  0.10082524090E+04  0.80118937395E+03 0.  0.
        1    1    3    3  502    0  0.17026486936E+03  0.48589103633E+02  0.14615833285E+03  0.22959373907E+03  0.50400001928E-02 0. -1.
       -1    1    3    3    0  502 -0.17026486936E+03 -0.48589103633E+02 -0.75826004613E+03  0.77865866997E+03  0.50400001928E-02 0.  1.
</event>
<event>
 5   0  0.6872500E-03  0.7901279E+03  0.7818609E-02  0.9574418E-01
       -3   -1    0    0    0  501  0.00000000000E+00  0.00000000000E+00  0.21745027094E+03  0.21745029440E+03  0.10100000352E+00 0. -1.
        3   -1    0    0  501    0  0.00000000000E+00  0.00000000000E+00 -0.71775257138E+03  0.71775257848E+03  0.10100000352E+00 0.  1.
    10030    2    1    2    0    0  0.00000000000E+00  0.00000000000E+00 -0.50030230043E+03  0.93520287288E+03  0.79012785145E+03 0.  0.
        4    1    3    3  502    0 -0.27210025752E+03  0.27396876706E+03 -0.34901236069E+03  0.52048888200E+03  0.12699999809E+01 0. -1.
       -4    1    3    3    0  502  0.27210025752E+03 -0.27396876706E+03 -0.15128993975E+03  0.41471399089E+03  0.12699999809E+01 0.  1.
</event>
<event>
 5   0  0.1146083E-02  0.8106743E+03  0.7818609E-02  0.9544694E-01
        1   -1    0    0  501    0  0.00000000000E+00  0.00000000000E+00  0.26219263317E+03  0.26219263322E+03  0.50400001928E-02 0. -1.
       -1   -1    0    0    0  501  0.00000000000E+00  0.00000000000E+00 -0.62663158804E+03  0.62663158806E+03  0.50400001928E-02 0.  1.
    10030    2    1    2    0    0  0.00000000000E+00  0.00000000000E+00 -0.36443895487E+03  0.88882422128E+03  0.81067425302E+03 0.  0.
        4    1    3    3  502    0 -0.11016934026E+03  0.26304436470E+03 -0.49802670745E+03  0.57390054502E+03  0.12699999809E+01 0.  1.
       -4    1    3    3    0  502  0.11016934026E+03 -0.26304436470E+03  0.13358775258E+03  0.31492367626E+03  0.12699999809E+01 0. -1.
</event>
<event>
 5   0  0.1731337E-02  0.8013205E+03  0.7818609E-02  0.9558108E-01
       -2   -1    0    0    0  501  0.00000000000E+00  0.00000000000E+00  0.75828718045E+02  0.75828718088E+02  0.25500000920E-02 0. -1.
        2   -1    0    0  501    0  0.00000000000E+00  0.00000000000E+00 -0.21169899946E+04  0.21169899946E+04  0.25500000920E-02 0.  1.
    10030    2    1    2    0    0  0.00000000000E+00  0.00000000000E+00 -0.20411612766E+04  0.21928187127E+04  0.80132050380E+03 0.  0.
        4    1    3    3  502    0 -0.39793868889E+03 -0.46900711647E-01 -0.11481095375E+04  0.12151182351E+04  0.12699999809E+01 0. -1.
       -4    1    3    3    0  502  0.39793868889E+03  0.46900711647E-01 -0.89305173902E+03  0.97770047754E+03  0.12699999809E+01 0.  1.
</event>
<event>
 5   0  0.6872500E-03  0.7995455E+03  0.7818609E-02  0.9560675E-01
       -3   -1    0    0    0  501  0.00000000000E+00  0.00000000000E+00  0.17315782935E+03  0.17315785881E+03  0.10100000352E+00 0.  1.
        3   -1    0    0  501    0  0.00000000000E+00  0.00000000000E+00 -0.92296274262E+03  0.92296274815E+03  0.10100000352E+00 0. -1.
    10030    2    1    2    0    0  0.00000000000E+00  0.00000000000E+00 -0.74980491327E+03  0.10961206070E+04  0.79954548152E+03 0.  0.
        3    1    3    3  502    0  0.70219281251E+02  0.32532881108E+03 -0.71283625410E+02  0.34036884145E+03  0.10100000352E+00 0.  1.
       -3    1    3    3    0  502 -0.70219281251E+02 -0.32532881108E+03 -0.67852128786E+03  0.75575176550E+03  0.10100000352E+00 0. -1.
</event>
<event>
 5   0  0.1731337E-02  0.7915022E+03  0.7818609E-02  0.9572399E-01
        2   -1    0    0  501    0  0.00000000000E+00  0.00000000000E+00  0.82501568319E+03  0.82501568320E+03  0.25500000920E-02 0.  1.
       -2   -1    0    0    0  501  0.00000000000E+00  0.00000000000E+00 -0.18983751997E+03  0.18983751999E+03  0.25500000920E-02 0. -1.
    10030    2    1    2    0    0  0.00000000000E+00  0.00000000000E+00  0.63517816322E+03  0.10148532032E+04  0.79150219518E+03 0.  0.
        4    1    3    3  502    0 -0.39044100588E+01 -0.30738559922E+03  0.63714982935E+03  0.70743386190E+03  0.12699999809E+01 0.  1.
       -4    1    3    3    0  502  0.39044100588E+01  0.30738559922E+03 -0.19716661260E+01  0.30741934128E+03  0.12699999809E+01 0. -1.
</event>
<event>
 5   0  0.1025900E-02  0.8023793E+03  0.7818609E-02  0.9556580E-01
        1   -1    0    0  501    0  0.00000000000E+00  0.00000000000E+00  0.67331913383E+03  0.67331913385E+03  0.50400001928E-02 0. -1.
       -1   -1    0    0    0  501  0.00000000000E+00  0.00000000000E+00 -0.23904433190E+03  0.23904433196E+03  0.50400001928E-02 0.  1.
    10030    2    1    2    0    0  0.00000000000E+00  0.00000000000E+00  0.43427480193E+03  0.91236346580E+03  0.80237926827E+03 0.  0.
        1    1    3    3  502    0  0.38038599920E+03 -0.12739552394E+03  0.21090995807E+03  0.45321753976E+03  0.50400001928E-02 0. -1.
       -1    1    3    3    0  502 -0.38038599920E+03  0.12739552394E+03  0.22336484386E+03  0.45914592605E+03  0.50400001928E-02 0.  1.
</event>
<event>
 5   0  0.1146083E-02  0.9215848E+03  0.7818609E-02  0.9398994E-01
       -1   -1    0    0    0  501  0.00000000000E+00  0.00000000000E+00  0.24525894736E+03  0.24525894741E+03  0.50400001928E-02 0.  1.
        1   -1    0    0  501    0  0.00000000000E+00  0.00000000000E+00 -0.86573661096E+03  0.86573661098E+03  0.50400001928E-02 0. -1.
    10030    2    1    2    0    0  0.00000000000E+00  0.00000000000E+00 -0.62047766361E+03  0.11109955584E+04  0.92158483045E+03 0.  0.
        4    1    3    3  502    0  0.45909730191E+02  0.28841044685E+03  0.11944282772E+03  0.31552573773E+03  0.12699999809E+01 0.  1.
       -4    1    3    3    0  502 -0.45909730191E+02 -0.28841044685E+03 -0.73992049133E+03  0.79546982065E+03  0.12699999809E+01 0. -1.
</event>
<event>
 5   0  0.1731337E-02  0.8057256E+03  0.7818609E-02  0.9551766E-01
        2   -1    0    0  501    0  0.00000000000E+00  0.00000000000E+00  0.83199352692E+03  0.83199352692E+03  0.25500000920E-02 0. -1.
       -2   -1    0    0    0  501  0.00000000000E+00  0.00000000000E+00 -0.19507173984E+03  0.19507173986E+03  0.25500000920E-02 0.  1.
    10030    2    1    2    0    0  0.00000000000E+00  0.00000000000E+00  0.63692178707E+03  0.10270652668E+04  0.80572557325E+03 0.  0.
        4    1    3    3  502    0 -0.96794717854E+02 -0.36823309913E+03  0.48627751542E+03  0.61760203011E+03  0.12699999809E+01 0. -1.
       -4    1    3    3    0  502  0.96794717854E+02  0.36823309913E+03  0.15064427165E+03  0.40946323667E+03  0.12699999809E+01 0.  1.
</event>
<event>
 5   0  0.1731337E-02  0.7980027E+03  0.7818609E-02  0.9562913E-01
        2   -1    0    0  501    0  0.00000000000E+00  0.00000000000E+00  0.88884578483E+03  0.88884578483E+03  0.25500000920E-02 0. -1.
       -2   -1    0    0    0  501  0.00000000000E+00  0.00000000000E+00 -0.17911101546E+03  0.17911101548E+03  0.25500000920E-02 0.  1.
    10030    2    1    2    0    0  0.00000000000E+00  0.00000000000E+00  0.70973476937E+03  0.10679568003E+04  0.79800268450E+03 0.  0.
        4    1    3    3  502    0 -0.12050400266E+03  0.31985737332E+03  0.63034172371E+03  0.71705108289E+03  0.12699999809E+01 0.  1.
       -4    1    3    3    0  502  0.12050400266E+03 -0.31985737332E+03  0.79393045665E+02  0.35090571742E+03  0.12699999809E+01 0. -1.
</event>
<event>
 5   0  0.1673727E-02  0.7970423E+03  0.7818609E-02  0.9564308E-01
       -2   -1    0    0    0  501  0.00000000000E+00  0.00000000000E+00  0.13501639894E+03  0.13501639897E+03  0.25500000920E-02 0. -1.
        2   -1    0    0  501    0  0.00000000000E+00  0.00000000000E+00 -0.11762949573E+04  0.11762949573E+04  0.25500000920E-02 0.  1.
    10030    2    1    2    0    0  0.00000000000E+00  0.00000000000E+00 -0.10412785584E+04  0.13113113563E+04  0.79704230564E+03 0.  0.
        5    1    3    3  502    0  0.21393242777E+03 -0.18045512401E+03 -0.98733126339E+03  0.10262437572E+04  0.46999998093E+01 0.  1.
       -5    1    3    3    0  502 -0.21393242777E+03  0.18045512401E+03 -0.53947294969E+02  0.28506759911E+03  0.46999998093E+01 0. -1.
</event>
<event>
 5   0  0.1747544E-02  0.7957613E+03  0.7818609E-02  0.9566173E-01
       -2   -1    0    0    0  501  0.00000000000E+00  0.00000000000E+00  0.10059036376E+03  0.10059036379E+03  0.25500000920E-02 0. -1.
        2   -1    0    0  501    0  0.00000000000E+00  0.00000000000E+00 -0.15737990846E+04  0.15737990847E+04  0.25500000920E-02 0.  1.
    10030    2    1    2    0    0  0.00000000000E+00  0.00000000000E+00 -0.14732087209E+04  0.16743894484E+04  0.79576132711E+03 0.  0.
        1    1    3    3  502    0  0.32954675967E+03 -0.11376982888E+03 -0.33315662497E+03  0.48222191734E+03  0.50400001928E-02 0.  1.
       -1    1    3    3    0  502 -0.32954675967E+03  0.11376982888E+03 -0.11400520959E+04  0.11921675311E+04  0.50400001928E-02 0. -1.
</event>
<event>
 5   0  0.1049780E-02  0.8054268E+03  0.7818609E-02  0.9552195E-01
       -1   -1    0    0    0  501  0.00000000000E+00  0.00000000000E+00  0.13799977914E+03  0.13799977923E+03  0.50400001928E-02 0.  1.
        1   -1    0    0  501    0  0.00000000000E+00  0.00000000000E+00 -0.11752052901E+04  0.11752052901E+04  0.50400001928E-02 0. -1.
    10030    2    1    2    0    0  0.00000000000E+00  0.00000000000E+00 -0.10372055110E+04  0.13132050693E+04  0.80542677022E+03 0.  0.
        5    1    3    3  502    0  0.25144488061E+03  0.24086127570E+03 -0.18879568184E+03  0.39611182966E+03  0.46999998093E+01 0.  1.
       -5    1    3    3    0  502 -0.25144488061E+03 -0.24086127570E+03 -0.84840982912E+03  0.91709323968E+03  0.46999998093E+01 0. -1.
</event>
<event>
 5   0  0.1673727E-02  0.8021564E+03  0.7818609E-02  0.9556901E-01
       -2   -1    0    0    0  501  0.00000000000E+00  0.00000000000E+00  0.15129988685E+03  0.15129988688E+03  0.25500000920E-02 0. -1.
        2   -1    0    0  501    0  0.00000000000E+00  0.00000000000E+00 -0.10632111344E+04  0.10632111344E+04  0.25500000920E-02 0.  1.
    10030    2    1    2    0    0  0.00000000000E+00  0.00000000000E+00 -0.91191124758E+03  0.12145110213E+04  0.80215640459E+03 0.  0.
        5    1    3    3  502    0 -0.36971734622E+03  0.39007815280E+02 -0.68371492850E+03  0.77826776832E+03  0.46999998093E+01 0.  1.
       -5    1    3    3    0  502  0.36971734622E+03 -0.39007815280E+02 -0.22819631908E+03  0.43624325300E+03  0.46999998093E+01 0. -1.
</event>
<event>
 5   0  0.6872500E-03  0.8098863E+03  0.7818609E-02  0.9545816E-01
       -4   -1    0    0    0  501  0.00000000000E+00  0.00000000000E+00  0.16749292278E+03  0.16749773754E+03  0.12699999809E+01 0. -1.
        4   -1    0    0  501    0  0.00000000000E+00  0.00000000000E+00 -0.97900092524E+03  0.97900174899E+03  0.12699999809E+01 0.  1.
    10030    2    1    2    0    0  0.00000000000E+00  0.00000000000E+00 -0.81150800247E+03  0.11464994865E+04  0.80988630964E+03 0.  0.
        5    1    3    3  502    0 -0.54307779059E+02 -0.21860236265E+03 -0.88208891979E+03  0.91040610731E+03  0.46999998093E+01 0.  1.
       -5    1    3    3    0  502  0.54307779059E+02  0.21860236265E+03  0.70580917322E+02  0.23609337922E+03  0.46999998093E+01 0. -1.
</event>
<event>
 5   0  0.1673727E-02  0.7980688E+03  0.7818609E-02  0.9562817E-01
       -2   -1    0    0    0  501  0.00000000000E+00  0.00000000000E+00  0.11602188820E+03  0.11602188822E+03  0.25500000920E-02 0. -1.
        2   -1    0    0  501    0  0.00000000000E+00  0.00000000000E+00 -0.13724002114E+04  0.13724002114E+04  0.25500000920E-02 0.  1.
    10030    2    1    2    0    0  0.00000000000E+00  0.00000000000E+00 -0.12563783232E+04  0.14884220996E+04  0.79806882888E+03 0.  0.
        5    1    3    3  502    0  0.16012836610E+03  0.25707913990E+03 -0.11126505018E+04  0.11531452671E+04  0.46999998093E+01 0.  1.
       -5    1    3    3    0  502 -0.16012836610E+03 -0.25707913990E+03 -0.14372782139E+03  0.33527683254E+03  0.46999998093E+01 0. -1.
</event>
<event>
 5   0  0.1030323E-02  0.8021141E+03  0.7818609E-02  0.9556962E-01
       -1   -1    0    0    0  501  0.00000000000E+00  0.00000000000E+00  0.52240234689E+03  0.52240234691E+03  0.50400001928E-02 0. -1.
        1   -1    0    0  501    0  0.00000000000E+00  0.00000000000E+00 -0.30789823569E+03  0.30789823573E+03  0.50400001928E-02 0.  1.
    10030    2    1    2    0    0  0.00000000000E+00  0.00000000000E+00  0.21450411120E+03  0.83030058264E+03  0.80211410898E+03 0.  0.
        3    1    3    3  502    0 -0.21609296026E+03  0.26057622488E+02  0.45594466704E+03  0.50523332904E+03  0.10100000352E+00 0. -1.
       -3    1    3    3    0  502  0.21609296026E+03 -0.26057622488E+02 -0.24144055584E+03  0.32506725361E+03  0.10100000352E+00 0.  1.
</event>
<event>
 5   0  0.1146083E-02  0.7838944E+03  0.7818609E-02  0.9583626E-01
       -1   -1    0    0    0  501  0.00000000000E+00  0.00000000000E+00  0.23344596674E+03  0.23344596680E+03  0.50400001928E-02 0. -1.
        1   -1    0    0  501    0  0.00000000000E+00  0.00000000000E+00 -0.65806501165E+03  0.65806501167E+03  0.50400001928E-02 0.  1.
    10030    2    1    2    0    0  0.00000000000E+00  0.00000000000E+00 -0.42461904491E+03  0.89151097847E+03  0.78389443896E+03 0.  0.
        4    1    3    3  502    0 -0.27137191095E+03 -0.34491547734E+02  0.10691840912E+03  0.29370995902E+03  0.12699999809E+01 0. -1.
       -4    1    3    3    0  502  0.27137191095E+03  0.34491547734E+02 -0.53153745402E+03  0.59780101945E+03  0.12699999809E+01 0.  1.
</event>
<event>
 5   0  0.1030323E-02  0.7997488E+03  0.7818609E-02  0.9560381E-01
       -1   -1    0    0    0  501  0.00000000000E+00  0.00000000000E+00  0.16990536702E+03  0.16990536709E+03  0.50400001928E-02 0.  1.
        1   -1    0    0  501    0  0.00000000000E+00  0.00000000000E+00 -0.94110947573E+03  0.94110947574E+03  0.50400001928E-02 0. -1.
    10030    2    1    2    0    0  0.00000000000E+00  0.00000000000E+00 -0.77120410871E+03  0.11110148428E+04  0.79974883789E+03 0.  0.
        3    1    3    3  502    0  0.31292460351E+03 -0.24092052199E+03 -0.29845743820E+03  0.49501652297E+03  0.10100000352E+00 0.  1.
       -3    1    3    3    0  502 -0.31292460351E+03  0.24092052199E+03 -0.47274667052E+03  0.61599831987E+03  0.10100000352E+00 0. -1.
</event>
<event>
 5   0  0.1030323E-02  0.8042336E+03  0.7818609E-02  0.9553909E-01
       -1   -1    0    0    0  501  0.00000000000E+00  0.00000000000E+00  0.11102098406E+03  0.11102098418E+03  0.50400001928E-02 0.  1.
        1   -1    0    0  501    0  0.00000000000E+00  0.00000000000E+00 -0.14564625589E+04  0.14564625590E+04  0.50400001928E-02 0. -1.
    10030    2    1    2    0    0  0.00000000000E+00  0.00000000000E+00 -0.13454415749E+04  0.15674835431E+04  0.80423356468E+03 0.  0.
        3    1    3    3  502    0 -0.61768286784E+02  0.32404370176E+03 -0.11209078861E+04  0.11684409019E+04  0.10100000352E+00 0. -1.
       -3    1    3    3    0  502  0.61768286784E+02 -0.32404370176E+03 -0.22453368873E+03  0.39904264118E+03  0.10100000352E+00 0.  1.
</event>
<event>
 5   0  0.1817089E-02  0.7987317E+03  0.7818609E-02  0.9561855E-01
        2   -1    0    0  501    0  0.00000000000E+00  0.00000000000E+00  0.79052710480E+03  0.79052710481E+03  0.25500000920E-02 0. -1.
       -2   -1    0    0    0  501  0.00000000000E+00  0.00000000000E+00 -0.20175535226E+03  0.20175535227E+03  0.25500000920E-02 0.  1.
    10030    2    1    2    0    0  0.00000000000E+00  0.00000000000E+00  0.58877175254E+03  0.99228245708E+03  0.79873168088E+03 0.  0.
        2    1    3    3  502    0 -0.26601098536E+03 -0.77215764007E+02  0.65179706283E+03  0.70821150066E+03  0.25500000920E-02 0. -1.
       -2    1    3    3    0  502  0.26601098536E+03  0.77215764007E+02 -0.63025310285E+02  0.28407095642E+03  0.25500000920E-02 0.  1.
</event>
<event>
 5   0  0.1049780E-02  0.8227791E+03  0.7818609E-02  0.9527618E-01
        1   -1    0    0  501    0  0.00000000000E+00  0.00000000000E+00  0.92012433288E+03  0.92012433290E+03  0.50400001928E-02 0. -1.
       -1   -1    0    0    0  501  0.00000000000E+00  0.00000000000E+00 -0.18393315071E+03  0.18393315078E+03  0.50400001928E-02 0.  1.
    10030    2    1    2    0    0  0.00000000000E+00  0.00000000000E+00  0.73619118217E+03  0.11040574837E+04  0.82277911407E+03 0.  0.
        5    1    3    3  502    0 -0.28055724502E+03 -0.13021932751E+03  0.73201002673E+03  0.79468875053E+03  0.46999998093E+01 0.  1.
       -5    1    3    3    0  502  0.28055724502E+03  0.13021932751E+03  0.41811554435E+01  0.30936873315E+03  0.46999998093E+01 0. -1.
</event>
<event>
 5   0  0.1038912E-02  0.8178291E+03  0.7818609E-02  0.9534563E-01
        1   -1    0    0  501    0  0.00000000000E+00  0.00000000000E+00  0.13728002147E+04  0.13728002147E+04  0.50400001928E-02 0.  1.
       -1   -1    0    0    0  501  0.00000000000E+00  0.00000000000E+00 -0.12180295769E+03  0.12180295780E+03  0.50400001928E-02 0. -1.
    10030    2    1    2    0    0  0.00000000000E+00  0.00000000000E+00  0.12509972570E+04  0.14946031725E+04  0.81782914244E+03 0.  0.
        2    1    3    3  502    0  0.40351815284E+03  0.64424993012E+02  0.65343329976E+03  0.77068317526E+03  0.25500000920E-02 0. -1.
       -2    1    3    3    0  502 -0.40351815284E+03 -0.64424993012E+02  0.59756395727E+03  0.72391999726E+03  0.25500000920E-02 0.  1.
</event>
<event>
 5   0  0.1030323E-02  0.7836269E+03  0.7818609E-02  0.9584024E-01
        1   -1    0    0  501    0  0.00000000000E+00  0.00000000000E+00  0.18718077631E+04  0.18718077631E+04  0.50400001928E-02 0. -1.
       -1   -1    0    0    0  501  0.00000000000E+00  0.00000000000E+00 -0.82015774275E+02  0.82015774430E+02  0.50400001928E-02 0.  1.
    10030    2    1    2    0    0  0.00000000000E+00  0.00000000000E+00  0.17897919889E+04  0.19538235376E+04  0.78362685800E+03 0.  0.
        3    1    3    3  502    0 -0.34225070858E+02 -0.12500918111E+03 -0.27018458297E+02  0.13239583878E+03  0.10100000352E+00 0.  1.
       -3    1    3    3    0  502  0.34225070858E+02  0.12500918111E+03  0.18168104471E+04  0.18214276988E+04  0.10100000352E+00 0. -1.
</event>
<event>
 5   0  0.1747544E-02  0.8152006E+03  0.7818609E-02  0.9538272E-01
        2   -1    0    0  501    0  0.00000000000E+00  0.00000000000E+00  0.15858419550E+04  0.15858419550E+04  0.25500000920E-02 0.  1.
       -2   -1    0    0    0  501  0.00000000000E+00  0.00000000000E+00 -0.10476328041E+03  0.10476328044E+03  0.25500000920E-02 0. -1.
    10030    2    1    2    0    0  0.00000000000E+00  0.00000000000E+00  0.14810786746E+04  0.16906052355E+04  0.81520060217E+03 0.  0.
        1    1    3    3  502    0  0.38720824291E+03 -0.99406523367E+02  0.90548716770E+03  0.98980750207E+03  0.50400001928E-02 0.  1.
       -1    1    3    3    0  502 -0.38720824291E+03  0.99406523367E+02  0.57559150693E+03  0.70079773340E+03  0.50400001928E-02 0. -1.
</event>
<event>
 5   0  0.1817089E-02  0.8136766E+03  0.7818609E-02  0.9540429E-01
        2   -1    0    0  501    0  0.00000000000E+00  0.00000000000E+00  0.19132932785E+04  0.19132932785E+04  0.25500000920E-02 0. -1.
       -2   -1    0    0    0  501  0.00000000000E+00  0.00000000000E+00 -0.86509171286E+02  0.86509171323E+02  0.25500000920E-02 0.  1.
    10030    2    1    2    0    0  0.00000000000E+00  0.00000000000E+00  0.18267841072E+04  0.19998024498E+04  0.81367663352E+03 0.  0.
        2    1    3    3  502    0 -0.13636304035E+03 -0.37816456260E+03  0.10671548450E+04  0.11403608106E+04  0.25500000920E-02 0.  1.
       -2    1    3    3    0  502  0.13636304035E+03  0.37816456260E+03  0.75962926216E+03  0.85944163915E+03  0.25500000920E-02 0. -1.
</event>
<event>
 5   0  0.1030323E-02  0.7924130E+03  0.7818609E-02  0.9571064E-01
        1   -1    0    0  501    0  0.00000000000E+00  0.00000000000E+00  0.80342413594E+03  0.80342413595E+03  0.50400001928E-02 0. -1.
       -1   -1    0    0    0  501  0.00000000000E+00  0.00000000000E+00 -0.19538821143E+03  0.19538821150E+03  0.50400001928E-02 0.  1.
    10030    2    1    2    0    0  0.00000000000E+00  0.00000000000E+00  0.60803592451E+03  0.99881234745E+03  0.79241303619E+03 0.  0.
        3    1    3    3  502    0  0.12875768080E+02 -0.18460362245E+03  0.74560575200E+03  0.76822667907E+03  0.10100000352E+00 0. -1.
       -3    1    3    3    0  502 -0.12875768080E+02  0.18460362245E+03 -0.13756982749E+03  0.23058566838E+03  0.10100000352E+00 0.  1.
</event>
<event>
 5   0  0.1747544E-02  0.7957553E+03  0.7818609E-02  0.9566182E-01
        2   -1    0    0  501    0  0.00000000000E+00  0.00000000000E+00  0.73435266862E+03  0.73435266862E+03  0.25500000920E-02 0. -1.
       -2   -1    0    0    0  501  0.00000000000E+00  0.00000000000E+00 -0.21557301813E+03  0.21557301814E+03  0.25500000920E-02 0.  1.
    10030    2    1    2    0    0  0.00000000000E+00  0.00000000000E+00  0.51877965049E+03  0.94992568677E+03  0.79575529192E+03 0.  0.
        1    1    3    3  502    0 -0.25540185463E+03  0.30488006127E+03  0.24606145092E+03  0.46768386412E+03  0.50400001928E-02 0. -1.
       -1    1    3    3    0  502  0.25540185463E+03 -0.30488006127E+03  0.27271819957E+03  0.48224182265E+03  0.50400001928E-02 0.  1.
</event>
<event>
 5   0  0.1025900E-02  0.7981064E+03  0.7818609E-02  0.9562762E-01
        1   -1    0    0  501    0  0.00000000000E+00  0.00000000000E+00  0.58706623506E+03  0.58706623508E+03  0.50400001928E-02 0.  1.
       -1   -1    0    0    0  501  0.00000000000E+00  0.00000000000E+00 -0.27125295926E+03  0.27125295931E+03  0.50400001928E-02 0. -1.
    10030    2    1    2    0    0  0.00000000000E+00  0.00000000000E+00  0.31581327580E+03  0.85831919439E+03  0.79810639283E+03 0.  0.
        1    1    3    3  502    0 -0.16318899394E+03 -0.34879204934E+02  0.54774045948E+03  0.57259655749E+03  0.50400001928E-02 0.  1.
       -1    1    3    3    0  502  0.16318899394E+03  0.34879204934E+02 -0.23192718368E+03  0.28572263689E+03  0.50400001928E-02 0. -1.
</event>
<event>
 5   0  0.1030323E-02  0.8094163E+03  0.7818609E-02  0.9546487E-01
       -1   -1    0    0    0  501  0.00000000000E+00  0.00000000000E+00  0.14362678676E+03  0.14362678685E+03  0.50400001928E-02 0. -1.
        1   -1    0    0  501    0  0.00000000000E+00  0.00000000000E+00 -0.11403769169E+04  0.11403769169E+04  0.50400001928E-02 0.  1.
    10030    2    1    2    0    0  0.00000000000E+00  0.00000000000E+00 -0.99675013011E+03  0.12840037037E+04  0.80941626455E+03 0.  0.
        3    1    3    3  502    0  0.22352971463E+02 -0.16984095176E+03  0.83277356487E+02  0.19047501813E+03  0.10100000352E+00 0. -1.
       -3    1    3    3    0  502 -0.22352971463E+02  0.16984095176E+03 -0.10800274866E+04  0.10935286856E+04  0.10100000352E+00 0.  1.
</event>
<event>
 5   0  0.1731337E-02  0.7986909E+03  0.7818609E-02  0.9561914E-01
       -2   -1    0    0    0  501  0.00000000000E+00  0.00000000000E+00  0.23694489099E+03  0.23694489100E+03  0.25500000920E-02 0.  1.
        2   -1    0    0  501    0  0.00000000000E+00  0.00000000000E+00 -0.67305434193E+03  0.67305434193E+03  0.25500000920E-02 0. -1.
    10030    2    1    2    0    0  0.00000000000E+00  0.00000000000E+00 -0.43610945094E+03  0.90999923294E+03  0.79869089812E+03 0.  0.
        4    1    3    3  502    0 -0.45896525686E+02 -0.38742551951E+03 -0.12090669664E+03  0.40844224369E+03  0.12699999809E+01 0.  1.
       -4    1    3    3    0  502  0.45896525686E+02  0.38742551951E+03 -0.31520275431E+03  0.50155698925E+03  0.12699999809E+01 0. -1.
</event>
<event>
 5   0  0.6872500E-03  0.8060479E+03  0.7818609E-02  0.9551304E-01
        4   -1    0    0  501    0  0.00000000000E+00  0.00000000000E+00  0.10175422568E+03  0.10176215084E+03  0.12699999809E+01 0.  1.
       -4   -1    0    0    0  501  0.00000000000E+00  0.00000000000E+00 -0.15962102620E+04  0.15962107672E+04  0.12699999809E+01 0. -1.
    10030    2    1    2    0    0  0.00000000000E+00  0.00000000000E+00 -0.14944560363E+04  0.16979729181E+04  0.80604788070E+03 0.  0.
        2    1    3    3  502    0  0.33965901958E+03 -0.17106152563E+03 -0.10282598644E+04  0.10963341844E+04  0.25500000920E-02 0. -1.
       -2    1    3    3    0  502 -0.33965901958E+03  0.17106152563E+03 -0.46619617193E+03  0.60163873368E+03  0.25500000920E-02 0.  1.
</event>
<event>
 5   0  0.6872500E-03  0.7945250E+03  0.7818609E-02  0.9567976E-01
       -3   -1    0    0    0  501  0.00000000000E+00  0.00000000000E+00  0.96238348843E+03  0.96238349373E+03  0.10100000352E+00 0.  1.
        3   -1    0    0  501    0  0.00000000000E+00  0.00000000000E+00 -0.16398607696E+03  0.16398610806E+03  0.10100000352E+00 0. -1.
    10030    2    1    2    0    0  0.00000000000E+00  0.00000000000E+00  0.79839741147E+03  0.11263696018E+04  0.79452504882E+03 0.  0.
        1    1    3    3  502    0  0.14769253902E+03 -0.32415834579E+03  0.14989211641E+03  0.38647039449E+03  0.50400001928E-02 0. -1.
       -1    1    3    3    0  502 -0.14769253902E+03  0.32415834579E+03  0.64850529506E+03  0.73989920731E+03  0.50400001928E-02 0.  1.
</event>
<event>
 5   0  0.1747544E-02  0.8045267E+03  0.7818609E-02  0.9553488E-01
       -2   -1    0    0    0  501  0.00000000000E+00  0.00000000000E+00  0.35425155447E+03  0.35425155448E+03  0.25500000920E-02 0. -1.
        2   -1    0    0  501    0  0.00000000000E+00  0.00000000000E+00 -0.45678215040E+03  0.45678215040E+03  0.25500000920E-02 0.  1.
    10030    2    1    2    0    0  0.00000000000E+00  0.00000000000E+00 -0.10253059593E+03  0.81103370488E+03  0.80452666044E+03 0.  0.
        1    1    3    3  502    0  0.70592160880E+00 -0.58692739089E+02 -0.45244184791E+03  0.45623345089E+03  0.50400001928E-02 0.  1.
       -1    1    3    3    0  502 -0.70592160880E+00  0.58692739089E+02  0.34991125198E+03  0.35480025400E+03  0.50400001928E-02 0. -1.
</event>
<event>
 5   0  0.1673727E-02  0.7906464E+03  0.7818609E-02  0.9573656E-01
       -2   -1    0    0    0  501  0.00000000000E+00  0.00000000000E+00  0.37116635333E+03  0.37116635334E+03  0.25500000920E-02 0. -1.
        2   -1    0    0  501    0  0.00000000000E+00  0.00000000000E+00 -0.42105231346E+03  0.42105231347E+03  0.25500000920E-02 0.  1.
    10030    2    1    2    0    0  0.00000000000E+00  0.00000000000E+00 -0.49885960127E+02  0.79221866681E+03  0.79064644881E+03 0.  0.
        5    1    3    3  502    0  0.11528435163E+02  0.27028060311E+03  0.26385551267E+03  0.37792371030E+03  0.46999998093E+01 0. -1.
       -5    1    3    3    0  502 -0.11528435163E+02 -0.27028060311E+03 -0.31374147280E+03  0.41429495651E+03  0.46999998093E+01 0.  1.
</event>
<event>
 5   0  0.1731337E-02  0.7993983E+03  0.7818609E-02  0.9560888E-01
       -2   -1    0    0    0  501  0.00000000000E+00  0.00000000000E+00  0.16343092957E+03  0.16343092959E+03  0.25500000920E-02 0. -1.
        2   -1    0    0  501    0  0.00000000000E+00  0.00000000000E+00 -0.97753465934E+03  0.97753465934E+03  0.25500000920E-02 0.  1.
    10030    2    1    2    0    0  0.00000000000E+00  0.00000000000E+00 -0.81410372977E+03  0.11409655889E+04  0.79939826889E+03 0.  0.
        4    1    3    3  502    0  0.19147531106E+02 -0.35851984046E+03 -0.15634289356E+03  0.39159649797E+03  0.12699999809E+01 0. -1.
       -4    1    3    3    0  502 -0.19147531106E+02  0.35851984046E+03 -0.65776083621E+03  0.74936909097E+03  0.12699999809E+01 0.  1.
</event>
<event>
 5   0  0.1030323E-02  0.8006151E+03  0.7818609E-02  0.9559127E-01
       -1   -1    0    0    0  501  0.00000000000E+00  0.00000000000E+00  0.48331985050E+03  0.48331985052E+03  0.50400001928E-02 0.  1.
        1   -1    0    0  501    0  0.00000000000E+00  0.00000000000E+00 -0.33155297270E+03  0.33155297274E+03  0.50400001928E-02 0. -1.
    10030    2    1    2    0    0  0.00000000000E+00  0.00000000000E+00  0.15176687780E+03  0.81487282326E+03  0.80061509659E+03 0.  0.
        3    1    3    3  502    0 -0.11150694479E+03 -0.31166350329E+03 -0.15324372801E+03  0.36476237251E+03  0.10100000352E+00 0. -1.
       -3    1    3    3    0  502  0.11150694479E+03  0.31166350329E+03  0.30501060581E+03  0.45011045075E+03  0.10100000352E+00 0.  1.
</event>
<event>
 5   0  0.1030323E-02  0.7955758E+03  0.7818609E-02  0.9566443E-01
       -1   -1    0    0    0  501  0.00000000000E+00  0.00000000000E+00  0.16341151888E+03  0.16341151896E+03  0.50400001928E-02 0. -1.
        1   -1    0    0  501    0  0.00000000000E+00  0.00000000000E+00 -0.96832343932E+03  0.96832343933E+03  0.50400001928E-02 0.  1.
    10030    2    1    2    0    0  0.00000000000E+00  0.00000000000E+00 -0.80491192044E+03  0.11317349583E+04  0.79557577650E+03 0.  0.
        3    1    3    3  502    0  0.24384226479E+03  0.17553264792E+03 -0.31601053406E+02  0.30210825437E+03  0.10100000352E+00 0. -1.
       -3    1    3    3    0  502 -0.24384226479E+03 -0.17553264792E+03 -0.77331086703E+03  0.82962670392E+03  0.10100000352E+00 0.  1.
</event>
<event>
 5   0  0.1818665E-02  0.7993960E+03  0.7818609E-02  0.9560892E-01
       -2   -1    0    0    0  501  0.00000000000E+00  0.00000000000E+00  0.51537815625E+03  0.51537815626E+03  0.25500000920E-02 0.  1.
        2   -1    0    0  501    0  0.00000000000E+00  0.00000000000E+00 -0.30998306749E+03  0.30998306750E+03  0.25500000920E-02 0. -1.
    10030    2    1    2    0    0  0.00000000000E+00  0.00000000000E+00  0.20539508877E+03  0.82536122375E+03  0.79939602650E+03 0.  0.
        3    1    3    3  502    0 -0.20867230346E+03  0.33961489423E+03  0.13325767411E+03  0.42028564635E+03  0.10100000352E+00 0.  1.
       -3    1    3    3    0  502  0.20867230346E+03 -0.33961489423E+03  0.72137414657E+02  0.40507557741E+03  0.10100000352E+00 0. -1.
</event>
<event>
 5   0  0.1731337E-02  0.8125500E+03  0.7818609E-02  0.9542027E-01
       -2   -1    0    0    0  501  0.00000000000E+00  0.00000000000E+00  0.52970573411E+03  0.52970573412E+03  0.25500000920E-02 0. -1.
        2   -1    0    0  501    0  0.00000000000E+00  0.00000000000E+00 -0.31160581032E+03  0.31160581033E+03  0.25500000920E-02 0.  1.
    10030    2    1    2    0    0  0.00000000000E+00  0.00000000000E+00  0.21809992380E+03  0.84131154444E+03  0.81255002188E+03 0.  0.
        4    1    3    3  502    0  0.32803959209E+03 -0.15742554407E+01  0.35721126791E+03  0.48498861335E+03  0.12699999809E+01 0. -1.
       -4    1    3    3    0  502 -0.32803959209E+03  0.15742554407E+01 -0.13911134412E+03  0.35632293109E+03  0.12699999809E+01 0.  1.
</event>
<event>
 5   0  0.1038912E-02  0.8039251E+03  0.7818609E-02  0.9554353E-01
       -1   -1    0    0    0  501  0.00000000000E+00  0.00000000000E+00  0.20113821561E+03  0.20113821567E+03  0.50400001928E-02 0. -1.
        1   -1    0    0  501    0  0.00000000000E+00  0.00000000000E+00 -0.80329789730E+03  0.80329789732E+03  0.50400001928E-02 0.  1.
    10030    2    1    2    0    0  0.00000000000E+00  0.00000000000E+00 -0.60215968170E+03  0.10044361130E+04  0.80392513508E+03 0.  0.
        2    1    3    3  502    0 -0.15389843315E+03  0.17845651909E+03 -0.70794133107E+03  0.74613161384E+03  0.25500000920E-02 0.  1.
       -2    1    3    3    0  502  0.15389843315E+03 -0.17845651909E+03  0.10578164937E+03  0.25830449915E+03  0.25500000920E-02 0. -1.
</event>
<event>
 5   0  0.1025900E-02  0.7932474E+03  0.7818609E-02  0.9569843E-01
       -1   -1    0    0    0  501  0.00000000000E+00  0.00000000000E+00  0.48764006981E+03  0.48764006984E+03  0.50400001928E-02 0. -1.
        1   -1    0    0  501    0  0.00000000000E+00  0.00000000000E+00 -0.32259524168E+03  0.32259524172E+03  0.50400001928E-02 0.  1.
    10030    2    1    2    0    0  0.00000000000E+00  0.00000000000E+00  0.16504482813E+03  0.81023531155E+03  0.79324741714E+03 0.  0.
        1    1    3    3  502    0  0.18330192492E+03  0.26849391976E+03  0.31459241878E+03  0.45239028571E+03  0.50400001928E-02 0.  1.
       -1    1    3    3    0  502 -0.18330192492E+03 -0.26849391976E+03 -0.14954759065E+03  0.35784502584E+03  0.50400001928E-02 0. -1.
</event>
<event>
 5   0  0.1038912E-02  0.8018523E+03  0.7818609E-02  0.9557340E-01
       -1   -1    0    0    0  501  0.00000000000E+00  0.00000000000E+00  0.24672792462E+03  0.24672792467E+03  0.50400001928E-02 0.  1.
        1   -1    0    0  501    0  0.00000000000E+00  0.00000000000E+00 -0.65149402108E+03  0.65149402110E+03  0.50400001928E-02 0. -1.
    10030    2    1    2    0    0  0.00000000000E+00  0.00000000000E+00 -0.40476609646E+03  0.89822194577E+03  0.80185227506E+03 0.  0.
        2    1    3    3  502    0 -0.22622578231E+02 -0.34360582859E+03 -0.43240297339E+03  0.55276493909E+03  0.25500000920E-02 0. -1.
       -2    1    3    3    0  502  0.22622578231E+02  0.34360582859E+03  0.27636876934E+02  0.34545700667E+03  0.25500000920E-02 0.  1.
</event>
<event>
 5   0  0.6872500E-03  0.7980946E+03  0.7818609E-02  0.9562779E-01
       -3   -1    0    0    0  501  0.00000000000E+00  0.00000000000E+00  0.33903673956E+03  0.33903675460E+03  0.10100000352E+00 0. -1.
        3   -1    0    0  501    0  0.00000000000E+00  0.00000000000E+00 -0.46967990496E+03  0.46967991582E+03  0.10100000352E+00 0.  1.
    10030    2    1    2    0    0  0.00000000000E+00  0.00000000000E+00 -0.13064316540E+03  0.80871667042E+03  0.79809461616E+03 0.  0.
        3    1    3    3  502    0  0.52505732807E+02  0.35762259033E+03  0.10600853358E+03  0.37668101689E+03  0.10100000352E+00 0. -1.
       -3    1    3    3    0  502 -0.52505732807E+02 -0.35762259033E+03 -0.23665169897E+03  0.43203565353E+03  0.10100000352E+00 0.  1.
</event>
<event>
 5   0  0.1731337E-02  0.8117651E+03  0.7818609E-02  0.9543142E-01
        2   -1    0    0  501    0  0.00000000000E+00  0.00000000000E+00  0.91733009780E+03  0.91733009780E+03  0.25500000920E-02 0.  1.
       -2   -1    0    0    0  501  0.00000000000E+00  0.00000000000E+00 -0.17958707274E+03  0.17958707276E+03  0.25500000920E-02 0. -1.
    10030    2    1    2    0    0  0.00000000000E+00  0.00000000000E+00  0.73774302505E+03  0.10969171706E+04  0.81176505718E+03 0.  0.
        4    1    3    3  502    0 -0.24240826752E+02  0.26781372561E+03  0.77968376827E+03  0.82475463061E+03  0.12699999809E+01 0.  1.
       -4    1    3    3    0  502  0.24240826752E+02 -0.26781372561E+03 -0.41940743218E+02  0.27216253995E+03  0.12699999809E+01 0. -1.
</event>
<event>
 5   0  0.1731337E-02  0.7995078E+03  0.7818609E-02  0.9560730E-01
        2   -1    0    0  501    0  0.00000000000E+00  0.00000000000E+00  0.75116221698E+03  0.75116221698E+03  0.25500000920E-02 0. -1.
       -2   -1    0    0    0  501  0.00000000000E+00  0.00000000000E+00 -0.21274121327E+03  0.21274121329E+03  0.25500000920E-02 0.  1.
    10030    2    1    2    0    0  0.00000000000E+00  0.00000000000E+00  0.53842100371E+03  0.96390343027E+03  0.79950775209E+03 0.  0.
        4    1    3    3  502    0  0.34365835082E+02 -0.11285460511E+03  0.72969523667E+03  0.73917110592E+03  0.12699999809E+01 0. -1.
       -4    1    3    3    0  502 -0.34365835082E+02  0.11285460511E+03 -0.19127423296E+03  0.22473232435E+03  0.12699999809E+01 0.  1.
</event>
<event>
 5   0  0.1673727E-02  0.7936435E+03  0.7818609E-02  0.9569264E-01
       -2   -1    0    0    0  501  0.00000000000E+00  0.00000000000E+00  0.16578500426E+03  0.16578500428E+03  0.25500000920E-02 0.  1.
        2   -1    0    0  501    0  0.00000000000E+00  0.00000000000E+00 -0.94982950614E+03  0.94982950614E+03  0.25500000920E-02 0. -1.
    10030    2    1    2    0    0  0.00000000000E+00  0.00000000000E+00 -0.78404450187E+03  0.11156145104E+04  0.79364346841E+03 0.  0.
        5    1    3    3  502    0 -0.99308769693E+02  0.60890965871E+02 -0.92521233787E+03  0.93252876717E+03  0.46999998093E+01 0. -1.
       -5    1    3    3    0  502  0.99308769693E+02 -0.60890965871E+02  0.14116783600E+03  0.18308574325E+03  0.46999998093E+01 0.  1.
</event>
<event>
 5   0  0.1030323E-02  0.7913727E+03  0.7818609E-02  0.9572589E-01
       -1   -1    0    0    0  501  0.00000000000E+00  0.00000000000E+00  0.93241355115E+03  0.93241355117E+03  0.50400001928E-02 0.  1.
        1   -1    0    0  501    0  0.00000000000E+00  0.00000000000E+00 -0.16791656962E+03  0.16791656970E+03  0.50400001928E-02 0. -1.
    10030    2    1    2    0    0  0.00000000000E+00  0.00000000000E+00  0.76449698153E+03  0.11003301209E+04  0.79137269356E+03 0.  0.
        3    1    3    3  502    0 -0.35062960127E+03  0.18325917455E+03  0.39132695215E+03  0.55647267321E+03  0.10100000352E+00 0. -1.
       -3    1    3    3    0  502  0.35062960127E+03 -0.18325917455E+03  0.37317002938E+03  0.54385744766E+03  0.10100000352E+00 0.  1.
</event>
<event>
 5   0  0.1038912E-02  0.7960595E+03  0.7818609E-02  0.9565738E-01
        1   -1    0    0  501    0  0.00000000000E+00  0.00000000000E+00  0.58815548379E+03  0.58815548382E+03  0.50400001928E-02 0.  1.
       -1   -1    0    0    0  501  0.00000000000E+00  0.00000000000E+00 -0.26936362779E+03  0.26936362783E+03  0.50400001928E-02 0. -1.
    10030    2    1    2    0    0  0.00000000000E+00  0.00000000000E+00  0.31879185601E+03  0.85751911165E+03  0.79605953256E+03 0.  0.
        2    1    3    3  502    0 -0.13473815804E+03 -0.17040441978E+03 -0.19987350909E+03  0.29519731902E+03  0.25500000920E-02 0. -1.
       -2    1    3    3    0  502  0.13473815804E+03  0.17040441978E+03  0.51866536510E+03  0.56232179263E+03  0.25500000920E-02 0.  1.
</event>
<event>
 5   0  0.1747544E-02  0.7920657E+03  0.7818609E-02  0.9571573E-01
        2   -1    0    0  501    0  0.00000000000E+00  0.00000000000E+00  0.16553621104E+04  0.16553621104E+04  0.25500000920E-02 0.  1.
       -2   -1    0    0    0  501  0.00000000000E+00  0.00000000000E+00 -0.94747854766E+02  0.94747854801E+02  0.25500000920E-02 0. -1.
    10030    2    1    2    0    0  0.00000000000E+00  0.00000000000E+00  0.15606142556E+04  0.17501099652E+04  0.79206567620E+03 0.  0.
        1    1    3    3  502    0  0.28235640400E+03  0.94959158096E+02  0.20370463650E+03  0.36088496719E+03  0.50400001928E-02 0. -1.
       -1    1    3    3    0  502 -0.28235640400E+03 -0.94959158096E+02  0.13569096191E+04  0.13892249980E+04  0.50400001928E-02 0.  1.
</event>
<event>
 5   0  0.1146083E-02  0.8131902E+03  0.7818609E-02  0.9541119E-01
       -1   -1    0    0    0  501  0.00000000000E+00  0.00000000000E+00  0.24190845979E+03  0.24190845984E+03  0.50400001928E-02 0. -1.
        1   -1    0    0  501    0  0.00000000000E+00  0.00000000000E+00 -0.68339726161E+03  0.68339726163E+03  0.50400001928E-02 0.  1.
    10030    2    1    2    0    0  0.00000000000E+00  0.00000000000E+00 -0.44148880183E+03  0.92530572147E+03  0.81319020902E+03 0.  0.
        4    1    3    3  502    0 -0.21275972439E+02 -0.64271497889E+02 -0.67693635655E+03  0.68031458618E+03  0.12699999809E+01 0.  1.
       -4    1    3    3    0  502  0.21275972439E+02  0.64271497889E+02  0.23544755473E+03  0.24499113529E+03  0.12699999809E+01 0. -1.
</event>
<event>
 5   0  0.1747544E-02  0.7994558E+03  0.7818609E-02  0.9560805E-01
       -2   -1    0    0    0  501  0.00000000000E+00  0.00000000000E+00  0.22064382126E+03  0.22064382127E+03  0.25500000920E-02 0. -1.
        2   -1    0    0  501    0  0.00000000000E+00  0.00000000000E+00 -0.72416437131E+03  0.72416437131E+03  0.25500000920E-02 0.  1.
    10030    2    1    2    0    0  0.00000000000E+00  0.00000000000E+00 -0.50352055005E+03  0.94480819258E+03  0.79945580018E+03 0.  0.
        1    1    3    3  502    0 -0.29520961663E+03 -0.10904207366E+03  0.39511973018E+02  0.31717516866E+03  0.50400001928E-02 0. -1.
       -1    1    3    3    0  502  0.29520961663E+03  0.10904207366E+03 -0.54303252307E+03  0.62763302392E+03  0.50400001928E-02 0.  1.
</event>
<event>
 5   0  0.6872500E-03  0.7913604E+03  0.7818609E-02  0.9572607E-01
       -3   -1    0    0    0  501  0.00000000000E+00  0.00000000000E+00  0.11992184705E+04  0.11992184748E+04  0.10100000352E+00 0.  1.
        3   -1    0    0  501    0  0.00000000000E+00  0.00000000000E+00 -0.13055402813E+03  0.13055406719E+03  0.10100000352E+00 0. -1.
    10030    2    1    2    0    0  0.00000000000E+00  0.00000000000E+00  0.10686644424E+04  0.13297725420E+04  0.79136042542E+03 0.  0.
        4    1    3    3  502    0  0.33429626821E+02  0.26054543090E+03  0.37104532226E+02  0.26529195375E+03  0.12699999809E+01 0. -1.
       -4    1    3    3    0  502 -0.33429626821E+02 -0.26054543090E+03  0.10315599102E+04  0.10644805882E+04  0.12699999809E+01 0.  1.
</event>
<event>
 5   0  0.1817089E-02  0.8017626E+03  0.7818609E-02  0.9557469E-01
        2   -1    0    0  501    0  0.00000000000E+00  0.00000000000E+00  0.11504450806E+04  0.11504450806E+04  0.25500000920E-02 0.  1.
       -2   -1    0    0    0  501  0.00000000000E+00  0.00000000000E+00 -0.13969012546E+03  0.13969012549E+03  0.25500000920E-02 0. -1.
    10030    2    1    2    0    0  0.00000000000E+00  0.00000000000E+00  0.10107549552E+04  0.12901352061E+04  0.80176260243E+03 0.  0.
        2    1    3    3  502    0 -0.73708198525E+02 -0.27764914529E+03  0.55444301861E+02  0.29256796992E+03  0.25500000920E-02 0. -1.
       -2    1    3    3    0  502  0.73708198525E+02  0.27764914529E+03  0.95531065329E+03  0.99756723619E+03  0.25500000920E-02 0.  1.
</event>
<event>
 5   0  0.1146083E-02  0.7949444E+03  0.7818609E-02  0.9567364E-01
        1   -1    0    0  501    0  0.00000000000E+00  0.00000000000E+00  0.18472533861E+04  0.18472533861E+04  0.50400001928E-02 0. -1.
       -1   -1    0    0    0  501  0.00000000000E+00  0.00000000000E+00 -0.85523801792E+02  0.85523801941E+02  0.50400001928E-02 0.  1.
    10030    2    1    2    0    0  0.00000000000E+00  0.00000000000E+00  0.17617295843E+04  0.19327771880E+04  0.79494435680E+03 0.  0.
        4    1    3    3  502    0  0.58508765973E+02  0.36504849659E+03  0.52603258945E+03  0.64295845793E+03  0.12699999809E+01 0. -1.
       -4    1    3    3    0  502 -0.58508765973E+02 -0.36504849659E+03  0.12356969948E+04  0.12898187301E+04  0.12699999809E+01 0.  1.
</event>
<event>
 5   0  0.1731337E-02  0.7944156E+03  0.7818609E-02  0.9568136E-01
       -2   -1    0    0    0  501  0.00000000000E+00  0.00000000000E+00  0.26929261667E+03  0.26929261668E+03  0.25500000920E-02 0.  1.
        2   -1    0    0  501    0  0.00000000000E+00  0.00000000000E+00 -0.58588319820E+03  0.58588319821E+03  0.25500000920E-02 0. -1.
    10030    2    1    2    0    0  0.00000000000E+00  0.00000000000E+00 -0.31659058154E+03  0.85517581489E+03  0.79441555753E+03 0.  0.
        4    1    3    3  502    0 -0.19941269640E+03 -0.32416149270E+03 -0.28068501304E+03  0.47289722592E+03  0.12699999809E+01 0. -1.
       -4    1    3    3    0  502  0.19941269640E+03  0.32416149270E+03 -0.35905568498E+02  0.38227858897E+03  0.12699999809E+01 0.  1.
</event>
<event>
 5   0  0.1030323E-02  0.7986565E+03  0.7818609E-02  0.9561964E-01
        1   -1    0    0  501    0  0.00000000000E+00  0.00000000000E+00  0.32320263912E+03  0.32320263916E+03  0.50400001928E-02 0. -1.
       -1   -1    0    0    0  501  0.00000000000E+00  0.00000000000E+00 -0.49338409187E+03  0.49338409189E+03  0.50400001928E-02 0.  1.
    10030    2    1    2    0    0  0.00000000000E+00  0.00000000000E+00 -0.17018145274E+03  0.81658673105E+03  0.79865647338E+03 0.  0.
        3    1    3    3  502    0  0.36491862341E+03 -0.51507238175E+02  0.72128898472E+02  0.37552787579E+03  0.10100000352E+00 0. -1.
       -3    1    3    3    0  502 -0.36491862341E+03  0.51507238175E+02 -0.24231035122E+03  0.44105885526E+03  0.10100000352E+00 0.  1.
</event>
<event>
 5   0  0.1673727E-02  0.7995596E+03  0.7818609E-02  0.9560655E-01
        2   -1    0    0  501    0  0.00000000000E+00  0.00000000000E+00  0.64886793099E+03  0.64886793100E+03  0.25500000920E-02 0. -1.
       -2   -1    0    0    0  501  0.00000000000E+00  0.00000000000E+00 -0.24631190429E+03  0.24631190431E+03  0.25500000920E-02 0.  1.
    10030    2    1    2    0    0  0.00000000000E+00  0.00000000000E+00  0.40255602670E+03  0.89517983530E+03  0.79955961810E+03 0.  0.
        5    1    3    3  502    0  0.12303870363E+03  0.47270394119E+02 -0.22125275150E+03  0.25758082769E+03  0.46999998093E+01 0.  1.
       -5    1    3    3    0  502 -0.12303870363E+03 -0.47270394119E+02  0.62380877820E+03  0.63759900761E+03  0.46999998093E+01 0. -1.
</event>
<event>
 5   0  0.1673727E-02  0.8080135E+03  0.7818609E-02  0.9548490E-01
       -2   -1    0    0    0  501  0.00000000000E+00  0.00000000000E+00  0.93139017864E+03  0.93139017865E+03  0.25500000920E-02 0.  1.
        2   -1    0    0  501    0  0.00000000000E+00  0.00000000000E+00 -0.17524497575E+03  0.17524497577E+03  0.25500000920E-02 0. -1.
    10030    2    1    2    0    0  0.00000000000E+00  0.00000000000E+00  0.75614520289E+03  0.11066351544E+04  0.80801348822E+03 0.  0.
        5    1    3    3  502    0  0.33508942515E+03  0.21527828043E+03  0.47065525436E+03  0.61657774800E+03  0.46999998093E+01 0. -1.
       -5    1    3    3    0  502 -0.33508942515E+03 -0.21527828043E+03  0.28548994853E+03  0.49005740642E+03  0.46999998093E+01 0.  1.
</event>
<event>
 5   0  0.1747544E-02  0.7998488E+03  0.7818609E-02  0.9560236E-01
        2   -1    0    0  501    0  0.00000000000E+00  0.00000000000E+00  0.24667617618E+04  0.24667617618E+04  0.25500000920E-02 0. -1.
       -2   -1    0    0    0  501  0.00000000000E+00  0.00000000000E+00 -0.64837851485E+02  0.64837851535E+02  0.25500000920E-02 0.  1.
    10030    2    1    2    0    0  0.00000000000E+00  0.00000000000E+00  0.24019239103E+04  0.25315996133E+04  0.79984881778E+03 0.  0.
        1    1    3    3  502    0  0.62951071033E+02  0.25546344024E+03  0.24766771746E+03  0.36133600006E+03  0.50400001928E-02 0.  1.
       -1    1    3    3    0  502 -0.62951071033E+02 -0.25546344024E+03  0.21542561928E+04  0.21702636132E+04  0.50400001928E-02 0. -1.
</event>
<event>
 5   0  0.1038912E-02  0.8019014E+03  0.7818609E-02  0.9557269E-01
       -1   -1    0    0    0  501  0.00000000000E+00  0.00000000000E+00  0.33024674712E+03  0.33024674716E+03  0.50400001928E-02 0. -1.
        1   -1    0    0  501    0  0.00000000000E+00  0.00000000000E+00 -0.48679195116E+03  0.48679195119E+03  0.50400001928E-02 0.  1.
    10030    2    1    2    0    0  0.00000000000E+00  0.00000000000E+00 -0.15654520404E+03  0.81703869835E+03  0.80190138651E+03 0.  0.
        2    1    3    3  502    0 -0.10454405654E+03  0.11887430384E+03  0.29705717803E+03  0.33660589254E+03  0.25500000920E-02 0. -1.
       -2    1    3    3    0  502  0.10454405654E+03 -0.11887430384E+03 -0.45360238207E+03  0.48043280580E+03  0.25500000920E-02 0.  1.
</event>
<event>
 5   0  0.1030323E-02  0.8052039E+03  0.7818609E-02  0.9552515E-01
       -1   -1    0    0    0  501  0.00000000000E+00  0.00000000000E+00  0.28657149520E+03  0.28657149525E+03  0.50400001928E-02 0. -1.
        1   -1    0    0  501    0  0.00000000000E+00  0.00000000000E+00 -0.56561222108E+03  0.56561222110E+03  0.50400001928E-02 0.  1.
    10030    2    1    2    0    0  0.00000000000E+00  0.00000000000E+00 -0.27904072588E+03  0.85218371635E+03  0.80520392431E+03 0.  0.
        3    1    3    3  502    0  0.36161351503E+03  0.15979496301E+03 -0.22004899575E+03  0.45246031339E+03  0.10100000352E+00 0. -1.
       -3    1    3    3    0  502 -0.36161351503E+03 -0.15979496301E+03 -0.58991730122E+02  0.39972340297E+03  0.10100000352E+00 0.  1.
</event>
<event>
 5   0  0.1030323E-02  0.7982256E+03  0.7818609E-02  0.9562589E-01
        1   -1    0    0  501    0  0.00000000000E+00  0.00000000000E+00  0.27255273954E+03  0.27255273959E+03  0.50400001928E-02 0.  1.
       -1   -1    0    0    0  501  0.00000000000E+00  0.00000000000E+00 -0.58444104347E+03  0.58444104349E+03  0.50400001928E-02 0. -1.
    10030    2    1    2    0    0  0.00000000000E+00  0.00000000000E+00 -0.31188830393E+03  0.85699378308E+03  0.79822555090E+03 0.  0.
        3    1    3    3  502    0 -0.36446739814E+03  0.12892903623E+03 -0.49488449188E+02  0.38975415006E+03  0.10100000352E+00 0.  1.
       -3    1    3    3    0  502  0.36446739814E+03 -0.12892903623E+03 -0.26239985474E+03  0.46723963301E+03  0.10100000352E+00 0. -1.
</event>
<event>
 5   0  0.1731337E-02  0.8070235E+03  0.7818609E-02  0.9549906E-01
        2   -1    0    0  501    0  0.00000000000E+00  0.00000000000E+00  0.24773287346E+03  0.24773287347E+03  0.25500000920E-02 0.  1.
       -2   -1    0    0    0  501  0.00000000000E+00  0.00000000000E+00 -0.65724718110E+03  0.65724718110E+03  0.25500000920E-02 0. -1.
    10030    2    1    2    0    0  0.00000000000E+00  0.00000000000E+00 -0.40951430764E+03  0.90498005457E+03  0.80702350090E+03 0.  0.
        4    1    3    3  502    0 -0.11578900130E+02 -0.23772247100E+03  0.16063740033E+03  0.28714461762E+03  0.12699999809E+01 0.  1.
       -4    1    3    3    0  502  0.11578900130E+02  0.23772247100E+03 -0.57015170797E+03  0.61783543694E+03  0.12699999809E+01 0. -1.
</event>
<event>
 5   0  0.1049780E-02  0.7997846E+03  0.7818609E-02  0.9560329E-01
        1   -1    0    0  501    0  0.00000000000E+00  0.00000000000E+00  0.46981907779E+03  0.46981907782E+03  0.50400001928E-02 0.  1.
       -1   -1    0    0    0  501  0.00000000000E+00  0.00000000000E+00 -0.34037328990E+03  0.34037328994E+03  0.50400001928E-02 0. -1.
    10030    2    1    2    0    0  0.00000000000E+00  0.00000000000E+00  0.12944578789E+03  0.81019236776E+03  0.79978463399E+03 0.  0.
        5    1    3    3  502    0  0.14842193582E+03  0.30999212498E+03 -0.14230782139E+03  0.37201854068E+03  0.46999998093E+01 0.  1.
       -5    1    3    3    0  502 -0.14842193582E+03 -0.30999212498E+03  0.27175360929E+03  0.43817382708E+03  0.46999998093E+01 0. -1.
</event>
<event>
 5   0  0.1146083E-02  0.7946408E+03  0.7818609E-02  0.9567807E-01
        1   -1    0    0  501    0  0.00000000000E+00  0.00000000000E+00  0.29377341000E+03  0.29377341004E+03  0.50400001928E-02 0.  1.
       -1   -1    0    0    0  501  0.00000000000E+00  0.00000000000E+00 -0.53736477560E+03  0.53736477562E+03  0.50400001928E-02 0. -1.
    10030    2    1    2    0    0  0.00000000000E+00  0.00000000000E+00 -0.24359136560E+03  0.83113818566E+03  0.79464075548E+03 0.  0.
        4    1    3    3  502    0 -0.10670094444E+03 -0.25073498675E+03 -0.42422803807E+03  0.50420647190E+03  0.12699999809E+01 0. -1.
       -4    1    3    3    0  502  0.10670094444E+03  0.25073498675E+03  0.18063667247E+03  0.32693171376E+03  0.12699999809E+01 0.  1.
</event>
<event>
 5   0  0.1038912E-02  0.7999056E+03  0.7818609E-02  0.9560154E-01
       -1   -1    0    0    0  501  0.00000000000E+00  0.00000000000E+00  0.27945963492E+03  0.27945963497E+03  0.50400001928E-02 0. -1.
        1   -1    0    0  501    0  0.00000000000E+00  0.00000000000E+00 -0.57239838282E+03  0.57239838284E+03  0.50400001928E-02 0.  1.
    10030    2    1    2    0    0  0.00000000000E+00  0.00000000000E+00 -0.29293874790E+03  0.85185801781E+03  0.79990560223E+03 0.  0.
        2    1    3    3  502    0  0.43336070388E+02 -0.20474040119E+02  0.27639021385E+03  0.28051515402E+03  0.25500000920E-02 0. -1.
       -2    1    3    3    0  502 -0.43336070388E+02  0.20474040119E+02 -0.56932896175E+03  0.57134286379E+03  0.25500000920E-02 0.  1.
</event>
<event>
 5   0  0.1818665E-02  0.7861431E+03  0.7818609E-02  0.9580294E-01
        2   -1    0    0  501    0  0.00000000000E+00  0.00000000000E+00  0.12333468998E+04  0.12333468998E+04  0.25500000920E-02 0. -1.
       -2   -1    0    0    0  501  0.00000000000E+00  0.00000000000E+00 -0.12527313388E+03  0.12527313391E+03  0.25500000920E-02 0.  1.
    10030    2    1    2    0    0  0.00000000000E+00  0.00000000000E+00  0.11080737659E+04  0.13586200337E+04  0.78614306921E+03 0.  0.
        3    1    3    3  502    0 -0.25030570992E+03  0.30081692247E+03  0.49026965061E+03  0.62730224754E+03  0.10100000352E+00 0. -1.
       -3    1    3    3    0  502  0.25030570992E+03 -0.30081692247E+03  0.61780411529E+03  0.73131778615E+03  0.10100000352E+00 0.  1.
</event>
<event>
 5   0  0.1731337E-02  0.7830593E+03  0.7818609E-02  0.9584867E-01
        2   -1    0    0  501    0  0.00000000000E+00  0.00000000000E+00  0.67703703879E+03  0.67703703879E+03  0.25500000920E-02 0.  1.
       -2   -1    0    0    0  501  0.00000000000E+00  0.00000000000E+00 -0.22642109969E+03  0.22642109971E+03  0.25500000920E-02 0. -1.
    10030    2    1    2    0    0  0.00000000000E+00  0.00000000000E+00  0.45061593909E+03  0.90345813850E+03  0.78305931031E+03 0.  0.
        4    1    3    3  502    0  0.21815887548E+03  0.18456039920E+03  0.53411357147E+03  0.60575139788E+03  0.12699999809E+01 0.  1.
       -4    1    3    3    0  502 -0.21815887548E+03 -0.18456039920E+03 -0.83497632374E+02  0.29770674063E+03  0.12699999809E+01 0. -1.
</event>
<event>
 5   0  0.1747544E-02  0.8035769E+03  0.7818609E-02  0.9554854E-01
       -2   -1    0    0    0  501  0.00000000000E+00  0.00000000000E+00  0.12085352572E+03  0.12085352575E+03  0.25500000920E-02 0.  1.
        2   -1    0    0  501    0  0.00000000000E+00  0.00000000000E+00 -0.13357819748E+04  0.13357819748E+04  0.25500000920E-02 0. -1.
    10030    2    1    2    0    0  0.00000000000E+00  0.00000000000E+00 -0.12149284491E+04  0.14566355005E+04  0.80357690675E+03 0.  0.
        1    1    3    3  502    0  0.23639117268E+03 -0.27599616412E+03 -0.91816626571E+03  0.98746339712E+03  0.50400001928E-02 0.  1.
       -1    1    3    3    0  502 -0.23639117268E+03  0.27599616412E+03 -0.29676218335E+03  0.46917210341E+03  0.50400001928E-02 0. -1.
</event>
<event>
 5   0  0.1818665E-02  0.8022928E+03  0.7818609E-02  0.9556704E-01
        2   -1    0    0  501    0  0.00000000000E+00  0.00000000000E+00  0.55092166503E+03  0.55092166503E+03  0.25500000920E-02 0. -1.
       -2   -1    0    0    0  501  0.00000000000E+00  0.00000000000E+00 -0.29208948793E+03  0.29208948794E+03  0.25500000920E-02 0.  1.
    10030    2    1    2    0    0  0.00000000000E+00  0.00000000000E+00  0.25883217709E+03  0.84301115298E+03  0.80229278206E+03 0.  0.
        3    1    3    3  502    0 -0.34898428860E+03  0.49838296775E+02  0.33055912286E+03  0.48326310994E+03  0.10100000352E+00 0. -1.
       -3    1    3    3    0  502  0.34898428860E+03 -0.49838296775E+02 -0.71726945772E+02  0.35974804304E+03  0.10100000352E+00 0.  1.
</event>
<event>
 5   0  0.1049780E-02  0.7994065E+03  0.7818609E-02  0.9560877E-01
        1   -1    0    0  501    0  0.00000000000E+00  0.00000000000E+00  0.72963953983E+03  0.72963953985E+03  0.50400001928E-02 0.  1.
       -1   -1    0    0    0  501  0.00000000000E+00  0.00000000000E+00 -0.21896111700E+03  0.21896111706E+03  0.50400001928E-02 0. -1.
    10030    2    1    2    0    0  0.00000000000E+00  0.00000000000E+00  0.51067842283E+03  0.94860065691E+03  0.79940650156E+03 0.  0.
        5    1    3    3  502    0 -0.20416349488E+03 -0.11015587619E+02  0.66285074483E+03  0.69368384422E+03  0.46999998093E+01 0.  1.
       -5    1    3    3    0  502  0.20416349488E+03  0.11015587619E+02 -0.15217232200E+03  0.25491681269E+03  0.46999998093E+01 0. -1.
</event>
<event>
 5   0  0.1146083E-02  0.7941231E+03  0.7818609E-02  0.9568563E-01
        1   -1    0    0  501    0  0.00000000000E+00  0.00000000000E+00  0.37305453452E+03  0.37305453455E+03  0.50400001928E-02 0.  1.
       -1   -1    0    0    0  501  0.00000000000E+00  0.00000000000E+00 -0.42261347182E+03  0.42261347185E+03  0.50400001928E-02 0. -1.
    10030    2    1    2    0    0  0.00000000000E+00  0.00000000000E+00 -0.49558937308E+02  0.79566800641E+03  0.79412309383E+03 0.  0.
        4    1    3    3  502    0  0.25316970828E+03  0.14460517330E+03 -0.29484177773E+03  0.41465509056E+03  0.12699999809E+01 0. -1.
       -4    1    3    3    0  502 -0.25316970828E+03 -0.14460517330E+03  0.24528284042E+03  0.38101291584E+03  0.12699999809E+01 0.  1.
</event>
<event>
 5   0  0.1049780E-02  0.7934691E+03  0.7818609E-02  0.9569519E-01
       -1   -1    0    0    0  501  0.00000000000E+00  0.00000000000E+00  0.93490203514E+02  0.93490203650E+02  0.50400001928E-02 0.  1.
        1   -1    0    0  501    0  0.00000000000E+00  0.00000000000E+00 -0.16835807834E+04  0.16835807834E+04  0.50400001928E-02 0. -1.
    10030    2    1    2    0    0  0.00000000000E+00  0.00000000000E+00 -0.15900905799E+04  0.17770709871E+04  0.79346911774E+03 0.  0.
        5    1    3    3  502    0 -0.72082249042E+01  0.24840437669E+03 -0.14875903637E+04  0.15082121446E+04  0.46999998093E+01 0. -1.
       -5    1    3    3    0  502  0.72082249042E+01 -0.24840437669E+03 -0.10250021617E+03  0.26885884247E+03  0.46999998093E+01 0.  1.
</event>
<event>
 5   0  0.1025900E-02  0.8020248E+03  0.7818609E-02  0.9557091E-01
       -1   -1    0    0    0  501  0.00000000000E+00  0.00000000000E+00  0.10694920276E+03  0.10694920287E+03  0.50400001928E-02 0.  1.
        1   -1    0    0  501    0  0.00000000000E+00  0.00000000000E+00 -0.15036200007E+04  0.15036200007E+04  0.50400001928E-02 0. -1.
    10030    2    1    2    0    0  0.00000000000E+00  0.00000000000E+00 -0.13966707979E+04  0.16105692036E+04  0.80202483857E+03 0.  0.
        1    1    3    3  502    0 -0.29189272165E+03  0.26356228875E+03 -0.54092423455E+03  0.66877908800E+03  0.50400001928E-02 0. -1.
       -1    1    3    3    0  502  0.29189272165E+03 -0.26356228875E+03 -0.85574656337E+03  0.94179011555E+03  0.50400001928E-02 0.  1.
</event>
<event>
 5   0  0.1731337E-02  0.7792689E+03  0.7818609E-02  0.9590519E-01
       -2   -1    0    0    0  501  0.00000000000E+00  0.00000000000E+00  0.17841957309E+03  0.17841957311E+03  0.25500000920E-02 0. -1.
        2   -1    0    0  501    0  0.00000000000E+00  0.00000000000E+00 -0.85088771760E+03  0.85088771760E+03  0.25500000920E-02 0.  1.
    10030    2    1    2    0    0  0.00000000000E+00  0.00000000000E+00 -0.67246814450E+03  0.10293072907E+04  0.77926894802E+03 0.  0.
        4    1    3    3  502    0  0.37538249553E+03  0.14804597743E+02 -0.19971656075E+03  0.42546387814E+03  0.12699999809E+01 0.  1.
       -4    1    3    3    0  502 -0.37538249553E+03 -0.14804597743E+02 -0.47275158376E+03  0.60384341257E+03  0.12699999809E+01 0. -1.
</event>
<event>
 5   0  0.1747544E-02  0.7904973E+03  0.7818609E-02  0.9573875E-01
       -2   -1    0    0    0  501  0.00000000000E+00  0.00000000000E+00  0.39446810609E+03  0.39446810610E+03  0.25500000920E-02 0. -1.
        2   -1    0    0  501    0  0.00000000000E+00  0.00000000000E+00 -0.39603076215E+03  0.39603076216E+03  0.25500000920E-02 0.  1.
    10030    2    1    2    0    0  0.00000000000E+00  0.00000000000E+00 -0.15626560628E+01  0.79049886826E+03  0.79049732373E+03 0.  0.
        1    1    3    3  502    0  0.18216132357E+03  0.17739726413E+03  0.30182291085E+03  0.39465124688E+03  0.50400001928E-02 0. -1.
       -1    1    3    3    0  502 -0.18216132357E+03 -0.17739726413E+03 -0.30338556691E+03  0.39584762139E+03  0.50400001928E-02 0.  1.
</event>
<event>
 5   0  0.1817089E-02  0.7991222E+03  0.7818609E-02  0.9561289E-01
        2   -1    0    0  501    0  0.00000000000E+00  0.00000000000E+00  0.70737072397E+03  0.70737072398E+03  0.25500000920E-02 0. -1.
       -2   -1    0    0    0  501  0.00000000000E+00  0.00000000000E+00 -0.22569365112E+03  0.22569365113E+03  0.25500000920E-02 0.  1.
    10030    2    1    2    0    0  0.00000000000E+00  0.00000000000E+00  0.48167707286E+03  0.93306437511E+03  0.79912222193E+03 0.  0.
        2    1    3    3  502    0  0.18010383450E+03 -0.91662693287E+02  0.64329994423E+03  0.67429537948E+03  0.25500000920E-02 0. -1.
       -2    1    3    3    0  502 -0.18010383450E+03  0.91662693287E+02 -0.16162287137E+03  0.25876899563E+03  0.25500000920E-02 0.  1.
</event>
<event>
 5   0  0.1030323E-02  0.7991900E+03  0.7818609E-02  0.9561190E-01
        1   -1    0    0  501    0  0.00000000000E+00  0.00000000000E+00  0.36345347504E+03  0.36345347507E+03  0.50400001928E-02 0.  1.
       -1   -1    0    0    0  501  0.00000000000E+00  0.00000000000E+00 -0.43933044197E+03  0.43933044199E+03  0.50400001928E-02 0. -1.
    10030    2    1    2    0    0  0.00000000000E+00  0.00000000000E+00 -0.75876966926E+02  0.80278391707E+03  0.79919002959E+03 0.  0.
        3    1    3    3  502    0  0.22858669548E+03  0.42216896024E+02 -0.36442628434E+03  0.43225070339E+03  0.10100000352E+00 0. -1.
       -3    1    3    3    0  502 -0.22858669548E+03 -0.42216896024E+02  0.28854931741E+03  0.37053321368E+03  0.10100000352E+00 0.  1.
</event>
<event>
 5   0  0.1818665E-02  0.7971413E+03  0.7818609E-02  0.9564164E-01
        2   -1    0    0  501    0  0.00000000000E+00  0.00000000000E+00  0.10061253297E+04  0.10061253297E+04  0.25500000920E-02 0.  1.
       -2   -1    0    0    0  501  0.00000000000E+00  0.00000000000E+00 -0.15789141783E+03  0.15789141785E+03  0.25500000920E-02 0. -1.
    10030    2    1    2    0    0  0.00000000000E+00  0.00000000000E+00  0.84823391185E+03  0.11640167475E+04  0.79714127940E+03 0.  0.
        3    1    3    3  502    0 -0.19519885670E+03 -0.38066144740E+02  0.92849566514E+03  0.94955559890E+03  0.10100000352E+00 0.  1.
       -3    1    3    3    0  502  0.19519885670E+03  0.38066144740E+02 -0.80261753284E+02  0.21446114863E+03  0.10100000352E+00 0. -1.
</event>
<event>
 5   0  0.1673727E-02  0.8004253E+03  0.7818609E-02  0.9559402E-01
       -2   -1    0    0    0  501  0.00000000000E+00  0.00000000000E+00  0.27510061893E+03  0.27510061894E+03  0.25500000920E-02 0. -1.
        2   -1    0    0  501    0  0.00000000000E+00  0.00000000000E+00 -0.58222398200E+03  0.58222398200E+03  0.25500000920E-02 0.  1.
    10030    2    1    2    0    0  0.00000000000E+00  0.00000000000E+00 -0.30712336307E+03  0.85732460094E+03  0.80042533146E+03 0.  0.
        5    1    3    3  502    0 -0.21939076870E+03 -0.80495151604E+02  0.19439518567E+03  0.30401210014E+03  0.46999998093E+01 0. -1.
       -5    1    3    3    0  502  0.21939076870E+03  0.80495151604E+02 -0.50151854873E+03  0.55331250080E+03  0.46999998093E+01 0.  1.
</event>
<event>
 5   0  0.1747544E-02  0.7996811E+03  0.7818609E-02  0.9560479E-01
        2   -1    0    0  501    0  0.00000000000E+00  0.00000000000E+00  0.12619499193E+04  0.12619499193E+04  0.25500000920E-02 0. -1.
       -2   -1    0    0    0  501  0.00000000000E+00  0.00000000000E+00 -0.12668684867E+03  0.12668684870E+03  0.25500000920E-02 0.  1.
    10030    2    1    2    0    0  0.00000000000E+00  0.00000000000E+00  0.11352630706E+04  0.13886367680E+04  0.79968108263E+03 0.  0.
        1    1    3    3  502    0 -0.16221280533E+03 -0.23209809168E+03  0.77431218103E+02  0.29356108723E+03  0.50400001928E-02 0.  1.
       -1    1    3    3    0  502  0.16221280533E+03  0.23209809168E+03  0.10578318525E+04  0.10950756808E+04  0.50400001928E-02 0. -1.
</event>
<event>
 5   0  0.1030323E-02  0.7959716E+03  0.7818609E-02  0.9565866E-01
        1   -1    0    0  501    0  0.00000000000E+00  0.00000000000E+00  0.27441071776E+03  0.27441071780E+03  0.50400001928E-02 0.  1.
       -1   -1    0    0    0  501  0.00000000000E+00  0.00000000000E+00 -0.57721036553E+03  0.57721036555E+03  0.50400001928E-02 0. -1.
    10030    2    1    2    0    0  0.00000000000E+00  0.00000000000E+00 -0.30279964777E+03  0.85162108335E+03  0.79597163449E+03 0.  0.
        3    1    3    3  502    0 -0.15454708926E+03  0.21016989838E+03 -0.47297348575E+03  0.54014823651E+03  0.10100000352E+00 0. -1.
       -3    1    3    3    0  502  0.15454708926E+03 -0.21016989838E+03  0.17017383798E+03  0.31147284684E+03  0.10100000352E+00 0.  1.
</event>
<event>
 5   0  0.1146083E-02  0.7994830E+03  0.7818609E-02  0.9560766E-01
        1   -1    0    0  501    0  0.00000000000E+00  0.00000000000E+00  0.12224457383E+04  0.12224457383E+04  0.50400001928E-02 0.  1.
       -1   -1    0    0    0  501  0.00000000000E+00  0.00000000000E+00 -0.13071605072E+03  0.13071605081E+03  0.50400001928E-02 0. -1.
    10030    2    1    2    0    0  0.00000000000E+00  0.00000000000E+00  0.10917296876E+04  0.13531617891E+04  0.79948303095E+03 0.  0.
        4    1    3    3  502    0  0.12751201898E+03 -0.44223678561E+02  0.11827135069E+04  0.11903898105E+04  0.12699999809E+01 0.  1.
       -4    1    3    3    0  502 -0.12751201898E+03  0.44223678561E+02 -0.90983819327E+02  0.16277197857E+03  0.12699999809E+01 0. -1.
</event>
<event>
 5   0  0.1030323E-02  0.7459937E+03  0.7818609E-02  0.9641657E-01
       -1   -1    0    0    0  501  0.00000000000E+00  0.00000000000E+00  0.16559975647E+03  0.16559975654E+03  0.50400001928E-02 0. -1.
        1   -1    0    0  501    0  0.00000000000E+00  0.00000000000E+00 -0.84013805609E+03  0.84013805611E+03  0.50400001928E-02 0.  1.
    10030    2    1    2    0    0  0.00000000000E+00  0.00000000000E+00 -0.67453829963E+03  0.10057378127E+04  0.74599371990E+03 0.  0.
        3    1    3    3  502    0  0.30263569300E+02  0.36536100402E+03 -0.24462516693E+03  0.44073351289E+03  0.10100000352E+00 0.  1.
       -3    1    3    3    0  502 -0.30263569300E+02 -0.36536100402E+03 -0.42991313270E+03  0.56500429977E+03  0.10100000352E+00 0. -1.
</event>
<event>
 5   0  0.1747544E-02  0.8146049E+03  0.7818609E-02  0.9539114E-01
        2   -1    0    0  501    0  0.00000000000E+00  0.00000000000E+00  0.99894774956E+03  0.99894774957E+03  0.25500000920E-02 0.  1.
       -2   -1    0    0    0  501  0.00000000000E+00  0.00000000000E+00 -0.16607004800E+03  0.16607004802E+03  0.25500000920E-02 0. -1.
    10030    2    1    2    0    0  0.00000000000E+00  0.00000000000E+00  0.83287770156E+03  0.11650177976E+04  0.81460493673E+03 0.  0.
        1    1    3    3  502    0 -0.36999296901E+03  0.14909358287E+03  0.53412663860E+03  0.66664455271E+03  0.50400001928E-02 0.  1.
       -1    1    3    3    0  502  0.36999296901E+03 -0.14909358287E+03  0.29875106296E+03  0.49837324488E+03  0.50400001928E-02 0. -1.
</event>
<event>
 5   0  0.1673727E-02  0.8039518E+03  0.7818609E-02  0.9554315E-01
       -2   -1    0    0    0  501  0.00000000000E+00  0.00000000000E+00  0.33601407187E+03  0.33601407188E+03  0.25500000920E-02 0.  1.
        2   -1    0    0  501    0  0.00000000000E+00  0.00000000000E+00 -0.48088649196E+03  0.48088649197E+03  0.25500000920E-02 0. -1.
    10030    2    1    2    0    0  0.00000000000E+00  0.00000000000E+00 -0.14487242009E+03  0.81690056385E+03  0.80395181019E+03 0.  0.
        5    1    3    3  502    0  0.34050975506E+03 -0.19538199380E+03 -0.16008986877E+03  0.42399513307E+03  0.46999998093E+01 0. -1.
       -5    1    3    3    0  502 -0.34050975506E+03  0.19538199380E+03  0.15217448680E+02  0.39290543077E+03  0.46999998093E+01 0.  1.
</event>
<event>
 5   0  0.1817089E-02  0.7907597E+03  0.7818609E-02  0.9573489E-01
       -2   -1    0    0    0  501  0.00000000000E+00  0.00000000000E+00  0.22467130784E+03  0.22467130786E+03  0.25500000920E-02 0. -1.
        2   -1    0    0  501    0  0.00000000000E+00  0.00000000000E+00 -0.69579527220E+03  0.69579527221E+03  0.25500000920E-02 0.  1.
    10030    2    1    2    0    0  0.00000000000E+00  0.00000000000E+00 -0.47112396436E+03  0.92046658006E+03  0.79075972028E+03 0.  0.
        2    1    3    3  502    0 -0.21797076103E+03 -0.75531290857E+02  0.13821433817E+03  0.26892272467E+03  0.25500000920E-02 0. -1.
       -2    1    3    3    0  502  0.21797076103E+03  0.75531290857E+02 -0.60933830253E+03  0.65154385539E+03  0.25500000920E-02 0.  1.
</event>
<event>
 5   0  0.1818665E-02  0.8069450E+03  0.7818609E-02  0.9550019E-01
        2   -1    0    0  501    0  0.00000000000E+00  0.00000000000E+00  0.18263878491E+04  0.18263878491E+04  0.25500000920E-02 0.  1.
       -2   -1    0    0    0  501  0.00000000000E+00  0.00000000000E+00 -0.89132258578E+02  0.89132258615E+02  0.25500000920E-02 0. -1.
    10030    2    1    2    0    0  0.00000000000E+00  0.00000000000E+00  0.17372555905E+04  0.19155201077E+04  0.80694503919E+03 0.  0.
        3    1    3    3  502    0 -0.26556837372E+03  0.14868449512E+03  0.23987999273E+03  0.38752556215E+03  0.10100000352E+00 0. -1.
       -3    1    3    3    0  502  0.26556837372E+03 -0.14868449512E+03  0.14973755978E+04  0.15279945456E+04  0.10100000352E+00 0.  1.
</event>
<event>
 5   0  0.1817089E-02  0.7863944E+03  0.7818609E-02  0.9579922E-01
        2   -1    0    0  501    0  0.00000000000E+00  0.00000000000E+00  0.53858779106E+03  0.53858779106E+03  0.25500000920E-02 0.  1.
       -2   -1    0    0    0  501  0.00000000000E+00  0.00000000000E+00 -0.28705445432E+03  0.28705445433E+03  0.25500000920E-02 0. -1.
    10030    2    1    2    0    0  0.00000000000E+00  0.00000000000E+00  0.25153333674E+03  0.82564224539E+03  0.78639436537E+03 0.  0.
        2    1    3    3  502    0  0.35292410924E+03 -0.78078234843E+02 -0.36723059598E+02  0.36331834629E+03  0.25500000920E-02 0. -1.
       -2    1    3    3    0  502 -0.35292410924E+03  0.78078234843E+02  0.28825639634E+03  0.46232389910E+03  0.25500000920E-02 0.  1.
</event>
<event>
 5   0  0.1818665E-02  0.7995130E+03  0.7818609E-02  0.9560722E-01
        2   -1    0    0  501    0  0.00000000000E+00  0.00000000000E+00  0.12284560407E+03  0.12284560410E+03  0.25500000920E-02 0. -1.
       -2   -1    0    0    0  501  0.00000000000E+00  0.00000000000E+00 -0.13008627246E+04  0.13008627246E+04  0.25500000920E-02 0.  1.
    10030    2    1    2    0    0  0.00000000000E+00  0.00000000000E+00 -0.11780171206E+04  0.14237083287E+04  0.79951301990E+03 0.  0.
        3    1    3    3  502    0 -0.61938184171E+02 -0.19350826605E+03  0.24043932752E+02  0.20459694179E+03  0.10100000352E+00 0. -1.
       -3    1    3    3    0  502  0.61938184171E+02  0.19350826605E+03 -0.12020610533E+04  0.12191113870E+04  0.10100000352E+00 0.  1.
</event>
<event>
 5   0  0.1818665E-02  0.7966508E+03  0.7818609E-02  0.9564878E-01
        2   -1    0    0  501    0  0.00000000000E+00  0.00000000000E+00  0.10293519323E+04  0.10293519323E+04  0.25500000920E-02 0. -1.
       -2   -1    0    0    0  501  0.00000000000E+00  0.00000000000E+00 -0.15413883987E+03  0.15413883989E+03  0.25500000920E-02 0.  1.
    10030    2    1    2    0    0  0.00000000000E+00  0.00000000000E+00  0.87521309239E+03  0.11834907722E+04  0.79665077084E+03 0.  0.
        3    1    3    3  502    0  0.12402875391E+03  0.14353341209E+03 -0.82725374757E+02  0.20695040472E+03  0.10100000352E+00 0.  1.
       -3    1    3    3    0  502 -0.12402875391E+03 -0.14353341209E+03  0.95793846715E+03  0.97654036743E+03  0.10100000352E+00 0. -1.
</event>
<event>
 5   0  0.1731337E-02  0.7954136E+03  0.7818609E-02  0.9566680E-01
        2   -1    0    0  501    0  0.00000000000E+00  0.00000000000E+00  0.71414015356E+03  0.71414015357E+03  0.25500000920E-02 0. -1.
       -2   -1    0    0    0  501  0.00000000000E+00  0.00000000000E+00 -0.22148410846E+03  0.22148410847E+03  0.25500000920E-02 0.  1.
    10030    2    1    2    0    0  0.00000000000E+00  0.00000000000E+00  0.49265604510E+03  0.93562426204E+03  0.79541359113E+03 0.  0.
        4    1    3    3  502    0 -0.39488784254E+03 -0.80094888307E+01  0.30110403434E+03  0.49665462093E+03  0.12699999809E+01 0.  1.
       -4    1    3    3    0  502  0.39488784254E+03  0.80094888307E+01  0.19155201076E+03  0.43896964112E+03  0.12699999809E+01 0. -1.
</event>
<event>
 5   0  0.1030323E-02  0.7957039E+03  0.7818609E-02  0.9566256E-01
        1   -1    0    0  501    0  0.00000000000E+00  0.00000000000E+00  0.19939500713E+03  0.19939500719E+03  0.50400001928E-02 0. -1.
       -1   -1    0    0    0  501  0.00000000000E+00  0.00000000000E+00 -0.79383209398E+03  0.79383209399E+03  0.50400001928E-02 0.  1.
    10030    2    1    2    0    0  0.00000000000E+00  0.00000000000E+00 -0.59443708685E+03  0.99322710119E+03  0.79570385466E+03 0.  0.
        3    1    3    3  502    0 -0.18155137272E+03  0.28837744965E+03 -0.40908034676E+02  0.34321411962E+03  0.10100000352E+00 0. -1.
       -3    1    3    3    0  502  0.18155137272E+03 -0.28837744965E+03 -0.55352905217E+03  0.65001298156E+03  0.10100000352E+00 0.  1.
</event>
<event>
 5   0  0.1038912E-02  0.7932182E+03  0.7818609E-02  0.9569886E-01
        1   -1    0    0  501    0  0.00000000000E+00  0.00000000000E+00  0.55360351828E+03  0.55360351831E+03  0.50400001928E-02 0.  1.
       -1   -1    0    0    0  501  0.00000000000E+00  0.00000000000E+00 -0.28413617912E+03  0.28413617917E+03  0.50400001928E-02 0. -1.
    10030    2    1    2    0    0  0.00000000000E+00  0.00000000000E+00  0.26946733916E+03  0.83773969747E+03  0.79321822587E+03 0.  0.
        2    1    3    3  502    0 -0.30016545446E+03 -0.15167885831E+03  0.35675423987E+03  0.49028498222E+03  0.25500000920E-02 0.  1.
       -2    1    3    3    0  502  0.30016545446E+03  0.15167885831E+03 -0.87286900716E+02  0.34745471526E+03  0.25500000920E-02 0. -1.
</event>
<event>
 5   0  0.1038912E-02  0.7992034E+03  0.7818609E-02  0.9561171E-01
       -1   -1    0    0    0  501  0.00000000000E+00  0.00000000000E+00  0.18059584107E+03  0.18059584114E+03  0.50400001928E-02 0.  1.
        1   -1    0    0  501    0  0.00000000000E+00  0.00000000000E+00 -0.88419265435E+03  0.88419265436E+03  0.50400001928E-02 0. -1.
    10030    2    1    2    0    0  0.00000000000E+00  0.00000000000E+00 -0.70359681328E+03  0.10647884955E+04  0.79920339369E+03 0.  0.
        2    1    3    3  502    0 -0.22854204835E+03 -0.23280013537E+03 -0.44342571466E+02  0.32923188568E+03  0.25500000920E-02 0.  1.
       -2    1    3    3    0  502  0.22854204835E+03  0.23280013537E+03 -0.65925424182E+03  0.73555660982E+03  0.25500000920E-02 0. -1.
</event>
<event>
 5   0  0.1030323E-02  0.8197348E+03  0.7818609E-02  0.9531883E-01
        1   -1    0    0  501    0  0.00000000000E+00  0.00000000000E+00  0.60941732216E+03  0.60941732218E+03  0.50400001928E-02 0. -1.
       -1   -1    0    0    0  501  0.00000000000E+00  0.00000000000E+00 -0.27565888041E+03  0.27565888045E+03  0.50400001928E-02 0.  1.
    10030    2    1    2    0    0  0.00000000000E+00  0.00000000000E+00  0.33375844175E+03  0.88507620263E+03  0.81973482726E+03 0.  0.
        3    1    3    3  502    0  0.39988740317E+03  0.88201184126E+02  0.14811888521E+03  0.43546365916E+03  0.10100000352E+00 0. -1.
       -3    1    3    3    0  502 -0.39988740317E+03 -0.88201184126E+02  0.18563955654E+03  0.44961254347E+03  0.10100000352E+00 0.  1.
</event>
<event>
 5   0  0.1747544E-02  0.8018984E+03  0.7818609E-02  0.9557273E-01
        2   -1    0    0  501    0  0.00000000000E+00  0.00000000000E+00  0.11314244086E+04  0.11314244086E+04  0.25500000920E-02 0.  1.
       -2   -1    0    0    0  501  0.00000000000E+00  0.00000000000E+00 -0.14208660804E+03  0.14208660807E+03  0.25500000920E-02 0. -1.
    10030    2    1    2    0    0  0.00000000000E+00  0.00000000000E+00  0.98933780060E+03  0.12735110167E+04  0.80189838882E+03 0.  0.
        1    1    3    3  502    0  0.37553949203E+03  0.10132480708E+02  0.71716266333E+03  0.80960166931E+03  0.50400001928E-02 0.  1.
       -1    1    3    3    0  502 -0.37553949203E+03 -0.10132480708E+02  0.27217513727E+03  0.46390934741E+03  0.50400001928E-02 0. -1.
</event>
<event>
 5   0  0.1030323E-02  0.8016410E+03  0.7818609E-02  0.9557645E-01
       -1   -1    0    0    0  501  0.00000000000E+00  0.00000000000E+00  0.11280646874E+04  0.11280646874E+04  0.50400001928E-02 0. -1.
        1   -1    0    0  501    0  0.00000000000E+00  0.00000000000E+00 -0.14241830762E+03  0.14241830771E+03  0.50400001928E-02 0.  1.
    10030    2    1    2    0    0  0.00000000000E+00  0.00000000000E+00  0.98564637976E+03  0.12704829951E+04  0.80164097631E+03 0.  0.
        3    1    3    3  502    0  0.34478297339E+03  0.20981276138E+02  0.81506528896E+03  0.88523835669E+03  0.10100000352E+00 0. -1.
       -3    1    3    3    0  502 -0.34478297339E+03 -0.20981276138E+02  0.17058109080E+03  0.38524463841E+03  0.10100000352E+00 0.  1.
</event>
<event>
 5   0  0.1818665E-02  0.7939697E+03  0.7818609E-02  0.9568787E-01
       -2   -1    0    0    0  501  0.00000000000E+00  0.00000000000E+00  0.12440602297E+03  0.12440602299E+03  0.25500000920E-02 0. -1.
        2   -1    0    0  501    0  0.00000000000E+00  0.00000000000E+00 -0.12667954225E+04  0.12667954225E+04  0.25500000920E-02 0.  1.
    10030    2    1    2    0    0  0.00000000000E+00  0.00000000000E+00 -0.11423893995E+04  0.13912014455E+04  0.79396972347E+03 0.  0.
        3    1    3    3  502    0  0.55453508313E+02  0.34167097227E+03 -0.91178579881E+03  0.97527816442E+03  0.10100000352E+00 0.  1.
       -3    1    3    3    0  502 -0.55453508313E+02 -0.34167097227E+03 -0.23060360073E+03  0.41592328109E+03  0.10100000352E+00 0. -1.
</event>
<event>
 5   0  0.1025900E-02  0.7993996E+03  0.7818609E-02  0.9560887E-01
        1   -1    0    0  501    0  0.00000000000E+00  0.00000000000E+00  0.16274530401E+04  0.16274530401E+04  0.50400001928E-02 0.  1.
       -1   -1    0    0    0  501  0.00000000000E+00  0.00000000000E+00 -0.98165610929E+02  0.98165611059E+02  0.50400001928E-02 0. -1.
    10030    2    1    2    0    0  0.00000000000E+00  0.00000000000E+00  0.15292874292E+04  0.17256186512E+04  0.79939957984E+03 0.  0.
        1    1    3    3  502    0  0.18880248928E+03  0.35038541682E+03  0.84376916461E+03  0.93293232522E+03  0.50400001928E-02 0. -1.
       -1    1    3    3    0  502 -0.18880248928E+03 -0.35038541682E+03  0.68551826460E+03  0.79268632599E+03  0.50400001928E-02 0.  1.
</event>
<event>
 5   0  0.1731337E-02  0.8009582E+03  0.7818609E-02  0.9558631E-01
       -2   -1    0    0    0  501  0.00000000000E+00  0.00000000000E+00  0.74266209805E+02  0.74266209848E+02  0.25500000920E-02 0. -1.
        2   -1    0    0  501    0  0.00000000000E+00  0.00000000000E+00 -0.21595756632E+04  0.21595756632E+04  0.25500000920E-02 0.  1.
    10030    2    1    2    0    0  0.00000000000E+00  0.00000000000E+00 -0.20853094534E+04  0.22338418731E+04  0.80095817455E+03 0.  0.
        4    1    3    3  502    0 -0.24987747391E+03  0.13308708292E+03 -0.25267928321E+03  0.37947247156E+03  0.12699999809E+01 0. -1.
       -4    1    3    3    0  502  0.24987747391E+03 -0.13308708292E+03 -0.18326301702E+04  0.18543694015E+04  0.12699999809E+01 0.  1.
</event>
<event>
 5   0  0.1731337E-02  0.7993796E+03  0.7818609E-02  0.9560916E-01
       -2   -1    0    0    0  501  0.00000000000E+00  0.00000000000E+00  0.19550071230E+03  0.19550071232E+03  0.25500000920E-02 0.  1.
        2   -1    0    0  501    0  0.00000000000E+00  0.00000000000E+00 -0.81714253811E+03  0.81714253812E+03  0.25500000920E-02 0. -1.
    10030    2    1    2    0    0  0.00000000000E+00  0.00000000000E+00 -0.62164182581E+03  0.10126432504E+04  0.79937963012E+03 0.  0.
        4    1    3    3  502    0  0.40398732935E+02  0.39168623312E+03 -0.39766900749E+03  0.55963596673E+03  0.12699999809E+01 0. -1.
       -4    1    3    3    0  502 -0.40398732935E+02 -0.39168623312E+03 -0.22397281832E+03  0.45300728370E+03  0.12699999809E+01 0.  1.
</event>
<event>
 5   0  0.1049780E-02  0.7974260E+03  0.7818609E-02  0.9563750E-01
        1   -1    0    0  501    0  0.00000000000E+00  0.00000000000E+00  0.19059198624E+04  0.19059198624E+04  0.50400001928E-02 0.  1.
       -1   -1    0    0    0  501  0.00000000000E+00  0.00000000000E+00 -0.83409630125E+02  0.83409630277E+02  0.50400001928E-02 0. -1.
    10030    2    1    2    0    0  0.00000000000E+00  0.00000000000E+00  0.18225102322E+04  0.19893294926E+04  0.79742603651E+03 0.  0.
        5    1    3    3  502    0  0.31652535524E+03  0.21780396361E+03  0.64579502035E+03  0.75146534543E+03  0.46999998093E+01 0.  1.
       -5    1    3    3    0  502 -0.31652535524E+03 -0.21780396361E+03  0.11767152119E+04  0.12378641472E+04  0.46999998093E+01 0. -1.
</event>
<event>
 5   0  0.1030323E-02  0.8059955E+03  0.7818609E-02  0.9551379E-01
        1   -1    0    0  501    0  0.00000000000E+00  0.00000000000E+00  0.13464248817E+04  0.13464248818E+04  0.50400001928E-02 0.  1.
       -1   -1    0    0    0  501  0.00000000000E+00  0.00000000000E+00 -0.12062104741E+03  0.12062104752E+03  0.50400001928E-02 0. -1.
    10030    2    1    2    0    0  0.00000000000E+00  0.00000000000E+00  0.12258038343E+04  0.14670459293E+04  0.80599548282E+03 0.  0.
        3    1    3    3  502    0  0.13147444264E+02  0.23042823908E+03  0.12142104803E+04  0.12359519122E+04  0.10100000352E+00 0.  1.
       -3    1    3    3    0  502 -0.13147444264E+02 -0.23042823908E+03  0.11593354028E+02  0.23109401704E+03  0.10100000352E+00 0. -1.
</event>
<event>
 5   0  0.1038912E-02  0.8075426E+03  0.7818609E-02  0.9549163E-01
        1   -1    0    0  501    0  0.00000000000E+00  0.00000000000E+00  0.48824623319E+03  0.48824623322E+03  0.50400001928E-02 0.  1.
       -1   -1    0    0    0  501  0.00000000000E+00  0.00000000000E+00 -0.33391193782E+03  0.33391193786E+03  0.50400001928E-02 0. -1.
    10030    2    1    2    0    0  0.00000000000E+00  0.00000000000E+00  0.15433429537E+03  0.82215817108E+03  0.80754255835E+03 0.  0.
        2    1    3    3  502    0 -0.23207066807E+03 -0.31326103562E+03  0.18414979175E+03  0.43116170658E+03  0.25500000920E-02 0.  1.
       -2    1    3    3    0  502  0.23207066807E+03  0.31326103562E+03 -0.29815496382E+02  0.39099646449E+03  0.25500000920E-02 0. -1.
</event>
<event>
 5   0  0.1731337E-02  0.8035481E+03  0.7818609E-02  0.9554895E-01
       -2   -1    0    0    0  501  0.00000000000E+00  0.00000000000E+00  0.15371707563E+03  0.15371707565E+03  0.25500000920E-02 0.  1.
        2   -1    0    0  501    0  0.00000000000E+00  0.00000000000E+00 -0.10501266651E+04  0.10501266651E+04  0.25500000920E-02 0. -1.
    10030    2    1    2    0    0  0.00000000000E+00  0.00000000000E+00 -0.89640958951E+03  0.12038437408E+04  0.80354813178E+03 0.  0.
        4    1    3    3  502    0  0.13622418278E+03 -0.29118300634E+03 -0.87163083370E+02  0.33308195261E+03  0.12699999809E+01 0.  1.
       -4    1    3    3    0  502 -0.13622418278E+03  0.29118300634E+03 -0.80924650614E+03  0.87076178818E+03  0.12699999809E+01 0. -1.
</event>
<event>
 5   0  0.1030323E-02  0.8158124E+03  0.7818609E-02  0.9537407E-01
       -1   -1    0    0    0  501  0.00000000000E+00  0.00000000000E+00  0.25697387465E+03  0.25697387470E+03  0.50400001928E-02 0.  1.
        1   -1    0    0  501    0  0.00000000000E+00  0.00000000000E+00 -0.64748783421E+03  0.64748783423E+03  0.50400001928E-02 0. -1.
    10030    2    1    2    0    0  0.00000000000E+00  0.00000000000E+00 -0.39051395956E+03  0.90446170893E+03  0.81581237445E+03 0.  0.
        3    1    3    3  502    0  0.12314749705E+03  0.15277048219E+03  0.20120984263E+03  0.28105077340E+03  0.10100000352E+00 0.  1.
       -3    1    3    3    0  502 -0.12314749705E+03 -0.15277048219E+03 -0.59172380218E+03  0.62341093552E+03  0.10100000352E+00 0. -1.
</event>
<event>
 5   0  0.1817089E-02  0.8019650E+03  0.7818609E-02  0.9557177E-01
       -2   -1    0    0    0  501  0.00000000000E+00  0.00000000000E+00  0.26343613668E+03  0.26343613669E+03  0.25500000920E-02 0.  1.
        2   -1    0    0  501    0  0.00000000000E+00  0.00000000000E+00 -0.61034515265E+03  0.61034515266E+03  0.25500000920E-02 0. -1.
    10030    2    1    2    0    0  0.00000000000E+00  0.00000000000E+00 -0.34690901597E+03  0.87378128935E+03  0.80196500937E+03 0.  0.
        2    1    3    3  502    0 -0.30953639465E+03  0.88539555802E+02  0.86979800254E+02  0.33349290579E+03  0.25500000920E-02 0.  1.
       -2    1    3    3    0  502  0.30953639465E+03 -0.88539555802E+02 -0.43388881623E+03  0.54028838356E+03  0.25500000920E-02 0. -1.
</event>
<event>
 5   0  0.1731337E-02  0.7606429E+03  0.7818609E-02  0.9618800E-01
        2   -1    0    0  501    0  0.00000000000E+00  0.00000000000E+00  0.88264879882E+03  0.88264879883E+03  0.25500000920E-02 0.  1.
       -2   -1    0    0    0  501  0.00000000000E+00  0.00000000000E+00 -0.16387538744E+03  0.16387538746E+03  0.25500000920E-02 0. -1.
    10030    2    1    2    0    0  0.00000000000E+00  0.00000000000E+00  0.71877341138E+03  0.10465241863E+04  0.76064292252E+03 0.  0.
        4    1    3    3  502    0  0.34634547163E+03  0.15532624570E+03  0.39198493981E+03  0.54565120201E+03  0.12699999809E+01 0.  1.
       -4    1    3    3    0  502 -0.34634547163E+03 -0.15532624570E+03  0.32678847158E+03  0.50087298428E+03  0.12699999809E+01 0. -1.
</event>
<event>
 5   0  0.1049780E-02  0.7459028E+03  0.7818609E-02  0.9641800E-01
        1   -1    0    0  501    0  0.00000000000E+00  0.00000000000E+00  0.34623801027E+03  0.34623801031E+03  0.50400001928E-02 0. -1.
       -1   -1    0    0    0  501  0.00000000000E+00  0.00000000000E+00 -0.40172585994E+03  0.40172585997E+03  0.50400001928E-02 0.  1.
    10030    2    1    2    0    0  0.00000000000E+00  0.00000000000E+00 -0.55487849665E+02  0.74796387028E+03  0.74590284205E+03 0.  0.
        5    1    3    3  502    0 -0.41433883826E+02  0.30183078247E+02  0.34265848975E+03  0.34650355776E+03  0.46999998093E+01 0. -1.
       -5    1    3    3    0  502  0.41433883826E+02 -0.30183078247E+02 -0.39814633942E+03  0.40146031252E+03  0.46999998093E+01 0.  1.
</event>
<event>
 5   0  0.6872500E-03  0.7894127E+03  0.7818609E-02  0.9575469E-01
       -4   -1    0    0    0  501  0.00000000000E+00  0.00000000000E+00  0.76897640701E+03  0.76897745574E+03  0.12699999809E+01 0.  1.
        4   -1    0    0  501    0  0.00000000000E+00  0.00000000000E+00 -0.20259485809E+03  0.20259883866E+03  0.12699999809E+01 0. -1.
    10030    2    1    2    0    0  0.00000000000E+00  0.00000000000E+00  0.56638154892E+03  0.97157629440E+03  0.78941271644E+03 0.  0.
        3    1    3    3  502    0  0.18299916862E+03  0.14172623362E+03  0.67668344487E+03  0.71517516440E+03  0.10100000352E+00 0.  1.
       -3    1    3    3    0  502 -0.18299916862E+03 -0.14172623362E+03 -0.11030189595E+03  0.25640113000E+03  0.10100000352E+00 0. -1.
</event>
<event>
 5   0  0.1817089E-02  0.8016301E+03  0.7818609E-02  0.9557661E-01
        2   -1    0    0  501    0  0.00000000000E+00  0.00000000000E+00  0.46941567620E+03  0.46941567621E+03  0.25500000920E-02 0.  1.
       -2   -1    0    0    0  501  0.00000000000E+00  0.00000000000E+00 -0.34223977394E+03  0.34223977395E+03  0.25500000920E-02 0. -1.
    10030    2    1    2    0    0  0.00000000000E+00  0.00000000000E+00  0.12717590227E+03  0.81165545016E+03  0.80163012646E+03 0.  0.
        2    1    3    3  502    0  0.69204633843E+02 -0.91567839591E+02 -0.32524442922E+03  0.34490272446E+03  0.25500000920E-02 0. -1.
       -2    1    3    3    0  502 -0.69204633843E+02  0.91567839591E+02  0.45242033149E+03  0.46675272570E+03  0.25500000920E-02 0.  1.
</event>
<event>
 5   0  0.1818665E-02  0.8144251E+03  0.7818609E-02  0.9539369E-01
        2   -1    0    0  501    0  0.00000000000E+00  0.00000000000E+00  0.22836780446E+04  0.22836780446E+04  0.25500000920E-02 0.  1.
       -2   -1    0    0    0  501  0.00000000000E+00  0.00000000000E+00 -0.72611844818E+02  0.72611844863E+02  0.25500000920E-02 0. -1.
    10030    2    1    2    0    0  0.00000000000E+00  0.00000000000E+00  0.22110661997E+04  0.23562898894E+04  0.81442513675E+03 0.  0.
        3    1    3    3  502    0 -0.39235406795E+03 -0.10897607662E+03  0.10993510497E+04  0.11723439089E+04  0.10100000352E+00 0. -1.
       -3    1    3    3    0  502  0.39235406795E+03  0.10897607662E+03  0.11117151500E+04  0.11839459806E+04  0.10100000352E+00 0.  1.
</event>
<event>
 5   0  0.1673727E-02  0.7981045E+03  0.7818609E-02  0.9562765E-01
        2   -1    0    0  501    0  0.00000000000E+00  0.00000000000E+00  0.25929704278E+03  0.25929704279E+03  0.25500000920E-02 0. -1.
       -2   -1    0    0    0  501  0.00000000000E+00  0.00000000000E+00 -0.61413234199E+03  0.61413234199E+03  0.25500000920E-02 0.  1.
    10030    2    1    2    0    0  0.00000000000E+00  0.00000000000E+00 -0.35483529921E+03  0.87342938479E+03  0.79810450484E+03 0.  0.
        5    1    3    3  502    0 -0.22234324995E+03  0.22489919503E+03 -0.44370171620E+03  0.54489400041E+03  0.46999998093E+01 0.  1.
       -5    1    3    3    0  502  0.22234324995E+03 -0.22489919503E+03  0.88866416998E+02  0.32853538438E+03  0.46999998093E+01 0. -1.
</event>
<event>
 5   0  0.1038912E-02  0.7997891E+03  0.7818609E-02  0.9560322E-01
       -1   -1    0    0    0  501  0.00000000000E+00  0.00000000000E+00  0.54894292218E+03  0.54894292221E+03  0.50400001928E-02 0.  1.
        1   -1    0    0  501    0  0.00000000000E+00  0.00000000000E+00 -0.29131560922E+03  0.29131560927E+03  0.50400001928E-02 0. -1.
    10030    2    1    2    0    0  0.00000000000E+00  0.00000000000E+00  0.25762731296E+03  0.84025853147E+03  0.79978907677E+03 0.  0.
        2    1    3    3  502    0  0.13513086279E+02 -0.36912892352E+03 -0.32161040685E+02  0.37077364823E+03  0.25500000920E-02 0. -1.
       -2    1    3    3    0  502 -0.13513086279E+02  0.36912892352E+03  0.28978835365E+03  0.46948488324E+03  0.25500000920E-02 0.  1.
</event>
<event>
 5   0  0.1817089E-02  0.8046102E+03  0.7818609E-02  0.9553368E-01
       -2   -1    0    0    0  501  0.00000000000E+00  0.00000000000E+00  0.30543964886E+03  0.30543964887E+03  0.25500000920E-02 0. -1.
        2   -1    0    0  501    0  0.00000000000E+00  0.00000000000E+00 -0.52988998996E+03  0.52988998996E+03  0.25500000920E-02 0.  1.
    10030    2    1    2    0    0  0.00000000000E+00  0.00000000000E+00 -0.22445034109E+03  0.83532963883E+03  0.80461024720E+03 0.  0.
        2    1    3    3  502    0 -0.32829147012E+03  0.18313882267E+03  0.36543755410E+02  0.37769109572E+03  0.25500000920E-02 0. -1.
       -2    1    3    3    0  502  0.32829147012E+03 -0.18313882267E+03 -0.26099409650E+03  0.45763854311E+03  0.25500000920E-02 0.  1.
</event>
<event>
 5   0  0.1038912E-02  0.7958383E+03  0.7818609E-02  0.9566061E-01
       -1   -1    0    0    0  501  0.00000000000E+00  0.00000000000E+00  0.11575921300E+03  0.11575921310E+03  0.50400001928E-02 0. -1.
        1   -1    0    0  501    0  0.00000000000E+00  0.00000000000E+00 -0.13678363615E+04  0.13678363615E+04  0.50400001928E-02 0.  1.
    10030    2    1    2    0    0  0.00000000000E+00  0.00000000000E+00 -0.12520771485E+04  0.14835955746E+04  0.79583832731E+03 0.  0.
        2    1    3    3  502    0 -0.30696169100E+03  0.16539305646E+03 -0.98345491209E+03  0.10434385018E+04  0.25500000920E-02 0.  1.
       -2    1    3    3    0  502  0.30696169100E+03 -0.16539305646E+03 -0.26862223643E+03  0.44015707285E+03  0.25500000920E-02 0. -1.
</event>
<event>
 5   0  0.1673727E-02  0.8064284E+03  0.7818609E-02  0.9550759E-01
        2   -1    0    0  501    0  0.00000000000E+00  0.00000000000E+00  0.64184828250E+03  0.64184828251E+03  0.25500000920E-02 0.  1.
       -2   -1    0    0    0  501  0.00000000000E+00  0.00000000000E+00 -0.25330235376E+03  0.25330235377E+03  0.25500000920E-02 0. -1.
    10030    2    1    2    0    0  0.00000000000E+00  0.00000000000E+00  0.38854592874E+03  0.89515063628E+03  0.80642837431E+03 0.  0.
        5    1    3    3  502    0 -0.20942013241E+03 -0.14312204058E+03 -0.15360571616E+03  0.29657632474E+03  0.46999998093E+01 0. -1.
       -5    1    3    3    0  502  0.20942013241E+03  0.14312204058E+03  0.54215164491E+03  0.59857431154E+03  0.46999998093E+01 0.  1.
</event>
<event>
 5   0  0.1025900E-02  0.8051720E+03  0.7818609E-02  0.9552561E-01
        1   -1    0    0  501    0  0.00000000000E+00  0.00000000000E+00  0.45545066467E+03  0.45545066469E+03  0.50400001928E-02 0. -1.
       -1   -1    0    0    0  501  0.00000000000E+00  0.00000000000E+00 -0.35585739587E+03  0.35585739591E+03  0.50400001928E-02 0.  1.
    10030    2    1    2    0    0  0.00000000000E+00  0.00000000000E+00  0.99593268795E+02  0.81130806060E+03  0.80517200026E+03 0.  0.
        1    1    3    3  502    0 -0.28910503834E+02 -0.32955831101E+03  0.28095940767E+03  0.43403074358E+03  0.50400001928E-02 0. -1.
       -1    1    3    3    0  502  0.28910503834E+02  0.32955831101E+03 -0.18136613887E+03  0.37727731702E+03  0.50400001928E-02 0.  1.
</event>
<event>
 5   0  0.1038912E-02  0.8029399E+03  0.7818609E-02  0.9555771E-01
       -1   -1    0    0    0  501  0.00000000000E+00  0.00000000000E+00  0.48199345919E+03  0.48199345922E+03  0.50400001928E-02 0. -1.
        1   -1    0    0  501    0  0.00000000000E+00  0.00000000000E+00 -0.33439899591E+03  0.33439899595E+03  0.50400001928E-02 0.  1.
    10030    2    1    2    0    0  0.00000000000E+00  0.00000000000E+00  0.14759446328E+03  0.81639245517E+03  0.80293992008E+03 0.  0.
        2    1    3    3  502    0 -0.12805816112E+03  0.29482567204E+03 -0.17076765868E+03  0.36398167918E+03  0.25500000920E-02 0.  1.
       -2    1    3    3    0  502  0.12805816112E+03 -0.29482567204E+03  0.31836212196E+03  0.45241077599E+03  0.25500000920E-02 0. -1.
</event>
<event>
 5   0  0.1025900E-02  0.7583899E+03  0.7818609E-02  0.9622279E-01
       -1   -1    0    0    0  501  0.00000000000E+00  0.00000000000E+00  0.10185362432E+03  0.10185362444E+03  0.50400001928E-02 0.  1.
        1   -1    0    0  501    0  0.00000000000E+00  0.00000000000E+00 -0.14117201448E+04  0.14117201448E+04  0.50400001928E-02 0. -1.
    10030    2    1    2    0    0  0.00000000000E+00  0.00000000000E+00 -0.13098665204E+04  0.15135737692E+04  0.75838990860E+03 0.  0.
        1    1    3    3  502    0  0.28206776473E+03 -0.18058260730E+03 -0.10098022261E+04  0.10638951253E+04  0.50400001928E-02 0. -1.
       -1    1    3    3    0  502 -0.28206776473E+03  0.18058260730E+03 -0.30006429438E+03  0.44967864386E+03  0.50400001928E-02 0.  1.
</event>
<event>
 5   0  0.1673727E-02  0.7875602E+03  0.7818609E-02  0.9578200E-01
       -2   -1    0    0    0  501  0.00000000000E+00  0.00000000000E+00  0.21842282111E+03  0.21842282113E+03  0.25500000920E-02 0. -1.
        2   -1    0    0  501    0  0.00000000000E+00  0.00000000000E+00 -0.70992014088E+03  0.70992014088E+03  0.25500000920E-02 0.  1.
    10030    2    1    2    0    0  0.00000000000E+00  0.00000000000E+00 -0.49149731976E+03  0.92834296201E+03  0.78756018169E+03 0.  0.
        5    1    3    3  502    0 -0.10019559685E+03  0.29803138156E+03 -0.52513872478E+03  0.61209037918E+03  0.46999998093E+01 0.  1.
       -5    1    3    3    0  502  0.10019559685E+03 -0.29803138156E+03  0.33641405015E+02  0.31625258284E+03  0.46999998093E+01 0. -1.
</event>
<event>
 5   0  0.1049780E-02  0.7932824E+03  0.7818609E-02  0.9569792E-01
        1   -1    0    0  501    0  0.00000000000E+00  0.00000000000E+00  0.14409282918E+03  0.14409282927E+03  0.50400001928E-02 0. -1.
       -1   -1    0    0    0  501  0.00000000000E+00  0.00000000000E+00 -0.10918255590E+04  0.10918255590E+04  0.50400001928E-02 0.  1.
    10030    2    1    2    0    0  0.00000000000E+00  0.00000000000E+00 -0.94773272981E+03  0.12359183883E+04  0.79328238057E+03 0.  0.
        5    1    3    3  502    0  0.23087848654E+03 -0.15685906672E+02  0.27965914288E+02  0.23314181430E+03  0.46999998093E+01 0. -1.
       -5    1    3    3    0  502 -0.23087848654E+03  0.15685906672E+02 -0.97569864410E+03  0.10027765740E+04  0.46999998093E+01 0.  1.
</event>
<event>
 5   0  0.1030323E-02  0.7952559E+03  0.7818609E-02  0.9566910E-01
        1   -1    0    0  501    0  0.00000000000E+00  0.00000000000E+00  0.15533483492E+04  0.15533483492E+04  0.50400001928E-02 0.  1.
       -1   -1    0    0    0  501  0.00000000000E+00  0.00000000000E+00 -0.10178526806E+03  0.10178526819E+03  0.50400001928E-02 0. -1.
    10030    2    1    2    0    0  0.00000000000E+00  0.00000000000E+00  0.14515630811E+04  0.16551336174E+04  0.79525587890E+03 0.  0.
        3    1    3    3  502    0 -0.11569876656E+03  0.34056439959E+03  0.10786004238E+04  0.11369912926E+04  0.10100000352E+00 0.  1.
       -3    1    3    3    0  502  0.11569876656E+03 -0.34056439959E+03  0.37296265728E+03  0.51814232483E+03  0.10100000352E+00 0. -1.
</event>
<event>
 5   0  0.1747544E-02  0.8002897E+03  0.7818609E-02  0.9559598E-01
       -2   -1    0    0    0  501  0.00000000000E+00  0.00000000000E+00  0.20403250881E+03  0.20403250883E+03  0.25500000920E-02 0.  1.
        2   -1    0    0  501    0  0.00000000000E+00  0.00000000000E+00 -0.78475675645E+03  0.78475675645E+03  0.25500000920E-02 0. -1.
    10030    2    1    2    0    0  0.00000000000E+00  0.00000000000E+00 -0.58072424763E+03  0.98878926528E+03  0.80028967215E+03 0.  0.
        1    1    3    3  502    0  0.21848606612E+03  0.24853360386E+03 -0.56831938948E+03  0.65764127138E+03  0.50400001928E-02 0. -1.
       -1    1    3    3    0  502 -0.21848606612E+03 -0.24853360386E+03 -0.12404858154E+02  0.33114799391E+03  0.50400001928E-02 0.  1.
</event>
<event>
 5   0  0.1025900E-02  0.8035871E+03  0.7818609E-02  0.9554839E-01
        1   -1    0    0  501    0  0.00000000000E+00  0.00000000000E+00  0.10105549322E+04  0.10105549322E+04  0.50400001928E-02 0. -1.
       -1   -1    0    0    0  501  0.00000000000E+00  0.00000000000E+00 -0.15975189496E+03  0.15975189504E+03  0.50400001928E-02 0.  1.
    10030    2    1    2    0    0  0.00000000000E+00  0.00000000000E+00  0.85080303726E+03  0.11703068273E+04  0.80358712144E+03 0.  0.
        1    1    3    3  502    0 -0.27998953881E+03  0.12670221610E+03  0.80234244149E+03  0.85918623526E+03  0.50400001928E-02 0. -1.
       -1    1    3    3    0  502  0.27998953881E+03 -0.12670221610E+03  0.48460595770E+02  0.31112059202E+03  0.50400001928E-02 0.  1.
</event>
<event>
 5   0  0.1818665E-02  0.8052674E+03  0.7818609E-02  0.9552424E-01
        2   -1    0    0  501    0  0.00000000000E+00  0.00000000000E+00  0.15419964309E+04  0.15419964309E+04  0.25500000920E-02 0.  1.
       -2   -1    0    0    0  501  0.00000000000E+00  0.00000000000E+00 -0.10513248292E+03  0.10513248295E+03  0.25500000920E-02 0. -1.
    10030    2    1    2    0    0  0.00000000000E+00  0.00000000000E+00  0.14368639480E+04  0.16471289138E+04  0.80526744244E+03 0.  0.
        3    1    3    3  502    0  0.11277206245E+03 -0.32626442170E+03  0.29453689182E+03  0.45378188789E+03  0.10100000352E+00 0. -1.
       -3    1    3    3    0  502 -0.11277206245E+03  0.32626442170E+03  0.11423270561E+04  0.11933470259E+04  0.10100000352E+00 0.  1.
</event>
<event>
 5   0  0.1025900E-02  0.7962945E+03  0.7818609E-02  0.9565396E-01
        1   -1    0    0  501    0  0.00000000000E+00  0.00000000000E+00  0.57265361660E+03  0.57265361662E+03  0.50400001928E-02 0. -1.
       -1   -1    0    0    0  501  0.00000000000E+00  0.00000000000E+00 -0.27681868812E+03  0.27681868816E+03  0.50400001928E-02 0.  1.
    10030    2    1    2    0    0  0.00000000000E+00  0.00000000000E+00  0.29583492848E+03  0.84947230479E+03  0.79629447548E+03 0.  0.
        1    1    3    3  502    0  0.18066761753E+03  0.31498594983E+03 -0.26279468330E+02  0.36407079956E+03  0.50400001928E-02 0.  1.
       -1    1    3    3    0  502 -0.18066761753E+03 -0.31498594983E+03  0.32211439681E+03  0.48540150522E+03  0.50400001928E-02 0. -1.
</event>
<event>
 5   0  0.1025900E-02  0.8008446E+03  0.7818609E-02  0.9558795E-01
        1   -1    0    0  501    0  0.00000000000E+00  0.00000000000E+00  0.95028056624E+03  0.95028056625E+03  0.50400001928E-02 0. -1.
       -1   -1    0    0    0  501  0.00000000000E+00  0.00000000000E+00 -0.16872705027E+03  0.16872705035E+03  0.50400001928E-02 0.  1.
    10030    2    1    2    0    0  0.00000000000E+00  0.00000000000E+00  0.78155351597E+03  0.11190076166E+04  0.80084464641E+03 0.  0.
        1    1    3    3  502    0  0.29878085521E+02 -0.17472870700E+03  0.89246838850E+03  0.90990254727E+03  0.50400001928E-02 0. -1.
       -1    1    3    3    0  502 -0.29878085521E+02  0.17472870700E+03 -0.11091487253E+03  0.20910506933E+03  0.50400001928E-02 0.  1.
</event>
<event>
 5   0  0.1747544E-02  0.8016788E+03  0.7818609E-02  0.9557590E-01
        2   -1    0    0  501    0  0.00000000000E+00  0.00000000000E+00  0.10229679237E+04  0.10229679237E+04  0.25500000920E-02 0. -1.
       -2   -1    0    0    0  501  0.00000000000E+00  0.00000000000E+00 -0.15706476702E+03  0.15706476704E+03  0.25500000920E-02 0.  1.
    10030    2    1    2    0    0  0.00000000000E+00  0.00000000000E+00  0.86590315669E+03  0.11800326908E+04  0.80167878511E+03 0.  0.
        1    1    3    3  502    0 -0.37898133725E+02 -0.35821112788E+03  0.17411921800E+03  0.40008621918E+03  0.50400001928E-02 0.  1.
       -1    1    3    3    0  502  0.37898133725E+02  0.35821112788E+03  0.69178393869E+03  0.77994647158E+03  0.50400001928E-02 0. -1.
</event>
<event>
 5   0  0.1025900E-02  0.8001286E+03  0.7818609E-02  0.9559831E-01
       -1   -1    0    0    0  501  0.00000000000E+00  0.00000000000E+00  0.13893526723E+03  0.13893526732E+03  0.50400001928E-02 0. -1.
        1   -1    0    0  501    0  0.00000000000E+00  0.00000000000E+00 -0.11519855813E+04  0.11519855813E+04  0.50400001928E-02 0.  1.
    10030    2    1    2    0    0  0.00000000000E+00  0.00000000000E+00 -0.10130503141E+04  0.12909208486E+04  0.80012855129E+03 0.  0.
        1    1    3    3  502    0 -0.95426506907E+02  0.36482067799E+03 -0.72208709870E+03  0.81462268778E+03  0.50400001928E-02 0.  1.
       -1    1    3    3    0  502  0.95426506907E+02 -0.36482067799E+03 -0.29096321537E+03  0.47629816086E+03  0.50400001928E-02 0. -1.
</event>
<event>
 5   0  0.1025900E-02  0.7980378E+03  0.7818609E-02  0.9562862E-01
       -1   -1    0    0    0  501  0.00000000000E+00  0.00000000000E+00  0.42901860995E+03  0.42901860998E+03  0.50400001928E-02 0.  1.
        1   -1    0    0  501    0  0.00000000000E+00  0.00000000000E+00 -0.37111695550E+03  0.37111695554E+03  0.50400001928E-02 0. -1.
    10030    2    1    2    0    0  0.00000000000E+00  0.00000000000E+00  0.57901654452E+02  0.80013556552E+03  0.79803779461E+03 0.  0.
        1    1    3    3  502    0  0.31255558798E+03 -0.11704226240E+03 -0.19031604624E+03  0.38420057814E+03  0.50400001928E-02 0. -1.
       -1    1    3    3    0  502 -0.31255558798E+03  0.11704226240E+03  0.24821770069E+03  0.41593498738E+03  0.50400001928E-02 0.  1.
</event>
<event>
 5   0  0.1818665E-02  0.7979693E+03  0.7818609E-02  0.9562961E-01
       -2   -1    0    0    0  501  0.00000000000E+00  0.00000000000E+00  0.10360325194E+04  0.10360325194E+04  0.25500000920E-02 0.  1.
        2   -1    0    0  501    0  0.00000000000E+00  0.00000000000E+00 -0.15365226039E+03  0.15365226041E+03  0.25500000920E-02 0. -1.
    10030    2    1    2    0    0  0.00000000000E+00  0.00000000000E+00  0.88238025900E+03  0.11896847798E+04  0.79796926871E+03 0.  0.
        3    1    3    3  502    0  0.50989328053E+02  0.23082376069E+03 -0.38008156214E+02  0.23942462324E+03  0.10100000352E+00 0. -1.
       -3    1    3    3    0  502 -0.50989328053E+02 -0.23082376069E+03  0.92038841521E+03  0.95026015655E+03  0.10100000352E+00 0.  1.
</event>
<event>
 5   0  0.1673727E-02  0.8043678E+03  0.7818609E-02  0.9553716E-01
       -2   -1    0    0    0  501  0.00000000000E+00  0.00000000000E+00  0.40946617925E+03  0.40946617926E+03  0.25500000920E-02 0.  1.
        2   -1    0    0  501    0  0.00000000000E+00  0.00000000000E+00 -0.39503110726E+03  0.39503110727E+03  0.25500000920E-02 0. -1.
    10030    2    1    2    0    0  0.00000000000E+00  0.00000000000E+00  0.14435071985E+02  0.80449728653E+03  0.80436777206E+03 0.  0.
        5    1    3    3  502    0 -0.19295471669E+03 -0.31445979474E+03  0.16728487134E+03  0.40512072692E+03  0.46999998093E+01 0.  1.
       -5    1    3    3    0  502  0.19295471669E+03  0.31445979474E+03 -0.15284979936E+03  0.39937655961E+03  0.46999998093E+01 0. -1.
</event>
<event>
 5   0  0.1817089E-02  0.8121367E+03  0.7818609E-02  0.9542614E-01
        2   -1    0    0  501    0  0.00000000000E+00  0.00000000000E+00  0.51398659906E+03  0.51398659907E+03  0.25500000920E-02 0.  1.
       -2   -1    0    0    0  501  0.00000000000E+00  0.00000000000E+00 -0.32080893419E+03  0.32080893420E+03  0.25500000920E-02 0. -1.
    10030    2    1    2    0    0  0.00000000000E+00  0.00000000000E+00  0.19317766487E+03  0.83479553327E+03  0.81213667087E+03 0.  0.
        2    1    3    3  502    0 -0.16868701847E+03 -0.12843955694E+03  0.45257411703E+03  0.49977531091E+03  0.25500000920E-02 0.  1.
       -2    1    3    3    0  502  0.16868701847E+03  0.12843955694E+03 -0.25939645216E+03  0.33502022236E+03  0.25500000920E-02 0. -1.
</event>
<event>
 5   0  0.1817089E-02  0.8058679E+03  0.7818609E-02  0.9551562E-01
        2   -1    0    0  501    0  0.00000000000E+00  0.00000000000E+00  0.11340392207E+04  0.11340392207E+04  0.25500000920E-02 0. -1.
       -2   -1    0    0    0  501  0.00000000000E+00  0.00000000000E+00 -0.14316592731E+03  0.14316592734E+03  0.25500000920E-02 0.  1.
    10030    2    1    2    0    0  0.00000000000E+00  0.00000000000E+00  0.99087329334E+03  0.12772051480E+04  0.80586792132E+03 0.  0.
        2    1    3    3  502    0  0.16371003703E+03 -0.36665623678E+03  0.44244364030E+03  0.59748987191E+03  0.25500000920E-02 0. -1.
       -2    1    3    3    0  502 -0.16371003703E+03  0.36665623678E+03  0.54842965305E+03  0.67971527608E+03  0.25500000920E-02 0.  1.
</event>
<event>
 5   0  0.1818665E-02  0.7863707E+03  0.7818609E-02  0.9579957E-01
       -2   -1    0    0    0  501  0.00000000000E+00  0.00000000000E+00  0.12655354210E+03  0.12655354212E+03  0.25500000920E-02 0. -1.
        2   -1    0    0  501    0  0.00000000000E+00  0.00000000000E+00 -0.12215756824E+04  0.12215756824E+04  0.25500000920E-02 0.  1.
    10030    2    1    2    0    0  0.00000000000E+00  0.00000000000E+00 -0.10950221403E+04  0.13481292245E+04  0.78637072572E+03 0.  0.
        3    1    3    3  502    0  0.64158751325E+02 -0.29186074924E+03 -0.98558398297E+03  0.10298906932E+04  0.10100000352E+00 0.  1.
       -3    1    3    3    0  502 -0.64158751325E+02  0.29186074924E+03 -0.10943815734E+03  0.31823853130E+03  0.10100000352E+00 0. -1.
</event>
<event>
 5   0  0.1038912E-02  0.7879990E+03  0.7818609E-02  0.9577552E-01
        1   -1    0    0  501    0  0.00000000000E+00  0.00000000000E+00  0.49350821063E+03  0.49350821066E+03  0.50400001928E-02 0.  1.
       -1   -1    0    0    0  501  0.00000000000E+00  0.00000000000E+00 -0.31455522892E+03  0.31455522896E+03  0.50400001928E-02 0. -1.
    10030    2    1    2    0    0  0.00000000000E+00  0.00000000000E+00  0.17895298171E+03  0.80806343962E+03  0.78799895481E+03 0.  0.
        2    1    3    3  502    0  0.56424136892E+02 -0.14396278075E+03  0.46109403100E+03  0.48632979643E+03  0.25500000920E-02 0.  1.
       -2    1    3    3    0  502 -0.56424136892E+02  0.14396278075E+03 -0.28214104928E+03  0.32173364319E+03  0.25500000920E-02 0. -1.
</event>
<event>
 5   0  0.1747544E-02  0.7984774E+03  0.7818609E-02  0.9562224E-01
       -2   -1    0    0    0  501  0.00000000000E+00  0.00000000000E+00  0.11264676245E+03  0.11264676248E+03  0.25500000920E-02 0. -1.
        2   -1    0    0  501    0  0.00000000000E+00  0.00000000000E+00 -0.14149678619E+04  0.14149678619E+04  0.25500000920E-02 0.  1.
    10030    2    1    2    0    0  0.00000000000E+00  0.00000000000E+00 -0.13023210994E+04  0.15276146243E+04  0.79847742268E+03 0.  0.
        1    1    3    3  502    0  0.96650252968E+02  0.30503338064E+03 -0.11079407952E+04  0.11532213320E+04  0.50400001928E-02 0.  1.
       -1    1    3    3    0  502 -0.96650252968E+02 -0.30503338064E+03 -0.19438030416E+03  0.37439329237E+03  0.50400001928E-02 0. -1.
</event>
<event>
 5   0  0.1030323E-02  0.7937157E+03  0.7818609E-02  0.9569158E-01
        1   -1    0    0  501    0  0.00000000000E+00  0.00000000000E+00  0.10561989723E+04  0.10561989724E+04  0.50400001928E-02 0.  1.
       -1   -1    0    0    0  501  0.00000000000E+00  0.00000000000E+00 -0.14911598812E+03  0.14911598821E+03  0.50400001928E-02 0. -1.
    10030    2    1    2    0    0  0.00000000000E+00  0.00000000000E+00  0.90708298422E+03  0.12053149606E+04  0.79371570093E+03 0.  0.
        3    1    3    3  502    0  0.18051881066E+03 -0.29797831617E+02  0.98833179700E+03  0.10051242226E+04  0.10100000352E+00 0.  1.
       -3    1    3    3    0  502 -0.18051881066E+03  0.29797831617E+02 -0.81248812781E+02  0.20019073793E+03  0.10100000352E+00 0. -1.
</event>
<event>
 5   0  0.1030323E-02  0.7984135E+03  0.7818609E-02  0.9562316E-01
       -1   -1    0    0    0  501  0.00000000000E+00  0.00000000000E+00  0.29094267558E+03  0.29094267563E+03  0.50400001928E-02 0.  1.
        1   -1    0    0  501    0  0.00000000000E+00  0.00000000000E+00 -0.54775747071E+03  0.54775747073E+03  0.50400001928E-02 0. -1.
    10030    2    1    2    0    0  0.00000000000E+00  0.00000000000E+00 -0.25681479513E+03  0.83870014636E+03  0.79841348718E+03 0.  0.
        3    1    3    3  502    0  0.12741470370E+03  0.24960996387E+03 -0.42705250197E+03  0.51079691701E+03  0.10100000352E+00 0. -1.
       -3    1    3    3    0  502 -0.12741470370E+03 -0.24960996387E+03  0.17023770685E+03  0.32790322935E+03  0.10100000352E+00 0.  1.
</event>
<event>
 5   0  0.1146083E-02  0.8138255E+03  0.7818609E-02  0.9540218E-01
       -1   -1    0    0    0  501  0.00000000000E+00  0.00000000000E+00  0.17027460351E+03  0.17027460358E+03  0.50400001928E-02 0.  1.
        1   -1    0    0  501    0  0.00000000000E+00  0.00000000000E+00 -0.97241730372E+03  0.97241730373E+03  0.50400001928E-02 0. -1.
    10030    2    1    2    0    0  0.00000000000E+00  0.00000000000E+00 -0.80214270021E+03  0.11426919073E+04  0.81382546258E+03 0.  0.
        4    1    3    3  502    0 -0.15234243164E+03  0.11506486465E+02  0.12847289142E+03  0.19961841708E+03  0.12699999809E+01 0.  1.
       -4    1    3    3    0  502  0.15234243164E+03 -0.11506486465E+02 -0.93061559162E+03  0.94307349023E+03  0.12699999809E+01 0. -1.
</event>
<event>
 5   0  0.1731337E-02  0.8479274E+03  0.7818609E-02  0.9493123E-01
        2   -1    0    0  501    0  0.00000000000E+00  0.00000000000E+00  0.68125657986E+03  0.68125657986E+03  0.25500000920E-02 0.  1.
       -2   -1    0    0    0  501  0.00000000000E+00  0.00000000000E+00 -0.26384366393E+03  0.26384366394E+03  0.25500000920E-02 0. -1.
    10030    2    1    2    0    0  0.00000000000E+00  0.00000000000E+00  0.41741291593E+03  0.94510024380E+03  0.84792743112E+03 0.  0.
        4    1    3    3  502    0  0.42141953825E+02  0.34295091560E+03  0.48252714926E+03  0.59348575169E+03  0.12699999809E+01 0.  1.
       -4    1    3    3    0  502 -0.42141953825E+02 -0.34295091560E+03 -0.65114233331E+02  0.35161449212E+03  0.12699999809E+01 0. -1.
</event>
<event>
 5   0  0.1030323E-02  0.7914121E+03  0.7818609E-02  0.9572532E-01
       -1   -1    0    0    0  501  0.00000000000E+00  0.00000000000E+00  0.20284318508E+03  0.20284318514E+03  0.50400001928E-02 0.  1.
        1   -1    0    0  501    0  0.00000000000E+00  0.00000000000E+00 -0.77194246728E+03  0.77194246730E+03  0.50400001928E-02 0. -1.
    10030    2    1    2    0    0  0.00000000000E+00  0.00000000000E+00 -0.56909928220E+03  0.97478565244E+03  0.79141207673E+03 0.  0.
        3    1    3    3  502    0 -0.12560236266E+03 -0.26029969852E+03 -0.61745489079E+03  0.68174954266E+03  0.10100000352E+00 0. -1.
       -3    1    3    3    0  502  0.12560236266E+03  0.26029969852E+03  0.48355608582E+02  0.29303610978E+03  0.10100000352E+00 0.  1.
</event>
<event>
 5   0  0.1673727E-02  0.7848857E+03  0.7818609E-02  0.9582156E-01
        2   -1    0    0  501    0  0.00000000000E+00  0.00000000000E+00  0.10718616888E+04  0.10718616888E+04  0.25500000920E-02 0. -1.
       -2   -1    0    0    0  501  0.00000000000E+00  0.00000000000E+00 -0.14368589016E+03  0.14368589018E+03  0.25500000920E-02 0.  1.
    10030    2    1    2    0    0  0.00000000000E+00  0.00000000000E+00  0.92817579868E+03  0.12155475790E+04  0.78488572646E+03 0.  0.
        5    1    3    3  502    0 -0.32846701392E+03  0.33317799908E+02  0.13560176651E+03  0.35694619217E+03  0.46999998093E+01 0.  1.
       -5    1    3    3    0  502  0.32846701392E+03 -0.33317799908E+02  0.79257403217E+03  0.85860138685E+03  0.46999998093E+01 0. -1.
</event>
<event>
 5   0  0.1030323E-02  0.7705976E+03  0.7818609E-02  0.9603579E-01
       -1   -1    0    0    0  501  0.00000000000E+00  0.00000000000E+00  0.47104416068E+03  0.47104416071E+03  0.50400001928E-02 0.  1.
        1   -1    0    0  501    0  0.00000000000E+00  0.00000000000E+00 -0.31516191897E+03  0.31516191901E+03  0.50400001928E-02 0. -1.
    10030    2    1    2    0    0  0.00000000000E+00  0.00000000000E+00  0.15588224171E+03  0.78620607972E+03  0.77059764242E+03 0.  0.
        3    1    3    3  502    0  0.32146344195E+03  0.15107009851E+03  0.23027804318E+03  0.42330710665E+03  0.10100000352E+00 0.  1.
       -3    1    3    3    0  502 -0.32146344195E+03 -0.15107009851E+03 -0.74395801463E+02  0.36289897306E+03  0.10100000352E+00 0. -1.
</event>
<event>
 5   0  0.1747544E-02  0.8018642E+03  0.7818609E-02  0.9557323E-01
       -2   -1    0    0    0  501  0.00000000000E+00  0.00000000000E+00  0.22348037227E+03  0.22348037228E+03  0.25500000920E-02 0.  1.
        2   -1    0    0  501    0  0.00000000000E+00  0.00000000000E+00 -0.71928711147E+03  0.71928711147E+03  0.25500000920E-02 0. -1.
    10030    2    1    2    0    0  0.00000000000E+00  0.00000000000E+00 -0.49580673920E+03  0.94276748376E+03  0.80186420658E+03 0.  0.
        1    1    3    3  502    0 -0.34406510842E+03  0.10504470948E+02 -0.62210277855E+01  0.34428163464E+03  0.50400001928E-02 0.  1.
       -1    1    3    3    0  502  0.34406510842E+03 -0.10504470948E+02 -0.48958571141E+03  0.59848584911E+03  0.50400001928E-02 0. -1.
</event>
<event>
 5   0  0.1030323E-02  0.7972546E+03  0.7818609E-02  0.9563999E-01
       -1   -1    0    0    0  501  0.00000000000E+00  0.00000000000E+00  0.83528508186E+02  0.83528508338E+02  0.50400001928E-02 0.  1.
        1   -1    0    0  501    0  0.00000000000E+00  0.00000000000E+00 -0.19023890769E+04  0.19023890769E+04  0.50400001928E-02 0. -1.
    10030    2    1    2    0    0  0.00000000000E+00  0.00000000000E+00 -0.18188605687E+04  0.19859175852E+04  0.79725459356E+03 0.  0.
        3    1    3    3  502    0  0.75030540971E+02  0.99515072006E+02 -0.18526104658E+04  0.18567978834E+04  0.10100000352E+00 0. -1.
       -3    1    3    3    0  502 -0.75030540971E+02 -0.99515072006E+02  0.33749897127E+02  0.12911970180E+03  0.10100000352E+00 0.  1.
</event>
<event>
 5   0  0.1673727E-02  0.8085205E+03  0.7818609E-02  0.9547765E-01
        2   -1    0    0  501    0  0.00000000000E+00  0.00000000000E+00  0.42898095941E+03  0.42898095942E+03  0.25500000920E-02 0.  1.
       -2   -1    0    0    0  501  0.00000000000E+00  0.00000000000E+00 -0.38096412002E+03  0.38096412002E+03  0.25500000920E-02 0. -1.
    10030    2    1    2    0    0  0.00000000000E+00  0.00000000000E+00  0.48016839393E+02  0.80994507944E+03  0.80852050985E+03 0.  0.
        5    1    3    3  502    0 -0.20789616806E+03  0.27462630841E+03 -0.18793902581E+03  0.39240743289E+03  0.46999998093E+01 0. -1.
       -5    1    3    3    0  502  0.20789616806E+03 -0.27462630841E+03  0.23595586520E+03  0.41753764655E+03  0.46999998093E+01 0.  1.
</event>
<event>
 5   0  0.1818665E-02  0.8177722E+03  0.7818609E-02  0.9534643E-01
       -2   -1    0    0    0  501  0.00000000000E+00  0.00000000000E+00  0.51515375916E+03  0.51515375917E+03  0.25500000920E-02 0. -1.
        2   -1    0    0  501    0  0.00000000000E+00  0.00000000000E+00 -0.32453971195E+03  0.32453971196E+03  0.25500000920E-02 0.  1.
    10030    2    1    2    0    0  0.00000000000E+00  0.00000000000E+00  0.19061404721E+03  0.83969347113E+03  0.81777222407E+03 0.  0.
        3    1    3    3  502    0  0.27505250196E+03  0.29256508413E+03  0.16172078672E+02  0.40188276103E+03  0.10100000352E+00 0.  1.
       -3    1    3    3    0  502 -0.27505250196E+03 -0.29256508413E+03  0.17444196854E+03  0.43781071010E+03  0.10100000352E+00 0. -1.
</event>
<event>
 5   0  0.1818665E-02  0.7814892E+03  0.7818609E-02  0.9587204E-01
       -2   -1    0    0    0  501  0.00000000000E+00  0.00000000000E+00  0.32999257257E+03  0.32999257258E+03  0.25500000920E-02 0. -1.
        2   -1    0    0  501    0  0.00000000000E+00  0.00000000000E+00 -0.46268109862E+03  0.46268109863E+03  0.25500000920E-02 0.  1.
    10030    2    1    2    0    0  0.00000000000E+00  0.00000000000E+00 -0.13268852606E+03  0.79267367120E+03  0.78148915800E+03 0.  0.
        3    1    3    3  502    0 -0.18179674205E+03 -0.28769700526E+03 -0.26108603540E+03  0.42893536849E+03  0.10100000352E+00 0.  1.
       -3    1    3    3    0  502  0.18179674205E+03  0.28769700526E+03  0.12839750934E+03  0.36373830272E+03  0.10100000352E+00 0. -1.
</event>
<event>
 5   0  0.1025900E-02  0.7921118E+03  0.7818609E-02  0.9571506E-01
        1   -1    0    0  501    0  0.00000000000E+00  0.00000000000E+00  0.11251230134E+04  0.11251230134E+04  0.50400001928E-02 0. -1.
       -1   -1    0    0    0  501  0.00000000000E+00  0.00000000000E+00 -0.13941611657E+03  0.13941611666E+03  0.50400001928E-02 0.  1.
    10030    2    1    2    0    0  0.00000000000E+00  0.00000000000E+00  0.98570689685E+03  0.12645391301E+04  0.79211181347E+03 0.  0.
        1    1    3    3  502    0  0.15105630370E+03 -0.10824321759E+03  0.10512009820E+04  0.10675008692E+04  0.50400001928E-02 0. -1.
       -1    1    3    3    0  502 -0.15105630370E+03  0.10824321759E+03 -0.65494085190E+02  0.19703826091E+03  0.50400001928E-02 0.  1.
</event>
<event>
 5   0  0.1146083E-02  0.8004787E+03  0.7818609E-02  0.9559324E-01
        1   -1    0    0  501    0  0.00000000000E+00  0.00000000000E+00  0.21906103434E+03  0.21906103440E+03  0.50400001928E-02 0. -1.
       -1   -1    0    0    0  501  0.00000000000E+00  0.00000000000E+00 -0.73126437405E+03  0.73126437407E+03  0.50400001928E-02 0.  1.
    10030    2    1    2    0    0  0.00000000000E+00  0.00000000000E+00 -0.51220333970E+03  0.95032540847E+03  0.80047868227E+03 0.  0.
        4    1    3    3  502    0 -0.66904057132E+01  0.96529024784E+02 -0.71716709193E+03  0.72366626618E+03  0.12699999809E+01 0.  1.
       -4    1    3    3    0  502  0.66904057132E+01 -0.96529024784E+02  0.20496375223E+03  0.22665914229E+03  0.12699999809E+01 0. -1.
</event>
<event>
 5   0  0.1025900E-02  0.7931270E+03  0.7818609E-02  0.9570019E-01
       -1   -1    0    0    0  501  0.00000000000E+00  0.00000000000E+00  0.23678629881E+03  0.23678629887E+03  0.50400001928E-02 0. -1.
        1   -1    0    0  501    0  0.00000000000E+00  0.00000000000E+00 -0.66415413654E+03  0.66415413656E+03  0.50400001928E-02 0.  1.
    10030    2    1    2    0    0  0.00000000000E+00  0.00000000000E+00 -0.42736783772E+03  0.90094043543E+03  0.79312697563E+03 0.  0.
        1    1    3    3  502    0 -0.12481763300E+03  0.22333186412E+02  0.21313798070E+03  0.24800405554E+03  0.50400001928E-02 0. -1.
       -1    1    3    3    0  502  0.12481763300E+03 -0.22333186412E+02 -0.64050581842E+03  0.65293637989E+03  0.50400001928E-02 0.  1.
</event>
<event>
 5   0  0.1049780E-02  0.7830440E+03  0.7818609E-02  0.9584890E-01
        1   -1    0    0  501    0  0.00000000000E+00  0.00000000000E+00  0.20362484837E+03  0.20362484843E+03  0.50400001928E-02 0.  1.
       -1   -1    0    0    0  501  0.00000000000E+00  0.00000000000E+00 -0.75280345040E+03  0.75280345042E+03  0.50400001928E-02 0. -1.
    10030    2    1    2    0    0  0.00000000000E+00  0.00000000000E+00 -0.54917860203E+03  0.95642829885E+03  0.78304403064E+03 0.  0.
        5    1    3    3  502    0 -0.25853753362E+03 -0.87273604893E+02 -0.61747889737E+03  0.67510044964E+03  0.46999998093E+01 0. -1.
       -5    1    3    3    0  502  0.25853753362E+03  0.87273604893E+02  0.68300295342E+02  0.28132784922E+03  0.46999998093E+01 0.  1.
</event>
<event>
 5   0  0.1030323E-02  0.7729372E+03  0.7818609E-02  0.9600037E-01
       -1   -1    0    0    0  501  0.00000000000E+00  0.00000000000E+00  0.17577380148E+03  0.17577380155E+03  0.50400001928E-02 0.  1.
        1   -1    0    0  501    0  0.00000000000E+00  0.00000000000E+00 -0.84971705520E+03  0.84971705521E+03  0.50400001928E-02 0. -1.
    10030    2    1    2    0    0  0.00000000000E+00  0.00000000000E+00 -0.67394325372E+03  0.10254908568E+04  0.77293724718E+03 0.  0.
        3    1    3    3  502    0  0.27973262033E+03  0.21124130481E+03 -0.12105525703E+03  0.37084715611E+03  0.10100000352E+00 0.  1.
       -3    1    3    3    0  502 -0.27973262033E+03 -0.21124130481E+03 -0.55288799668E+03  0.65464370066E+03  0.10100000352E+00 0. -1.
</event>
<event>
 5   0  0.1146083E-02  0.8004972E+03  0.7818609E-02  0.9559298E-01
        1   -1    0    0  501    0  0.00000000000E+00  0.00000000000E+00  0.10313857297E+04  0.10313857297E+04  0.50400001928E-02 0.  1.
       -1   -1    0    0    0  501  0.00000000000E+00  0.00000000000E+00 -0.15532399265E+03  0.15532399273E+03  0.50400001928E-02 0. -1.
    10030    2    1    2    0    0  0.00000000000E+00  0.00000000000E+00  0.87606173708E+03  0.11867097225E+04  0.80049721939E+03 0.  0.
        4    1    3    3  502    0 -0.25319383867E+02  0.38356904193E+03  0.60331786052E+03  0.71537426209E+03  0.12699999809E+01 0.  1.
       -4    1    3    3    0  502  0.25319383867E+02 -0.38356904193E+03  0.27274387655E+03  0.47133546039E+03  0.12699999809E+01 0. -1.
</event>
<event>
 5   0  0.1038912E-02  0.7996442E+03  0.7818609E-02  0.9560532E-01
       -1   -1    0    0    0  501  0.00000000000E+00  0.00000000000E+00  0.80955904002E+03  0.80955904003E+03  0.50400001928E-02 0. -1.
        1   -1    0    0  501    0  0.00000000000E+00  0.00000000000E+00 -0.19746271855E+03  0.19746271862E+03  0.50400001928E-02 0.  1.
    10030    2    1    2    0    0  0.00000000000E+00  0.00000000000E+00  0.61209632147E+03  0.10070217587E+04  0.79964424318E+03 0.  0.
        2    1    3    3  502    0 -0.11292896190E+03  0.29035864332E+02 -0.17557497782E+03  0.21076670681E+03  0.25500000920E-02 0.  1.
       -2    1    3    3    0  502  0.11292896190E+03 -0.29035864332E+02  0.78767129929E+03  0.79625505184E+03  0.25500000920E-02 0. -1.
</event>
<event>
 5   0  0.1817089E-02  0.8056018E+03  0.7818609E-02  0.9551944E-01
       -2   -1    0    0    0  501  0.00000000000E+00  0.00000000000E+00  0.36614150651E+03  0.36614150652E+03  0.25500000920E-02 0.  1.
        2   -1    0    0  501    0  0.00000000000E+00  0.00000000000E+00 -0.44313074958E+03  0.44313074959E+03  0.25500000920E-02 0. -1.
    10030    2    1    2    0    0  0.00000000000E+00  0.00000000000E+00 -0.76989243070E+02  0.80927225611E+03  0.80560178808E+03 0.  0.
        2    1    3    3  502    0  0.34475675500E+02 -0.33540155158E+02 -0.44023552349E+03  0.44285531538E+03  0.25500000920E-02 0. -1.
       -2    1    3    3    0  502 -0.34475675500E+02  0.33540155158E+02  0.36324628042E+03  0.36641694073E+03  0.25500000920E-02 0.  1.
</event>
<event>
 5   0  0.1049780E-02  0.8015310E+03  0.7818609E-02  0.9557804E-01
       -1   -1    0    0    0  501  0.00000000000E+00  0.00000000000E+00  0.61573531900E+03  0.61573531902E+03  0.50400001928E-02 0.  1.
        1   -1    0    0  501    0  0.00000000000E+00  0.00000000000E+00 -0.26084745957E+03  0.26084745962E+03  0.50400001928E-02 0. -1.
    10030    2    1    2    0    0  0.00000000000E+00  0.00000000000E+00  0.35488785943E+03  0.87658277864E+03  0.80153101939E+03 0.  0.
        5    1    3    3  502    0  0.24761648141E+03 -0.22463135670E+03 -0.64191946224E+02  0.34046418936E+03  0.46999998093E+01 0. -1.
       -5    1    3    3    0  502 -0.24761648141E+03  0.22463135670E+03  0.41907980565E+03  0.53611858929E+03  0.46999998093E+01 0.  1.
</event>
<event>
 5   0  0.1030323E-02  0.8012560E+03  0.7818609E-02  0.9558201E-01
        1   -1    0    0  501    0  0.00000000000E+00  0.00000000000E+00  0.25284027741E+03  0.25284027746E+03  0.50400001928E-02 0. -1.
       -1   -1    0    0    0  501  0.00000000000E+00  0.00000000000E+00 -0.63479915370E+03  0.63479915372E+03  0.50400001928E-02 0.  1.
    10030    2    1    2    0    0  0.00000000000E+00  0.00000000000E+00 -0.38195887628E+03  0.88763943118E+03  0.80125599942E+03 0.  0.
        3    1    3    3  502    0 -0.12146776759E+03  0.36725812171E+02 -0.61194663674E+03  0.62496551926E+03  0.10100000352E+00 0.  1.
       -3    1    3    3    0  502  0.12146776759E+03 -0.36725812171E+02  0.22998776046E+03  0.26267391192E+03  0.10100000352E+00 0. -1.
</event>
<event>
 5   0  0.1817089E-02  0.8114653E+03  0.7818609E-02  0.9543568E-01
       -2   -1    0    0    0  501  0.00000000000E+00  0.00000000000E+00  0.15185873585E+03  0.15185873588E+03  0.25500000920E-02 0. -1.
        2   -1    0    0  501    0  0.00000000000E+00  0.00000000000E+00 -0.10840271667E+04  0.10840271667E+04  0.25500000920E-02 0.  1.
    10030    2    1    2    0    0  0.00000000000E+00  0.00000000000E+00 -0.93216843081E+03  0.12358859025E+04  0.81146532933E+03 0.  0.
        2    1    3    3  502    0 -0.18274949266E+03  0.33878982993E+03 -0.27078529066E+03  0.47063850201E+03  0.25500000920E-02 0. -1.
       -2    1    3    3    0  502  0.18274949266E+03 -0.33878982993E+03 -0.66138314015E+03  0.76524740053E+03  0.25500000920E-02 0.  1.
</event>
<event>
 5   0  0.1038912E-02  0.8160943E+03  0.7818609E-02  0.9537009E-01
       -1   -1    0    0    0  501  0.00000000000E+00  0.00000000000E+00  0.15515513978E+03  0.15515513986E+03  0.50400001928E-02 0. -1.
        1   -1    0    0  501    0  0.00000000000E+00  0.00000000000E+00 -0.10731353364E+04  0.10731353364E+04  0.50400001928E-02 0.  1.
    10030    2    1    2    0    0  0.00000000000E+00  0.00000000000E+00 -0.91798019657E+03  0.12282904762E+04  0.81609426702E+03 0.  0.
        2    1    3    3  502    0  0.27098998324E+03 -0.99587190240E+02 -0.89299038217E+03  0.93850146624E+03  0.25500000920E-02 0.  1.
       -2    1    3    3    0  502 -0.27098998324E+03  0.99587190240E+02 -0.24989814405E+02  0.28978900998E+03  0.25500000920E-02 0. -1.
</event>
<event>
 5   0  0.1049780E-02  0.7981969E+03  0.7818609E-02  0.9562631E-01
       -1   -1    0    0    0  501  0.00000000000E+00  0.00000000000E+00  0.66970516119E+02  0.66970516309E+02  0.50400001928E-02 0.  1.
        1   -1    0    0  501    0  0.00000000000E+00  0.00000000000E+00 -0.23783535990E+04  0.23783535990E+04  0.50400001928E-02 0. -1.
    10030    2    1    2    0    0  0.00000000000E+00  0.00000000000E+00 -0.23113830829E+04  0.24453241154E+04  0.79819688869E+03 0.  0.
        5    1    3    3  502    0  0.96597828301E+02 -0.37723366534E+03 -0.88824608857E+03  0.96986575492E+03  0.46999998093E+01 0.  1.
       -5    1    3    3    0  502 -0.96597828301E+02  0.37723366534E+03 -0.14231369944E+04  0.14754583604E+04  0.46999998093E+01 0. -1.
</event>
<event>
 5   0  0.1747544E-02  0.8065749E+03  0.7818609E-02  0.9550549E-01
        2   -1    0    0  501    0  0.00000000000E+00  0.00000000000E+00  0.48435139989E+03  0.48435139990E+03  0.25500000920E-02 0.  1.
       -2   -1    0    0    0  501  0.00000000000E+00  0.00000000000E+00 -0.33579087932E+03  0.33579087933E+03  0.25500000920E-02 0. -1.
    10030    2    1    2    0    0  0.00000000000E+00  0.00000000000E+00  0.14856052058E+03  0.82014227923E+03  0.80657493756E+03 0.  0.
        1    1    3    3  502    0 -0.13547149060E+03  0.30005790478E+03  0.31112208798E+03  0.45297265330E+03  0.50400001928E-02 0.  1.
       -1    1    3    3    0  502  0.13547149060E+03 -0.30005790478E+03 -0.16256156740E+03  0.36716962593E+03  0.50400001928E-02 0. -1.
</event>
<event>
 5   0  0.1817089E-02  0.7778616E+03  0.7818609E-02  0.9592626E-01
       -2   -1    0    0    0  501  0.00000000000E+00  0.00000000000E+00  0.14618703656E+03  0.14618703658E+03  0.25500000920E-02 0. -1.
        2   -1    0    0  501    0  0.00000000000E+00  0.00000000000E+00 -0.10347509666E+04  0.10347509666E+04  0.25500000920E-02 0.  1.
    10030    2    1    2    0    0  0.00000000000E+00  0.00000000000E+00 -0.88856393007E+03  0.11809380032E+04  0.77786162627E+03 0.  0.
        2    1    3    3  502    0  0.10145889102E+03  0.78660479224E-01 -0.10143059501E+04  0.10193676830E+04  0.25500000920E-02 0.  1.
       -2    1    3    3    0  502 -0.10145889102E+03 -0.78660479224E-01  0.12574202004E+03  0.16157032019E+03  0.25500000920E-02 0. -1.
</event>
<event>
 5   0  0.1731337E-02  0.7997603E+03  0.7818609E-02  0.9560364E-01
       -2   -1    0    0    0  501  0.00000000000E+00  0.00000000000E+00  0.60068761431E+03  0.60068761431E+03  0.25500000920E-02 0. -1.
        2   -1    0    0  501    0  0.00000000000E+00  0.00000000000E+00 -0.26620183197E+03  0.26620183198E+03  0.25500000920E-02 0.  1.
    10030    2    1    2    0    0  0.00000000000E+00  0.00000000000E+00  0.33448578234E+03  0.86688944629E+03  0.79976032254E+03 0.  0.
        4    1    3    3  502    0  0.14700442380E+03 -0.78473398463E+02  0.56125666893E+03  0.58547334372E+03  0.12699999809E+01 0. -1.
       -4    1    3    3    0  502 -0.14700442380E+03  0.78473398463E+02 -0.22677088659E+03  0.28141610258E+03  0.12699999809E+01 0.  1.
</event>
<event>
 5   0  0.1673727E-02  0.7988634E+03  0.7818609E-02  0.9561664E-01
       -2   -1    0    0    0  501  0.00000000000E+00  0.00000000000E+00  0.17531199163E+03  0.17531199165E+03  0.25500000920E-02 0.  1.
        2   -1    0    0  501    0  0.00000000000E+00  0.00000000000E+00 -0.91006722624E+03  0.91006722624E+03  0.25500000920E-02 0. -1.
    10030    2    1    2    0    0  0.00000000000E+00  0.00000000000E+00 -0.73475523461E+03  0.10853792179E+04  0.79886343755E+03 0.  0.
        5    1    3    3  502    0 -0.98162718976E+02  0.17883356888E+02 -0.89282365009E+03  0.89839406388E+03  0.46999998093E+01 0. -1.
       -5    1    3    3    0  502  0.98162718976E+02 -0.17883356888E+02  0.15806841548E+03  0.18698515402E+03  0.46999998093E+01 0.  1.
</event>
<event>
 5   0  0.1731337E-02  0.7978977E+03  0.7818609E-02  0.9563065E-01
        2   -1    0    0  501    0  0.00000000000E+00  0.00000000000E+00  0.53166288565E+03  0.53166288566E+03  0.25500000920E-02 0.  1.
       -2   -1    0    0    0  501  0.00000000000E+00  0.00000000000E+00 -0.29936298577E+03  0.29936298579E+03  0.25500000920E-02 0. -1.
    10030    2    1    2    0    0  0.00000000000E+00  0.00000000000E+00  0.23229989987E+03  0.83102587144E+03  0.79789770994E+03 0.  0.
        4    1    3    3  502    0  0.59169551506E+02 -0.30847124913E+03  0.37233623921E+03  0.48712568737E+03  0.12699999809E+01 0.  1.
       -4    1    3    3    0  502 -0.59169551506E+02  0.30847124913E+03 -0.14003633934E+03  0.34390018407E+03  0.12699999809E+01 0. -1.
</event>
<event>
 5   0  0.1747544E-02  0.8041552E+03  0.7818609E-02  0.9554022E-01
        2   -1    0    0  501    0  0.00000000000E+00  0.00000000000E+00  0.66781053827E+03  0.66781053828E+03  0.25500000920E-02 0. -1.
       -2   -1    0    0    0  501  0.00000000000E+00  0.00000000000E+00 -0.24208424454E+03  0.24208424455E+03  0.25500000920E-02 0.  1.
    10030    2    1    2    0    0  0.00000000000E+00  0.00000000000E+00  0.42572629373E+03  0.90989478283E+03  0.80415523293E+03 0.  0.
        1    1    3    3  502    0 -0.12689814399E+03 -0.31710091102E+03 -0.27189861994E+02  0.34263014365E+03  0.50400001928E-02 0.  1.
       -1    1    3    3    0  502  0.12689814399E+03  0.31710091102E+03  0.45291615573E+03  0.56726463918E+03  0.50400001928E-02 0. -1.
</event>
<event>
 5   0  0.1038912E-02  0.8047514E+03  0.7818609E-02  0.9553165E-01
        1   -1    0    0  501    0  0.00000000000E+00  0.00000000000E+00  0.13893352394E+04  0.13893352394E+04  0.50400001928E-02 0.  1.
       -1   -1    0    0    0  501  0.00000000000E+00  0.00000000000E+00 -0.11653502305E+03  0.11653502316E+03  0.50400001928E-02 0. -1.
    10030    2    1    2    0    0  0.00000000000E+00  0.00000000000E+00  0.12728002164E+04  0.15058702626E+04  0.80475142558E+03 0.  0.
        2    1    3    3  502    0 -0.17918420092E+03 -0.28873279337E+03  0.23318448380E+03  0.41212693107E+03  0.25500000920E-02 0. -1.
       -2    1    3    3    0  502  0.17918420092E+03  0.28873279337E+03  0.10396157326E+04  0.10937433315E+04  0.25500000920E-02 0.  1.
</event>
<event>
 5   0  0.1817089E-02  0.8129061E+03  0.7818609E-02  0.9541522E-01
        2   -1    0    0  501    0  0.00000000000E+00  0.00000000000E+00  0.17962374618E+03  0.17962374620E+03  0.25500000920E-02 0.  1.
       -2   -1    0    0    0  501  0.00000000000E+00  0.00000000000E+00 -0.91972299742E+03  0.91972299742E+03  0.25500000920E-02 0. -1.
    10030    2    1    2    0    0  0.00000000000E+00  0.00000000000E+00 -0.74009925124E+03  0.10993467436E+04  0.81290612068E+03 0.  0.
        2    1    3    3  502    0  0.25463119157E+03 -0.26995010433E+03 -0.59428966853E+03  0.70063564902E+03  0.25500000920E-02 0. -1.
       -2    1    3    3    0  502 -0.25463119157E+03  0.26995010433E+03 -0.14580958270E+03  0.39871109461E+03  0.25500000920E-02 0.  1.
</event>
<event>
 5   0  0.1818665E-02  0.7980798E+03  0.7818609E-02  0.9562801E-01
        2   -1    0    0  501    0  0.00000000000E+00  0.00000000000E+00  0.30046350268E+03  0.30046350269E+03  0.25500000920E-02 0. -1.
       -2   -1    0    0    0  501  0.00000000000E+00  0.00000000000E+00 -0.52995729537E+03  0.52995729538E+03  0.25500000920E-02 0.  1.
    10030    2    1    2    0    0  0.00000000000E+00  0.00000000000E+00 -0.22949379270E+03  0.83042079806E+03  0.79807975853E+03 0.  0.
        3    1    3    3  502    0 -0.98106373259E+02  0.18122168115E+03 -0.47030562497E+03  0.51347205306E+03  0.10100000352E+00 0.  1.
       -3    1    3    3    0  502  0.98106373259E+02 -0.18122168115E+03  0.24081183227E+03  0.31694874500E+03  0.10100000352E+00 0. -1.
</event>
<event>
 5   0  0.6872500E-03  0.7951081E+03  0.7818609E-02  0.9567125E-01
        4   -1    0    0  501    0  0.00000000000E+00  0.00000000000E+00  0.17708082514E+03  0.17708537921E+03  0.12699999809E+01 0. -1.
       -4   -1    0    0    0  501  0.00000000000E+00  0.00000000000E+00 -0.89250941180E+03  0.89251031538E+03  0.12699999809E+01 0.  1.
    10030    2    1    2    0    0  0.00000000000E+00  0.00000000000E+00 -0.71542858666E+03  0.10695956946E+04  0.79510809785E+03 0.  0.
        2    1    3    3  502    0  0.51224138659E+02 -0.39174890314E+03 -0.41724096552E+03  0.57461390411E+03  0.25500000920E-02 0.  1.
       -2    1    3    3    0  502 -0.51224138659E+02  0.39174890314E+03 -0.29818762115E+03  0.49498179048E+03  0.25500000920E-02 0. -1.
</event>
<event>
 5   0  0.1747544E-02  0.7952339E+03  0.7818609E-02  0.9566942E-01
       -2   -1    0    0    0  501  0.00000000000E+00  0.00000000000E+00  0.65043420713E+03  0.65043420713E+03  0.25500000920E-02 0. -1.
        2   -1    0    0  501    0  0.00000000000E+00  0.00000000000E+00 -0.24306720646E+03  0.24306720647E+03  0.25500000920E-02 0.  1.
    10030    2    1    2    0    0  0.00000000000E+00  0.00000000000E+00  0.40736700067E+03  0.89350141361E+03  0.79523386679E+03 0.  0.
        1    1    3    3  502    0 -0.36793775604E+03 -0.14585525156E+03  0.16093936830E+03  0.42726271429E+03  0.50400001928E-02 0.  1.
       -1    1    3    3    0  502  0.36793775604E+03  0.14585525156E+03  0.24642763237E+03  0.46623869932E+03  0.50400001928E-02 0. -1.
</event>
<event>
 5   0  0.1025900E-02  0.7993789E+03  0.7818609E-02  0.9560917E-01
       -1   -1    0    0    0  501  0.00000000000E+00  0.00000000000E+00  0.19699774773E+03  0.19699774780E+03  0.50400001928E-02 0. -1.
        1   -1    0    0  501    0  0.00000000000E+00  0.00000000000E+00 -0.81093134100E+03  0.81093134102E+03  0.50400001928E-02 0.  1.
    10030    2    1    2    0    0  0.00000000000E+00  0.00000000000E+00 -0.61393359327E+03  0.10079290888E+04  0.79937887834E+03 0.  0.
        1    1    3    3  502    0 -0.88311030838E+02  0.62923232143E+02  0.17809670355E+03  0.20851044854E+03  0.50400001928E-02 0. -1.
       -1    1    3    3    0  502  0.88311030838E+02 -0.62923232143E+02 -0.79203029682E+03  0.79941864027E+03  0.50400001928E-02 0.  1.
</event>
<event>
 5   0  0.1817089E-02  0.9238122E+03  0.7818609E-02  0.9396295E-01
       -2   -1    0    0    0  501  0.00000000000E+00  0.00000000000E+00  0.64932273968E+03  0.64932273968E+03  0.25500000920E-02 0.  1.
        2   -1    0    0  501    0  0.00000000000E+00  0.00000000000E+00 -0.32858429315E+03  0.32858429316E+03  0.25500000920E-02 0. -1.
    10030    2    1    2    0    0  0.00000000000E+00  0.00000000000E+00  0.32073844652E+03  0.97790703284E+03  0.92381221782E+03 0.  0.
        2    1    3    3  502    0 -0.26204526674E+03 -0.36946744321E+03  0.25612812717E+03  0.52036096217E+03  0.25500000920E-02 0. -1.
       -2    1    3    3    0  502  0.26204526674E+03  0.36946744321E+03  0.64610319358E+02  0.45754607067E+03  0.25500000920E-02 0.  1.
</event>
<event>
 5   0  0.1030323E-02  0.8000814E+03  0.7818609E-02  0.9559899E-01
       -1   -1    0    0    0  501  0.00000000000E+00  0.00000000000E+00  0.18045995419E+03  0.18045995426E+03  0.50400001928E-02 0. -1.
        1   -1    0    0  501    0  0.00000000000E+00  0.00000000000E+00 -0.88680380556E+03  0.88680380557E+03  0.50400001928E-02 0.  1.
    10030    2    1    2    0    0  0.00000000000E+00  0.00000000000E+00 -0.70634385137E+03  0.10672637598E+04  0.80008143128E+03 0.  0.
        3    1    3    3  502    0  0.61773334056E+02  0.18974255190E+03  0.10933238803E+03  0.22753408992E+03  0.10100000352E+00 0. -1.
       -3    1    3    3    0  502 -0.61773334056E+02 -0.18974255190E+03 -0.81567623940E+03  0.83972966991E+03  0.10100000352E+00 0.  1.
</event>
<event>
 5   0  0.1673727E-02  0.8298879E+03  0.7818609E-02  0.9517736E-01
        2   -1    0    0  501    0  0.00000000000E+00  0.00000000000E+00  0.71734715541E+03  0.71734715542E+03  0.25500000920E-02 0. -1.
       -2   -1    0    0    0  501  0.00000000000E+00  0.00000000000E+00 -0.24002113646E+03  0.24002113647E+03  0.25500000920E-02 0.  1.
    10030    2    1    2    0    0  0.00000000000E+00  0.00000000000E+00  0.47732601895E+03  0.95736829189E+03  0.82988789481E+03 0.  0.
        5    1    3    3  502    0 -0.10588906854E+03 -0.76006133520E+01 -0.22405766681E+03  0.24798022545E+03  0.46999998093E+01 0.  1.
       -5    1    3    3    0  502  0.10588906854E+03  0.76006133520E+01  0.70138368576E+03  0.70938806644E+03  0.46999998093E+01 0. -1.
</event>
<event>
 5   0  0.1038912E-02  0.8277077E+03  0.7818609E-02  0.9520755E-01
       -1   -1    0    0    0  501  0.00000000000E+00  0.00000000000E+00  0.16431900563E+03  0.16431900571E+03  0.50400001928E-02 0. -1.
        1   -1    0    0  501    0  0.00000000000E+00  0.00000000000E+00 -0.10423324045E+04  0.10423324045E+04  0.50400001928E-02 0.  1.
    10030    2    1    2    0    0  0.00000000000E+00  0.00000000000E+00 -0.87801339889E+03  0.12066514102E+04  0.82770773659E+03 0.  0.
        2    1    3    3  502    0 -0.11510056866E+03 -0.39659012965E+03 -0.39926524409E+03  0.57440804921E+03  0.25500000920E-02 0. -1.
       -2    1    3    3    0  502  0.11510056866E+03  0.39659012965E+03 -0.47874815479E+03  0.63224336103E+03  0.25500000920E-02 0.  1.
</event>
<event>
 5   0  0.1731337E-02  0.7947801E+03  0.7818609E-02  0.9567604E-01
       -2   -1    0    0    0  501  0.00000000000E+00  0.00000000000E+00  0.23853310513E+03  0.23853310514E+03  0.25500000920E-02 0. -1.
        2   -1    0    0  501    0  0.00000000000E+00  0.00000000000E+00 -0.66204171893E+03  0.66204171894E+03  0.25500000920E-02 0.  1.
    10030    2    1    2    0    0  0.00000000000E+00  0.00000000000E+00 -0.42350861381E+03  0.90057482408E+03  0.79478013802E+03 0.  0.
        4    1    3    3  502    0  0.35416834759E+03 -0.16168280302E+03 -0.12152624414E+03  0.40785633273E+03  0.12699999809E+01 0. -1.
       -4    1    3    3    0  502 -0.35416834759E+03  0.16168280302E+03 -0.30198236967E+03  0.49271849135E+03  0.12699999809E+01 0.  1.
</event>
<event>
 5   0  0.1025900E-02  0.8005677E+03  0.7818609E-02  0.9559196E-01
       -1   -1    0    0    0  501  0.00000000000E+00  0.00000000000E+00  0.35368930027E+03  0.35368930030E+03  0.50400001928E-02 0. -1.
        1   -1    0    0  501    0  0.00000000000E+00  0.00000000000E+00 -0.45301671178E+03  0.45301671181E+03  0.50400001928E-02 0.  1.
    10030    2    1    2    0    0  0.00000000000E+00  0.00000000000E+00 -0.99327411514E+02  0.80670601211E+03  0.80056770813E+03 0.  0.
        1    1    3    3  502    0 -0.31882552732E+03  0.11984677367E+03  0.16222026350E+03  0.37726433696E+03  0.50400001928E-02 0. -1.
       -1    1    3    3    0  502  0.31882552732E+03 -0.11984677367E+03 -0.26154767501E+03  0.42944167515E+03  0.50400001928E-02 0.  1.
</event>
<event>
 5   0  0.1747544E-02  0.8058812E+03  0.7818609E-02  0.9551543E-01
       -2   -1    0    0    0  501  0.00000000000E+00  0.00000000000E+00  0.69210956420E+03  0.69210956420E+03  0.25500000920E-02 0.  1.
        2   -1    0    0  501    0  0.00000000000E+00  0.00000000000E+00 -0.23458877468E+03  0.23458877469E+03  0.25500000920E-02 0. -1.
    10030    2    1    2    0    0  0.00000000000E+00  0.00000000000E+00  0.45752078952E+03  0.92669833889E+03  0.80588121858E+03 0.  0.
        1    1    3    3  502    0  0.13713040568E+03  0.16323793371E+03 -0.16442080262E+03  0.26923144602E+03  0.50400001928E-02 0. -1.
       -1    1    3    3    0  502 -0.13713040568E+03 -0.16323793371E+03  0.62194159214E+03  0.65746689287E+03  0.50400001928E-02 0.  1.
</event>
<event>
 5   0  0.1146083E-02  0.8317884E+03  0.7818609E-02  0.9515111E-01
        1   -1    0    0  501    0  0.00000000000E+00  0.00000000000E+00  0.42656487371E+03  0.42656487374E+03  0.50400001928E-02 0. -1.
       -1   -1    0    0    0  501  0.00000000000E+00  0.00000000000E+00 -0.40549050511E+03  0.40549050514E+03  0.50400001928E-02 0.  1.
    10030    2    1    2    0    0  0.00000000000E+00  0.00000000000E+00  0.21074368598E+02  0.83205537888E+03  0.83178844937E+03 0.  0.
        4    1    3    3  502    0 -0.29210480147E+03 -0.19983149449E+03 -0.20795578411E+03  0.41049368116E+03  0.12699999809E+01 0.  1.
       -4    1    3    3    0  502  0.29210480147E+03  0.19983149449E+03  0.22903015271E+03  0.42156169772E+03  0.12699999809E+01 0. -1.
</event>
<event>
 5   0  0.6872500E-03  0.8015760E+03  0.7818609E-02  0.9557739E-01
       -3   -1    0    0    0  501  0.00000000000E+00  0.00000000000E+00  0.69590629285E+02  0.69590702578E+02  0.10100000352E+00 0.  1.
        3   -1    0    0  501    0  0.00000000000E+00  0.00000000000E+00 -0.23082266431E+04  0.23082266454E+04  0.10100000352E+00 0. -1.
    10030    2    1    2    0    0  0.00000000000E+00  0.00000000000E+00 -0.22386360139E+04  0.23778173479E+04  0.80157603356E+03 0.  0.
        1    1    3    3  502    0 -0.37382231748E+03 -0.81436783878E+02 -0.76513151426E+03  0.85545386138E+03  0.50400001928E-02 0.  1.
       -1    1    3    3    0  502  0.37382231748E+03  0.81436783878E+02 -0.14735044996E+04  0.15223634865E+04  0.50400001928E-02 0. -1.
</event>
<event>
 5   0  0.1818665E-02  0.8055621E+03  0.7818609E-02  0.9552001E-01
        2   -1    0    0  501    0  0.00000000000E+00  0.00000000000E+00  0.91998666105E+03  0.91998666106E+03  0.25500000920E-02 0.  1.
       -2   -1    0    0    0  501  0.00000000000E+00  0.00000000000E+00 -0.17634233179E+03  0.17634233180E+03  0.25500000920E-02 0. -1.
    10030    2    1    2    0    0  0.00000000000E+00  0.00000000000E+00  0.74364432927E+03  0.10963289929E+04  0.80556214666E+03 0.  0.
        3    1    3    3  502    0  0.29075119016E+03  0.14115127637E+03  0.69893906025E+03  0.77004919164E+03  0.10100000352E+00 0.  1.
       -3    1    3    3    0  502 -0.29075119016E+03 -0.14115127637E+03  0.44705269017E+02  0.32627980122E+03  0.10100000352E+00 0. -1.
</event>
<event>
 5   0  0.1030323E-02  0.8039310E+03  0.7818609E-02  0.9554345E-01
       -1   -1    0    0    0  501  0.00000000000E+00  0.00000000000E+00  0.89728843208E+02  0.89728843349E+02  0.50400001928E-02 0. -1.
        1   -1    0    0  501    0  0.00000000000E+00  0.00000000000E+00 -0.18007168927E+04  0.18007168927E+04  0.50400001928E-02 0.  1.
    10030    2    1    2    0    0  0.00000000000E+00  0.00000000000E+00 -0.17109880494E+04  0.18904457360E+04  0.80393095192E+03 0.  0.
        3    1    3    3  502    0  0.86603874798E+02  0.94304499314E+02  0.40495323325E+02  0.13428868580E+03  0.10100000352E+00 0. -1.
       -3    1    3    3    0  502 -0.86603874798E+02 -0.94304499314E+02 -0.17514833728E+04  0.17561570502E+04  0.10100000352E+00 0.  1.
</event>
<event>
 5   0  0.1747544E-02  0.7718228E+03  0.7818609E-02  0.9601722E-01
        2   -1    0    0  501    0  0.00000000000E+00  0.00000000000E+00  0.62154064352E+03  0.62154064352E+03  0.25500000920E-02 0. -1.
       -2   -1    0    0    0  501  0.00000000000E+00  0.00000000000E+00 -0.23961040173E+03  0.23961040175E+03  0.25500000920E-02 0.  1.
    10030    2    1    2    0    0  0.00000000000E+00  0.00000000000E+00  0.38193024178E+03  0.86115104527E+03  0.77182278613E+03 0.  0.
        1    1    3    3  502    0 -0.32288644243E+03  0.72788392430E+02  0.41235889021E+03  0.52876616679E+03  0.50400001928E-02 0. -1.
       -1    1    3    3    0  502  0.32288644243E+03 -0.72788392430E+02 -0.30428648428E+02  0.33238487849E+03  0.50400001928E-02 0.  1.
</event>
<event>
 5   0  0.1146083E-02  0.8063855E+03  0.7818609E-02  0.9550820E-01
        1   -1    0    0  501    0  0.00000000000E+00  0.00000000000E+00  0.60746920797E+03  0.60746920799E+03  0.50400001928E-02 0. -1.
       -1   -1    0    0    0  501  0.00000000000E+00  0.00000000000E+00 -0.26760925034E+03  0.26760925039E+03  0.50400001928E-02 0.  1.
    10030    2    1    2    0    0  0.00000000000E+00  0.00000000000E+00  0.33985995763E+03  0.87507845837E+03  0.80638546460E+03 0.  0.
        4    1    3    3  502    0  0.35702588610E+03  0.57492149874E+02 -0.23555834712E+02  0.36239387535E+03  0.12699999809E+01 0.  1.
       -4    1    3    3    0  502 -0.35702588610E+03 -0.57492149874E+02  0.36341579234E+03  0.51268458302E+03  0.12699999809E+01 0. -1.
</event>
<event>
 5   0  0.1818665E-02  0.8008942E+03  0.7818609E-02  0.9558724E-01
        2   -1    0    0  501    0  0.00000000000E+00  0.00000000000E+00  0.18586945611E+04  0.18586945611E+04  0.25500000920E-02 0. -1.
       -2   -1    0    0    0  501  0.00000000000E+00  0.00000000000E+00 -0.86274465999E+02  0.86274466037E+02  0.25500000920E-02 0.  1.
    10030    2    1    2    0    0  0.00000000000E+00  0.00000000000E+00  0.17724200951E+04  0.19449690271E+04  0.80089420213E+03 0.  0.
        3    1    3    3  502    0 -0.28087122402E+03  0.53891304275E+02  0.15669041198E+04  0.15927904596E+04  0.10100000352E+00 0. -1.
       -3    1    3    3    0  502  0.28087122402E+03 -0.53891304275E+02  0.20551597527E+03  0.35217856757E+03  0.10100000352E+00 0.  1.
</event>
<event>
 5   0  0.1146083E-02  0.8036051E+03  0.7818609E-02  0.9554813E-01
       -1   -1    0    0    0  501  0.00000000000E+00  0.00000000000E+00  0.11723237472E+04  0.11723237472E+04  0.50400001928E-02 0. -1.
        1   -1    0    0  501    0  0.00000000000E+00  0.00000000000E+00 -0.13771392173E+03  0.13771392182E+03  0.50400001928E-02 0.  1.
    10030    2    1    2    0    0  0.00000000000E+00  0.00000000000E+00  0.10346098255E+04  0.13100376691E+04  0.80360512899E+03 0.  0.
        4    1    3    3  502    0  0.12614709377E+03  0.27518641740E+02  0.11375814520E+04  0.11448858187E+04  0.12699999809E+01 0. -1.
       -4    1    3    3    0  502 -0.12614709377E+03 -0.27518641740E+02 -0.10297162654E+03  0.16515185037E+03  0.12699999809E+01 0.  1.
</event>
<event>
 5   0  0.1049780E-02  0.8013586E+03  0.7818609E-02  0.9558053E-01
        1   -1    0    0  501    0  0.00000000000E+00  0.00000000000E+00  0.19836612309E+03  0.19836612316E+03  0.50400001928E-02 0.  1.
       -1   -1    0    0    0  501  0.00000000000E+00  0.00000000000E+00 -0.80933117071E+03  0.80933117073E+03  0.50400001928E-02 0. -1.
    10030    2    1    2    0    0  0.00000000000E+00  0.00000000000E+00 -0.61096504762E+03  0.10076972939E+04  0.80135856312E+03 0.  0.
        5    1    3    3  502    0 -0.34058967632E+02  0.18678126811E+03  0.13817053226E+03  0.23486260106E+03  0.46999998093E+01 0.  1.
       -5    1    3    3    0  502  0.34058967632E+02 -0.18678126811E+03 -0.74913557988E+03  0.77283469282E+03  0.46999998093E+01 0. -1.
</event>
<event>
 5   0  0.1146083E-02  0.7973562E+03  0.7818609E-02  0.9563852E-01
       -1   -1    0    0    0  501  0.00000000000E+00  0.00000000000E+00  0.97536914209E+02  0.97536914339E+02  0.50400001928E-02 0. -1.
        1   -1    0    0  501    0  0.00000000000E+00  0.00000000000E+00 -0.16295802981E+04  0.16295802981E+04  0.50400001928E-02 0.  1.
    10030    2    1    2    0    0  0.00000000000E+00  0.00000000000E+00 -0.15320433839E+04  0.17271172124E+04  0.79735621613E+03 0.  0.
        4    1    3    3  502    0 -0.26370732245E+03  0.44531601726E+02 -0.12559433568E+03  0.29546601415E+03  0.12699999809E+01 0. -1.
       -4    1    3    3    0  502  0.26370732245E+03 -0.44531601726E+02 -0.14064490482E+04  0.14316511983E+04  0.12699999809E+01 0.  1.
</event>
<event>
 5   0  0.1049780E-02  0.8009277E+03  0.7818609E-02  0.9558675E-01
       -1   -1    0    0    0  501  0.00000000000E+00  0.00000000000E+00  0.47230376239E+03  0.47230376241E+03  0.50400001928E-02 0.  1.
        1   -1    0    0  501    0  0.00000000000E+00  0.00000000000E+00 -0.33955115334E+03  0.33955115337E+03  0.50400001928E-02 0. -1.
    10030    2    1    2    0    0  0.00000000000E+00  0.00000000000E+00  0.13275260905E+03  0.81185491579E+03  0.80092768030E+03 0.  0.
        5    1    3    3  502    0 -0.32440207188E+03  0.19019475734E+03 -0.73118266735E+02  0.38311763323E+03  0.46999998093E+01 0. -1.
       -5    1    3    3    0  502  0.32440207188E+03 -0.19019475734E+03  0.20587087579E+03  0.42873728256E+03  0.46999998093E+01 0.  1.
</event>
<event>
 5   0  0.1817089E-02  0.7958920E+03  0.7818609E-02  0.9565982E-01
       -2   -1    0    0    0  501  0.00000000000E+00  0.00000000000E+00  0.78198617728E+02  0.78198617770E+02  0.25500000920E-02 0. -1.
        2   -1    0    0  501    0  0.00000000000E+00  0.00000000000E+00 -0.20251127124E+04  0.20251127124E+04  0.25500000920E-02 0.  1.
    10030    2    1    2    0    0  0.00000000000E+00  0.00000000000E+00 -0.19469140947E+04  0.21033113302E+04  0.79589198991E+03 0.  0.
        2    1    3    3  502    0  0.13595048994E+03 -0.37306623861E+03 -0.10433796047E+04  0.11163789472E+04  0.25500000920E-02 0. -1.
       -2    1    3    3    0  502 -0.13595048994E+03  0.37306623861E+03 -0.90353448993E+03  0.98693238299E+03  0.25500000920E-02 0.  1.
</event>
<event>
 5   0  0.1731337E-02  0.7993293E+03  0.7818609E-02  0.9560988E-01
        2   -1    0    0  501    0  0.00000000000E+00  0.00000000000E+00  0.35890879440E+03  0.35890879441E+03  0.25500000920E-02 0.  1.
       -2   -1    0    0    0  501  0.00000000000E+00  0.00000000000E+00 -0.44504853101E+03  0.44504853101E+03  0.25500000920E-02 0. -1.
    10030    2    1    2    0    0  0.00000000000E+00  0.00000000000E+00 -0.86139736609E+02  0.80395732542E+03  0.79932929814E+03 0.  0.
        4    1    3    3  502    0 -0.35511052711E+03 -0.17296546755E+03  0.18189914614E+02  0.39541500392E+03  0.12699999809E+01 0. -1.
       -4    1    3    3    0  502  0.35511052711E+03  0.17296546755E+03 -0.10432965122E+03  0.40854232150E+03  0.12699999809E+01 0.  1.
</event>
<event>
 5   0  0.1673727E-02  0.8818772E+03  0.7818609E-02  0.9448524E-01
        2   -1    0    0  501    0  0.00000000000E+00  0.00000000000E+00  0.11210038674E+04  0.11210038674E+04  0.25500000920E-02 0.  1.
       -2   -1    0    0    0  501  0.00000000000E+00  0.00000000000E+00 -0.17343995904E+03  0.17343995906E+03  0.25500000920E-02 0. -1.
    10030    2    1    2    0    0  0.00000000000E+00  0.00000000000E+00  0.94756390833E+03  0.12944438264E+04  0.88187723603E+03 0.  0.
        5    1    3    3  502    0  0.42506414110E+03 -0.65706368535E+02  0.61615309832E+03  0.75144100333E+03  0.46999998093E+01 0.  1.
       -5    1    3    3    0  502 -0.42506414110E+03  0.65706368535E+02  0.33141081001E+03  0.54300282311E+03  0.46999998093E+01 0. -1.
</event>
<event>
 5   0  0.1673727E-02  0.7991813E+03  0.7818609E-02  0.9561203E-01
       -2   -1    0    0    0  501  0.00000000000E+00  0.00000000000E+00  0.15017478816E+03  0.15017478818E+03  0.25500000920E-02 0. -1.
        2   -1    0    0  501    0  0.00000000000E+00  0.00000000000E+00 -0.10632456540E+04  0.10632456540E+04  0.25500000920E-02 0.  1.
    10030    2    1    2    0    0  0.00000000000E+00  0.00000000000E+00 -0.91307086589E+03  0.12134204422E+04  0.79918130827E+03 0.  0.
        5    1    3    3  502    0 -0.25920149087E+03 -0.25762412368E+03 -0.21126532016E+03  0.42215012433E+03  0.46999998093E+01 0. -1.
       -5    1    3    3    0  502  0.25920149087E+03  0.25762412368E+03 -0.70180554573E+03  0.79127031790E+03  0.46999998093E+01 0.  1.
</event>
<event>
 5   0  0.1038912E-02  0.7398382E+03  0.7818609E-02  0.9651429E-01
       -1   -1    0    0    0  501  0.00000000000E+00  0.00000000000E+00  0.11063399973E+03  0.11063399984E+03  0.50400001928E-02 0.  1.
        1   -1    0    0  501    0  0.00000000000E+00  0.00000000000E+00 -0.12368723405E+04  0.12368723405E+04  0.50400001928E-02 0. -1.
    10030    2    1    2    0    0  0.00000000000E+00  0.00000000000E+00 -0.11262383407E+04  0.13475063403E+04  0.73983818301E+03 0.  0.
        2    1    3    3  502    0  0.12522285215E+03  0.32467860396E+03 -0.79164760605E+03  0.86475597178E+03  0.25500000920E-02 0. -1.
       -2    1    3    3    0  502 -0.12522285215E+03 -0.32467860396E+03 -0.33459073469E+03  0.48275036853E+03  0.25500000920E-02 0.  1.
</event>
<event>
 5   0  0.1025900E-02  0.8072636E+03  0.7818609E-02  0.9549562E-01
        1   -1    0    0  501    0  0.00000000000E+00  0.00000000000E+00  0.64600265538E+03  0.64600265540E+03  0.50400001928E-02 0.  1.
       -1   -1    0    0    0  501  0.00000000000E+00  0.00000000000E+00 -0.25219501071E+03  0.25219501076E+03  0.50400001928E-02 0. -1.
    10030    2    1    2    0    0  0.00000000000E+00  0.00000000000E+00  0.39380764467E+03  0.89819766616E+03  0.80726364125E+03 0.  0.
        1    1    3    3  502    0 -0.16145349142E+03 -0.15639560411E+03 -0.17610912318E+03  0.28555426484E+03  0.50400001928E-02 0. -1.
       -1    1    3    3    0  502  0.16145349142E+03  0.15639560411E+03  0.56991676785E+03  0.61264340132E+03  0.50400001928E-02 0.  1.
</event>
<event>
 5   0  0.1818665E-02  0.8035469E+03  0.7818609E-02  0.9554897E-01
        2   -1    0    0  501    0  0.00000000000E+00  0.00000000000E+00  0.18417133710E+04  0.18417133710E+04  0.25500000920E-02 0. -1.
       -2   -1    0    0    0  501  0.00000000000E+00  0.00000000000E+00 -0.87647678611E+02  0.87647678648E+02  0.25500000920E-02 0.  1.
    10030    2    1    2    0    0  0.00000000000E+00  0.00000000000E+00  0.17540656924E+04  0.19293610497E+04  0.80354689141E+03 0.  0.
        3    1    3    3  502    0 -0.24745871434E+02 -0.38205436083E+03  0.58449791301E+03  0.69872434715E+03  0.10100000352E+00 0.  1.
       -3    1    3    3    0  502  0.24745871434E+02  0.38205436083E+03  0.11695677794E+04  0.12306367025E+04  0.10100000352E+00 0. -1.
</event>
<event>
 5   0  0.1747544E-02  0.7949593E+03  0.7818609E-02  0.9567342E-01
       -2   -1    0    0    0  501  0.00000000000E+00  0.00000000000E+00  0.16682802450E+03  0.16682802452E+03  0.25500000920E-02 0.  1.
        2   -1    0    0  501    0  0.00000000000E+00  0.00000000000E+00 -0.94702362410E+03  0.94702362411E+03  0.25500000920E-02 0. -1.
    10030    2    1    2    0    0  0.00000000000E+00  0.00000000000E+00 -0.78019559960E+03  0.11138516486E+04  0.79495932067E+03 0.  0.
        1    1    3    3  502    0  0.55638237361E+02 -0.71555743046E+02 -0.93234961219E+03  0.93674523601E+03  0.50400001928E-02 0. -1.
       -1    1    3    3    0  502 -0.55638237361E+02  0.71555743046E+02  0.15215401259E+03  0.17710641262E+03  0.50400001928E-02 0.  1.
</event>
<event>
 5   0  0.6872500E-03  0.7991268E+03  0.7818609E-02  0.9561282E-01
        3   -1    0    0  501    0  0.00000000000E+00  0.00000000000E+00  0.60079358834E+03  0.60079359683E+03  0.10100000352E+00 0.  1.
       -3   -1    0    0    0  501  0.00000000000E+00  0.00000000000E+00 -0.26573336779E+03  0.26573338698E+03  0.10100000352E+00 0. -1.
    10030    2    1    2    0    0  0.00000000000E+00  0.00000000000E+00  0.33506022056E+03  0.86652698381E+03  0.79912681239E+03 0.  0.
        1    1    3    3  502    0 -0.34693562570E+03  0.19804785823E+03  0.17617994162E+03  0.43660812450E+03  0.50400001928E-02 0. -1.
       -1    1    3    3    0  502  0.34693562570E+03 -0.19804785823E+03  0.15888027894E+03  0.42991885931E+03  0.50400001928E-02 0.  1.
</event>
<event>
 5   0  0.1673727E-02  0.7966140E+03  0.7818609E-02  0.9564931E-01
       -2   -1    0    0    0  501  0.00000000000E+00  0.00000000000E+00  0.16996799776E+03  0.16996799778E+03  0.25500000920E-02 0.  1.
        2   -1    0    0  501    0  0.00000000000E+00  0.00000000000E+00 -0.93340188474E+03  0.93340188474E+03  0.25500000920E-02 0. -1.
    10030    2    1    2    0    0  0.00000000000E+00  0.00000000000E+00 -0.76343388698E+03  0.11033698825E+04  0.79661395787E+03 0.  0.
        5    1    3    3  502    0  0.26017557454E+03  0.29424982643E+03 -0.47309062566E+03  0.61490740768E+03  0.46999998093E+01 0. -1.
       -5    1    3    3    0  502 -0.26017557454E+03 -0.29424982643E+03 -0.29034326132E+03  0.48846247485E+03  0.46999998093E+01 0.  1.
</event>
<event>
 5   0  0.1030323E-02  0.8033173E+03  0.7818609E-02  0.9555228E-01
        1   -1    0    0  501    0  0.00000000000E+00  0.00000000000E+00  0.47853424602E+03  0.47853424605E+03  0.50400001928E-02 0.  1.
       -1   -1    0    0    0  501  0.00000000000E+00  0.00000000000E+00 -0.33713298003E+03  0.33713298007E+03  0.50400001928E-02 0. -1.
    10030    2    1    2    0    0  0.00000000000E+00  0.00000000000E+00  0.14140126599E+03  0.81566722612E+03  0.80331731324E+03 0.  0.
        3    1    3    3  502    0  0.21253221512E+03 -0.33020776454E+03  0.15639333206E+03  0.42268900475E+03  0.10100000352E+00 0.  1.
       -3    1    3    3    0  502 -0.21253221512E+03  0.33020776454E+03 -0.14992066066E+02  0.39297822137E+03  0.10100000352E+00 0. -1.
</event>
<event>
 5   0  0.6872500E-03  0.8027378E+03  0.7818609E-02  0.9556063E-01
        3   -1    0    0  501    0  0.00000000000E+00  0.00000000000E+00  0.23936337144E+03  0.23936339275E+03  0.10100000352E+00 0.  1.
       -3   -1    0    0    0  501  0.00000000000E+00  0.00000000000E+00 -0.67302269170E+03  0.67302269928E+03  0.10100000352E+00 0. -1.
    10030    2    1    2    0    0  0.00000000000E+00  0.00000000000E+00 -0.43365932026E+03  0.91238609203E+03  0.80273779958E+03 0.  0.
        3    1    3    3  502    0 -0.19293504255E+03 -0.81006685269E+02 -0.60612056331E+03  0.64122395555E+03  0.10100000352E+00 0. -1.
       -3    1    3    3    0  502  0.19293504255E+03  0.81006685269E+02  0.17246124305E+03  0.27116213648E+03  0.10100000352E+00 0.  1.
</event>
<event>
 5   0  0.1817089E-02  0.8082109E+03  0.7818609E-02  0.9548208E-01
       -2   -1    0    0    0  501  0.00000000000E+00  0.00000000000E+00  0.16012909311E+03  0.16012909313E+03  0.25500000920E-02 0.  1.
        2   -1    0    0  501    0  0.00000000000E+00  0.00000000000E+00 -0.10198098925E+04  0.10198098925E+04  0.25500000920E-02 0. -1.
    10030    2    1    2    0    0  0.00000000000E+00  0.00000000000E+00 -0.85968079935E+03  0.11799389856E+04  0.80821094582E+03 0.  0.
        2    1    3    3  502    0  0.10226719970E+03  0.27095272036E+03 -0.84129285478E+03  0.88974582006E+03  0.25500000920E-02 0. -1.
       -2    1    3    3    0  502 -0.10226719970E+03 -0.27095272036E+03 -0.18387944571E+02  0.29019316553E+03  0.25500000920E-02 0.  1.
</event>
<event>
 5   0  0.1025900E-02  0.7973064E+03  0.7818609E-02  0.9563924E-01
        1   -1    0    0  501    0  0.00000000000E+00  0.00000000000E+00  0.44102524743E+03  0.44102524745E+03  0.50400001928E-02 0. -1.
       -1   -1    0    0    0  501  0.00000000000E+00  0.00000000000E+00 -0.36035206493E+03  0.36035206497E+03  0.50400001928E-02 0.  1.
    10030    2    1    2    0    0  0.00000000000E+00  0.00000000000E+00  0.80673182493E+02  0.80137731242E+03  0.79730636175E+03 0.  0.
        1    1    3    3  502    0 -0.16890601905E+03 -0.66773480293E+02 -0.31635057324E+03  0.36478161434E+03  0.50400001928E-02 0.  1.
       -1    1    3    3    0  502  0.16890601905E+03  0.66773480293E+02  0.39702375573E+03  0.43659569808E+03  0.50400001928E-02 0. -1.
</event>
<event>
 5   0  0.1818665E-02  0.8025190E+03  0.7818609E-02  0.9556378E-01
        2   -1    0    0  501    0  0.00000000000E+00  0.00000000000E+00  0.87145506930E+03  0.87145506930E+03  0.25500000920E-02 0.  1.
       -2   -1    0    0    0  501  0.00000000000E+00  0.00000000000E+00 -0.18475903767E+03  0.18475903769E+03  0.25500000920E-02 0. -1.
    10030    2    1    2    0    0  0.00000000000E+00  0.00000000000E+00  0.68669603162E+03  0.10562141070E+04  0.80251903402E+03 0.  0.
        3    1    3    3  502    0 -0.11804666292E+03 -0.20160419746E+03 -0.86018818821E+02  0.24895484421E+03  0.10100000352E+00 0. -1.
       -3    1    3    3    0  502  0.11804666292E+03  0.20160419746E+03  0.77271485044E+03  0.80725926279E+03  0.10100000352E+00 0.  1.
</event>
<event>
 5   0  0.1817089E-02  0.8081044E+03  0.7818609E-02  0.9548360E-01
        2   -1    0    0  501    0  0.00000000000E+00  0.00000000000E+00  0.11947908301E+04  0.11947908301E+04  0.25500000920E-02 0.  1.
       -2   -1    0    0    0  501  0.00000000000E+00  0.00000000000E+00 -0.13664164222E+03  0.13664164224E+03  0.25500000920E-02 0. -1.
    10030    2    1    2    0    0  0.00000000000E+00  0.00000000000E+00  0.10581491879E+04  0.13314324723E+04  0.80810440205E+03 0.  0.
        2    1    3    3  502    0  0.16318084433E+03  0.20284853320E+03  0.19961883180E+02  0.26110149782E+03  0.25500000920E-02 0. -1.
       -2    1    3    3    0  502 -0.16318084433E+03 -0.20284853320E+03  0.10381873047E+04  0.10703309745E+04  0.25500000920E-02 0.  1.
</event>
<event>
 5   0  0.1025900E-02  0.8015085E+03  0.7818609E-02  0.9557836E-01
       -1   -1    0    0    0  501  0.00000000000E+00  0.00000000000E+00  0.10200545399E+03  0.10200545412E+03  0.50400001928E-02 0. -1.
        1   -1    0    0  501    0  0.00000000000E+00  0.00000000000E+00 -0.15744644730E+04  0.15744644730E+04  0.50400001928E-02 0.  1.
    10030    2    1    2    0    0  0.00000000000E+00  0.00000000000E+00 -0.14724590190E+04  0.16764699271E+04  0.80150848648E+03 0.  0.
        1    1    3    3  502    0 -0.30915535941E+03  0.84086823167E+02 -0.12397742837E+04  0.12805029889E+04  0.50400001928E-02 0. -1.
       -1    1    3    3    0  502  0.30915535941E+03 -0.84086823167E+02 -0.23268473532E+03  0.39596693821E+03  0.50400001928E-02 0.  1.
</event>
<event>
 5   0  0.1673727E-02  0.7822696E+03  0.7818609E-02  0.9586042E-01
       -2   -1    0    0    0  501  0.00000000000E+00  0.00000000000E+00  0.23005141614E+03  0.23005141615E+03  0.25500000920E-02 0. -1.
        2   -1    0    0  501    0  0.00000000000E+00  0.00000000000E+00 -0.66500970696E+03  0.66500970696E+03  0.25500000920E-02 0.  1.
    10030    2    1    2    0    0  0.00000000000E+00  0.00000000000E+00 -0.43495829082E+03  0.89506112312E+03  0.78226958228E+03 0.  0.
        5    1    3    3  502    0  0.17189592749E+03 -0.21710013536E+03 -0.53349727663E+03  0.60110075098E+03  0.46999998093E+01 0.  1.
       -5    1    3    3    0  502 -0.17189592749E+03  0.21710013536E+03  0.98538985816E+02  0.29396037213E+03  0.46999998093E+01 0. -1.
</event>
<event>
 5   0  0.1817089E-02  0.7984423E+03  0.7818609E-02  0.9562275E-01
       -2   -1    0    0    0  501  0.00000000000E+00  0.00000000000E+00  0.15004876358E+03  0.15004876360E+03  0.25500000920E-02 0.  1.
        2   -1    0    0  501    0  0.00000000000E+00  0.00000000000E+00 -0.10621715772E+04  0.10621715772E+04  0.25500000920E-02 0. -1.
    10030    2    1    2    0    0  0.00000000000E+00  0.00000000000E+00 -0.91212281365E+03  0.12122203408E+04  0.79844231322E+03 0.  0.
        2    1    3    3  502    0  0.30639110628E+03 -0.17639515189E+03 -0.17452554092E+03  0.39427138377E+03  0.25500000920E-02 0.  1.
       -2    1    3    3    0  502 -0.30639110628E+03  0.17639515189E+03 -0.73759727273E+03  0.81794895707E+03  0.25500000920E-02 0. -1.
</event>
<event>
 5   0  0.1673727E-02  0.7959200E+03  0.7818609E-02  0.9565942E-01
        2   -1    0    0  501    0  0.00000000000E+00  0.00000000000E+00  0.82113166607E+03  0.82113166608E+03  0.25500000920E-02 0. -1.
       -2   -1    0    0    0  501  0.00000000000E+00  0.00000000000E+00 -0.19287060708E+03  0.19287060710E+03  0.25500000920E-02 0.  1.
    10030    2    1    2    0    0  0.00000000000E+00  0.00000000000E+00  0.62826105899E+03  0.10140022732E+04  0.79592000337E+03 0.  0.
        5    1    3    3  502    0 -0.57510992471E+02 -0.29850679866E+03  0.64126900861E+03  0.70969137976E+03  0.46999998093E+01 0. -1.
       -5    1    3    3    0  502  0.57510992471E+02  0.29850679866E+03 -0.13007949617E+02  0.30431089342E+03  0.46999998093E+01 0.  1.
</event>
<event>
 5   0  0.1025900E-02  0.7887404E+03  0.7818609E-02  0.9576459E-01
        1   -1    0    0  501    0  0.00000000000E+00  0.00000000000E+00  0.44490747530E+03  0.44490747533E+03  0.50400001928E-02 0. -1.
       -1   -1    0    0    0  501  0.00000000000E+00  0.00000000000E+00 -0.34957351963E+03  0.34957351967E+03  0.50400001928E-02 0.  1.
    10030    2    1    2    0    0  0.00000000000E+00  0.00000000000E+00  0.95333955666E+02  0.79448099500E+03  0.78874044419E+03 0.  0.
        1    1    3    3  502    0  0.30683056498E+03 -0.94552366597E+02 -0.18300350945E+03  0.36956113179E+03  0.50400001928E-02 0.  1.
       -1    1    3    3    0  502 -0.30683056498E+03  0.94552366597E+02  0.27833746512E+03  0.42491986321E+03  0.50400001928E-02 0. -1.
</event>
<event>
 5   0  0.1731337E-02  0.8067204E+03  0.7818609E-02  0.9550340E-01
       -2   -1    0    0    0  501  0.00000000000E+00  0.00000000000E+00  0.20248011818E+03  0.20248011819E+03  0.25500000920E-02 0. -1.
        2   -1    0    0  501    0  0.00000000000E+00  0.00000000000E+00 -0.80353298396E+03  0.80353298396E+03  0.25500000920E-02 0.  1.
    10030    2    1    2    0    0  0.00000000000E+00  0.00000000000E+00 -0.60105286578E+03  0.10060131022E+04  0.80672040649E+03 0.  0.
        4    1    3    3  502    0 -0.56015380394E+01 -0.21994437791E+03 -0.72211272869E+03  0.75488761577E+03  0.12699999809E+01 0.  1.
       -4    1    3    3    0  502  0.56015380394E+01  0.21994437791E+03  0.12105986291E+03  0.25112548638E+03  0.12699999809E+01 0. -1.
</event>
<event>
 5   0  0.1818665E-02  0.8026449E+03  0.7818609E-02  0.9556197E-01
        2   -1    0    0  501    0  0.00000000000E+00  0.00000000000E+00  0.76732648302E+03  0.76732648302E+03  0.25500000920E-02 0.  1.
       -2   -1    0    0    0  501  0.00000000000E+00  0.00000000000E+00 -0.20989724372E+03  0.20989724373E+03  0.25500000920E-02 0. -1.
    10030    2    1    2    0    0  0.00000000000E+00  0.00000000000E+00  0.55742923930E+03  0.97722372675E+03  0.80264491234E+03 0.  0.
        3    1    3    3  502    0 -0.61144168567E+02 -0.11066444173E+02 -0.20400496766E+03  0.21325832356E+03  0.10100000352E+00 0. -1.
       -3    1    3    3    0  502  0.61144168567E+02  0.11066444173E+02  0.76143420696E+03  0.76396540319E+03  0.10100000352E+00 0.  1.
</event>
<event>
 5   0  0.1673727E-02  0.8157548E+03  0.7818609E-02  0.9537488E-01
        2   -1    0    0  501    0  0.00000000000E+00  0.00000000000E+00  0.37702084994E+03  0.37702084995E+03  0.25500000920E-02 0. -1.
       -2   -1    0    0    0  501  0.00000000000E+00  0.00000000000E+00 -0.44125939003E+03  0.44125939004E+03  0.25500000920E-02 0.  1.
    10030    2    1    2    0    0  0.00000000000E+00  0.00000000000E+00 -0.64238540089E+02  0.81828023999E+03  0.81575484131E+03 0.  0.
        5    1    3    3  502    0 -0.80204205968E+02 -0.38119459659E+03  0.89084694670E+02  0.39962508423E+03  0.46999998093E+01 0. -1.
       -5    1    3    3    0  502  0.80204205968E+02  0.38119459659E+03 -0.15332323476E+03  0.41865515576E+03  0.46999998093E+01 0.  1.
</event>
<event>
 5   0  0.1818665E-02  0.8056999E+03  0.7818609E-02  0.9551803E-01
        2   -1    0    0  501    0  0.00000000000E+00  0.00000000000E+00  0.12247027298E+04  0.12247027298E+04  0.25500000920E-02 0. -1.
       -2   -1    0    0    0  501  0.00000000000E+00  0.00000000000E+00 -0.13251221840E+03  0.13251221843E+03  0.25500000920E-02 0.  1.
    10030    2    1    2    0    0  0.00000000000E+00  0.00000000000E+00  0.10921905114E+04  0.13572149482E+04  0.80569988363E+03 0.  0.
        3    1    3    3  502    0 -0.56542248809E+02  0.15744696211E+03  0.11634229417E+04  0.11753890944E+04  0.10100000352E+00 0. -1.
       -3    1    3    3    0  502  0.56542248809E+02 -0.15744696211E+03 -0.71232430328E+02  0.18182585379E+03  0.10100000352E+00 0.  1.
</event>
<event>
 5   0  0.1030323E-02  0.6694086E+03  0.7818609E-02  0.9771027E-01
       -1   -1    0    0    0  501  0.00000000000E+00  0.00000000000E+00  0.15840356836E+03  0.15840356844E+03  0.50400001928E-02 0. -1.
        1   -1    0    0  501    0  0.00000000000E+00  0.00000000000E+00 -0.70722512664E+03  0.70722512665E+03  0.50400001928E-02 0.  1.
    10030    2    1    2    0    0  0.00000000000E+00  0.00000000000E+00 -0.54882155827E+03  0.86562869510E+03  0.66940864571E+03 0.  0.
        3    1    3    3  502    0  0.25210030150E+03  0.12272759094E+03 -0.51077451177E+03  0.58267249435E+03  0.10100000352E+00 0. -1.
       -3    1    3    3    0  502 -0.25210030150E+03 -0.12272759094E+03 -0.38047046501E+02  0.28295620075E+03  0.10100000352E+00 0.  1.
</event>
<event>
 5   0  0.1030323E-02  0.8122596E+03  0.7818609E-02  0.9542439E-01
       -1   -1    0    0    0  501  0.00000000000E+00  0.00000000000E+00  0.17447885490E+03  0.17447885497E+03  0.50400001928E-02 0. -1.
        1   -1    0    0  501    0  0.00000000000E+00  0.00000000000E+00 -0.94533756287E+03  0.94533756289E+03  0.50400001928E-02 0.  1.
    10030    2    1    2    0    0  0.00000000000E+00  0.00000000000E+00 -0.77085870797E+03  0.11198164179E+04  0.81225960262E+03 0.  0.
        3    1    3    3  502    0 -0.47923356891E+02 -0.24561254638E+03  0.55562550276E+02  0.25633840577E+03  0.10100000352E+00 0. -1.
       -3    1    3    3    0  502  0.47923356891E+02  0.24561254638E+03 -0.82642125825E+03  0.86347801209E+03  0.10100000352E+00 0.  1.
</event>
<event>
 5   0  0.1731337E-02  0.7993088E+03  0.7818609E-02  0.9561018E-01
       -2   -1    0    0    0  501  0.00000000000E+00  0.00000000000E+00  0.14099511593E+03  0.14099511596E+03  0.25500000920E-02 0. -1.
        2   -1    0    0  501    0  0.00000000000E+00  0.00000000000E+00 -0.11328309324E+04  0.11328309324E+04  0.25500000920E-02 0.  1.
    10030    2    1    2    0    0  0.00000000000E+00  0.00000000000E+00 -0.99183581643E+03  0.12738260483E+04  0.79930877302E+03 0.  0.
        4    1    3    3  502    0  0.30777144792E+03 -0.23195336609E+02 -0.91301818523E+02  0.32186786538E+03  0.12699999809E+01 0. -1.
       -4    1    3    3    0  502 -0.30777144792E+03  0.23195336609E+02 -0.90053399791E+03  0.95195818295E+03  0.12699999809E+01 0.  1.
</event>
<event>
 5   0  0.1049780E-02  0.8206558E+03  0.7818609E-02  0.9530591E-01
        1   -1    0    0  501    0  0.00000000000E+00  0.00000000000E+00  0.76550459144E+03  0.76550459146E+03  0.50400001928E-02 0.  1.
       -1   -1    0    0    0  501  0.00000000000E+00  0.00000000000E+00 -0.21994511851E+03  0.21994511856E+03  0.50400001928E-02 0. -1.
    10030    2    1    2    0    0  0.00000000000E+00  0.00000000000E+00  0.54555947294E+03  0.98544971002E+03  0.82065583071E+03 0.  0.
        5    1    3    3  502    0 -0.40041875661E+02 -0.29409606255E+01  0.76310771194E+03  0.76417764367E+03  0.46999998093E+01 0.  1.
       -5    1    3    3    0  502  0.40041875661E+02  0.29409606255E+01 -0.21754823901E+03  0.22127206636E+03  0.46999998093E+01 0. -1.
</event>
<event>
 5   0  0.6872500E-03  0.8022688E+03  0.7818609E-02  0.9556739E-01
        3   -1    0    0  501    0  0.00000000000E+00  0.00000000000E+00  0.11521702248E+04  0.11521702292E+04  0.10100000352E+00 0. -1.
       -3   -1    0    0    0  501  0.00000000000E+00  0.00000000000E+00 -0.13965711000E+03  0.13965714653E+03  0.10100000352E+00 0.  1.
    10030    2    1    2    0    0  0.00000000000E+00  0.00000000000E+00  0.10125131148E+04  0.12918273757E+04  0.80226875864E+03 0.  0.
        4    1    3    3  502    0 -0.27181036022E+03  0.28078367148E+03  0.36056223456E+03  0.53172086661E+03  0.12699999809E+01 0.  1.
       -4    1    3    3    0  502  0.27181036022E+03 -0.28078367148E+03  0.65195088022E+03  0.76010650912E+03  0.12699999809E+01 0. -1.
</event>
<event>
 5   0  0.1030323E-02  0.7987799E+03  0.7818609E-02  0.9561785E-01
       -1   -1    0    0    0  501  0.00000000000E+00  0.00000000000E+00  0.22634913524E+03  0.22634913530E+03  0.50400001928E-02 0.  1.
        1   -1    0    0  501    0  0.00000000000E+00  0.00000000000E+00 -0.70471808471E+03  0.70471808473E+03  0.50400001928E-02 0. -1.
    10030    2    1    2    0    0  0.00000000000E+00  0.00000000000E+00 -0.47836894947E+03  0.93106722003E+03  0.79877989233E+03 0.  0.
        3    1    3    3  502    0  0.19756160084E+02  0.27349715220E+02 -0.70305402396E+03  0.70386311425E+03  0.10100000352E+00 0. -1.
       -3    1    3    3    0  502 -0.19756160084E+02 -0.27349715220E+02  0.22468507449E+03  0.22720410578E+03  0.10100000352E+00 0.  1.
</event>
<event>
 5   0  0.6872500E-03  0.7889787E+03  0.7818609E-02  0.9576108E-01
       -3   -1    0    0    0  501  0.00000000000E+00  0.00000000000E+00  0.10529530147E+04  0.10529530195E+04  0.10100000352E+00 0.  1.
        3   -1    0    0  501    0  0.00000000000E+00  0.00000000000E+00 -0.14779559822E+03  0.14779563273E+03  0.10100000352E+00 0. -1.
    10030    2    1    2    0    0  0.00000000000E+00  0.00000000000E+00  0.90515741645E+03  0.12007486522E+04  0.78897869256E+03 0.  0.
        2    1    3    3  502    0 -0.22477197317E+03  0.24170225740E+03  0.78139215794E+03  0.84824296381E+03  0.25500000920E-02 0.  1.
       -2    1    3    3    0  502  0.22477197317E+03 -0.24170225740E+03  0.12376525851E+03  0.35250568843E+03  0.25500000920E-02 0. -1.
</event>
<event>
 5   0  0.1030323E-02  0.7954782E+03  0.7818609E-02  0.9566585E-01
        1   -1    0    0  501    0  0.00000000000E+00  0.00000000000E+00  0.83709222588E+03  0.83709222590E+03  0.50400001928E-02 0. -1.
       -1   -1    0    0    0  501  0.00000000000E+00  0.00000000000E+00 -0.18898321897E+03  0.18898321903E+03  0.50400001928E-02 0.  1.
    10030    2    1    2    0    0  0.00000000000E+00  0.00000000000E+00  0.64810900692E+03  0.10260754449E+04  0.79547817937E+03 0.  0.
        3    1    3    3  502    0  0.16055966972E+03  0.28376257473E+03  0.30210392925E+02  0.32743439709E+03  0.10100000352E+00 0.  1.
       -3    1    3    3    0  502 -0.16055966972E+03 -0.28376257473E+03  0.61789861399E+03  0.69864104784E+03  0.10100000352E+00 0. -1.
</event>
<event>
 5   0  0.1747544E-02  0.7935155E+03  0.7818609E-02  0.9569451E-01
        2   -1    0    0  501    0  0.00000000000E+00  0.00000000000E+00  0.72249149331E+03  0.72249149331E+03  0.25500000920E-02 0. -1.
       -2   -1    0    0    0  501  0.00000000000E+00  0.00000000000E+00 -0.21788034970E+03  0.21788034972E+03  0.25500000920E-02 0.  1.
    10030    2    1    2    0    0  0.00000000000E+00  0.00000000000E+00  0.50461114361E+03  0.94037184303E+03  0.79351546735E+03 0.  0.
        1    1    3    3  502    0 -0.43607773037E+01 -0.15833286998E+03  0.68339832927E+03  0.70151378502E+03  0.50400001928E-02 0. -1.
       -1    1    3    3    0  502  0.43607773037E+01  0.15833286998E+03 -0.17878718567E+03  0.23885805801E+03  0.50400001928E-02 0.  1.
</event>
<event>
 5   0  0.1038912E-02  0.7961826E+03  0.7818609E-02  0.9565559E-01
       -1   -1    0    0    0  501  0.00000000000E+00  0.00000000000E+00  0.53659357421E+03  0.53659357423E+03  0.50400001928E-02 0.  1.
        1   -1    0    0  501    0  0.00000000000E+00  0.00000000000E+00 -0.29533836844E+03  0.29533836848E+03  0.50400001928E-02 0. -1.
    10030    2    1    2    0    0  0.00000000000E+00  0.00000000000E+00  0.24125520577E+03  0.83193194271E+03  0.79618256889E+03 0.  0.
        2    1    3    3  502    0  0.21283907721E+03 -0.33817584289E+01 -0.23087677716E+03  0.31403183807E+03  0.25500000920E-02 0. -1.
       -2    1    3    3    0  502 -0.21283907721E+03  0.33817584289E+01  0.47213198293E+03  0.51790010465E+03  0.25500000920E-02 0.  1.
</event>
<event>
 5   0  0.1030323E-02  0.7974409E+03  0.7818609E-02  0.9563729E-01
        1   -1    0    0  501    0  0.00000000000E+00  0.00000000000E+00  0.16183289780E+04  0.16183289780E+04  0.50400001928E-02 0.  1.
       -1   -1    0    0    0  501  0.00000000000E+00  0.00000000000E+00 -0.98235906670E+02  0.98235906799E+02  0.50400001928E-02 0. -1.
    10030    2    1    2    0    0  0.00000000000E+00  0.00000000000E+00  0.15200930714E+04  0.17165648848E+04  0.79744094343E+03 0.  0.
        3    1    3    3  502    0 -0.33710426994E+02  0.27746684379E+03  0.14796143224E+03  0.31625438799E+03  0.10100000352E+00 0. -1.
       -3    1    3    3    0  502  0.33710426994E+02 -0.27746684379E+03  0.13721316391E+04  0.14003104969E+04  0.10100000352E+00 0.  1.
</event>
<event>
 5   0  0.1038912E-02  0.8047676E+03  0.7818609E-02  0.9553142E-01
        1   -1    0    0  501    0  0.00000000000E+00  0.00000000000E+00  0.61412723865E+03  0.61412723867E+03  0.50400001928E-02 0. -1.
       -1   -1    0    0    0  501  0.00000000000E+00  0.00000000000E+00 -0.26364689540E+03  0.26364689544E+03  0.50400001928E-02 0.  1.
    10030    2    1    2    0    0  0.00000000000E+00  0.00000000000E+00  0.35048034326E+03  0.87777413412E+03  0.80476764318E+03 0.  0.
        2    1    3    3  502    0 -0.16023455507E+03 -0.12753353386E+03  0.55303300486E+03  0.58973334599E+03  0.25500000920E-02 0. -1.
       -2    1    3    3    0  502  0.16023455507E+03  0.12753353386E+03 -0.20255266160E+03  0.28804078813E+03  0.25500000920E-02 0.  1.
</event>
<event>
 5   0  0.1030323E-02  0.8026440E+03  0.7818609E-02  0.9556198E-01
       -1   -1    0    0    0  501  0.00000000000E+00  0.00000000000E+00  0.91570208416E+03  0.91570208418E+03  0.50400001928E-02 0. -1.
        1   -1    0    0  501    0  0.00000000000E+00  0.00000000000E+00 -0.17588619723E+03  0.17588619730E+03  0.50400001928E-02 0.  1.
    10030    2    1    2    0    0  0.00000000000E+00  0.00000000000E+00  0.73981588694E+03  0.10915882815E+04  0.80264402426E+03 0.  0.
        3    1    3    3  502    0  0.11160055676E+03  0.37585768077E+03  0.48638910294E+03  0.62473838535E+03  0.10100000352E+00 0. -1.
       -3    1    3    3    0  502 -0.11160055676E+03 -0.37585768077E+03  0.25342678399E+03  0.46684989612E+03  0.10100000352E+00 0.  1.
</event>
<event>
 5   0  0.1673727E-02  0.7885930E+03  0.7818609E-02  0.9576677E-01
        2   -1    0    0  501    0  0.00000000000E+00  0.00000000000E+00  0.15818788789E+04  0.15818788789E+04  0.25500000920E-02 0.  1.
       -2   -1    0    0    0  501  0.00000000000E+00  0.00000000000E+00 -0.98281700659E+02  0.98281700692E+02  0.25500000920E-02 0. -1.
    10030    2    1    2    0    0  0.00000000000E+00  0.00000000000E+00  0.14835971782E+04  0.16801605796E+04  0.78859304202E+03 0.  0.
        5    1    3    3  502    0  0.40305039230E+02  0.32988529637E+03  0.11937570958E+04  0.12391637901E+04  0.46999998093E+01 0. -1.
       -5    1    3    3    0  502 -0.40305039230E+02 -0.32988529637E+03  0.28984008244E+03  0.44099678949E+03  0.46999998093E+01 0.  1.
</event>
<event>
 5   0  0.1747544E-02  0.8107888E+03  0.7818609E-02  0.9544531E-01
       -2   -1    0    0    0  501  0.00000000000E+00  0.00000000000E+00  0.10000485169E+03  0.10000485173E+03  0.25500000920E-02 0.  1.
        2   -1    0    0  501    0  0.00000000000E+00  0.00000000000E+00 -0.16433666010E+04  0.16433666010E+04  0.25500000920E-02 0. -1.
    10030    2    1    2    0    0  0.00000000000E+00  0.00000000000E+00 -0.15433617493E+04  0.17433714527E+04  0.81078883377E+03 0.  0.
        1    1    3    3  502    0  0.55617836493E+02  0.38665728620E+03 -0.10047333127E+04  0.10780010345E+04  0.50400001928E-02 0. -1.
       -1    1    3    3    0  502 -0.55617836493E+02 -0.38665728620E+03 -0.53862843663E+03  0.66537041825E+03  0.50400001928E-02 0.  1.
</event>
<event>
 5   0  0.1025900E-02  0.7967964E+03  0.7818609E-02  0.9564666E-01
       -1   -1    0    0    0  501  0.00000000000E+00  0.00000000000E+00  0.11183063833E+03  0.11183063844E+03  0.50400001928E-02 0. -1.
        1   -1    0    0  501    0  0.00000000000E+00  0.00000000000E+00 -0.14192991883E+04  0.14192991883E+04  0.50400001928E-02 0.  1.
    10030    2    1    2    0    0  0.00000000000E+00  0.00000000000E+00 -0.13074685500E+04  0.15311298268E+04  0.79679642142E+03 0.  0.
        1    1    3    3  502    0 -0.33086753933E+03 -0.19204462167E+03 -0.86742762620E+03  0.94804280073E+03  0.50400001928E-02 0.  1.
       -1    1    3    3    0  502  0.33086753933E+03  0.19204462167E+03 -0.44004092378E+03  0.58308702603E+03  0.50400001928E-02 0. -1.
</event>
<event>
 5   0  0.1817089E-02  0.8012818E+03  0.7818609E-02  0.9558164E-01
        2   -1    0    0  501    0  0.00000000000E+00  0.00000000000E+00  0.30980728372E+04  0.30980728372E+04  0.25500000920E-02 0.  1.
       -2   -1    0    0    0  501  0.00000000000E+00  0.00000000000E+00 -0.51810642061E+02  0.51810642124E+02  0.25500000920E-02 0. -1.
    10030    2    1    2    0    0  0.00000000000E+00  0.00000000000E+00  0.30462621951E+04  0.31498834793E+04  0.80128183044E+03 0.  0.
        2    1    3    3  502    0 -0.52878489627E+02  0.32710354921E+03  0.63781166021E+03  0.71874653423E+03  0.25500000920E-02 0. -1.
       -2    1    3    3    0  502  0.52878489627E+02 -0.32710354921E+03  0.24084505349E+04  0.24311369451E+04  0.25500000920E-02 0.  1.
</event>
<event>
 5   0  0.1673727E-02  0.7985869E+03  0.7818609E-02  0.9562065E-01
       -2   -1    0    0    0  501  0.00000000000E+00  0.00000000000E+00  0.13541725108E+03  0.13541725111E+03  0.25500000920E-02 0. -1.
        2   -1    0    0  501    0  0.00000000000E+00  0.00000000000E+00 -0.11773629599E+04  0.11773629599E+04  0.25500000920E-02 0.  1.
    10030    2    1    2    0    0  0.00000000000E+00  0.00000000000E+00 -0.10419457088E+04  0.13127802110E+04  0.79858689089E+03 0.  0.
        5    1    3    3  502    0 -0.33306070246E+03  0.67043128058E+02 -0.17619317819E+03  0.38274056302E+03  0.46999998093E+01 0. -1.
       -5    1    3    3    0  502  0.33306070246E+03 -0.67043128058E+02 -0.86575253062E+03  0.93003964799E+03  0.46999998093E+01 0.  1.
</event>
<event>
 5   0  0.1038912E-02  0.8231198E+03  0.7818609E-02  0.9527142E-01
        1   -1    0    0  501    0  0.00000000000E+00  0.00000000000E+00  0.68549414198E+03  0.68549414200E+03  0.50400001928E-02 0. -1.
       -1   -1    0    0    0  501  0.00000000000E+00  0.00000000000E+00 -0.24709407774E+03  0.24709407779E+03  0.50400001928E-02 0.  1.
    10030    2    1    2    0    0  0.00000000000E+00  0.00000000000E+00  0.43840006425E+03  0.93258821979E+03  0.82311977947E+03 0.  0.
        2    1    3    3  502    0 -0.16932002554E+03 -0.17132280957E+03 -0.15888805485E+03  0.28855881568E+03  0.25500000920E-02 0.  1.
       -2    1    3    3    0  502  0.16932002554E+03  0.17132280957E+03  0.59728811910E+03  0.64402940410E+03  0.25500000920E-02 0. -1.
</event>
<event>
 5   0  0.1817089E-02  0.7980149E+03  0.7818609E-02  0.9562895E-01
        2   -1    0    0  501    0  0.00000000000E+00  0.00000000000E+00  0.21768599691E+04  0.21768599691E+04  0.25500000920E-02 0.  1.
       -2   -1    0    0    0  501  0.00000000000E+00  0.00000000000E+00 -0.73136050409E+02  0.73136050453E+02  0.25500000920E-02 0. -1.
    10030    2    1    2    0    0  0.00000000000E+00  0.00000000000E+00  0.21037239187E+04  0.22499960196E+04  0.79801488830E+03 0.  0.
        2    1    3    3  502    0 -0.35779516421E+03 -0.11908878493E+03  0.14195588887E+04  0.14687909846E+04  0.25500000920E-02 0.  1.
       -2    1    3    3    0  502  0.35779516421E+03  0.11908878493E+03  0.68416503006E+03  0.78120503492E+03  0.25500000920E-02 0. -1.
</event>
<event>
 5   0  0.1818665E-02  0.8107977E+03  0.7818609E-02  0.9544518E-01
       -2   -1    0    0    0  501  0.00000000000E+00  0.00000000000E+00  0.11751776893E+03  0.11751776896E+03  0.25500000920E-02 0. -1.
        2   -1    0    0  501    0  0.00000000000E+00  0.00000000000E+00 -0.13984969724E+04  0.13984969724E+04  0.25500000920E-02 0.  1.
    10030    2    1    2    0    0  0.00000000000E+00  0.00000000000E+00 -0.12809792034E+04  0.15160147413E+04  0.81079774067E+03 0.  0.
        3    1    3    3  502    0 -0.23847299378E+03 -0.80274947905E+02 -0.12348178640E+04  0.12601938753E+04  0.10100000352E+00 0.  1.
       -3    1    3    3    0  502  0.23847299378E+03  0.80274947905E+02 -0.46161339479E+02  0.25582086601E+03  0.10100000352E+00 0. -1.
</event>
<event>
 5   0  0.1049780E-02  0.8196243E+03  0.7818609E-02  0.9532038E-01
        1   -1    0    0  501    0  0.00000000000E+00  0.00000000000E+00  0.11655910108E+03  0.11655910119E+03  0.50400001928E-02 0.  1.
       -1   -1    0    0    0  501  0.00000000000E+00  0.00000000000E+00 -0.14408654698E+04  0.14408654698E+04  0.50400001928E-02 0. -1.
    10030    2    1    2    0    0  0.00000000000E+00  0.00000000000E+00 -0.13243063687E+04  0.15574245710E+04  0.81962426521E+03 0.  0.
        5    1    3    3  502    0  0.25440632085E+03  0.70458743261E+02 -0.66587724265E+02  0.27229216957E+03  0.46999998093E+01 0.  1.
       -5    1    3    3    0  502 -0.25440632085E+03 -0.70458743261E+02 -0.12577186445E+04  0.12851324014E+04  0.46999998093E+01 0. -1.
</event>
<event>
 5   0  0.1049780E-02  0.8016332E+03  0.7818609E-02  0.9557656E-01
       -1   -1    0    0    0  501  0.00000000000E+00  0.00000000000E+00  0.15288846460E+03  0.15288846468E+03  0.50400001928E-02 0.  1.
        1   -1    0    0  501    0  0.00000000000E+00  0.00000000000E+00 -0.10507916978E+04  0.10507916978E+04  0.50400001928E-02 0. -1.
    10030    2    1    2    0    0  0.00000000000E+00  0.00000000000E+00 -0.89790323323E+03  0.12036801625E+04  0.80163315637E+03 0.  0.
        5    1    3    3  502    0 -0.33024996895E+03  0.20826670852E+03 -0.58485317965E+03  0.70321788630E+03  0.46999998093E+01 0. -1.
       -5    1    3    3    0  502  0.33024996895E+03 -0.20826670852E+03 -0.31305005357E+03  0.50046227621E+03  0.46999998093E+01 0.  1.
</event>
<event>
 5   0  0.1747544E-02  0.7912422E+03  0.7818609E-02  0.9572781E-01
        2   -1    0    0  501    0  0.00000000000E+00  0.00000000000E+00  0.39160899243E+03  0.39160899244E+03  0.25500000920E-02 0. -1.
       -2   -1    0    0    0  501  0.00000000000E+00  0.00000000000E+00 -0.39967431410E+03  0.39967431411E+03  0.25500000920E-02 0.  1.
    10030    2    1    2    0    0  0.00000000000E+00  0.00000000000E+00 -0.80653216713E+01  0.79128330655E+03  0.79124220174E+03 0.  0.
        1    1    3    3  502    0  0.35926913248E+03  0.49569074839E+02 -0.16210621540E+03  0.39725285126E+03  0.50400001928E-02 0.  1.
       -1    1    3    3    0  502 -0.35926913248E+03 -0.49569074839E+02  0.15404089373E+03  0.39403045530E+03  0.50400001928E-02 0. -1.
</event>
<event>
 5   0  0.1146083E-02  0.8007212E+03  0.7818609E-02  0.9558974E-01
        1   -1    0    0  501    0  0.00000000000E+00  0.00000000000E+00  0.36070017664E+03  0.36070017668E+03  0.50400001928E-02 0.  1.
       -1   -1    0    0    0  501  0.00000000000E+00  0.00000000000E+00 -0.44438183162E+03  0.44438183165E+03  0.50400001928E-02 0. -1.
    10030    2    1    2    0    0  0.00000000000E+00  0.00000000000E+00 -0.83681654976E+02  0.80508200833E+03  0.80072118790E+03 0.  0.
        4    1    3    3  502    0 -0.12406846320E+03 -0.19600902600E+03 -0.36992217887E+03  0.43664236299E+03  0.12699999809E+01 0. -1.
       -4    1    3    3    0  502  0.12406846320E+03  0.19600902600E+03  0.28624052390E+03  0.36843964534E+03  0.12699999809E+01 0.  1.
</event>
<event>
 5   0  0.1038912E-02  0.8094238E+03  0.7818609E-02  0.9546476E-01
       -1   -1    0    0    0  501  0.00000000000E+00  0.00000000000E+00  0.54188771024E+03  0.54188771027E+03  0.50400001928E-02 0.  1.
        1   -1    0    0  501    0  0.00000000000E+00  0.00000000000E+00 -0.30226139440E+03  0.30226139444E+03  0.50400001928E-02 0. -1.
    10030    2    1    2    0    0  0.00000000000E+00  0.00000000000E+00  0.23962631585E+03  0.84414910471E+03  0.80942383195E+03 0.  0.
        2    1    3    3  502    0  0.89724816122E+02  0.26909805849E+03  0.42086214025E+03  0.50753251010E+03  0.25500000920E-02 0.  1.
       -2    1    3    3    0  502 -0.89724816122E+02 -0.26909805849E+03 -0.18123582440E+03  0.33661659461E+03  0.25500000920E-02 0. -1.
</event>
<event>
 5   0  0.1731337E-02  0.8056853E+03  0.7818609E-02  0.9551824E-01
       -2   -1    0    0    0  501  0.00000000000E+00  0.00000000000E+00  0.38381652016E+03  0.38381652017E+03  0.25500000920E-02 0. -1.
        2   -1    0    0  501    0  0.00000000000E+00  0.00000000000E+00 -0.42281196230E+03  0.42281196231E+03  0.25500000920E-02 0.  1.
    10030    2    1    2    0    0  0.00000000000E+00  0.00000000000E+00 -0.38995442141E+02  0.80662848248E+03  0.80568533823E+03 0.  0.
        4    1    3    3  502    0  0.54499139086E+02 -0.64389557618E+02  0.37487256043E+03  0.38424890469E+03  0.12699999809E+01 0. -1.
       -4    1    3    3    0  502 -0.54499139086E+02  0.64389557618E+02 -0.41386800257E+03  0.42237957780E+03  0.12699999809E+01 0.  1.
</event>
<event>
 5   0  0.1817089E-02  0.7990795E+03  0.7818609E-02  0.9561350E-01
       -2   -1    0    0    0  501  0.00000000000E+00  0.00000000000E+00  0.51251489756E+03  0.51251489757E+03  0.25500000920E-02 0.  1.
        2   -1    0    0  501    0  0.00000000000E+00  0.00000000000E+00 -0.31146807526E+03  0.31146807527E+03  0.25500000920E-02 0. -1.
    10030    2    1    2    0    0  0.00000000000E+00  0.00000000000E+00  0.20104682230E+03  0.82398297284E+03  0.79907954221E+03 0.  0.
        2    1    3    3  502    0  0.91961187935E+02  0.16796504096E+02 -0.30003221672E+03  0.31425835504E+03  0.25500000920E-02 0. -1.
       -2    1    3    3    0  502 -0.91961187935E+02 -0.16796504096E+02  0.50107903902E+03  0.50972461780E+03  0.25500000920E-02 0.  1.
</event>
<event>
 5   0  0.1673727E-02  0.8246857E+03  0.7818609E-02  0.9524957E-01
        2   -1    0    0  501    0  0.00000000000E+00  0.00000000000E+00  0.79660816601E+03  0.79660816602E+03  0.25500000920E-02 0.  1.
       -2   -1    0    0    0  501  0.00000000000E+00  0.00000000000E+00 -0.21343821539E+03  0.21343821540E+03  0.25500000920E-02 0. -1.
    10030    2    1    2    0    0  0.00000000000E+00  0.00000000000E+00  0.58316995063E+03  0.10100463814E+04  0.82468569850E+03 0.  0.
        5    1    3    3  502    0 -0.91290601660E+02  0.40130072919E+03  0.26088545497E+03  0.48729822472E+03  0.46999998093E+01 0.  1.
       -5    1    3    3    0  502  0.91290601660E+02 -0.40130072919E+03  0.32228449566E+03  0.52274815671E+03  0.46999998093E+01 0. -1.
</event>
<event>
 5   0  0.6872500E-03  0.7974396E+03  0.7818609E-02  0.9563731E-01
       -4   -1    0    0    0  501  0.00000000000E+00  0.00000000000E+00  0.10533510741E+04  0.10533518397E+04  0.12699999809E+01 0.  1.
        4   -1    0    0  501    0  0.00000000000E+00  0.00000000000E+00 -0.15092194794E+03  0.15092729134E+03  0.12699999809E+01 0. -1.
    10030    2    1    2    0    0  0.00000000000E+00  0.00000000000E+00  0.90242912614E+03  0.12042791310E+04  0.79743958876E+03 0.  0.
        1    1    3    3  502    0 -0.21507302454E+03 -0.30218444912E+03  0.67216422798E+03  0.76770866647E+03  0.50400001928E-02 0.  1.
       -1    1    3    3    0  502  0.21507302454E+03  0.30218444912E+03  0.23026489817E+03  0.43657046456E+03  0.50400001928E-02 0. -1.
</event>
<event>
 5   0  0.1731337E-02  0.7989422E+03  0.7818609E-02  0.9561550E-01
       -2   -1    0    0    0  501  0.00000000000E+00  0.00000000000E+00  0.18495038402E+03  0.18495038403E+03  0.25500000920E-02 0.  1.
        2   -1    0    0  501    0  0.00000000000E+00  0.00000000000E+00 -0.86281061575E+03  0.86281061576E+03  0.25500000920E-02 0. -1.
    10030    2    1    2    0    0  0.00000000000E+00  0.00000000000E+00 -0.67786023174E+03  0.10477609998E+04  0.79894218747E+03 0.  0.
        4    1    3    3  502    0  0.22665573176E+03 -0.21725036957E+03 -0.15016217277E+02  0.31432092438E+03  0.12699999809E+01 0.  1.
       -4    1    3    3    0  502 -0.22665573176E+03  0.21725036957E+03 -0.66284401446E+03  0.73344007542E+03  0.12699999809E+01 0. -1.
</event>
<event>
 5   0  0.1818665E-02  0.7960718E+03  0.7818609E-02  0.9565721E-01
        2   -1    0    0  501    0  0.00000000000E+00  0.00000000000E+00  0.44284139922E+03  0.44284139923E+03  0.25500000920E-02 0.  1.
       -2   -1    0    0    0  501  0.00000000000E+00  0.00000000000E+00 -0.35776365769E+03  0.35776365770E+03  0.25500000920E-02 0. -1.
    10030    2    1    2    0    0  0.00000000000E+00  0.00000000000E+00  0.85077741531E+02  0.80060505693E+03  0.79607175247E+03 0.  0.
        3    1    3    3  502    0  0.64059636999E+02 -0.37700673009E+03  0.15359796162E+03  0.41210442323E+03  0.10100000352E+00 0.  1.
       -3    1    3    3    0  502 -0.64059636999E+02  0.37700673009E+03 -0.68520220089E+02  0.38850063371E+03  0.10100000352E+00 0. -1.
</event>
<event>
 5   0  0.1030323E-02  0.8187003E+03  0.7818609E-02  0.9533337E-01
       -1   -1    0    0    0  501  0.00000000000E+00  0.00000000000E+00  0.12817916531E+04  0.12817916531E+04  0.50400001928E-02 0.  1.
        1   -1    0    0  501    0  0.00000000000E+00  0.00000000000E+00 -0.13072915258E+03  0.13072915268E+03  0.50400001928E-02 0. -1.
    10030    2    1    2    0    0  0.00000000000E+00  0.00000000000E+00  0.11510625006E+04  0.14125208058E+04  0.81870027893E+03 0.  0.
        3    1    3    3  502    0 -0.92002658418E+01  0.24780470311E+03  0.13606850624E+02  0.24834848975E+03  0.10100000352E+00 0. -1.
       -3    1    3    3    0  502  0.92002658418E+01 -0.24780470311E+03  0.11374556499E+04  0.11641723161E+04  0.10100000352E+00 0.  1.
</event>
<event>
 5   0  0.1818665E-02  0.7984163E+03  0.7818609E-02  0.9562312E-01
        2   -1    0    0  501    0  0.00000000000E+00  0.00000000000E+00  0.14791314756E+04  0.14791314756E+04  0.25500000920E-02 0. -1.
       -2   -1    0    0    0  501  0.00000000000E+00  0.00000000000E+00 -0.10774373278E+03  0.10774373281E+03  0.25500000920E-02 0.  1.
    10030    2    1    2    0    0  0.00000000000E+00  0.00000000000E+00  0.13713877429E+04  0.15868752085E+04  0.79841629864E+03 0.  0.
        3    1    3    3  502    0 -0.31343679124E+02  0.46338488023E+02 -0.99914239723E+02  0.11451003097E+03  0.10100000352E+00 0.  1.
       -3    1    3    3    0  502  0.31343679124E+02 -0.46338488023E+02  0.14713019826E+04  0.14723651775E+04  0.10100000352E+00 0. -1.
</event>
<event>
 5   0  0.1038912E-02  0.8065887E+03  0.7818609E-02  0.9550529E-01
        1   -1    0    0  501    0  0.00000000000E+00  0.00000000000E+00  0.10904449234E+04  0.10904449235E+04  0.50400001928E-02 0. -1.
       -1   -1    0    0    0  501  0.00000000000E+00  0.00000000000E+00 -0.14915591906E+03  0.14915591915E+03  0.50400001928E-02 0.  1.
    10030    2    1    2    0    0  0.00000000000E+00  0.00000000000E+00  0.94128900438E+03  0.12396008426E+04  0.80658865552E+03 0.  0.
        2    1    3    3  502    0 -0.30645584457E+03 -0.91286742530E+02  0.92950114434E+02  0.33299876548E+03  0.25500000920E-02 0.  1.
       -2    1    3    3    0  502  0.30645584457E+03  0.91286742530E+02  0.84833888995E+03  0.90660207712E+03  0.25500000920E-02 0. -1.
</event>
<event>
 5   0  0.1025900E-02  0.8138188E+03  0.7818609E-02  0.9540228E-01
        1   -1    0    0  501    0  0.00000000000E+00  0.00000000000E+00  0.33742984616E+03  0.33742984620E+03  0.50400001928E-02 0.  1.
       -1   -1    0    0    0  501  0.00000000000E+00  0.00000000000E+00 -0.49069538750E+03  0.49069538753E+03  0.50400001928E-02 0. -1.
    10030    2    1    2    0    0  0.00000000000E+00  0.00000000000E+00 -0.15326554134E+03  0.82812523373E+03  0.81381882294E+03 0.  0.
        1    1    3    3  502    0 -0.37107034039E+03 -0.18374700575E+02  0.92249973384E+02  0.38280658923E+03  0.50400001928E-02 0.  1.
       -1    1    3    3    0  502  0.37107034039E+03  0.18374700575E+02 -0.24551551473E+03  0.44531864450E+03  0.50400001928E-02 0. -1.
</event>
<event>
 5   0  0.1731337E-02  0.8006641E+03  0.7818609E-02  0.9559056E-01
       -2   -1    0    0    0  501  0.00000000000E+00  0.00000000000E+00  0.95238183919E+02  0.95238183953E+02  0.25500000920E-02 0.  1.
        2   -1    0    0  501    0  0.00000000000E+00  0.00000000000E+00 -0.16827886356E+04  0.16827886356E+04  0.25500000920E-02 0. -1.
    10030    2    1    2    0    0  0.00000000000E+00  0.00000000000E+00 -0.15875504517E+04  0.17780268196E+04  0.80066405841E+03 0.  0.
        4    1    3    3  502    0  0.89182887023E+02 -0.19876680861E+02 -0.16593188219E+04  0.16618330950E+04  0.12699999809E+01 0. -1.
       -4    1    3    3    0  502 -0.89182887023E+02  0.19876680861E+02  0.71768370217E+02  0.11619372463E+03  0.12699999809E+01 0.  1.
</event>
<event>
 5   0  0.1731337E-02  0.7944744E+03  0.7818609E-02  0.9568050E-01
       -2   -1    0    0    0  501  0.00000000000E+00  0.00000000000E+00  0.15330191294E+03  0.15330191296E+03  0.25500000920E-02 0. -1.
        2   -1    0    0  501    0  0.00000000000E+00  0.00000000000E+00 -0.10293243975E+04  0.10293243975E+04  0.25500000920E-02 0.  1.
    10030    2    1    2    0    0  0.00000000000E+00  0.00000000000E+00 -0.87602248461E+03  0.11826263105E+04  0.79447441542E+03 0.  0.
        4    1    3    3  502    0  0.14119893490E+03  0.23567185728E+03 -0.86509544040E+03  0.90767290222E+03  0.12699999809E+01 0.  1.
       -4    1    3    3    0  502 -0.14119893490E+03 -0.23567185728E+03 -0.10927044207E+02  0.27495340828E+03  0.12699999809E+01 0. -1.
</event>
<event>
 5   0  0.1731337E-02  0.8044368E+03  0.7818609E-02  0.9553617E-01
        2   -1    0    0  501    0  0.00000000000E+00  0.00000000000E+00  0.14622706146E+04  0.14622706146E+04  0.25500000920E-02 0.  1.
       -2   -1    0    0    0  501  0.00000000000E+00  0.00000000000E+00 -0.11063590519E+03  0.11063590522E+03  0.25500000920E-02 0. -1.
    10030    2    1    2    0    0  0.00000000000E+00  0.00000000000E+00  0.13516347094E+04  0.15729065199E+04  0.80443677964E+03 0.  0.
        4    1    3    3  502    0 -0.24998034267E+03 -0.10536454557E+03  0.12564630523E+04  0.12854154480E+04  0.12699999809E+01 0.  1.
       -4    1    3    3    0  502  0.24998034267E+03  0.10536454557E+03  0.95171657123E+02  0.28749107187E+03  0.12699999809E+01 0. -1.
</event>
<event>
 5   0  0.6872500E-03  0.8009073E+03  0.7818609E-02  0.9558705E-01
        3   -1    0    0  501    0  0.00000000000E+00  0.00000000000E+00  0.25515145445E+03  0.25515147444E+03  0.10100000352E+00 0. -1.
       -3   -1    0    0    0  501  0.00000000000E+00  0.00000000000E+00 -0.62850173695E+03  0.62850174507E+03  0.10100000352E+00 0.  1.
    10030    2    1    2    0    0  0.00000000000E+00  0.00000000000E+00 -0.37335028250E+03  0.88365321951E+03  0.80090734727E+03 0.  0.
        1    1    3    3  502    0 -0.13546176188E+03 -0.25934478220E+03  0.11498328944E+03  0.31437360236E+03  0.50400001928E-02 0. -1.
       -1    1    3    3    0  502  0.13546176188E+03  0.25934478220E+03 -0.48833357194E+03  0.56927961714E+03  0.50400001928E-02 0.  1.
</event>
<event>
 5   0  0.1025900E-02  0.7972932E+03  0.7818609E-02  0.9563943E-01
       -1   -1    0    0    0  501  0.00000000000E+00  0.00000000000E+00  0.18164093850E+03  0.18164093857E+03  0.50400001928E-02 0. -1.
        1   -1    0    0  501    0  0.00000000000E+00  0.00000000000E+00 -0.87490801786E+03  0.87490801788E+03  0.50400001928E-02 0.  1.
    10030    2    1    2    0    0  0.00000000000E+00  0.00000000000E+00 -0.69326707936E+03  0.10565489564E+04  0.79729320456E+03 0.  0.
        1    1    3    3  502    0  0.27639535259E+02  0.24069931451E+03  0.72880612363E+02  0.25300531141E+03  0.50400001928E-02 0. -1.
       -1    1    3    3    0  502 -0.27639535259E+02 -0.24069931451E+03 -0.76614769173E+03  0.80354364504E+03  0.50400001928E-02 0.  1.
</event>
<event>
 5   0  0.6872500E-03  0.7554014E+03  0.7818609E-02  0.9626914E-01
       -3   -1    0    0    0  501  0.00000000000E+00  0.00000000000E+00  0.54119449125E+02  0.54119543370E+02  0.10100000352E+00 0. -1.
        3   -1    0    0  501    0  0.00000000000E+00  0.00000000000E+00 -0.26359781426E+04  0.26359781446E+04  0.10100000352E+00 0.  1.
    10030    2    1    2    0    0  0.00000000000E+00  0.00000000000E+00 -0.25818586935E+04  0.26900976879E+04  0.75540138827E+03 0.  0.
        1    1    3    3  502    0  0.26569914221E+03 -0.35635479427E+02 -0.34342320299E+03  0.43566663625E+03  0.50400001928E-02 0. -1.
       -1    1    3    3    0  502 -0.26569914221E+03  0.35635479427E+02 -0.22384354905E+04  0.22544310517E+04  0.50400001928E-02 0.  1.
</event>
<event>
 5   0  0.1818665E-02  0.7989647E+03  0.7818609E-02  0.9561517E-01
        2   -1    0    0  501    0  0.00000000000E+00  0.00000000000E+00  0.33535044415E+03  0.33535044416E+03  0.25500000920E-02 0. -1.
       -2   -1    0    0    0  501  0.00000000000E+00  0.00000000000E+00 -0.47587872988E+03  0.47587872989E+03  0.25500000920E-02 0.  1.
    10030    2    1    2    0    0  0.00000000000E+00  0.00000000000E+00 -0.14052828573E+03  0.81122917405E+03  0.79896468867E+03 0.  0.
        3    1    3    3  502    0 -0.25437195943E+03  0.30279196710E+03 -0.12844622503E+02  0.39566787034E+03  0.10100000352E+00 0. -1.
       -3    1    3    3    0  502  0.25437195943E+03 -0.30279196710E+03 -0.12768366322E+03  0.41556130371E+03  0.10100000352E+00 0.  1.
</event>
<event>
 5   0  0.6872500E-03  0.8111057E+03  0.7818609E-02  0.9544080E-01
       -3   -1    0    0    0  501  0.00000000000E+00  0.00000000000E+00  0.31559309212E+03  0.31559310828E+03  0.10100000352E+00 0.  1.
        3   -1    0    0  501    0  0.00000000000E+00  0.00000000000E+00 -0.52115554668E+03  0.52115555646E+03  0.10100000352E+00 0. -1.
    10030    2    1    2    0    0  0.00000000000E+00  0.00000000000E+00 -0.20556245456E+03  0.83674866474E+03  0.81110566834E+03 0.  0.
        5    1    3    3  502    0 -0.30778169011E+03 -0.24837448873E+03 -0.10328988035E+02  0.39566176642E+03  0.46999998093E+01 0.  1.
       -5    1    3    3    0  502  0.30778169011E+03  0.24837448873E+03 -0.19523346653E+03  0.44108689832E+03  0.46999998093E+01 0. -1.
</event>
<event>
 5   0  0.1747544E-02  0.8069892E+03  0.7818609E-02  0.9549955E-01
        2   -1    0    0  501    0  0.00000000000E+00  0.00000000000E+00  0.10515592556E+04  0.10515592556E+04  0.25500000920E-02 0. -1.
       -2   -1    0    0    0  501  0.00000000000E+00  0.00000000000E+00 -0.15482521227E+03  0.15482521229E+03  0.25500000920E-02 0.  1.
    10030    2    1    2    0    0  0.00000000000E+00  0.00000000000E+00  0.89673404332E+03  0.12063844679E+04  0.80698918203E+03 0.  0.
        1    1    3    3  502    0 -0.29074715559E+03 -0.44566690236E+02  0.35466405079E+02  0.29627346199E+03  0.50400001928E-02 0.  1.
       -1    1    3    3    0  502  0.29074715559E+03  0.44566690236E+02  0.86126763824E+03  0.91011100590E+03  0.50400001928E-02 0. -1.
</event>
<event>
 5   0  0.6872500E-03  0.7973437E+03  0.7818609E-02  0.9563870E-01
        4   -1    0    0  501    0  0.00000000000E+00  0.00000000000E+00  0.11382688783E+03  0.11383397249E+03  0.12699999809E+01 0. -1.
       -4   -1    0    0    0  501  0.00000000000E+00  0.00000000000E+00 -0.13962734108E+04  0.13962739884E+04  0.12699999809E+01 0.  1.
    10030    2    1    2    0    0  0.00000000000E+00  0.00000000000E+00 -0.12824465230E+04  0.15101079609E+04  0.79734369578E+03 0.  0.
        1    1    3    3  502    0 -0.22225192452E+03  0.33096925679E+03 -0.63812544710E+03  0.75242318754E+03  0.50400001928E-02 0. -1.
       -1    1    3    3    0  502  0.22225192452E+03 -0.33096925679E+03 -0.64432107589E+03  0.75768477334E+03  0.50400001928E-02 0.  1.
</event>
<event>
 5   0  0.1025900E-02  0.7957374E+03  0.7818609E-02  0.9566208E-01
        1   -1    0    0  501    0  0.00000000000E+00  0.00000000000E+00  0.90412254877E+03  0.90412254879E+03  0.50400001928E-02 0. -1.
       -1   -1    0    0    0  501  0.00000000000E+00  0.00000000000E+00 -0.17508635100E+03  0.17508635108E+03  0.50400001928E-02 0.  1.
    10030    2    1    2    0    0  0.00000000000E+00  0.00000000000E+00  0.72903619777E+03  0.10792088999E+04  0.79573743904E+03 0.  0.
        1    1    3    3  502    0  0.44975660033E+02  0.38109370091E+03  0.22198858444E+03  0.44332172349E+03  0.50400001928E-02 0. -1.
       -1    1    3    3    0  502 -0.44975660033E+02 -0.38109370091E+03  0.50704761333E+03  0.63588717638E+03  0.50400001928E-02 0.  1.
</event>
<event>
 5   0  0.1038912E-02  0.8164404E+03  0.7818609E-02  0.9536521E-01
        1   -1    0    0  501    0  0.00000000000E+00  0.00000000000E+00  0.95960075519E+03  0.95960075521E+03  0.50400001928E-02 0. -1.
       -1   -1    0    0    0  501  0.00000000000E+00  0.00000000000E+00 -0.17365943994E+03  0.17365944001E+03  0.50400001928E-02 0.  1.
    10030    2    1    2    0    0  0.00000000000E+00  0.00000000000E+00  0.78594131526E+03  0.11332601952E+04  0.81644039527E+03 0.  0.
        2    1    3    3  502    0  0.19805236902E+03  0.34375261640E+03  0.25944970383E+03  0.47403032706E+03  0.25500000920E-02 0.  1.
       -2    1    3    3    0  502 -0.19805236902E+03 -0.34375261640E+03  0.52649161143E+03  0.65922986815E+03  0.25500000920E-02 0. -1.
</event>
<event>
 5   0  0.1818665E-02  0.8576937E+03  0.7818609E-02  0.9480069E-01
       -2   -1    0    0    0  501  0.00000000000E+00  0.00000000000E+00  0.18341150338E+03  0.18341150340E+03  0.25500000920E-02 0. -1.
        2   -1    0    0  501    0  0.00000000000E+00  0.00000000000E+00 -0.10027157355E+04  0.10027157355E+04  0.25500000920E-02 0.  1.
    10030    2    1    2    0    0  0.00000000000E+00  0.00000000000E+00 -0.81930423212E+03  0.11861272389E+04  0.85769365282E+03 0.  0.
        3    1    3    3  502    0 -0.17745457655E+03 -0.29087895064E+03 -0.49536104281E+02  0.34431747922E+03  0.10100000352E+00 0. -1.
       -3    1    3    3    0  502  0.17745457655E+03  0.29087895064E+03 -0.76976812784E+03  0.84180975969E+03  0.10100000352E+00 0.  1.
</event>
<event>
 5   0  0.1038912E-02  0.7821581E+03  0.7818609E-02  0.9586208E-01
        1   -1    0    0  501    0  0.00000000000E+00  0.00000000000E+00  0.23035260536E+03  0.23035260542E+03  0.50400001928E-02 0.  1.
       -1   -1    0    0    0  501  0.00000000000E+00  0.00000000000E+00 -0.66395096488E+03  0.66395096490E+03  0.50400001928E-02 0. -1.
    10030    2    1    2    0    0  0.00000000000E+00  0.00000000000E+00 -0.43359835952E+03  0.89430357032E+03  0.78215812884E+03 0.  0.
        2    1    3    3  502    0 -0.11995524054E+03  0.20908668649E+02 -0.64172491078E+03  0.65317478004E+03  0.25500000920E-02 0. -1.
       -2    1    3    3    0  502  0.11995524054E+03 -0.20908668649E+02  0.20812655126E+03  0.24112879028E+03  0.25500000920E-02 0.  1.
</event>
<event>
 5   0  0.1731337E-02  0.8008623E+03  0.7818609E-02  0.9558770E-01
        2   -1    0    0  501    0  0.00000000000E+00  0.00000000000E+00  0.15676420890E+04  0.15676420890E+04  0.25500000920E-02 0. -1.
       -2   -1    0    0    0  501  0.00000000000E+00  0.00000000000E+00 -0.10228425190E+03  0.10228425194E+03  0.25500000920E-02 0.  1.
    10030    2    1    2    0    0  0.00000000000E+00  0.00000000000E+00  0.14653578371E+04  0.16699263409E+04  0.80086228118E+03 0.  0.
        4    1    3    3  502    0  0.22591859890E+03  0.17941271129E+03  0.15363714545E+03  0.32685489083E+03  0.12699999809E+01 0.  1.
       -4    1    3    3    0  502 -0.22591859890E+03 -0.17941271129E+03  0.13117206916E+04  0.13430714501E+04  0.12699999809E+01 0. -1.
</event>
<event>
 5   0  0.1030323E-02  0.8142431E+03  0.7818609E-02  0.9539627E-01
        1   -1    0    0  501    0  0.00000000000E+00  0.00000000000E+00  0.54675650951E+03  0.54675650953E+03  0.50400001928E-02 0.  1.
       -1   -1    0    0    0  501  0.00000000000E+00  0.00000000000E+00 -0.30314766890E+03  0.30314766894E+03  0.50400001928E-02 0. -1.
    10030    2    1    2    0    0  0.00000000000E+00  0.00000000000E+00  0.24360884061E+03  0.84990417847E+03  0.81424311195E+03 0.  0.
        3    1    3    3  502    0 -0.20272927055E+02  0.33408241361E+03 -0.12013560553E+03  0.35560459020E+03  0.10100000352E+00 0. -1.
       -3    1    3    3    0  502  0.20272927055E+02 -0.33408241361E+03  0.36374444614E+03  0.49429958826E+03  0.10100000352E+00 0.  1.
</event>
<event>
 5   0  0.1025900E-02  0.8011667E+03  0.7818609E-02  0.9558330E-01
        1   -1    0    0  501    0  0.00000000000E+00  0.00000000000E+00  0.12229919355E+04  0.12229919355E+04  0.50400001928E-02 0.  1.
       -1   -1    0    0    0  501  0.00000000000E+00  0.00000000000E+00 -0.13120856276E+03  0.13120856286E+03  0.50400001928E-02 0. -1.
    10030    2    1    2    0    0  0.00000000000E+00  0.00000000000E+00  0.10917833727E+04  0.13542004983E+04  0.80116668475E+03 0.  0.
        1    1    3    3  502    0 -0.99181444321E+02 -0.24731597756E+03  0.10514675555E+04  0.10847055692E+04  0.50400001928E-02 0.  1.
       -1    1    3    3    0  502  0.99181444321E+02  0.24731597756E+03  0.40315817195E+02  0.26949492908E+03  0.50400001928E-02 0. -1.
</event>
<event>
 5   0  0.1731337E-02  0.8033877E+03  0.7818609E-02  0.9555126E-01
        2   -1    0    0  501    0  0.00000000000E+00  0.00000000000E+00  0.20577940535E+03  0.20577940536E+03  0.25500000920E-02 0.  1.
       -2   -1    0    0    0  501  0.00000000000E+00  0.00000000000E+00 -0.78413067429E+03  0.78413067430E+03  0.25500000920E-02 0. -1.
    10030    2    1    2    0    0  0.00000000000E+00  0.00000000000E+00 -0.57835126894E+03  0.98991007966E+03  0.80338768694E+03 0.  0.
        4    1    3    3  502    0  0.31875195338E+03 -0.10668912667E+03 -0.56017164604E+03  0.65328344803E+03  0.12699999809E+01 0. -1.
       -4    1    3    3    0  502 -0.31875195338E+03  0.10668912667E+03 -0.18179622899E+02  0.33662663163E+03  0.12699999809E+01 0.  1.
</event>
<event>
 5   0  0.1673727E-02  0.8034503E+03  0.7818609E-02  0.9555036E-01
        2   -1    0    0  501    0  0.00000000000E+00  0.00000000000E+00  0.10059375825E+04  0.10059375825E+04  0.25500000920E-02 0.  1.
       -2   -1    0    0    0  501  0.00000000000E+00  0.00000000000E+00 -0.16043051176E+03  0.16043051178E+03  0.25500000920E-02 0. -1.
    10030    2    1    2    0    0  0.00000000000E+00  0.00000000000E+00  0.84550707071E+03  0.11663680943E+04  0.80345026273E+03 0.  0.
        5    1    3    3  502    0  0.43767683388E+02 -0.39279468440E+03  0.31849649616E+03  0.50760750809E+03  0.46999998093E+01 0. -1.
       -5    1    3    3    0  502 -0.43767683388E+02  0.39279468440E+03  0.52701057455E+03  0.65876058617E+03  0.46999998093E+01 0.  1.
</event>
<event>
 5   0  0.1038912E-02  0.7967575E+03  0.7818609E-02  0.9564722E-01
       -1   -1    0    0    0  501  0.00000000000E+00  0.00000000000E+00  0.25243478585E+03  0.25243478590E+03  0.50400001928E-02 0.  1.
        1   -1    0    0  501    0  0.00000000000E+00  0.00000000000E+00 -0.62869946917E+03  0.62869946919E+03  0.50400001928E-02 0. -1.
    10030    2    1    2    0    0  0.00000000000E+00  0.00000000000E+00 -0.37626468332E+03  0.88113425508E+03  0.79675746848E+03 0.  0.
        2    1    3    3  502    0  0.20098349777E+03 -0.92964893063E+02 -0.55436531650E+03  0.59695706869E+03  0.25500000920E-02 0. -1.
       -2    1    3    3    0  502 -0.20098349777E+03  0.92964893063E+02  0.17810063318E+03  0.28417718639E+03  0.25500000920E-02 0.  1.
</event>
<event>
 5   0  0.1038912E-02  0.8778532E+03  0.7818609E-02  0.9453697E-01
       -1   -1    0    0    0  501  0.00000000000E+00  0.00000000000E+00  0.10458137550E+04  0.10458137550E+04  0.50400001928E-02 0.  1.
        1   -1    0    0  501    0  0.00000000000E+00  0.00000000000E+00 -0.18421691212E+03  0.18421691219E+03  0.50400001928E-02 0. -1.
    10030    2    1    2    0    0  0.00000000000E+00  0.00000000000E+00  0.86159684287E+03  0.12300306672E+04  0.87785324662E+03 0.  0.
        2    1    3    3  502    0  0.41606078413E+03  0.90824401132E+02  0.57975207643E+03  0.71935256867E+03  0.25500000920E-02 0. -1.
       -2    1    3    3    0  502 -0.41606078413E+03 -0.90824401132E+02  0.28184476645E+03  0.51067809852E+03  0.25500000920E-02 0.  1.
</event>
<event>
 5   0  0.1025900E-02  0.8291834E+03  0.7818609E-02  0.9518710E-01
       -1   -1    0    0    0  501  0.00000000000E+00  0.00000000000E+00  0.34030802802E+03  0.34030802805E+03  0.50400001928E-02 0.  1.
        1   -1    0    0  501    0  0.00000000000E+00  0.00000000000E+00 -0.50509024944E+03  0.50509024946E+03  0.50400001928E-02 0. -1.
    10030    2    1    2    0    0  0.00000000000E+00  0.00000000000E+00 -0.16478222142E+03  0.84539827751E+03  0.82918337364E+03 0.  0.
        1    1    3    3  502    0 -0.85043669342E+02  0.31204737368E+03  0.18206564197E+03  0.37115210781E+03  0.50400001928E-02 0.  1.
       -1    1    3    3    0  502  0.85043669342E+02 -0.31204737368E+03 -0.34684786339E+03  0.47424616971E+03  0.50400001928E-02 0. -1.
</event>
<event>
 5   0  0.1049780E-02  0.8451968E+03  0.7818609E-02  0.9496806E-01
       -1   -1    0    0    0  501  0.00000000000E+00  0.00000000000E+00  0.15049718311E+03  0.15049718320E+03  0.50400001928E-02 0. -1.
        1   -1    0    0  501    0  0.00000000000E+00  0.00000000000E+00 -0.11866629124E+04  0.11866629125E+04  0.50400001928E-02 0.  1.
    10030    2    1    2    0    0  0.00000000000E+00  0.00000000000E+00 -0.10361657293E+04  0.13371600957E+04  0.84519684261E+03 0.  0.
        5    1    3    3  502    0  0.41709029517E+03 -0.66571810429E+02 -0.53878413454E+03  0.68462146760E+03  0.46999998093E+01 0.  1.
       -5    1    3    3    0  502 -0.41709029517E+03  0.66571810429E+02 -0.49738159480E+03  0.65253862806E+03  0.46999998093E+01 0. -1.
</event>
<event>
 5   0  0.1030323E-02  0.9561336E+03  0.7818609E-02  0.9358010E-01
       -1   -1    0    0    0  501  0.00000000000E+00  0.00000000000E+00  0.11856357958E+03  0.11856357969E+03  0.50400001928E-02 0.  1.
        1   -1    0    0  501    0  0.00000000000E+00  0.00000000000E+00 -0.19276395202E+04  0.19276395202E+04  0.50400001928E-02 0. -1.
    10030    2    1    2    0    0  0.00000000000E+00  0.00000000000E+00 -0.18090759406E+04  0.20462030999E+04  0.95613355088E+03 0.  0.
        3    1    3    3  502    0 -0.45654736889E+03 -0.89383176127E+02 -0.66890564809E+03  0.81477581485E+03  0.10100000352E+00 0.  1.
       -3    1    3    3    0  502  0.45654736889E+03  0.89383176127E+02 -0.11401702925E+04  0.12314272851E+04  0.10100000352E+00 0. -1.
</event>
<event>
 5   0  0.1747544E-02  0.8031214E+03  0.7818609E-02  0.9555510E-01
        2   -1    0    0  501    0  0.00000000000E+00  0.00000000000E+00  0.10017212736E+04  0.10017212736E+04  0.25500000920E-02 0.  1.
       -2   -1    0    0    0  501  0.00000000000E+00  0.00000000000E+00 -0.16097389594E+03  0.16097389596E+03  0.25500000920E-02 0. -1.
    10030    2    1    2    0    0  0.00000000000E+00  0.00000000000E+00  0.84074737771E+03  0.11626951696E+04  0.80312135093E+03 0.  0.
        1    1    3    3  502    0  0.60697717680E+02 -0.27037413879E+03 -0.37428276308E+00  0.27710382164E+03  0.50400001928E-02 0. -1.
       -1    1    3    3    0  502 -0.60697717680E+02  0.27037413879E+03  0.84112166047E+03  0.88559134797E+03  0.50400001928E-02 0.  1.
</event>
<event>
 5   0  0.1049780E-02  0.7915807E+03  0.7818609E-02  0.9572284E-01
        1   -1    0    0  501    0  0.00000000000E+00  0.00000000000E+00  0.30854752106E+03  0.30854752110E+03  0.50400001928E-02 0. -1.
       -1   -1    0    0    0  501  0.00000000000E+00  0.00000000000E+00 -0.50770135261E+03  0.50770135263E+03  0.50400001928E-02 0.  1.
    10030    2    1    2    0    0  0.00000000000E+00  0.00000000000E+00 -0.19915383155E+03  0.81624887373E+03  0.79158068145E+03 0.  0.
        5    1    3    3  502    0 -0.12934222125E+03  0.24877114090E+03 -0.38758619525E+03  0.47839485729E+03  0.46999998093E+01 0.  1.
       -5    1    3    3    0  502  0.12934222125E+03 -0.24877114090E+03  0.18843236370E+03  0.33785401644E+03  0.46999998093E+01 0. -1.
</event>
<event>
 5   0  0.1025900E-02  0.8061537E+03  0.7818609E-02  0.9551152E-01
        1   -1    0    0  501    0  0.00000000000E+00  0.00000000000E+00  0.90471124238E+03  0.90471124239E+03  0.50400001928E-02 0.  1.
       -1   -1    0    0    0  501  0.00000000000E+00  0.00000000000E+00 -0.17958322048E+03  0.17958322055E+03  0.50400001928E-02 0. -1.
    10030    2    1    2    0    0  0.00000000000E+00  0.00000000000E+00  0.72512802190E+03  0.10842944629E+04  0.80615372866E+03 0.  0.
        1    1    3    3  502    0  0.74665727707E+02 -0.36858237782E+03  0.55767574576E+03  0.67262930175E+03  0.50400001928E-02 0.  1.
       -1    1    3    3    0  502 -0.74665727707E+02  0.36858237782E+03  0.16745227614E+03  0.41166516120E+03  0.50400001928E-02 0. -1.
</event>
<event>
 5   0  0.1025900E-02  0.7946264E+03  0.7818609E-02  0.9567828E-01
       -1   -1    0    0    0  501  0.00000000000E+00  0.00000000000E+00  0.12393487711E+03  0.12393487722E+03  0.50400001928E-02 0.  1.
        1   -1    0    0  501    0  0.00000000000E+00  0.00000000000E+00 -0.12737155706E+04  0.12737155706E+04  0.50400001928E-02 0. -1.
    10030    2    1    2    0    0  0.00000000000E+00  0.00000000000E+00 -0.11497806935E+04  0.13976504478E+04  0.79462640983E+03 0.  0.
        1    1    3    3  502    0  0.91274234550E+02 -0.37154783091E+03 -0.76333669187E+03  0.85385108873E+03  0.50400001928E-02 0. -1.
       -1    1    3    3    0  502 -0.91274234550E+02  0.37154783091E+03 -0.38644400162E+03  0.54379935910E+03  0.50400001928E-02 0.  1.
</event>
<event>
 5   0  0.1038912E-02  0.7960454E+03  0.7818609E-02  0.9565759E-01
       -1   -1    0    0    0  501  0.00000000000E+00  0.00000000000E+00  0.10430344191E+04  0.10430344191E+04  0.50400001928E-02 0. -1.
        1   -1    0    0  501    0  0.00000000000E+00  0.00000000000E+00 -0.15188573956E+03  0.15188573964E+03  0.50400001928E-02 0.  1.
    10030    2    1    2    0    0  0.00000000000E+00  0.00000000000E+00  0.89114867951E+03  0.11949201587E+04  0.79604536098E+03 0.  0.
        2    1    3    3  502    0 -0.19206521785E+03  0.16998952362E+03  0.90244398152E+03  0.93818475038E+03  0.25500000920E-02 0. -1.
       -2    1    3    3    0  502  0.19206521785E+03 -0.16998952362E+03 -0.11295302007E+02  0.25673540835E+03  0.25500000920E-02 0.  1.
</event>
<event>
 5   0  0.1030323E-02  0.8185573E+03  0.7818609E-02  0.9533538E-01
        1   -1    0    0  501    0  0.00000000000E+00  0.00000000000E+00  0.36466650056E+03  0.36466650059E+03  0.50400001928E-02 0. -1.
       -1   -1    0    0    0  501  0.00000000000E+00  0.00000000000E+00 -0.45934845294E+03  0.45934845297E+03  0.50400001928E-02 0.  1.
    10030    2    1    2    0    0  0.00000000000E+00  0.00000000000E+00 -0.94681952383E+02  0.82401495356E+03  0.81855725003E+03 0.  0.
        3    1    3    3  502    0 -0.59388601094E+02  0.14194546837E+03  0.33444150721E+03  0.36813944895E+03  0.10100000352E+00 0. -1.
       -3    1    3    3    0  502  0.59388601094E+02 -0.14194546837E+03 -0.42912345959E+03  0.45587550461E+03  0.10100000352E+00 0.  1.
</event>
<event>
 5   0  0.1747544E-02  0.7972276E+03  0.7818609E-02  0.9564039E-01
       -2   -1    0    0    0  501  0.00000000000E+00  0.00000000000E+00  0.55281112751E+03  0.55281112752E+03  0.25500000920E-02 0.  1.
        2   -1    0    0  501    0  0.00000000000E+00  0.00000000000E+00 -0.28742722558E+03  0.28742722559E+03  0.25500000920E-02 0. -1.
    10030    2    1    2    0    0  0.00000000000E+00  0.00000000000E+00  0.26538390193E+03  0.84023835311E+03  0.79722761783E+03 0.  0.
        1    1    3    3  502    0  0.82635529046E+02  0.88071983892E+00  0.54368336208E+03  0.54992818127E+03  0.50400001928E-02 0.  1.
       -1    1    3    3    0  502 -0.82635529046E+02 -0.88071983892E+00 -0.27829946015E+03  0.29031017184E+03  0.50400001928E-02 0. -1.
</event>
<event>
 5   0  0.1673727E-02  0.8039871E+03  0.7818609E-02  0.9554264E-01
        2   -1    0    0  501    0  0.00000000000E+00  0.00000000000E+00  0.46870163010E+03  0.46870163011E+03  0.25500000920E-02 0.  1.
       -2   -1    0    0    0  501  0.00000000000E+00  0.00000000000E+00 -0.34477970232E+03  0.34477970233E+03  0.25500000920E-02 0. -1.
    10030    2    1    2    0    0  0.00000000000E+00  0.00000000000E+00  0.12392192778E+03  0.81348133244E+03  0.80398708574E+03 0.  0.
        5    1    3    3  502    0 -0.31444086597E+03 -0.24713341308E+03  0.21126775503E+02  0.40052017763E+03  0.46999998093E+01 0. -1.
       -5    1    3    3    0  502  0.31444086597E+03  0.24713341308E+03  0.10279515227E+03  0.41296115481E+03  0.46999998093E+01 0.  1.
</event>
<event>
 5   0  0.1030323E-02  0.7963356E+03  0.7818609E-02  0.9565336E-01
       -1   -1    0    0    0  501  0.00000000000E+00  0.00000000000E+00  0.11914311823E+03  0.11914311833E+03  0.50400001928E-02 0.  1.
        1   -1    0    0  501    0  0.00000000000E+00  0.00000000000E+00 -0.13306484732E+04  0.13306484732E+04  0.50400001928E-02 0. -1.
    10030    2    1    2    0    0  0.00000000000E+00  0.00000000000E+00 -0.12115053550E+04  0.14497915916E+04  0.79633562886E+03 0.  0.
        3    1    3    3  502    0 -0.31614792378E+03  0.22929973008E+03 -0.74688829657E+03  0.84283451145E+03  0.10100000352E+00 0.  1.
       -3    1    3    3    0  502  0.31614792378E+03 -0.22929973008E+03 -0.46461705844E+03  0.60695708013E+03  0.10100000352E+00 0. -1.
</event>
<event>
 5   0  0.6872500E-03  0.8035947E+03  0.7818609E-02  0.9554828E-01
       -4   -1    0    0    0  501  0.00000000000E+00  0.00000000000E+00  0.19112916052E+03  0.19113337987E+03  0.12699999809E+01 0. -1.
        4   -1    0    0  501    0  0.00000000000E+00  0.00000000000E+00 -0.84465621480E+03  0.84465716956E+03  0.12699999809E+01 0.  1.
    10030    2    1    2    0    0  0.00000000000E+00  0.00000000000E+00 -0.65352705428E+03  0.10357905494E+04  0.80359470607E+03 0.  0.
        2    1    3    3  502    0  0.15840578312E+03 -0.18016238783E+03 -0.74221685397E+03  0.78002354864E+03  0.25500000920E-02 0.  1.
       -2    1    3    3    0  502 -0.15840578312E+03  0.18016238783E+03  0.88689799689E+02  0.25576700079E+03  0.25500000920E-02 0. -1.
</event>
<event>
 5   0  0.1146083E-02  0.7965694E+03  0.7818609E-02  0.9564996E-01
       -1   -1    0    0    0  501  0.00000000000E+00  0.00000000000E+00  0.38289347816E+03  0.38289347819E+03  0.50400001928E-02 0.  1.
        1   -1    0    0  501    0  0.00000000000E+00  0.00000000000E+00 -0.41429463136E+03  0.41429463139E+03  0.50400001928E-02 0. -1.
    10030    2    1    2    0    0  0.00000000000E+00  0.00000000000E+00 -0.31401153205E+02  0.79718810959E+03  0.79656942550E+03 0.  0.
        4    1    3    3  502    0 -0.34555784094E+03 -0.11059787510E+03  0.14870418365E+03  0.39211816911E+03  0.12699999809E+01 0.  1.
       -4    1    3    3    0  502  0.34555784094E+03  0.11059787510E+03 -0.18010533686E+03  0.40506994048E+03  0.12699999809E+01 0. -1.
</event>
<event>
 5   0  0.1038912E-02  0.8335659E+03  0.7818609E-02  0.9512664E-01
        1   -1    0    0  501    0  0.00000000000E+00  0.00000000000E+00  0.11944077428E+04  0.11944077428E+04  0.50400001928E-02 0.  1.
       -1   -1    0    0    0  501  0.00000000000E+00  0.00000000000E+00 -0.14543444099E+03  0.14543444108E+03  0.50400001928E-02 0. -1.
    10030    2    1    2    0    0  0.00000000000E+00  0.00000000000E+00  0.10489733018E+04  0.13398421839E+04  0.83356588810E+03 0.  0.
        2    1    3    3  502    0  0.74346883681E+02 -0.37384778118E+03  0.25352144751E+03  0.45778023872E+03  0.25500000920E-02 0. -1.
       -2    1    3    3    0  502 -0.74346883681E+02  0.37384778118E+03  0.79545185426E+03  0.88206194514E+03  0.25500000920E-02 0.  1.
</event>
<event>
 5   0  0.1025900E-02  0.7932413E+03  0.7818609E-02  0.9569852E-01
       -1   -1    0    0    0  501  0.00000000000E+00  0.00000000000E+00  0.19063549534E+03  0.19063549541E+03  0.50400001928E-02 0. -1.
        1   -1    0    0  501    0  0.00000000000E+00  0.00000000000E+00 -0.82517652281E+03  0.82517652282E+03  0.50400001928E-02 0.  1.
    10030    2    1    2    0    0  0.00000000000E+00  0.00000000000E+00 -0.63454102747E+03  0.10158120182E+04  0.79324128791E+03 0.  0.
        1    1    3    3  502    0  0.26396461744E+03 -0.29209505627E+03 -0.37883309813E+03  0.54636192897E+03  0.50400001928E-02 0.  1.
       -1    1    3    3    0  502 -0.26396461744E+03  0.29209505627E+03 -0.25570792934E+03  0.46945008927E+03  0.50400001928E-02 0. -1.
</event>
<event>
 5   0  0.1049780E-02  0.8367784E+03  0.7818609E-02  0.9508256E-01
        1   -1    0    0  501    0  0.00000000000E+00  0.00000000000E+00  0.79872843665E+03  0.79872843667E+03  0.50400001928E-02 0. -1.
       -1   -1    0    0    0  501  0.00000000000E+00  0.00000000000E+00 -0.21916024091E+03  0.21916024096E+03  0.50400001928E-02 0.  1.
    10030    2    1    2    0    0  0.00000000000E+00  0.00000000000E+00  0.57956819575E+03  0.10178886776E+04  0.83677838556E+03 0.  0.
        5    1    3    3  502    0  0.40938498321E+03  0.82300546113E+02  0.25858105662E+03  0.49117786718E+03  0.46999998093E+01 0.  1.
       -5    1    3    3    0  502 -0.40938498321E+03 -0.82300546113E+02  0.32098713913E+03  0.52671081046E+03  0.46999998093E+01 0. -1.
</event>
<event>
 5   0  0.1673727E-02  0.7963123E+03  0.7818609E-02  0.9565370E-01
       -2   -1    0    0    0  501  0.00000000000E+00  0.00000000000E+00  0.16707258094E+03  0.16707258096E+03  0.25500000920E-02 0. -1.
        2   -1    0    0  501    0  0.00000000000E+00  0.00000000000E+00 -0.94885902815E+03  0.94885902815E+03  0.25500000920E-02 0.  1.
    10030    2    1    2    0    0  0.00000000000E+00  0.00000000000E+00 -0.78178644720E+03  0.11159316091E+04  0.79631231762E+03 0.  0.
        5    1    3    3  502    0 -0.60340647761E+02  0.21274226419E+03  0.73056857212E+02  0.23293702824E+03  0.46999998093E+01 0. -1.
       -5    1    3    3    0  502  0.60340647761E+02 -0.21274226419E+03 -0.85484330442E+03  0.88299458087E+03  0.46999998093E+01 0.  1.
</event>
<event>
 5   0  0.1731337E-02  0.7704310E+03  0.7818609E-02  0.9603831E-01
       -2   -1    0    0    0  501  0.00000000000E+00  0.00000000000E+00  0.12910593728E+03  0.12910593731E+03  0.25500000920E-02 0. -1.
        2   -1    0    0  501    0  0.00000000000E+00  0.00000000000E+00 -0.11493739390E+04  0.11493739390E+04  0.25500000920E-02 0.  1.
    10030    2    1    2    0    0  0.00000000000E+00  0.00000000000E+00 -0.10202680018E+04  0.12784798764E+04  0.77043104742E+03 0.  0.
        4    1    3    3  502    0 -0.15166468185E+03 -0.12214282254E+03  0.41408569029E+02  0.19909125371E+03  0.12699999809E+01 0. -1.
       -4    1    3    3    0  502  0.15166468185E+03  0.12214282254E+03 -0.10616765708E+04  0.10793886226E+04  0.12699999809E+01 0.  1.
</event>
<event>
 5   0  0.1049780E-02  0.7925425E+03  0.7818609E-02  0.9570875E-01
        1   -1    0    0  501    0  0.00000000000E+00  0.00000000000E+00  0.84435032368E+03  0.84435032369E+03  0.50400001928E-02 0. -1.
       -1   -1    0    0    0  501  0.00000000000E+00  0.00000000000E+00 -0.18597836845E+03  0.18597836852E+03  0.50400001928E-02 0.  1.
    10030    2    1    2    0    0  0.00000000000E+00  0.00000000000E+00  0.65837195523E+03  0.10303286922E+04  0.79254247997E+03 0.  0.
        5    1    3    3  502    0  0.88892867683E+02  0.37777829220E+03  0.22526143114E+03  0.44875737581E+03  0.46999998093E+01 0.  1.
       -5    1    3    3    0  502 -0.88892867683E+02 -0.37777829220E+03  0.43311052409E+03  0.58157131640E+03  0.46999998093E+01 0. -1.
</event>
<event>
 5   0  0.6872500E-03  0.8028147E+03  0.7818609E-02  0.9555952E-01
        3   -1    0    0  501    0  0.00000000000E+00  0.00000000000E+00  0.67415859552E+03  0.67415860308E+03  0.10100000352E+00 0.  1.
       -3   -1    0    0    0  501  0.00000000000E+00  0.00000000000E+00 -0.23900585845E+03  0.23900587979E+03  0.10100000352E+00 0. -1.
    10030    2    1    2    0    0  0.00000000000E+00  0.00000000000E+00  0.43515273707E+03  0.91316448287E+03  0.80281471598E+03 0.  0.
        2    1    3    3  502    0 -0.38221660881E+02  0.96092872834E+02  0.65874582247E+03  0.66681391272E+03  0.25500000920E-02 0.  1.
       -2    1    3    3    0  502  0.38221660881E+02 -0.96092872834E+02 -0.22359308540E+03  0.24635057015E+03  0.25500000920E-02 0. -1.
</event>
<event>
 5   0  0.1818665E-02  0.8072110E+03  0.7818609E-02  0.9549638E-01
       -2   -1    0    0    0  501  0.00000000000E+00  0.00000000000E+00  0.14182851197E+03  0.14182851199E+03  0.25500000920E-02 0. -1.
        2   -1    0    0  501    0  0.00000000000E+00  0.00000000000E+00 -0.11485519486E+04  0.11485519486E+04  0.25500000920E-02 0.  1.
    10030    2    1    2    0    0  0.00000000000E+00  0.00000000000E+00 -0.10067234366E+04  0.12903804606E+04  0.80721103510E+03 0.  0.
        3    1    3    3  502    0 -0.28330010580E+03 -0.23410711032E+03 -0.77005086992E+03  0.85325461705E+03  0.10100000352E+00 0.  1.
       -3    1    3    3    0  502  0.28330010580E+03  0.23410711032E+03 -0.23667256668E+03  0.43712584351E+03  0.10100000352E+00 0. -1.
</event>
<event>
 5   0  0.1731337E-02  0.8004355E+03  0.7818609E-02  0.9559387E-01
        2   -1    0    0  501    0  0.00000000000E+00  0.00000000000E+00  0.94772420884E+03  0.94772420885E+03  0.25500000920E-02 0. -1.
       -2   -1    0    0    0  501  0.00000000000E+00  0.00000000000E+00 -0.16900933496E+03  0.16900933498E+03  0.25500000920E-02 0.  1.
    10030    2    1    2    0    0  0.00000000000E+00  0.00000000000E+00  0.77871487389E+03  0.11167335438E+04  0.80043547716E+03 0.  0.
        4    1    3    3  502    0  0.38704879119E+03 -0.93629281085E+02  0.33356131741E+03  0.51945930967E+03  0.12699999809E+01 0. -1.
       -4    1    3    3    0  502 -0.38704879119E+03  0.93629281085E+02  0.44515355648E+03  0.59727423415E+03  0.12699999809E+01 0.  1.
</event>
<event>
 5   0  0.1731337E-02  0.7898408E+03  0.7818609E-02  0.9574840E-01
       -2   -1    0    0    0  501  0.00000000000E+00  0.00000000000E+00  0.14968069257E+03  0.14968069259E+03  0.25500000920E-02 0. -1.
        2   -1    0    0  501    0  0.00000000000E+00  0.00000000000E+00 -0.10419656104E+04  0.10419656104E+04  0.25500000920E-02 0.  1.
    10030    2    1    2    0    0  0.00000000000E+00  0.00000000000E+00 -0.89228491784E+03  0.11916463030E+04  0.78984083009E+03 0.  0.
        4    1    3    3  502    0 -0.64551101468E+02  0.49468296276E+02  0.13690701468E+03  0.15924541000E+03  0.12699999809E+01 0. -1.
       -4    1    3    3    0  502  0.64551101468E+02 -0.49468296276E+02 -0.10291919325E+04  0.10324008930E+04  0.12699999809E+01 0.  1.
</event>
<event>
 5   0  0.1146083E-02  0.7983627E+03  0.7818609E-02  0.9562390E-01
       -1   -1    0    0    0  501  0.00000000000E+00  0.00000000000E+00  0.20260329893E+03  0.20260329899E+03  0.50400001928E-02 0.  1.
        1   -1    0    0  501    0  0.00000000000E+00  0.00000000000E+00 -0.78649140825E+03  0.78649140827E+03  0.50400001928E-02 0. -1.
    10030    2    1    2    0    0  0.00000000000E+00  0.00000000000E+00 -0.58388810933E+03  0.98909470726E+03  0.79836270937E+03 0.  0.
        4    1    3    3  502    0  0.15428556492E+03  0.14274865935E+03 -0.71237432733E+03  0.74273818430E+03  0.12699999809E+01 0. -1.
       -4    1    3    3    0  502 -0.15428556492E+03 -0.14274865935E+03  0.12848621800E+03  0.24635652296E+03  0.12699999809E+01 0.  1.
</event>
<event>
 5   0  0.1030323E-02  0.7938752E+03  0.7818609E-02  0.9568925E-01
       -1   -1    0    0    0  501  0.00000000000E+00  0.00000000000E+00  0.24797593145E+03  0.24797593150E+03  0.50400001928E-02 0. -1.
        1   -1    0    0  501    0  0.00000000000E+00  0.00000000000E+00 -0.63538211472E+03  0.63538211474E+03  0.50400001928E-02 0.  1.
    10030    2    1    2    0    0  0.00000000000E+00  0.00000000000E+00 -0.38740618327E+03  0.88335804624E+03  0.79387523391E+03 0.  0.
        3    1    3    3  502    0 -0.13276606290E+03  0.37323133597E+03 -0.22165429773E+03  0.45393732553E+03  0.10100000352E+00 0. -1.
       -3    1    3    3    0  502  0.13276606290E+03 -0.37323133597E+03 -0.16575188554E+03  0.42942072071E+03  0.10100000352E+00 0.  1.
</event>
<event>
 5   0  0.1030323E-02  0.7758464E+03  0.7818609E-02  0.9595652E-01
        1   -1    0    0  501    0  0.00000000000E+00  0.00000000000E+00  0.14675965831E+03  0.14675965840E+03  0.50400001928E-02 0. -1.
       -1   -1    0    0    0  501  0.00000000000E+00  0.00000000000E+00 -0.10253798801E+04  0.10253798801E+04  0.50400001928E-02 0.  1.
    10030    2    1    2    0    0  0.00000000000E+00  0.00000000000E+00 -0.87862022182E+03  0.11721395385E+04  0.77584637887E+03 0.  0.
        3    1    3    3  502    0 -0.11513437284E+03  0.13432019081E+03 -0.96088564156E+03  0.97703585596E+03  0.10100000352E+00 0.  1.
       -3    1    3    3    0  502  0.11513437284E+03 -0.13432019081E+03  0.82265419744E+02  0.19510368258E+03  0.10100000352E+00 0. -1.
</event>
<event>
 5   0  0.1747544E-02  0.8030983E+03  0.7818609E-02  0.9555543E-01
       -2   -1    0    0    0  501  0.00000000000E+00  0.00000000000E+00  0.35876589695E+03  0.35876589696E+03  0.25500000920E-02 0. -1.
        2   -1    0    0  501    0  0.00000000000E+00  0.00000000000E+00 -0.44943440918E+03  0.44943440919E+03  0.25500000920E-02 0.  1.
    10030    2    1    2    0    0  0.00000000000E+00  0.00000000000E+00 -0.90668512231E+02  0.80820030615E+03  0.80309834750E+03 0.  0.
        1    1    3    3  502    0  0.18821482812E+03 -0.12934519821E+03 -0.37771530516E+03  0.44138855173E+03  0.50400001928E-02 0.  1.
       -1    1    3    3    0  502 -0.18821482812E+03  0.12934519821E+03  0.28704679293E+03  0.36681175442E+03  0.50400001928E-02 0. -1.
</event>
<event>
 5   0  0.1146083E-02  0.8029655E+03  0.7818609E-02  0.9555735E-01
       -1   -1    0    0    0  501  0.00000000000E+00  0.00000000000E+00  0.20270473005E+03  0.20270473011E+03  0.50400001928E-02 0. -1.
        1   -1    0    0  501    0  0.00000000000E+00  0.00000000000E+00 -0.79518811828E+03  0.79518811829E+03  0.50400001928E-02 0.  1.
    10030    2    1    2    0    0  0.00000000000E+00  0.00000000000E+00 -0.59248338823E+03  0.99789284841E+03  0.80296548592E+03 0.  0.
        4    1    3    3  502    0  0.20665524962E+03  0.26385512150E+02 -0.72275298876E+03  0.75218088457E+03  0.12699999809E+01 0.  1.
       -4    1    3    3    0  502 -0.20665524962E+03 -0.26385512150E+02  0.13026960054E+03  0.24571196383E+03  0.12699999809E+01 0. -1.
</event>
<event>
 5   0  0.1818665E-02  0.7524877E+03  0.7818609E-02  0.9631456E-01
        2   -1    0    0  501    0  0.00000000000E+00  0.00000000000E+00  0.19741566501E+03  0.19741566503E+03  0.25500000920E-02 0. -1.
       -2   -1    0    0    0  501  0.00000000000E+00  0.00000000000E+00 -0.71706290588E+03  0.71706290589E+03  0.25500000920E-02 0.  1.
    10030    2    1    2    0    0  0.00000000000E+00  0.00000000000E+00 -0.51964724087E+03  0.91447857092E+03  0.75248774191E+03 0.  0.
        3    1    3    3  502    0  0.14541248228E+03 -0.34683377021E+03 -0.24645637900E+03  0.44964342663E+03  0.10100000352E+00 0.  1.
       -3    1    3    3    0  502 -0.14541248228E+03  0.34683377021E+03 -0.27319086187E+03  0.46483514429E+03  0.10100000352E+00 0. -1.
</event>
<event>
 5   0  0.1049780E-02  0.7884429E+03  0.7818609E-02  0.9576898E-01
       -1   -1    0    0    0  501  0.00000000000E+00  0.00000000000E+00  0.52168986351E+02  0.52168986595E+02  0.50400001928E-02 0.  1.
        1   -1    0    0  501    0  0.00000000000E+00  0.00000000000E+00 -0.29789838368E+04  0.29789838368E+04  0.50400001928E-02 0. -1.
    10030    2    1    2    0    0  0.00000000000E+00  0.00000000000E+00 -0.29268148505E+04  0.30311528234E+04  0.78844294023E+03 0.  0.
        5    1    3    3  502    0 -0.29006184160E+03 -0.24848245699E+03 -0.18382998633E+04  0.18775643480E+04  0.46999998093E+01 0. -1.
       -5    1    3    3    0  502  0.29006184160E+03  0.24848245699E+03 -0.10885149872E+04  0.11535884754E+04  0.46999998093E+01 0.  1.
</event>
<event>
 5   0  0.1818665E-02  0.7943876E+03  0.7818609E-02  0.9568177E-01
       -2   -1    0    0    0  501  0.00000000000E+00  0.00000000000E+00  0.79504980989E+03  0.79504980989E+03  0.25500000920E-02 0. -1.
        2   -1    0    0  501    0  0.00000000000E+00  0.00000000000E+00 -0.19843148106E+03  0.19843148108E+03  0.25500000920E-02 0.  1.
    10030    2    1    2    0    0  0.00000000000E+00  0.00000000000E+00  0.59661832883E+03  0.99348129097E+03  0.79438759130E+03 0.  0.
        3    1    3    3  502    0  0.37481865942E+02  0.50537339736E+02 -0.19215924454E+03  0.20219816627E+03  0.10100000352E+00 0.  1.
       -3    1    3    3    0  502 -0.37481865942E+02 -0.50537339736E+02  0.78877757337E+03  0.79128312470E+03  0.10100000352E+00 0. -1.
</event>
<event>
 5   0  0.1747544E-02  0.7968983E+03  0.7818609E-02  0.9564518E-01
       -2   -1    0    0    0  501  0.00000000000E+00  0.00000000000E+00  0.49504921964E+03  0.49504921964E+03  0.25500000920E-02 0.  1.
        2   -1    0    0  501    0  0.00000000000E+00  0.00000000000E+00 -0.32069885349E+03  0.32069885350E+03  0.25500000920E-02 0. -1.
    10030    2    1    2    0    0  0.00000000000E+00  0.00000000000E+00  0.17435036615E+03  0.81574807314E+03  0.79689827999E+03 0.  0.
        1    1    3    3  502    0 -0.27794811953E+03  0.22193346627E+03 -0.96661486096E+02  0.36858250572E+03  0.50400001928E-02 0. -1.
       -1    1    3    3    0  502  0.27794811953E+03 -0.22193346627E+03  0.27101185225E+03  0.44716556742E+03  0.50400001928E-02 0.  1.
</event>
<event>
 5   0  0.1049780E-02  0.8014893E+03  0.7818609E-02  0.9557864E-01
       -1   -1    0    0    0  501  0.00000000000E+00  0.00000000000E+00  0.21901748098E+03  0.21901748104E+03  0.50400001928E-02 0.  1.
        1   -1    0    0  501    0  0.00000000000E+00  0.00000000000E+00 -0.73325773028E+03  0.73325773029E+03  0.50400001928E-02 0. -1.
    10030    2    1    2    0    0  0.00000000000E+00  0.00000000000E+00 -0.51424024929E+03  0.95227521134E+03  0.80148926639E+03 0.  0.
        5    1    3    3  502    0 -0.38157153342E+03  0.11330891182E+03 -0.31206306841E+03  0.50580746661E+03  0.46999998093E+01 0.  1.
       -5    1    3    3    0  502  0.38157153342E+03 -0.11330891182E+03 -0.20217718089E+03  0.44646774473E+03  0.46999998093E+01 0. -1.
</event>
<event>
 5   0  0.1038912E-02  0.7060196E+03  0.7818609E-02  0.9706993E-01
        1   -1    0    0  501    0  0.00000000000E+00  0.00000000000E+00  0.58083556687E+03  0.58083556689E+03  0.50400001928E-02 0. -1.
       -1   -1    0    0    0  501  0.00000000000E+00  0.00000000000E+00 -0.21454592413E+03  0.21454592419E+03  0.50400001928E-02 0.  1.
    10030    2    1    2    0    0  0.00000000000E+00  0.00000000000E+00  0.36628964274E+03  0.79538149109E+03  0.70601955637E+03 0.  0.
        2    1    3    3  502    0  0.46334795745E+02 -0.99298605417E+02  0.56119101592E+03  0.57178884450E+03  0.25500000920E-02 0. -1.
       -2    1    3    3    0  502 -0.46334795745E+02  0.99298605417E+02 -0.19490137318E+03  0.22359264659E+03  0.25500000920E-02 0.  1.
</event>
<event>
 5   0  0.1817089E-02  0.8010334E+03  0.7818609E-02  0.9558522E-01
        2   -1    0    0  501    0  0.00000000000E+00  0.00000000000E+00  0.21184508774E+03  0.21184508776E+03  0.25500000920E-02 0.  1.
       -2   -1    0    0    0  501  0.00000000000E+00  0.00000000000E+00 -0.75722146163E+03  0.75722146164E+03  0.25500000920E-02 0. -1.
    10030    2    1    2    0    0  0.00000000000E+00  0.00000000000E+00 -0.54537637389E+03  0.96906654939E+03  0.80103344996E+03 0.  0.
        2    1    3    3  502    0 -0.14088865572E+03 -0.50600188035E+02 -0.72210389155E+03  0.73745781069E+03  0.25500000920E-02 0. -1.
       -2    1    3    3    0  502  0.14088865572E+03  0.50600188035E+02  0.17672751766E+03  0.23160873871E+03  0.25500000920E-02 0.  1.
</event>
<event>
 5   0  0.1817089E-02  0.8025931E+03  0.7818609E-02  0.9556271E-01
       -2   -1    0    0    0  501  0.00000000000E+00  0.00000000000E+00  0.20682197789E+03  0.20682197791E+03  0.25500000920E-02 0.  1.
        2   -1    0    0  501    0  0.00000000000E+00  0.00000000000E+00 -0.77863549845E+03  0.77863549846E+03  0.25500000920E-02 0. -1.
    10030    2    1    2    0    0  0.00000000000E+00  0.00000000000E+00 -0.57181352056E+03  0.98545747637E+03  0.80259313193E+03 0.  0.
        2    1    3    3  502    0  0.34325626752E+03  0.20721395347E+03 -0.26549183862E+03  0.48088294218E+03  0.25500000920E-02 0. -1.
       -2    1    3    3    0  502 -0.34325626752E+03 -0.20721395347E+03 -0.30632168195E+03  0.50457453418E+03  0.25500000920E-02 0.  1.
</event>
<event>
 5   0  0.1030323E-02  0.7986817E+03  0.7818609E-02  0.9561927E-01
       -1   -1    0    0    0  501  0.00000000000E+00  0.00000000000E+00  0.13157185194E+03  0.13157185204E+03  0.50400001928E-02 0.  1.
        1   -1    0    0  501    0  0.00000000000E+00  0.00000000000E+00 -0.12120611109E+04  0.12120611109E+04  0.50400001928E-02 0. -1.
    10030    2    1    2    0    0  0.00000000000E+00  0.00000000000E+00 -0.10804892589E+04  0.13436329629E+04  0.79868172660E+03 0.  0.
        3    1    3    3  502    0  0.29570075757E+03  0.13695520255E+03 -0.15193459445E+03  0.35955499820E+03  0.10100000352E+00 0.  1.
       -3    1    3    3    0  502 -0.29570075757E+03 -0.13695520255E+03 -0.92855466450E+03  0.98407796475E+03  0.10100000352E+00 0. -1.
</event>
<event>
 5   0  0.1038912E-02  0.8029396E+03  0.7818609E-02  0.9555772E-01
       -1   -1    0    0    0  501  0.00000000000E+00  0.00000000000E+00  0.98148657992E+02  0.98148658122E+02  0.50400001928E-02 0. -1.
        1   -1    0    0  501    0  0.00000000000E+00  0.00000000000E+00 -0.16421825716E+04  0.16421825716E+04  0.50400001928E-02 0.  1.
    10030    2    1    2    0    0  0.00000000000E+00  0.00000000000E+00 -0.15440339136E+04  0.17403312298E+04  0.80293963834E+03 0.  0.
        2    1    3    3  502    0 -0.31271151277E+03 -0.47179208759E+02 -0.23597880061E+03  0.39458885223E+03  0.25500000920E-02 0. -1.
       -2    1    3    3    0  502  0.31271151277E+03  0.47179208759E+02 -0.13080551130E+04  0.13457423775E+04  0.25500000920E-02 0.  1.
</event>
<event>
 5   0  0.1747544E-02  0.7928816E+03  0.7818609E-02  0.9570378E-01
       -2   -1    0    0    0  501  0.00000000000E+00  0.00000000000E+00  0.36283714338E+03  0.36283714339E+03  0.25500000920E-02 0. -1.
        2   -1    0    0  501    0  0.00000000000E+00  0.00000000000E+00 -0.43315657727E+03  0.43315657728E+03  0.25500000920E-02 0.  1.
    10030    2    1    2    0    0  0.00000000000E+00  0.00000000000E+00 -0.70319433892E+02  0.79599372066E+03  0.79288156780E+03 0.  0.
        1    1    3    3  502    0 -0.32149146274E+03  0.19206041659E+03 -0.16575232003E+03  0.40953363214E+03  0.50400001928E-02 0.  1.
       -1    1    3    3    0  502  0.32149146274E+03 -0.19206041659E+03  0.95432886141E+02  0.38646008852E+03  0.50400001928E-02 0. -1.
</event>
<event>
 5   0  0.1146083E-02  0.8040205E+03  0.7818609E-02  0.9554216E-01
       -1   -1    0    0    0  501  0.00000000000E+00  0.00000000000E+00  0.80489051578E+02  0.80489051736E+02  0.50400001928E-02 0.  1.
        1   -1    0    0  501    0  0.00000000000E+00  0.00000000000E+00 -0.20078785736E+04  0.20078785736E+04  0.50400001928E-02 0. -1.
    10030    2    1    2    0    0  0.00000000000E+00  0.00000000000E+00 -0.19273895220E+04  0.20883676253E+04  0.80402050283E+03 0.  0.
        4    1    3    3  502    0  0.39988406073E+03 -0.40261898614E+02 -0.98726496180E+03  0.10659371465E+04  0.12699999809E+01 0. -1.
       -4    1    3    3    0  502 -0.39988406073E+03  0.40261898614E+02 -0.94012456017E+03  0.10224304788E+04  0.12699999809E+01 0.  1.
</event>
<event>
 5   0  0.1747544E-02  0.7979451E+03  0.7818609E-02  0.9562996E-01
       -2   -1    0    0    0  501  0.00000000000E+00  0.00000000000E+00  0.22011455651E+03  0.22011455653E+03  0.25500000920E-02 0.  1.
        2   -1    0    0  501    0  0.00000000000E+00  0.00000000000E+00 -0.72316479669E+03  0.72316479670E+03  0.25500000920E-02 0. -1.
    10030    2    1    2    0    0  0.00000000000E+00  0.00000000000E+00 -0.50305024018E+03  0.94327935323E+03  0.79794510718E+03 0.  0.
        1    1    3    3  502    0 -0.39851403254E+03 -0.15015177319E+02 -0.23752747523E+03  0.46417474209E+03  0.50400001928E-02 0.  1.
       -1    1    3    3    0  502  0.39851403254E+03  0.15015177319E+02 -0.26552276494E+03  0.47910461113E+03  0.50400001928E-02 0. -1.
</event>
<event>
 5   0  0.1025900E-02  0.8865965E+03  0.7818609E-02  0.9442493E-01
        1   -1    0    0  501    0  0.00000000000E+00  0.00000000000E+00  0.11048054006E+04  0.11048054006E+04  0.50400001928E-02 0.  1.
       -1   -1    0    0    0  501  0.00000000000E+00  0.00000000000E+00 -0.17787143069E+03  0.17787143076E+03  0.50400001928E-02 0. -1.
    10030    2    1    2    0    0  0.00000000000E+00  0.00000000000E+00  0.92693396988E+03  0.12826768313E+04  0.88659645225E+03 0.  0.
        1    1    3    3  502    0  0.42327829837E+03 -0.77786036006E+02  0.30968885219E+03  0.53020974195E+03  0.50400001928E-02 0. -1.
       -1    1    3    3    0  502 -0.42327829837E+03  0.77786036006E+02  0.61724511769E+03  0.75246708939E+03  0.50400001928E-02 0.  1.
</event>
<event>
 5   0  0.1731337E-02  0.8017781E+03  0.7818609E-02  0.9557447E-01
       -2   -1    0    0    0  501  0.00000000000E+00  0.00000000000E+00  0.86292807032E+02  0.86292807069E+02  0.25500000920E-02 0. -1.
        2   -1    0    0  501    0  0.00000000000E+00  0.00000000000E+00 -0.18624033419E+04  0.18624033419E+04  0.25500000920E-02 0.  1.
    10030    2    1    2    0    0  0.00000000000E+00  0.00000000000E+00 -0.17761105348E+04  0.19486961489E+04  0.80177805466E+03 0.  0.
        4    1    3    3  502    0  0.84525419183E+00 -0.33876456187E+03 -0.14090393806E+04  0.14491914062E+04  0.12699999809E+01 0.  1.
       -4    1    3    3    0  502 -0.84525419183E+00  0.33876456187E+03 -0.36707115419E+03  0.49950474269E+03  0.12699999809E+01 0. -1.
</event>
<event>
 5   0  0.6872500E-03  0.7828813E+03  0.7818609E-02  0.9585132E-01
        3   -1    0    0  501    0  0.00000000000E+00  0.00000000000E+00  0.61952576797E+03  0.61952577620E+03  0.10100000352E+00 0. -1.
       -3   -1    0    0    0  501  0.00000000000E+00  0.00000000000E+00 -0.24732751578E+03  0.24732753641E+03  0.10100000352E+00 0.  1.
    10030    2    1    2    0    0  0.00000000000E+00  0.00000000000E+00  0.37219825218E+03  0.86685331261E+03  0.78288129793E+03 0.  0.
        2    1    3    3  502    0  0.13410024739E+03  0.57583181156E+02 -0.21607735881E+03  0.26074532421E+03  0.25500000920E-02 0.  1.
       -2    1    3    3    0  502 -0.13410024739E+03 -0.57583181156E+02  0.58827561099E+03  0.60610798839E+03  0.25500000920E-02 0. -1.
</event>
<event>
 5   0  0.1818665E-02  0.7998884E+03  0.7818609E-02  0.9560179E-01
       -2   -1    0    0    0  501  0.00000000000E+00  0.00000000000E+00  0.17925355009E+03  0.17925355011E+03  0.25500000920E-02 0.  1.
        2   -1    0    0  501    0  0.00000000000E+00  0.00000000000E+00 -0.89234143447E+03  0.89234143448E+03  0.25500000920E-02 0. -1.
    10030    2    1    2    0    0  0.00000000000E+00  0.00000000000E+00 -0.71308788438E+03  0.10715949846E+04  0.79988841730E+03 0.  0.
        3    1    3    3  502    0  0.17127309110E+03 -0.30617399124E+03 -0.61381276149E+03  0.70699582814E+03  0.10100000352E+00 0.  1.
       -3    1    3    3    0  502 -0.17127309110E+03  0.30617399124E+03 -0.99275122897E+02  0.36459915644E+03  0.10100000352E+00 0. -1.
</event>
<event>
 5   0  0.1817089E-02  0.7984608E+03  0.7818609E-02  0.9562248E-01
        2   -1    0    0  501    0  0.00000000000E+00  0.00000000000E+00  0.67272507361E+03  0.67272507362E+03  0.25500000920E-02 0.  1.
       -2   -1    0    0    0  501  0.00000000000E+00  0.00000000000E+00 -0.23692431422E+03  0.23692431423E+03  0.25500000920E-02 0. -1.
    10030    2    1    2    0    0  0.00000000000E+00  0.00000000000E+00  0.43580075939E+03  0.90964938785E+03  0.79846083619E+03 0.  0.
        2    1    3    3  502    0 -0.12909207040E+03  0.94543363972E+01  0.64815648374E+03  0.66095459340E+03  0.25500000920E-02 0.  1.
       -2    1    3    3    0  502  0.12909207040E+03 -0.94543363972E+01 -0.21235572435E+03  0.24869479445E+03  0.25500000920E-02 0. -1.
</event>
<event>
 5   0  0.1747544E-02  0.7786760E+03  0.7818609E-02  0.9591406E-01
        2   -1    0    0  501    0  0.00000000000E+00  0.00000000000E+00  0.11649812958E+03  0.11649812961E+03  0.25500000920E-02 0. -1.
       -2   -1    0    0    0  501  0.00000000000E+00  0.00000000000E+00 -0.13011718479E+04  0.13011718479E+04  0.25500000920E-02 0.  1.
    10030    2    1    2    0    0  0.00000000000E+00  0.00000000000E+00 -0.11846737183E+04  0.14176699775E+04  0.77867602137E+03 0.  0.
        1    1    3    3  502    0 -0.32142956939E+03  0.45194739224E+02 -0.20090632013E+03  0.38173666581E+03  0.50400001928E-02 0. -1.
       -1    1    3    3    0  502  0.32142956939E+03 -0.45194739224E+02 -0.98376739815E+03  0.10359333117E+04  0.50400001928E-02 0.  1.
</event>
<event>
 5   0  0.1038912E-02  0.8029967E+03  0.7818609E-02  0.9555690E-01
       -1   -1    0    0    0  501  0.00000000000E+00  0.00000000000E+00  0.19367528430E+03  0.19367528436E+03  0.50400001928E-02 0.  1.
        1   -1    0    0  501    0  0.00000000000E+00  0.00000000000E+00 -0.83232573364E+03  0.83232573366E+03  0.50400001928E-02 0. -1.
    10030    2    1    2    0    0  0.00000000000E+00  0.00000000000E+00 -0.63865044935E+03  0.10260010180E+04  0.80299669522E+03 0.  0.
        2    1    3    3  502    0 -0.35953677377E+03 -0.10675759773E+03 -0.13621903315E+03  0.39902318400E+03  0.25500000920E-02 0.  1.
       -2    1    3    3    0  502  0.35953677377E+03  0.10675759773E+03 -0.50243141620E+03  0.62697783402E+03  0.25500000920E-02 0. -1.
</event>
<event>
 5   0  0.1817089E-02  0.7556576E+03  0.7818609E-02  0.9626516E-01
        2   -1    0    0  501    0  0.00000000000E+00  0.00000000000E+00  0.82794809258E+03  0.82794809259E+03  0.25500000920E-02 0.  1.
       -2   -1    0    0    0  501  0.00000000000E+00  0.00000000000E+00 -0.17241973082E+03  0.17241973083E+03  0.25500000920E-02 0. -1.
    10030    2    1    2    0    0  0.00000000000E+00  0.00000000000E+00  0.65552836177E+03  0.10003678234E+04  0.75565756071E+03 0.  0.
        2    1    3    3  502    0  0.39423565330E+02  0.12341726739E+03 -0.14209286491E+03  0.19229254187E+03  0.25500000920E-02 0. -1.
       -2    1    3    3    0  502 -0.39423565330E+02 -0.12341726739E+03  0.79762122668E+03  0.80807528155E+03  0.25500000920E-02 0.  1.
</event>
<event>
 5   0  0.1030323E-02  0.8714874E+03  0.7818609E-02  0.9461943E-01
        1   -1    0    0  501    0  0.00000000000E+00  0.00000000000E+00  0.15712144877E+04  0.15712144877E+04  0.50400001928E-02 0. -1.
       -1   -1    0    0    0  501  0.00000000000E+00  0.00000000000E+00 -0.12084445429E+03  0.12084445440E+03  0.50400001928E-02 0.  1.
    10030    2    1    2    0    0  0.00000000000E+00  0.00000000000E+00  0.14503700334E+04  0.16920589421E+04  0.87148736639E+03 0.  0.
        3    1    3    3  502    0 -0.11392282797E+03  0.41918426482E+03  0.79184327170E+03  0.90316644964E+03  0.10100000352E+00 0. -1.
       -3    1    3    3    0  502  0.11392282797E+03 -0.41918426482E+03  0.65852676172E+03  0.78889249249E+03  0.10100000352E+00 0.  1.
</event>
<event>
 5   0  0.1146083E-02  0.8010308E+03  0.7818609E-02  0.9558526E-01
        1   -1    0    0  501    0  0.00000000000E+00  0.00000000000E+00  0.39841311496E+03  0.39841311499E+03  0.50400001928E-02 0.  1.
       -1   -1    0    0    0  501  0.00000000000E+00  0.00000000000E+00 -0.40262880440E+03  0.40262880443E+03  0.50400001928E-02 0. -1.
    10030    2    1    2    0    0  0.00000000000E+00  0.00000000000E+00 -0.42156894449E+01  0.80104191942E+03  0.80103082627E+03 0.  0.
        4    1    3    3  502    0 -0.24254392588E+03 -0.17225772205E+03 -0.27027327167E+03  0.40193224935E+03  0.12699999809E+01 0. -1.
       -4    1    3    3    0  502  0.24254392588E+03  0.17225772205E+03  0.26605758223E+03  0.39910967007E+03  0.12699999809E+01 0.  1.
</event>
<event>
 5   0  0.1038912E-02  0.7915935E+03  0.7818609E-02  0.9572265E-01
        1   -1    0    0  501    0  0.00000000000E+00  0.00000000000E+00  0.68614813292E+03  0.68614813294E+03  0.50400001928E-02 0. -1.
       -1   -1    0    0    0  501  0.00000000000E+00  0.00000000000E+00 -0.22831087375E+03  0.22831087381E+03  0.50400001928E-02 0.  1.
    10030    2    1    2    0    0  0.00000000000E+00  0.00000000000E+00  0.45783725917E+03  0.91445900674E+03  0.79159353151E+03 0.  0.
        2    1    3    3  502    0 -0.12538858341E+03  0.12012924684E+03  0.63979414945E+03  0.66294033402E+03  0.25500000920E-02 0. -1.
       -2    1    3    3    0  502  0.12538858341E+03 -0.12012924684E+03 -0.18195689029E+03  0.25151867272E+03  0.25500000920E-02 0.  1.
</event>
<event>
 5   0  0.1049780E-02  0.7990856E+03  0.7818609E-02  0.9561342E-01
       -1   -1    0    0    0  501  0.00000000000E+00  0.00000000000E+00  0.14978096686E+03  0.14978096695E+03  0.50400001928E-02 0. -1.
        1   -1    0    0  501    0  0.00000000000E+00  0.00000000000E+00 -0.10657860307E+04  0.10657860307E+04  0.50400001928E-02 0.  1.
    10030    2    1    2    0    0  0.00000000000E+00  0.00000000000E+00 -0.91600506380E+03  0.12155669976E+04  0.79908563295E+03 0.  0.
        5    1    3    3  502    0  0.34541855445E+03  0.41710011623E+02 -0.75671035534E+03  0.83287835529E+03  0.46999998093E+01 0.  1.
       -5    1    3    3    0  502 -0.34541855445E+03 -0.41710011623E+02 -0.15929470846E+03  0.38268864233E+03  0.46999998093E+01 0. -1.
</event>
<event>
 5   0  0.1818665E-02  0.7961847E+03  0.7818609E-02  0.9565556E-01
       -2   -1    0    0    0  501  0.00000000000E+00  0.00000000000E+00  0.25311496817E+03  0.25311496818E+03  0.25500000920E-02 0. -1.
        2   -1    0    0  501    0  0.00000000000E+00  0.00000000000E+00 -0.62610884588E+03  0.62610884589E+03  0.25500000920E-02 0.  1.
    10030    2    1    2    0    0  0.00000000000E+00  0.00000000000E+00 -0.37299387772E+03  0.87922381407E+03  0.79618470370E+03 0.  0.
        3    1    3    3  502    0 -0.24237108732E+03 -0.29533828625E+03 -0.62988109711E+02  0.38721564982E+03  0.10100000352E+00 0.  1.
       -3    1    3    3    0  502  0.24237108732E+03  0.29533828625E+03 -0.31000576800E+03  0.49200816425E+03  0.10100000352E+00 0. -1.
</event>
<event>
 5   0  0.1731337E-02  0.8032526E+03  0.7818609E-02  0.9555321E-01
        2   -1    0    0  501    0  0.00000000000E+00  0.00000000000E+00  0.13960476678E+04  0.13960476678E+04  0.25500000920E-02 0.  1.
       -2   -1    0    0    0  501  0.00000000000E+00  0.00000000000E+00 -0.11554310717E+03  0.11554310720E+03  0.25500000920E-02 0. -1.
    10030    2    1    2    0    0  0.00000000000E+00  0.00000000000E+00  0.12805045606E+04  0.15115907750E+04  0.80325260116E+03 0.  0.
        4    1    3    3  502    0 -0.16235006669E+03  0.21870305154E+03  0.11956765242E+04  0.12263084980E+04  0.12699999809E+01 0.  1.
       -4    1    3    3    0  502  0.16235006669E+03 -0.21870305154E+03  0.84828036474E+02  0.28528227701E+03  0.12699999809E+01 0. -1.
</event>
<event>
 5   0  0.1673727E-02  0.7986936E+03  0.7818609E-02  0.9561910E-01
       -2   -1    0    0    0  501  0.00000000000E+00  0.00000000000E+00  0.25197822350E+03  0.25197822351E+03  0.25500000920E-02 0.  1.
        2   -1    0    0  501    0  0.00000000000E+00  0.00000000000E+00 -0.63290329542E+03  0.63290329543E+03  0.25500000920E-02 0. -1.
    10030    2    1    2    0    0  0.00000000000E+00  0.00000000000E+00 -0.38092507193E+03  0.88488151894E+03  0.79869355333E+03 0.  0.
        5    1    3    3  502    0 -0.23849291096E+03 -0.57719608145E+02  0.15856524780E+03  0.29219077595E+03  0.46999998093E+01 0.  1.
       -5    1    3    3    0  502  0.23849291096E+03  0.57719608145E+02 -0.53949031972E+03  0.59269074298E+03  0.46999998093E+01 0. -1.
</event>
<event>
 5   0  0.1038912E-02  0.8006043E+03  0.7818609E-02  0.9559143E-01
       -1   -1    0    0    0  501  0.00000000000E+00  0.00000000000E+00  0.21567587811E+03  0.21567587817E+03  0.50400001928E-02 0. -1.
        1   -1    0    0  501    0  0.00000000000E+00  0.00000000000E+00 -0.74297511499E+03  0.74297511500E+03  0.50400001928E-02 0.  1.
    10030    2    1    2    0    0  0.00000000000E+00  0.00000000000E+00 -0.52729923688E+03  0.95865099317E+03  0.80060429770E+03 0.  0.
        2    1    3    3  502    0 -0.10763825241E+03  0.38270950271E+03 -0.31967575018E+03  0.51014227633E+03  0.25500000920E-02 0.  1.
       -2    1    3    3    0  502  0.10763825241E+03 -0.38270950271E+03 -0.20762348670E+03  0.44850871684E+03  0.25500000920E-02 0. -1.
</event>
<event>
 5   0  0.6872500E-03  0.7976022E+03  0.7818609E-02  0.9563494E-01
        4   -1    0    0  501    0  0.00000000000E+00  0.00000000000E+00  0.68259529492E+03  0.68259647637E+03  0.12699999809E+01 0. -1.
       -4   -1    0    0    0  501  0.00000000000E+00  0.00000000000E+00 -0.23299338076E+03  0.23299684199E+03  0.12699999809E+01 0.  1.
    10030    2    1    2    0    0  0.00000000000E+00  0.00000000000E+00  0.44960191417E+03  0.91559331836E+03  0.79760218367E+03 0.  0.
        1    1    3    3  502    0 -0.15098895045E+03  0.20143608401E+03  0.57985950466E+03  0.63214808730E+03  0.50400001928E-02 0. -1.
       -1    1    3    3    0  502  0.15098895045E+03 -0.20143608401E+03 -0.13025759050E+03  0.28344523106E+03  0.50400001928E-02 0.  1.
</event>
<event>
 5   0  0.6872500E-03  0.7182465E+03  0.7818609E-02  0.9686527E-01
        3   -1    0    0  501    0  0.00000000000E+00  0.00000000000E+00  0.26361345075E+03  0.26361347010E+03  0.10100000352E+00 0.  1.
       -3   -1    0    0    0  501  0.00000000000E+00  0.00000000000E+00 -0.48923720704E+03  0.48923721747E+03  0.10100000352E+00 0. -1.
    10030    2    1    2    0    0  0.00000000000E+00  0.00000000000E+00 -0.22562375629E+03  0.75285068757E+03  0.71824653036E+03 0.  0.
        4    1    3    3  502    0  0.22092593646E+03 -0.28267118454E+03 -0.96020110866E+02  0.37139297592E+03  0.12699999809E+01 0.  1.
       -4    1    3    3    0  502 -0.22092593646E+03  0.28267118454E+03 -0.12960364543E+03  0.38145771165E+03  0.12699999809E+01 0. -1.
</event>
<event>
 5   0  0.6872500E-03  0.8403919E+03  0.7818609E-02  0.9503324E-01
        3   -1    0    0  501    0  0.00000000000E+00  0.00000000000E+00  0.88838315914E+03  0.88838316488E+03  0.10100000352E+00 0. -1.
       -3   -1    0    0    0  501  0.00000000000E+00  0.00000000000E+00 -0.19874829053E+03  0.19874831619E+03  0.10100000352E+00 0.  1.
    10030    2    1    2    0    0  0.00000000000E+00  0.00000000000E+00  0.68963486861E+03  0.10871314811E+04  0.84039193542E+03 0.  0.
        2    1    3    3  502    0  0.11895277968E+03  0.39130818548E+03  0.22011547085E+03  0.46445955726E+03  0.25500000920E-02 0.  1.
       -2    1    3    3    0  502 -0.11895277968E+03 -0.39130818548E+03  0.46951939776E+03  0.62267192381E+03  0.25500000920E-02 0. -1.
</event>
<event>
 5   0  0.1146083E-02  0.6958048E+03  0.7818609E-02  0.9724434E-01
        1   -1    0    0  501    0  0.00000000000E+00  0.00000000000E+00  0.71244915242E+03  0.71244915244E+03  0.50400001928E-02 0. -1.
       -1   -1    0    0    0  501  0.00000000000E+00  0.00000000000E+00 -0.16988732951E+03  0.16988732958E+03  0.50400001928E-02 0.  1.
    10030    2    1    2    0    0  0.00000000000E+00  0.00000000000E+00  0.54256182292E+03  0.88233648202E+03  0.69580481158E+03 0.  0.
        4    1    3    3  502    0 -0.14919980550E+03  0.21701127756E+03 -0.16994790398E+02  0.26390322535E+03  0.12699999809E+01 0.  1.
       -4    1    3    3    0  502  0.14919980550E+03 -0.21701127756E+03  0.55955661331E+03  0.61843325667E+03  0.12699999809E+01 0. -1.
</event>
<event>
 5   0  0.1025900E-02  0.7853071E+03  0.7818609E-02  0.9581531E-01
       -1   -1    0    0    0  501  0.00000000000E+00  0.00000000000E+00  0.11336375596E+03  0.11336375607E+03  0.50400001928E-02 0. -1.
        1   -1    0    0  501    0  0.00000000000E+00  0.00000000000E+00 -0.13600184678E+04  0.13600184678E+04  0.50400001928E-02 0.  1.
    10030    2    1    2    0    0  0.00000000000E+00  0.00000000000E+00 -0.12466547119E+04  0.14733822239E+04  0.78530707822E+03 0.  0.
        1    1    3    3  502    0 -0.37904769689E+03  0.96648121658E+01 -0.81471890732E+03  0.89863088256E+03  0.50400001928E-02 0.  1.
       -1    1    3    3    0  502  0.37904769689E+03 -0.96648121658E+01 -0.43193580453E+03  0.57475134134E+03  0.50400001928E-02 0. -1.
</event>
<event>
 5   0  0.1731337E-02  0.7772750E+03  0.7818609E-02  0.9593506E-01
       -2   -1    0    0    0  501  0.00000000000E+00  0.00000000000E+00  0.89856207069E+03  0.89856207069E+03  0.25500000920E-02 0. -1.
        2   -1    0    0  501    0  0.00000000000E+00  0.00000000000E+00 -0.16808979039E+03  0.16808979041E+03  0.25500000920E-02 0.  1.
    10030    2    1    2    0    0  0.00000000000E+00  0.00000000000E+00  0.73047228030E+03  0.10666518611E+04  0.77727500957E+03 0.  0.
        4    1    3    3  502    0 -0.61490592685E+02 -0.55774087446E+02  0.88624939156E+03  0.89013001228E+03  0.12699999809E+01 0. -1.
       -4    1    3    3    0  502  0.61490592685E+02  0.55774087446E+02 -0.15577711126E+03  0.17652184882E+03  0.12699999809E+01 0.  1.
</event>
<event>
 5   0  0.1673727E-02  0.8001972E+03  0.7818609E-02  0.9559732E-01
       -2   -1    0    0    0  501  0.00000000000E+00  0.00000000000E+00  0.45798263902E+03  0.45798263903E+03  0.25500000920E-02 0. -1.
        2   -1    0    0  501    0  0.00000000000E+00  0.00000000000E+00 -0.34953048280E+03  0.34953048281E+03  0.25500000920E-02 0.  1.
    10030    2    1    2    0    0  0.00000000000E+00  0.00000000000E+00  0.10845215622E+03  0.80751312183E+03  0.80019720803E+03 0.  0.
        5    1    3    3  502    0  0.37007622128E+03 -0.53681762718E+02 -0.89266275675E+02  0.38448497913E+03  0.46999998093E+01 0. -1.
       -5    1    3    3    0  502 -0.37007622128E+03  0.53681762718E+02  0.19771843190E+03  0.42302814270E+03  0.46999998093E+01 0.  1.
</event>
<event>
 5   0  0.1049780E-02  0.7908009E+03  0.7818609E-02  0.9573429E-01
        1   -1    0    0  501    0  0.00000000000E+00  0.00000000000E+00  0.25796190147E+03  0.25796190151E+03  0.50400001928E-02 0. -1.
       -1   -1    0    0    0  501  0.00000000000E+00  0.00000000000E+00 -0.60606442862E+03  0.60606442864E+03  0.50400001928E-02 0.  1.
    10030    2    1    2    0    0  0.00000000000E+00  0.00000000000E+00 -0.34810252715E+03  0.86402633015E+03  0.79080094195E+03 0.  0.
        5    1    3    3  502    0  0.37600883786E+03  0.99991221669E+02 -0.25083329713E+03  0.46294743060E+03  0.46999998093E+01 0.  1.
       -5    1    3    3    0  502 -0.37600883786E+03 -0.99991221669E+02 -0.97269230025E+02  0.40107889955E+03  0.46999998093E+01 0. -1.
</event>
<event>
 5   0  0.1747544E-02  0.7929097E+03  0.7818609E-02  0.9570337E-01
       -2   -1    0    0    0  501  0.00000000000E+00  0.00000000000E+00  0.19860903930E+03  0.19860903931E+03  0.25500000920E-02 0.  1.
        2   -1    0    0  501    0  0.00000000000E+00  0.00000000000E+00 -0.79138612982E+03  0.79138612983E+03  0.25500000920E-02 0. -1.
    10030    2    1    2    0    0  0.00000000000E+00  0.00000000000E+00 -0.59277709053E+03  0.98999516914E+03  0.79290967699E+03 0.  0.
        1    1    3    3  502    0  0.10054914268E+03  0.10019644099E+03 -0.75856988119E+03  0.77173682143E+03  0.50400001928E-02 0.  1.
       -1    1    3    3    0  502 -0.10054914268E+03 -0.10019644099E+03  0.16579279067E+03  0.21825834770E+03  0.50400001928E-02 0. -1.
</event>
<event>
 5   0  0.1817089E-02  0.8016092E+03  0.7818609E-02  0.9557691E-01
        2   -1    0    0  501    0  0.00000000000E+00  0.00000000000E+00  0.11764732963E+04  0.11764732964E+04  0.25500000920E-02 0.  1.
       -2   -1    0    0    0  501  0.00000000000E+00  0.00000000000E+00 -0.13654738043E+03  0.13654738045E+03  0.25500000920E-02 0. -1.
    10030    2    1    2    0    0  0.00000000000E+00  0.00000000000E+00  0.10399259159E+04  0.13130206768E+04  0.80160924839E+03 0.  0.
        2    1    3    3  502    0 -0.73968539819E+02  0.36921935104E+03  0.74485048093E+03  0.83462357564E+03  0.25500000920E-02 0.  1.
       -2    1    3    3    0  502  0.73968539819E+02 -0.36921935104E+03  0.29507543499E+03  0.47839710117E+03  0.25500000920E-02 0. -1.
</event>
<event>
 5   0  0.1817089E-02  0.8018013E+03  0.7818609E-02  0.9557413E-01
        2   -1    0    0  501    0  0.00000000000E+00  0.00000000000E+00  0.10640675300E+04  0.10640675300E+04  0.25500000920E-02 0. -1.
       -2   -1    0    0    0  501  0.00000000000E+00  0.00000000000E+00 -0.15104430186E+03  0.15104430188E+03  0.25500000920E-02 0.  1.
    10030    2    1    2    0    0  0.00000000000E+00  0.00000000000E+00  0.91302322815E+03  0.12151118319E+04  0.80180131507E+03 0.  0.
        2    1    3    3  502    0 -0.34717500825E+03 -0.17451261373E+03  0.60604707559E+03  0.71991540929E+03  0.25500000920E-02 0. -1.
       -2    1    3    3    0  502  0.34717500825E+03  0.17451261373E+03  0.30697615256E+03  0.49519642259E+03  0.25500000920E-02 0.  1.
</event>
<event>
 5   0  0.1146083E-02  0.8052842E+03  0.7818609E-02  0.9552400E-01
        1   -1    0    0  501    0  0.00000000000E+00  0.00000000000E+00  0.48876698203E+03  0.48876698206E+03  0.50400001928E-02 0.  1.
       -1   -1    0    0    0  501  0.00000000000E+00  0.00000000000E+00 -0.33169317878E+03  0.33169317882E+03  0.50400001928E-02 0. -1.
    10030    2    1    2    0    0  0.00000000000E+00  0.00000000000E+00  0.15707380325E+03  0.82046016088E+03  0.80528423300E+03 0.  0.
        4    1    3    3  502    0  0.29917698316E+03 -0.96339318462E+02 -0.17786204295E+03  0.36114353207E+03  0.12699999809E+01 0. -1.
       -4    1    3    3    0  502 -0.29917698316E+03  0.96339318462E+02  0.33493584620E+03  0.45931662881E+03  0.12699999809E+01 0.  1.
</event>
<event>
 5   0  0.1025900E-02  0.8543251E+03  0.7818609E-02  0.9484550E-01
       -1   -1    0    0    0  501  0.00000000000E+00  0.00000000000E+00  0.20739046813E+03  0.20739046820E+03  0.50400001928E-02 0.  1.
        1   -1    0    0  501    0  0.00000000000E+00  0.00000000000E+00 -0.87982760148E+03  0.87982760149E+03  0.50400001928E-02 0. -1.
    10030    2    1    2    0    0  0.00000000000E+00  0.00000000000E+00 -0.67243713334E+03  0.10872180697E+04  0.85432513293E+03 0.  0.
        1    1    3    3  502    0 -0.87938984979E+02  0.28161444251E+03 -0.72934401654E+03  0.78675450669E+03  0.50400001928E-02 0. -1.
       -1    1    3    3    0  502  0.87938984979E+02 -0.28161444251E+03  0.56906883197E+02  0.30046356300E+03  0.50400001928E-02 0.  1.
</event>
<event>
 5   0  0.1673727E-02  0.7924872E+03  0.7818609E-02  0.9570956E-01
        2   -1    0    0  501    0  0.00000000000E+00  0.00000000000E+00  0.22600043407E+04  0.22600043407E+04  0.25500000920E-02 0.  1.
       -2   -1    0    0    0  501  0.00000000000E+00  0.00000000000E+00 -0.69472866867E+02  0.69472866914E+02  0.25500000920E-02 0. -1.
    10030    2    1    2    0    0  0.00000000000E+00  0.00000000000E+00  0.21905314738E+04  0.23294772076E+04  0.79248717526E+03 0.  0.
        5    1    3    3  502    0 -0.43719142291E+02 -0.39323362691E+03  0.10334084846E+04  0.11065709353E+04  0.46999998093E+01 0. -1.
       -5    1    3    3    0  502  0.43719142291E+02  0.39323362691E+03  0.11571229892E+04  0.12229062723E+04  0.46999998093E+01 0.  1.
</event>
<event>
 5   0  0.1049780E-02  0.8053748E+03  0.7818609E-02  0.9552270E-01
        1   -1    0    0  501    0  0.00000000000E+00  0.00000000000E+00  0.66124858625E+03  0.66124858627E+03  0.50400001928E-02 0. -1.
       -1   -1    0    0    0  501  0.00000000000E+00  0.00000000000E+00 -0.24522869076E+03  0.24522869081E+03  0.50400001928E-02 0.  1.
    10030    2    1    2    0    0  0.00000000000E+00  0.00000000000E+00  0.41601989549E+03  0.90647727708E+03  0.80537475774E+03 0.  0.
        5    1    3    3  502    0 -0.24660225323E+02  0.75408432008E+02 -0.23631330564E+03  0.24932032960E+03  0.46999998093E+01 0.  1.
       -5    1    3    3    0  502  0.24660225323E+02 -0.75408432008E+02  0.65233320113E+03  0.65715694748E+03  0.46999998093E+01 0. -1.
</event>
<event>
 5   0  0.1817089E-02  0.8026739E+03  0.7818609E-02  0.9556155E-01
       -2   -1    0    0    0  501  0.00000000000E+00  0.00000000000E+00  0.15193031495E+03  0.15193031497E+03  0.25500000920E-02 0.  1.
        2   -1    0    0  501    0  0.00000000000E+00  0.00000000000E+00 -0.10601659192E+04  0.10601659192E+04  0.25500000920E-02 0. -1.
    10030    2    1    2    0    0  0.00000000000E+00  0.00000000000E+00 -0.90823560421E+03  0.12120962341E+04  0.80267388649E+03 0.  0.
        2    1    3    3  502    0  0.19263969455E+03  0.85580123092E+02  0.61605503041E+02  0.21961158302E+03  0.25500000920E-02 0.  1.
       -2    1    3    3    0  502 -0.19263969455E+03 -0.85580123092E+02 -0.96984110725E+03  0.99248465112E+03  0.25500000920E-02 0. -1.
</event>
<event>
 5   0  0.1731337E-02  0.8020357E+03  0.7818609E-02  0.9557075E-01
        2   -1    0    0  501    0  0.00000000000E+00  0.00000000000E+00  0.16055333665E+04  0.16055333665E+04  0.25500000920E-02 0.  1.
       -2   -1    0    0    0  501  0.00000000000E+00  0.00000000000E+00 -0.10016318109E+03  0.10016318112E+03  0.25500000920E-02 0. -1.
    10030    2    1    2    0    0  0.00000000000E+00  0.00000000000E+00  0.15053701854E+04  0.17056965476E+04  0.80203573329E+03 0.  0.
        4    1    3    3  502    0 -0.25584859547E+02 -0.32412088014E+03  0.25345274864E+03  0.41224851567E+03  0.12699999809E+01 0. -1.
       -4    1    3    3    0  502  0.25584859547E+02  0.32412088014E+03  0.12519174368E+04  0.12934480320E+04  0.12699999809E+01 0.  1.
</event>
<event>
 5   0  0.1146083E-02  0.8107851E+03  0.7818609E-02  0.9544536E-01
        1   -1    0    0  501    0  0.00000000000E+00  0.00000000000E+00  0.28993710570E+03  0.28993710575E+03  0.50400001928E-02 0. -1.
       -1   -1    0    0    0  501  0.00000000000E+00  0.00000000000E+00 -0.56682339373E+03  0.56682339375E+03  0.50400001928E-02 0.  1.
    10030    2    1    2    0    0  0.00000000000E+00  0.00000000000E+00 -0.27688628802E+03  0.85676049950E+03  0.81078513615E+03 0.  0.
        4    1    3    3  502    0 -0.22893818357E+03  0.27121894443E+03  0.68544556760E+02  0.36148634397E+03  0.12699999809E+01 0. -1.
       -4    1    3    3    0  502  0.22893818357E+03 -0.27121894443E+03 -0.34543084478E+03  0.49527415553E+03  0.12699999809E+01 0.  1.
</event>
<event>
 5   0  0.1673727E-02  0.7237358E+03  0.7818609E-02  0.9677480E-01
       -2   -1    0    0    0  501  0.00000000000E+00  0.00000000000E+00  0.87373602556E+02  0.87373602593E+02  0.25500000920E-02 0. -1.
        2   -1    0    0  501    0  0.00000000000E+00  0.00000000000E+00 -0.14987177861E+04  0.14987177861E+04  0.25500000920E-02 0.  1.
    10030    2    1    2    0    0  0.00000000000E+00  0.00000000000E+00 -0.14113441836E+04  0.15860913887E+04  0.72373578665E+03 0.  0.
        5    1    3    3  502    0  0.12161816466E+03 -0.29137474523E+03 -0.10929977773E+04  0.11376978735E+04  0.46999998093E+01 0.  1.
       -5    1    3    3    0  502 -0.12161816466E+03  0.29137474523E+03 -0.31834640627E+03  0.44839351525E+03  0.46999998093E+01 0. -1.
</event>
<event>
 5   0  0.1818665E-02  0.8080090E+03  0.7818609E-02  0.9548496E-01
       -2   -1    0    0    0  501  0.00000000000E+00  0.00000000000E+00  0.57342831705E+03  0.57342831706E+03  0.25500000920E-02 0. -1.
        2   -1    0    0  501    0  0.00000000000E+00  0.00000000000E+00 -0.28463824419E+03  0.28463824420E+03  0.25500000920E-02 0.  1.
    10030    2    1    2    0    0  0.00000000000E+00  0.00000000000E+00  0.28879007286E+03  0.85806656126E+03  0.80800898347E+03 0.  0.
        3    1    3    3  502    0 -0.78908264626E+02 -0.32574052800E+03 -0.95159751681E+02  0.34840894700E+03  0.10100000352E+00 0.  1.
       -3    1    3    3    0  502  0.78908264626E+02  0.32574052800E+03  0.38394982454E+03  0.50965761426E+03  0.10100000352E+00 0. -1.
</event>
<event>
 5   0  0.1731337E-02  0.7911072E+03  0.7818609E-02  0.9572979E-01
       -2   -1    0    0    0  501  0.00000000000E+00  0.00000000000E+00  0.16370784972E+03  0.16370784974E+03  0.25500000920E-02 0. -1.
        2   -1    0    0  501    0  0.00000000000E+00  0.00000000000E+00 -0.95574318163E+03  0.95574318163E+03  0.25500000920E-02 0.  1.
    10030    2    1    2    0    0  0.00000000000E+00  0.00000000000E+00 -0.79203533191E+03  0.11194510314E+04  0.79110722702E+03 0.  0.
        4    1    3    3  502    0 -0.99600396745E+02  0.98515771005E+02  0.12742493412E+03  0.18937878155E+03  0.12699999809E+01 0. -1.
       -4    1    3    3    0  502  0.99600396745E+02 -0.98515771005E+02 -0.91946026603E+03  0.93007224981E+03  0.12699999809E+01 0.  1.
</event>
<event>
 5   0  0.1038912E-02  0.8040777E+03  0.7818609E-02  0.9554133E-01
       -1   -1    0    0    0  501  0.00000000000E+00  0.00000000000E+00  0.21810721663E+03  0.21810721669E+03  0.50400001928E-02 0.  1.
        1   -1    0    0  501    0  0.00000000000E+00  0.00000000000E+00 -0.74108159710E+03  0.74108159712E+03  0.50400001928E-02 0. -1.
    10030    2    1    2    0    0  0.00000000000E+00  0.00000000000E+00 -0.52297438047E+03  0.95918881381E+03  0.80407771883E+03 0.  0.
        2    1    3    3  502    0  0.38154227342E+03 -0.12076430848E+03 -0.21564607917E+03  0.45460065561E+03  0.25500000920E-02 0. -1.
       -2    1    3    3    0  502 -0.38154227342E+03  0.12076430848E+03 -0.30732830130E+03  0.50458815820E+03  0.25500000920E-02 0.  1.
</event>
<event>
 5   0  0.1673727E-02  0.7946223E+03  0.7818609E-02  0.9567834E-01
       -2   -1    0    0    0  501  0.00000000000E+00  0.00000000000E+00  0.16541300115E+03  0.16541300117E+03  0.25500000920E-02 0.  1.
        2   -1    0    0  501    0  0.00000000000E+00  0.00000000000E+00 -0.95431519465E+03  0.95431519466E+03  0.25500000920E-02 0. -1.
    10030    2    1    2    0    0  0.00000000000E+00  0.00000000000E+00 -0.78890219351E+03  0.11197281958E+04  0.79462227606E+03 0.  0.
        5    1    3    3  502    0 -0.15458053145E+03 -0.32834620888E+02 -0.90808100675E+03  0.92174099282E+03  0.46999998093E+01 0. -1.
       -5    1    3    3    0  502  0.15458053145E+03  0.32834620888E+02  0.11917881324E+03  0.19798720301E+03  0.46999998093E+01 0.  1.
</event>
<event>
 5   0  0.1030323E-02  0.7986500E+03  0.7818609E-02  0.9561973E-01
       -1   -1    0    0    0  501  0.00000000000E+00  0.00000000000E+00  0.29864395088E+03  0.29864395092E+03  0.50400001928E-02 0. -1.
        1   -1    0    0  501    0  0.00000000000E+00  0.00000000000E+00 -0.53394836443E+03  0.53394836445E+03  0.50400001928E-02 0.  1.
    10030    2    1    2    0    0  0.00000000000E+00  0.00000000000E+00 -0.23530441355E+03  0.83259231538E+03  0.79864998378E+03 0.  0.
        3    1    3    3  502    0  0.13190421506E+03 -0.27832821514E+03 -0.38260943458E+03  0.49117746989E+03  0.10100000352E+00 0.  1.
       -3    1    3    3    0  502 -0.13190421506E+03  0.27832821514E+03  0.14730502103E+03  0.34141484549E+03  0.10100000352E+00 0. -1.
</event>
<event>
 5   0  0.1731337E-02  0.8060245E+03  0.7818609E-02  0.9551338E-01
        2   -1    0    0  501    0  0.00000000000E+00  0.00000000000E+00  0.25837956390E+03  0.25837956391E+03  0.25500000920E-02 0. -1.
       -2   -1    0    0    0  501  0.00000000000E+00  0.00000000000E+00 -0.62860571617E+03  0.62860571617E+03  0.25500000920E-02 0.  1.
    10030    2    1    2    0    0  0.00000000000E+00  0.00000000000E+00 -0.37022615227E+03  0.88698528008E+03  0.80602449297E+03 0.  0.
        4    1    3    3  502    0  0.14414666406E+03 -0.37364396147E+03 -0.13554189904E+03  0.42280171476E+03  0.12699999809E+01 0. -1.
       -4    1    3    3    0  502 -0.14414666406E+03  0.37364396147E+03 -0.23468425323E+03  0.46418356533E+03  0.12699999809E+01 0.  1.
</event>
<event>
 5   0  0.1025900E-02  0.8047052E+03  0.7818609E-02  0.9553231E-01
       -1   -1    0    0    0  501  0.00000000000E+00  0.00000000000E+00  0.67621272983E+03  0.67621272985E+03  0.50400001928E-02 0.  1.
        1   -1    0    0  501    0  0.00000000000E+00  0.00000000000E+00 -0.23940338476E+03  0.23940338482E+03  0.50400001928E-02 0. -1.
    10030    2    1    2    0    0  0.00000000000E+00  0.00000000000E+00  0.43680934507E+03  0.91561611467E+03  0.80470520409E+03 0.  0.
        1    1    3    3  502    0  0.33345448605E+03 -0.83198749313E+02  0.45646290107E+03  0.57137755139E+03  0.50400001928E-02 0.  1.
       -1    1    3    3    0  502 -0.33345448605E+03  0.83198749313E+02 -0.19653556004E+02  0.34423856327E+03  0.50400001928E-02 0. -1.
</event>
<event>
 5   0  0.1673727E-02  0.7763416E+03  0.7818609E-02  0.9594907E-01
       -2   -1    0    0    0  501  0.00000000000E+00  0.00000000000E+00  0.27146923747E+03  0.27146923748E+03  0.25500000920E-02 0. -1.
        2   -1    0    0  501    0  0.00000000000E+00  0.00000000000E+00 -0.55504106321E+03  0.55504106322E+03  0.25500000920E-02 0.  1.
    10030    2    1    2    0    0  0.00000000000E+00  0.00000000000E+00 -0.28357182574E+03  0.82651030070E+03  0.77634161090E+03 0.  0.
        5    1    3    3  502    0  0.30718780992E+03 -0.23155500026E+03 -0.19682198063E+03  0.43213776827E+03  0.46999998093E+01 0. -1.
       -5    1    3    3    0  502 -0.30718780992E+03  0.23155500026E+03 -0.86749845111E+02  0.39437253243E+03  0.46999998093E+01 0.  1.
</event>
<event>
 5   0  0.1049780E-02  0.8044612E+03  0.7818609E-02  0.9553582E-01
       -1   -1    0    0    0  501  0.00000000000E+00  0.00000000000E+00  0.28585050456E+03  0.28585050460E+03  0.50400001928E-02 0.  1.
        1   -1    0    0  501    0  0.00000000000E+00  0.00000000000E+00 -0.56599331469E+03  0.56599331471E+03  0.50400001928E-02 0. -1.
    10030    2    1    2    0    0  0.00000000000E+00  0.00000000000E+00 -0.28014281013E+03  0.85184381932E+03  0.80446124732E+03 0.  0.
        5    1    3    3  502    0 -0.15016122644E+03 -0.77922997205E+02 -0.52645665302E+03  0.55299103513E+03  0.46999998093E+01 0. -1.
       -5    1    3    3    0  502  0.15016122644E+03  0.77922997205E+02  0.24631384290E+03  0.29885278419E+03  0.46999998093E+01 0.  1.
</event>
<event>
 5   0  0.1049780E-02  0.8056223E+03  0.7818609E-02  0.9551915E-01
        1   -1    0    0  501    0  0.00000000000E+00  0.00000000000E+00  0.36391413066E+03  0.36391413069E+03  0.50400001928E-02 0.  1.
       -1   -1    0    0    0  501  0.00000000000E+00  0.00000000000E+00 -0.44586568308E+03  0.44586568311E+03  0.50400001928E-02 0. -1.
    10030    2    1    2    0    0  0.00000000000E+00  0.00000000000E+00 -0.81951552426E+02  0.80977981381E+03  0.80562229978E+03 0.  0.
        5    1    3    3  502    0  0.26512543881E+03 -0.15187038378E+03  0.22282598354E+03  0.37819257094E+03  0.46999998093E+01 0.  1.
       -5    1    3    3    0  502 -0.26512543881E+03  0.15187038378E+03 -0.30477753597E+03  0.43158724287E+03  0.46999998093E+01 0. -1.
</event>
<event>
 5   0  0.1673727E-02  0.8003116E+03  0.7818609E-02  0.9559566E-01
        2   -1    0    0  501    0  0.00000000000E+00  0.00000000000E+00  0.99338347958E+03  0.99338347959E+03  0.25500000920E-02 0.  1.
       -2   -1    0    0    0  501  0.00000000000E+00  0.00000000000E+00 -0.16119120199E+03  0.16119120201E+03  0.25500000920E-02 0. -1.
    10030    2    1    2    0    0  0.00000000000E+00  0.00000000000E+00  0.83219227760E+03  0.11545746816E+04  0.80031163211E+03 0.  0.
        5    1    3    3  502    0  0.37287985534E+03  0.90879657976E+02  0.57934014034E+03  0.69495006077E+03  0.46999998093E+01 0.  1.
       -5    1    3    3    0  502 -0.37287985534E+03 -0.90879657976E+02  0.25285213725E+03  0.45962462082E+03  0.46999998093E+01 0. -1.
</event>
<event>
 5   0  0.1146083E-02  0.7899635E+03  0.7818609E-02  0.9574659E-01
       -1   -1    0    0    0  501  0.00000000000E+00  0.00000000000E+00  0.17777001453E+03  0.17777001461E+03  0.50400001928E-02 0.  1.
        1   -1    0    0  501    0  0.00000000000E+00  0.00000000000E+00 -0.87759774712E+03  0.87759774713E+03  0.50400001928E-02 0. -1.
    10030    2    1    2    0    0  0.00000000000E+00  0.00000000000E+00 -0.69982773258E+03  0.10553677617E+04  0.78996345309E+03 0.  0.
        4    1    3    3  502    0  0.37044269698E+03 -0.68867531748E+02 -0.19162295398E+03  0.42271917163E+03  0.12699999809E+01 0. -1.
       -4    1    3    3    0  502 -0.37044269698E+03  0.68867531748E+02 -0.50820477860E+03  0.63264859011E+03  0.12699999809E+01 0.  1.
</event>
<event>
 5   0  0.1146083E-02  0.8017967E+03  0.7818609E-02  0.9557420E-01
       -1   -1    0    0    0  501  0.00000000000E+00  0.00000000000E+00  0.30486484695E+03  0.30486484699E+03  0.50400001928E-02 0.  1.
        1   -1    0    0  501    0  0.00000000000E+00  0.00000000000E+00 -0.52718276704E+03  0.52718276706E+03  0.50400001928E-02 0. -1.
    10030    2    1    2    0    0  0.00000000000E+00  0.00000000000E+00 -0.22231792009E+03  0.83204761406E+03  0.80179671642E+03 0.  0.
        4    1    3    3  502    0  0.63942157939E+02 -0.38700608073E+03 -0.19708124897E+03  0.43898170540E+03  0.12699999809E+01 0. -1.
       -4    1    3    3    0  502 -0.63942157939E+02  0.38700608073E+03 -0.25236671122E+02  0.39306590866E+03  0.12699999809E+01 0.  1.
</event>
<event>
 5   0  0.1049780E-02  0.8111658E+03  0.7818609E-02  0.9543994E-01
       -1   -1    0    0    0  501  0.00000000000E+00  0.00000000000E+00  0.53301089096E+03  0.53301089098E+03  0.50400001928E-02 0. -1.
        1   -1    0    0  501    0  0.00000000000E+00  0.00000000000E+00 -0.30861938105E+03  0.30861938109E+03  0.50400001928E-02 0.  1.
    10030    2    1    2    0    0  0.00000000000E+00  0.00000000000E+00  0.22439150991E+03  0.84163027207E+03  0.81116580620E+03 0.  0.
        5    1    3    3  502    0  0.14994245899E+03  0.18633114734E+03 -0.22763107354E+03  0.33021210322E+03  0.46999998093E+01 0.  1.
       -5    1    3    3    0  502 -0.14994245899E+03 -0.18633114734E+03  0.45202258346E+03  0.51141816885E+03  0.46999998093E+01 0. -1.
</event>
<event>
 5   0  0.1038912E-02  0.7838240E+03  0.7818609E-02  0.9583731E-01
        1   -1    0    0  501    0  0.00000000000E+00  0.00000000000E+00  0.10269138912E+04  0.10269138912E+04  0.50400001928E-02 0. -1.
       -1   -1    0    0    0  501  0.00000000000E+00  0.00000000000E+00 -0.14956953614E+03  0.14956953622E+03  0.50400001928E-02 0.  1.
    10030    2    1    2    0    0  0.00000000000E+00  0.00000000000E+00  0.87734435502E+03  0.11764834274E+04  0.78382404763E+03 0.  0.
        2    1    3    3  502    0  0.37684771720E+01  0.12329341550E+03 -0.11967357096E+03  0.17186399076E+03  0.25500000920E-02 0.  1.
       -2    1    3    3    0  502 -0.37684771720E+01 -0.12329341550E+03  0.99701792598E+03  0.10046194366E+04  0.25500000920E-02 0. -1.
</event>
<event>
 5   0  0.1146083E-02  0.8008063E+03  0.7818609E-02  0.9558851E-01
        1   -1    0    0  501    0  0.00000000000E+00  0.00000000000E+00  0.96974512643E+03  0.96974512644E+03  0.50400001928E-02 0. -1.
       -1   -1    0    0    0  501  0.00000000000E+00  0.00000000000E+00 -0.16532455190E+03  0.16532455198E+03  0.50400001928E-02 0.  1.
    10030    2    1    2    0    0  0.00000000000E+00  0.00000000000E+00  0.80442057453E+03  0.11350696784E+04  0.80080629002E+03 0.  0.
        4    1    3    3  502    0 -0.10296680837E+03  0.18266069781E+02 -0.14562362127E+03  0.17928654412E+03  0.12699999809E+01 0.  1.
       -4    1    3    3    0  502  0.10296680837E+03 -0.18266069781E+02  0.95004419580E+03  0.95578313429E+03  0.12699999809E+01 0. -1.
</event>
<event>
 5   0  0.1146083E-02  0.7994904E+03  0.7818609E-02  0.9560755E-01
        1   -1    0    0  501    0  0.00000000000E+00  0.00000000000E+00  0.23135241132E+03  0.23135241138E+03  0.50400001928E-02 0.  1.
       -1   -1    0    0    0  501  0.00000000000E+00  0.00000000000E+00 -0.69070486948E+03  0.69070486950E+03  0.50400001928E-02 0. -1.
    10030    2    1    2    0    0  0.00000000000E+00  0.00000000000E+00 -0.45935245816E+03  0.92205728087E+03  0.79949043046E+03 0.  0.
        4    1    3    3  502    0 -0.28361252009E+02  0.39058285910E+03 -0.32219477958E+03  0.50711972879E+03  0.12699999809E+01 0. -1.
       -4    1    3    3    0  502  0.28361252009E+02 -0.39058285910E+03 -0.13715767858E+03  0.41493755208E+03  0.12699999809E+01 0.  1.
</event>
<event>
 5   0  0.1025900E-02  0.8008948E+03  0.7818609E-02  0.9558723E-01
       -1   -1    0    0    0  501  0.00000000000E+00  0.00000000000E+00  0.19600819713E+03  0.19600819719E+03  0.50400001928E-02 0. -1.
        1   -1    0    0  501    0  0.00000000000E+00  0.00000000000E+00 -0.81811953969E+03  0.81811953971E+03  0.50400001928E-02 0.  1.
    10030    2    1    2    0    0  0.00000000000E+00  0.00000000000E+00 -0.62211134257E+03  0.10141277369E+04  0.80089483966E+03 0.  0.
        1    1    3    3  502    0  0.22810592803E+03 -0.64925231935E+01  0.10562048233E+03  0.25145606688E+03  0.50400001928E-02 0. -1.
       -1    1    3    3    0  502 -0.22810592803E+03  0.64925231935E+01 -0.72773182489E+03  0.76267167002E+03  0.50400001928E-02 0.  1.
</event>
<event>
 5   0  0.1817089E-02  0.7861893E+03  0.7818609E-02  0.9580225E-01
        2   -1    0    0  501    0  0.00000000000E+00  0.00000000000E+00  0.23723876265E+04  0.23723876265E+04  0.25500000920E-02 0. -1.
       -2   -1    0    0    0  501  0.00000000000E+00  0.00000000000E+00 -0.65134132857E+02  0.65134132907E+02  0.25500000920E-02 0.  1.
    10030    2    1    2    0    0  0.00000000000E+00  0.00000000000E+00  0.23072534936E+04  0.24375217594E+04  0.78618931795E+03 0.  0.
        2    1    3    3  502    0 -0.32771251802E+03 -0.81667091105E+02  0.17772549230E+04  0.18090605489E+04  0.25500000920E-02 0. -1.
       -2    1    3    3    0  502  0.32771251802E+03  0.81667091105E+02  0.52999857068E+03  0.62846121054E+03  0.25500000920E-02 0.  1.
</event>
<event>
 5   0  0.1025900E-02  0.8029482E+03  0.7818609E-02  0.9555759E-01
        1   -1    0    0  501    0  0.00000000000E+00  0.00000000000E+00  0.65454319303E+03  0.65454319305E+03  0.50400001928E-02 0.  1.
       -1   -1    0    0    0  501  0.00000000000E+00  0.00000000000E+00 -0.24625030226E+03  0.24625030231E+03  0.50400001928E-02 0. -1.
    10030    2    1    2    0    0  0.00000000000E+00  0.00000000000E+00  0.40829289078E+03  0.90079349536E+03  0.80294821541E+03 0.  0.
        1    1    3    3  502    0 -0.24940681545E+03 -0.20313589828E+03 -0.65364516809E+02  0.32823843901E+03  0.50400001928E-02 0. -1.
       -1    1    3    3    0  502  0.24940681545E+03  0.20313589828E+03  0.47365740759E+03  0.57255505635E+03  0.50400001928E-02 0.  1.
</event>
<event>
 5   0  0.1146083E-02  0.7561703E+03  0.7818609E-02  0.9625720E-01
       -1   -1    0    0    0  501  0.00000000000E+00  0.00000000000E+00  0.26132347867E+03  0.26132347872E+03  0.50400001928E-02 0.  1.
        1   -1    0    0  501    0  0.00000000000E+00  0.00000000000E+00 -0.54701698475E+03  0.54701698477E+03  0.50400001928E-02 0. -1.
    10030    2    1    2    0    0  0.00000000000E+00  0.00000000000E+00 -0.28569350608E+03  0.80834046349E+03  0.75617030191E+03 0.  0.
        4    1    3    3  502    0  0.14075344623E+03 -0.21582125207E+03 -0.43862451536E+03  0.50870760152E+03  0.12699999809E+01 0. -1.
       -4    1    3    3    0  502 -0.14075344623E+03  0.21582125207E+03  0.15293100928E+03  0.29963286197E+03  0.12699999809E+01 0.  1.
</event>
<event>
 5   0  0.1673727E-02  0.7895072E+03  0.7818609E-02  0.9575330E-01
       -2   -1    0    0    0  501  0.00000000000E+00  0.00000000000E+00  0.73417354792E+02  0.73417354836E+02  0.25500000920E-02 0. -1.
        2   -1    0    0  501    0  0.00000000000E+00  0.00000000000E+00 -0.21225281985E+04  0.21225281985E+04  0.25500000920E-02 0.  1.
    10030    2    1    2    0    0  0.00000000000E+00  0.00000000000E+00 -0.20491108437E+04  0.21959455533E+04  0.78950720289E+03 0.  0.
        5    1    3    3  502    0 -0.25666586034E+03 -0.27344644394E+03 -0.68211396109E+03  0.77842910241E+03  0.46999998093E+01 0. -1.
       -5    1    3    3    0  502  0.25666586034E+03  0.27344644394E+03 -0.13669968826E+04  0.14175164509E+04  0.46999998093E+01 0.  1.
</event>
<event>
 5   0  0.6872500E-03  0.8036404E+03  0.7818609E-02  0.9554763E-01
        4   -1    0    0  501    0  0.00000000000E+00  0.00000000000E+00  0.83545355397E+02  0.83555007679E+02  0.12699999809E+01 0. -1.
       -4   -1    0    0    0  501  0.00000000000E+00  0.00000000000E+00 -0.19324752433E+04  0.19324756607E+04  0.12699999809E+01 0.  1.
    10030    2    1    2    0    0  0.00000000000E+00  0.00000000000E+00 -0.18489298879E+04  0.20160306683E+04  0.80364042030E+03 0.  0.
        4    1    3    3  502    0  0.19365077061E+03  0.13271031800E+03 -0.10638763439E+03  0.25774520580E+03  0.12699999809E+01 0. -1.
       -4    1    3    3    0  502 -0.19365077061E+03 -0.13271031800E+03 -0.17425422536E+04  0.17582854625E+04  0.12699999809E+01 0.  1.
</event>
<event>
 5   0  0.1030323E-02  0.7982469E+03  0.7818609E-02  0.9562558E-01
        1   -1    0    0  501    0  0.00000000000E+00  0.00000000000E+00  0.18968831395E+04  0.18968831395E+04  0.50400001928E-02 0. -1.
       -1   -1    0    0    0  501  0.00000000000E+00  0.00000000000E+00 -0.83979612616E+02  0.83979612767E+02  0.50400001928E-02 0.  1.
    10030    2    1    2    0    0  0.00000000000E+00  0.00000000000E+00  0.18129035269E+04  0.19808627523E+04  0.79824685753E+03 0.  0.
        3    1    3    3  502    0 -0.39716384100E+02 -0.39196845360E+03  0.74789001593E+03  0.84531422910E+03  0.10100000352E+00 0.  1.
       -3    1    3    3    0  502  0.39716384100E+02  0.39196845360E+03  0.10650135110E+04  0.11355485232E+04  0.10100000352E+00 0. -1.
</event>
<event>
 5   0  0.1146083E-02  0.8012472E+03  0.7818609E-02  0.9558214E-01
       -1   -1    0    0    0  501  0.00000000000E+00  0.00000000000E+00  0.55478146018E+03  0.55478146021E+03  0.50400001928E-02 0. -1.
        1   -1    0    0  501    0  0.00000000000E+00  0.00000000000E+00 -0.28930181411E+03  0.28930181415E+03  0.50400001928E-02 0.  1.
    10030    2    1    2    0    0  0.00000000000E+00  0.00000000000E+00  0.26547964607E+03  0.84408327436E+03  0.80124723499E+03 0.  0.
        4    1    3    3  502    0  0.17188286012E+03 -0.21100280907E+03  0.44244997884E+03  0.51945115239E+03  0.12699999809E+01 0. -1.
       -4    1    3    3    0  502 -0.17188286012E+03  0.21100280907E+03 -0.17697033277E+03  0.32463212198E+03  0.12699999809E+01 0.  1.
</event>
<event>
 5   0  0.1146083E-02  0.7797603E+03  0.7818609E-02  0.9589784E-01
        1   -1    0    0  501    0  0.00000000000E+00  0.00000000000E+00  0.30545321487E+03  0.30545321491E+03  0.50400001928E-02 0.  1.
       -1   -1    0    0    0  501  0.00000000000E+00  0.00000000000E+00 -0.49764265924E+03  0.49764265926E+03  0.50400001928E-02 0. -1.
    10030    2    1    2    0    0  0.00000000000E+00  0.00000000000E+00 -0.19218944437E+03  0.80309587417E+03  0.77976034817E+03 0.  0.
        4    1    3    3  502    0  0.24581436586E+03 -0.30249462945E+03 -0.10514600902E+03  0.40371400697E+03  0.12699999809E+01 0. -1.
       -4    1    3    3    0  502 -0.24581436586E+03  0.30249462945E+03 -0.87043435346E+02  0.39938186720E+03  0.12699999809E+01 0.  1.
</event>
<event>
 5   0  0.1731337E-02  0.7975153E+03  0.7818609E-02  0.9563621E-01
        2   -1    0    0  501    0  0.00000000000E+00  0.00000000000E+00  0.11397681530E+04  0.11397681530E+04  0.25500000920E-02 0. -1.
       -2   -1    0    0    0  501  0.00000000000E+00  0.00000000000E+00 -0.13950876724E+03  0.13950876726E+03  0.25500000920E-02 0.  1.
    10030    2    1    2    0    0  0.00000000000E+00  0.00000000000E+00  0.10002593857E+04  0.12792769202E+04  0.79751526625E+03 0.  0.
        4    1    3    3  502    0  0.20218470834E+03  0.24118678279E+02 -0.49827488806E+02  0.20963005145E+03  0.12699999809E+01 0.  1.
       -4    1    3    3    0  502 -0.20218470834E+03 -0.24118678279E+02  0.10500868745E+04  0.10696468688E+04  0.12699999809E+01 0. -1.
</event>
<event>
 5   0  0.6872500E-03  0.7980123E+03  0.7818609E-02  0.9562899E-01
        3   -1    0    0  501    0  0.00000000000E+00  0.00000000000E+00  0.19938667100E+03  0.19938669658E+03  0.10100000352E+00 0. -1.
       -3   -1    0    0    0  501  0.00000000000E+00  0.00000000000E+00 -0.79847818669E+03  0.79847819307E+03  0.10100000352E+00 0.  1.
    10030    2    1    2    0    0  0.00000000000E+00  0.00000000000E+00 -0.59909151569E+03  0.99786488965E+03  0.79801233940E+03 0.  0.
        2    1    3    3  502    0  0.15998044554E+03  0.19458375245E+03  0.87382135121E+02  0.26663123826E+03  0.25500000920E-02 0. -1.
       -2    1    3    3    0  502 -0.15998044554E+03 -0.19458375245E+03 -0.68647365081E+03  0.73123365139E+03  0.25500000920E-02 0.  1.
</event>
<event>
 5   0  0.1030323E-02  0.7962679E+03  0.7818609E-02  0.9565435E-01
       -1   -1    0    0    0  501  0.00000000000E+00  0.00000000000E+00  0.38175843675E+03  0.38175843678E+03  0.50400001928E-02 0.  1.
        1   -1    0    0  501    0  0.00000000000E+00  0.00000000000E+00 -0.41521191804E+03  0.41521191807E+03  0.50400001928E-02 0. -1.
    10030    2    1    2    0    0  0.00000000000E+00  0.00000000000E+00 -0.33453481292E+02  0.79697035485E+03  0.79626792671E+03 0.  0.
        3    1    3    3  502    0 -0.26129766234E+02  0.19534873872E+03 -0.36296072144E+03  0.41301863144E+03  0.10100000352E+00 0. -1.
       -3    1    3    3    0  502  0.26129766234E+02 -0.19534873872E+03  0.32950724015E+03  0.38395172342E+03  0.10100000352E+00 0.  1.
</event>
<event>
 5   0  0.1817089E-02  0.7702361E+03  0.7818609E-02  0.9604127E-01
        2   -1    0    0  501    0  0.00000000000E+00  0.00000000000E+00  0.61220816726E+03  0.61220816726E+03  0.25500000920E-02 0. -1.
       -2   -1    0    0    0  501  0.00000000000E+00  0.00000000000E+00 -0.24226387772E+03  0.24226387773E+03  0.25500000920E-02 0.  1.
    10030    2    1    2    0    0  0.00000000000E+00  0.00000000000E+00  0.36994428954E+03  0.85447204499E+03  0.77023613153E+03 0.  0.
        2    1    3    3  502    0  0.80576637740E+02 -0.26864603263E+03 -0.10780876761E+03  0.30047631484E+03  0.25500000920E-02 0.  1.
       -2    1    3    3    0  502 -0.80576637740E+02  0.26864603263E+03  0.47775305715E+03  0.55399573015E+03  0.25500000920E-02 0. -1.
</event>
<event>
 5   0  0.1673727E-02  0.7996025E+03  0.7818609E-02  0.9560593E-01
        2   -1    0    0  501    0  0.00000000000E+00  0.00000000000E+00  0.11899690244E+04  0.11899690244E+04  0.25500000920E-02 0. -1.
       -2   -1    0    0    0  501  0.00000000000E+00  0.00000000000E+00 -0.13432369492E+03  0.13432369495E+03  0.25500000920E-02 0.  1.
    10030    2    1    2    0    0  0.00000000000E+00  0.00000000000E+00  0.10556453295E+04  0.13242927194E+04  0.79960249179E+03 0.  0.
        5    1    3    3  502    0 -0.25988232101E+03 -0.57465856912E+01  0.24801546027E+02  0.26116862504E+03  0.46999998093E+01 0.  1.
       -5    1    3    3    0  502  0.25988232101E+03  0.57465856912E+01  0.10308437835E+04  0.10631240943E+04  0.46999998093E+01 0. -1.
</event>
<event>
 5   0  0.1818665E-02  0.8087247E+03  0.7818609E-02  0.9547474E-01
       -2   -1    0    0    0  501  0.00000000000E+00  0.00000000000E+00  0.17228418194E+03  0.17228418196E+03  0.25500000920E-02 0.  1.
        2   -1    0    0  501    0  0.00000000000E+00  0.00000000000E+00 -0.94906520199E+03  0.94906520199E+03  0.25500000920E-02 0. -1.
    10030    2    1    2    0    0  0.00000000000E+00  0.00000000000E+00 -0.77678102005E+03  0.11213493839E+04  0.80872472930E+03 0.  0.
        3    1    3    3  502    0  0.75315777457E+02 -0.32772742250E+03 -0.77011166316E+02  0.34497602777E+03  0.10100000352E+00 0.  1.
       -3    1    3    3    0  502 -0.75315777457E+02  0.32772742250E+03 -0.69976985373E+03  0.77637335618E+03  0.10100000352E+00 0. -1.
</event>
<event>
 5   0  0.1038912E-02  0.8097820E+03  0.7818609E-02  0.9545965E-01
        1   -1    0    0  501    0  0.00000000000E+00  0.00000000000E+00  0.27183509008E+03  0.27183509012E+03  0.50400001928E-02 0.  1.
       -1   -1    0    0    0  501  0.00000000000E+00  0.00000000000E+00 -0.60307416382E+03  0.60307416384E+03  0.50400001928E-02 0. -1.
    10030    2    1    2    0    0  0.00000000000E+00  0.00000000000E+00 -0.33123907375E+03  0.87490925397E+03  0.80978199456E+03 0.  0.
        2    1    3    3  502    0  0.54904492518E+01 -0.26060083790E+03 -0.50036633844E+03  0.56418916544E+03  0.25500000920E-02 0. -1.
       -2    1    3    3    0  502 -0.54904492518E+01  0.26060083790E+03  0.16912726469E+03  0.31072008853E+03  0.25500000920E-02 0.  1.
</event>
<event>
 5   0  0.1818665E-02  0.8040680E+03  0.7818609E-02  0.9554147E-01
        2   -1    0    0  501    0  0.00000000000E+00  0.00000000000E+00  0.17433287090E+04  0.17433287090E+04  0.25500000920E-02 0. -1.
       -2   -1    0    0    0  501  0.00000000000E+00  0.00000000000E+00 -0.92714212685E+02  0.92714212720E+02  0.25500000920E-02 0.  1.
    10030    2    1    2    0    0  0.00000000000E+00  0.00000000000E+00  0.16506144963E+04  0.18360429217E+04  0.80406802880E+03 0.  0.
        3    1    3    3  502    0  0.91028309247E+02  0.26352154976E+03  0.16389063264E+03  0.32340363316E+03  0.10100000352E+00 0.  1.
       -3    1    3    3    0  502 -0.91028309247E+02 -0.26352154976E+03  0.14867238636E+04  0.15126392885E+04  0.10100000352E+00 0. -1.
</event>
<event>
 5   0  0.1049780E-02  0.8023424E+03  0.7818609E-02  0.9556633E-01
       -1   -1    0    0    0  501  0.00000000000E+00  0.00000000000E+00  0.24273327150E+03  0.24273327155E+03  0.50400001928E-02 0.  1.
        1   -1    0    0  501    0  0.00000000000E+00  0.00000000000E+00 -0.66302546922E+03  0.66302546924E+03  0.50400001928E-02 0. -1.
    10030    2    1    2    0    0  0.00000000000E+00  0.00000000000E+00 -0.42029219772E+03  0.90575874079E+03  0.80234242381E+03 0.  0.
        5    1    3    3  502    0 -0.20301517625E+03  0.17503070112E+03  0.12675866376E+03  0.29654806855E+03  0.46999998093E+01 0.  1.
       -5    1    3    3    0  502  0.20301517625E+03 -0.17503070112E+03 -0.54705086149E+03  0.60921067224E+03  0.46999998093E+01 0. -1.
</event>
<event>
 5   0  0.1030323E-02  0.7957755E+03  0.7818609E-02  0.9566152E-01
       -1   -1    0    0    0  501  0.00000000000E+00  0.00000000000E+00  0.17960179033E+03  0.17960179040E+03  0.50400001928E-02 0.  1.
        1   -1    0    0  501    0  0.00000000000E+00  0.00000000000E+00 -0.88147597824E+03  0.88147597825E+03  0.50400001928E-02 0. -1.
    10030    2    1    2    0    0  0.00000000000E+00  0.00000000000E+00 -0.70187418791E+03  0.10610777687E+04  0.79577550570E+03 0.  0.
        3    1    3    3  502    0  0.21019114074E+03 -0.27939850130E+03 -0.97695738908E+02  0.36302659100E+03  0.10100000352E+00 0. -1.
       -3    1    3    3    0  502 -0.21019114074E+03  0.27939850130E+03 -0.60417844900E+03  0.69805117765E+03  0.10100000352E+00 0.  1.
</event>
<event>
 5   0  0.6872500E-03  0.8064753E+03  0.7818609E-02  0.9550691E-01
        3   -1    0    0  501    0  0.00000000000E+00  0.00000000000E+00  0.60072841094E+03  0.60072841943E+03  0.10100000352E+00 0.  1.
       -3   -1    0    0    0  501  0.00000000000E+00  0.00000000000E+00 -0.27067240770E+03  0.27067242654E+03  0.10100000352E+00 0. -1.
    10030    2    1    2    0    0  0.00000000000E+00  0.00000000000E+00  0.33005600324E+03  0.87140084597E+03  0.80647533694E+03 0.  0.
        5    1    3    3  502    0 -0.62262180218E+02 -0.19921106251E+03 -0.20773363087E+03  0.29451142237E+03  0.46999998093E+01 0. -1.
       -5    1    3    3    0  502  0.62262180218E+02  0.19921106251E+03  0.53778963411E+03  0.57688942360E+03  0.46999998093E+01 0.  1.
</event>
<event>
 5   0  0.1146083E-02  0.8397981E+03  0.7818609E-02  0.9504133E-01
        1   -1    0    0  501    0  0.00000000000E+00  0.00000000000E+00  0.33823310260E+03  0.33823310264E+03  0.50400001928E-02 0.  1.
       -1   -1    0    0    0  501  0.00000000000E+00  0.00000000000E+00 -0.52128316028E+03  0.52128316030E+03  0.50400001928E-02 0. -1.
    10030    2    1    2    0    0  0.00000000000E+00  0.00000000000E+00 -0.18305005768E+03  0.85951626294E+03  0.83979812017E+03 0.  0.
        4    1    3    3  502    0 -0.36597204766E+03 -0.20437810335E+03 -0.66295499079E+02  0.42438503142E+03  0.12699999809E+01 0.  1.
       -4    1    3    3    0  502  0.36597204766E+03  0.20437810335E+03 -0.11675455860E+03  0.43513123152E+03  0.12699999809E+01 0. -1.
</event>
<event>
 5   0  0.1731337E-02  0.7115218E+03  0.7818609E-02  0.9697729E-01
        2   -1    0    0  501    0  0.00000000000E+00  0.00000000000E+00  0.64230928819E+03  0.64230928819E+03  0.25500000920E-02 0. -1.
       -2   -1    0    0    0  501  0.00000000000E+00  0.00000000000E+00 -0.19704807290E+03  0.19704807291E+03  0.25500000920E-02 0.  1.
    10030    2    1    2    0    0  0.00000000000E+00  0.00000000000E+00  0.44526121529E+03  0.83935736111E+03  0.71152177043E+03 0.  0.
        4    1    3    3  502    0  0.28115241496E+03 -0.13340422288E+03  0.19259544565E+02  0.31179466011E+03  0.12699999809E+01 0. -1.
       -4    1    3    3    0  502 -0.28115241496E+03  0.13340422288E+03  0.42600167072E+03  0.52756270099E+03  0.12699999809E+01 0.  1.
</event>
<event>
 5   0  0.1146083E-02  0.7967111E+03  0.7818609E-02  0.9564790E-01
       -1   -1    0    0    0  501  0.00000000000E+00  0.00000000000E+00  0.72632831828E+03  0.72632831830E+03  0.50400001928E-02 0.  1.
        1   -1    0    0  501    0  0.00000000000E+00  0.00000000000E+00 -0.21847854538E+03  0.21847854544E+03  0.50400001928E-02 0. -1.
    10030    2    1    2    0    0  0.00000000000E+00  0.00000000000E+00  0.50784977290E+03  0.94480686373E+03  0.79671112577E+03 0.  0.
        4    1    3    3  502    0  0.68194680323E+02  0.27235254546E+03  0.58904802347E+03  0.65253782288E+03  0.12699999809E+01 0.  1.
       -4    1    3    3    0  502 -0.68194680323E+02 -0.27235254546E+03 -0.81198250565E+02  0.29226904085E+03  0.12699999809E+01 0. -1.
</event>
<event>
 5   0  0.6872500E-03  0.7560659E+03  0.7818609E-02  0.9625882E-01
       -4   -1    0    0    0  501  0.00000000000E+00  0.00000000000E+00  0.19355252647E+03  0.19355669299E+03  0.12699999809E+01 0.  1.
        4   -1    0    0  501    0  0.00000000000E+00  0.00000000000E+00 -0.73833417227E+03  0.73833526452E+03  0.12699999809E+01 0. -1.
    10030    2    1    2    0    0  0.00000000000E+00  0.00000000000E+00 -0.54478164580E+03  0.93189195751E+03  0.75606585618E+03 0.  0.
        2    1    3    3  502    0 -0.10161048097E+03  0.24500885454E+03 -0.60439168407E+03  0.66003282981E+03  0.25500000920E-02 0. -1.
       -2    1    3    3    0  502  0.10161048097E+03 -0.24500885454E+03  0.59610038270E+02  0.27185912770E+03  0.25500000920E-02 0.  1.
</event>
<event>
 5   0  0.1030323E-02  0.8035913E+03  0.7818609E-02  0.9554833E-01
        1   -1    0    0  501    0  0.00000000000E+00  0.00000000000E+00  0.45431665545E+03  0.45431665548E+03  0.50400001928E-02 0. -1.
       -1   -1    0    0    0  501  0.00000000000E+00  0.00000000000E+00 -0.35534630769E+03  0.35534630773E+03  0.50400001928E-02 0.  1.
    10030    2    1    2    0    0  0.00000000000E+00  0.00000000000E+00  0.98970347758E+02  0.80966296321E+03  0.80359130425E+03 0.  0.
        3    1    3    3  502    0  0.11456872096E+03  0.34862653013E+03 -0.11537656947E+03  0.38467936299E+03  0.10100000352E+00 0. -1.
       -3    1    3    3    0  502 -0.11456872096E+03 -0.34862653013E+03  0.21434691722E+03  0.42498360022E+03  0.10100000352E+00 0.  1.
</event>
<event>
 5   0  0.1817089E-02  0.7870641E+03  0.7818609E-02  0.9578932E-01
       -2   -1    0    0    0  501  0.00000000000E+00  0.00000000000E+00  0.27038543993E+03  0.27038543994E+03  0.25500000920E-02 0. -1.
        2   -1    0    0  501    0  0.00000000000E+00  0.00000000000E+00 -0.57276553214E+03  0.57276553215E+03  0.25500000920E-02 0.  1.
    10030    2    1    2    0    0  0.00000000000E+00  0.00000000000E+00 -0.30238009221E+03  0.84315097209E+03  0.78706406446E+03 0.  0.
        2    1    3    3  502    0  0.19514464406E+03  0.88876041556E+02  0.20230508138E+03  0.29480116829E+03  0.25500000920E-02 0. -1.
       -2    1    3    3    0  502 -0.19514464406E+03 -0.88876041556E+02 -0.50468517359E+03  0.54834980379E+03  0.25500000920E-02 0.  1.
</event>
<event>
 5   0  0.1731337E-02  0.8029067E+03  0.7818609E-02  0.9555819E-01
       -2   -1    0    0    0  501  0.00000000000E+00  0.00000000000E+00  0.28681865242E+03  0.28681865243E+03  0.25500000920E-02 0.  1.
        2   -1    0    0  501    0  0.00000000000E+00  0.00000000000E+00 -0.56190479114E+03  0.56190479114E+03  0.25500000920E-02 0. -1.
    10030    2    1    2    0    0  0.00000000000E+00  0.00000000000E+00 -0.27508613872E+03  0.84872344357E+03  0.80290665706E+03 0.  0.
        4    1    3    3  502    0 -0.67186688374E+02  0.16731387645E+03 -0.51669631177E+03  0.54725193088E+03  0.12699999809E+01 0. -1.
       -4    1    3    3    0  502  0.67186688374E+02 -0.16731387645E+03  0.24161017305E+03  0.30147151270E+03  0.12699999809E+01 0.  1.
</event>
<event>
 5   0  0.1817089E-02  0.7957869E+03  0.7818609E-02  0.9566136E-01
        2   -1    0    0  501    0  0.00000000000E+00  0.00000000000E+00  0.45695821889E+03  0.45695821890E+03  0.25500000920E-02 0.  1.
       -2   -1    0    0    0  501  0.00000000000E+00  0.00000000000E+00 -0.34646317274E+03  0.34646317275E+03  0.25500000920E-02 0. -1.
    10030    2    1    2    0    0  0.00000000000E+00  0.00000000000E+00  0.11049504615E+03  0.80342139165E+03  0.79578689191E+03 0.  0.
        2    1    3    3  502    0  0.10864486871E+03 -0.38177269414E+03  0.83173271086E+02  0.40555134140E+03  0.25500000920E-02 0.  1.
       -2    1    3    3    0  502 -0.10864486871E+03  0.38177269414E+03  0.27321775060E+02  0.39787005025E+03  0.25500000920E-02 0. -1.
</event>
<event>
 5   0  0.1146083E-02  0.7463511E+03  0.7818609E-02  0.9641092E-01
        1   -1    0    0  501    0  0.00000000000E+00  0.00000000000E+00  0.56938073682E+03  0.56938073684E+03  0.50400001928E-02 0. -1.
       -1   -1    0    0    0  501  0.00000000000E+00  0.00000000000E+00 -0.24458147322E+03  0.24458147327E+03  0.50400001928E-02 0.  1.
    10030    2    1    2    0    0  0.00000000000E+00  0.00000000000E+00  0.32479926360E+03  0.81396221012E+03  0.74635106877E+03 0.  0.
        4    1    3    3  502    0  0.21709694791E+03 -0.29466479625E+03  0.83004011804E+02  0.37529948816E+03  0.12699999809E+01 0. -1.
       -4    1    3    3    0  502 -0.21709694791E+03  0.29466479625E+03  0.24179525180E+03  0.43866272195E+03  0.12699999809E+01 0.  1.
</event>
<event>
 5   0  0.1673727E-02  0.7946686E+03  0.7818609E-02  0.9567766E-01
        2   -1    0    0  501    0  0.00000000000E+00  0.00000000000E+00  0.63413425443E+03  0.63413425443E+03  0.25500000920E-02 0.  1.
       -2   -1    0    0    0  501  0.00000000000E+00  0.00000000000E+00 -0.24896078256E+03  0.24896078257E+03  0.25500000920E-02 0. -1.
    10030    2    1    2    0    0  0.00000000000E+00  0.00000000000E+00  0.38517347187E+03  0.88309503701E+03  0.79466863595E+03 0.  0.
        5    1    3    3  502    0 -0.26723108259E+03 -0.46068819564E+01 -0.13409546704E+03  0.29906079506E+03  0.46999998093E+01 0. -1.
       -5    1    3    3    0  502  0.26723108259E+03  0.46068819564E+01  0.51926893890E+03  0.58403424195E+03  0.46999998093E+01 0.  1.
</event>
<event>
 5   0  0.1038912E-02  0.6929145E+03  0.7818609E-02  0.9729427E-01
       -1   -1    0    0    0  501  0.00000000000E+00  0.00000000000E+00  0.27744994470E+03  0.27744994474E+03  0.50400001928E-02 0. -1.
        1   -1    0    0  501    0  0.00000000000E+00  0.00000000000E+00 -0.43262809331E+03  0.43262809334E+03  0.50400001928E-02 0.  1.
    10030    2    1    2    0    0  0.00000000000E+00  0.00000000000E+00 -0.15517814861E+03  0.71007803808E+03  0.69291454189E+03 0.  0.
        2    1    3    3  502    0  0.16736134674E+03 -0.14305382025E+03  0.19654106739E+03  0.29513150805E+03  0.25500000920E-02 0.  1.
       -2    1    3    3    0  502 -0.16736134674E+03  0.14305382025E+03 -0.35171921600E+03  0.41494653003E+03  0.25500000920E-02 0. -1.
</event>
<event>
 5   0  0.1025900E-02  0.8281441E+03  0.7818609E-02  0.9520150E-01
        1   -1    0    0  501    0  0.00000000000E+00  0.00000000000E+00  0.93112341196E+03  0.93112341197E+03  0.50400001928E-02 0. -1.
       -1   -1    0    0    0  501  0.00000000000E+00  0.00000000000E+00 -0.18413849923E+03  0.18413849930E+03  0.50400001928E-02 0.  1.
    10030    2    1    2    0    0  0.00000000000E+00  0.00000000000E+00  0.74698491273E+03  0.11152619113E+04  0.82814411239E+03 0.  0.
        1    1    3    3  502    0  0.14192385994E+03  0.22746929794E+03 -0.51457114670E+02  0.27300640688E+03  0.50400001928E-02 0.  1.
       -1    1    3    3    0  502 -0.14192385994E+03 -0.22746929794E+03  0.79844202740E+03  0.84225550439E+03  0.50400001928E-02 0. -1.
</event>
<event>
 5   0  0.1049780E-02  0.8164413E+03  0.7818609E-02  0.9536519E-01
        1   -1    0    0  501    0  0.00000000000E+00  0.00000000000E+00  0.24287485383E+03  0.24287485388E+03  0.50400001928E-02 0. -1.
       -1   -1    0    0    0  501  0.00000000000E+00  0.00000000000E+00 -0.68613152358E+03  0.68613152360E+03  0.50400001928E-02 0.  1.
    10030    2    1    2    0    0  0.00000000000E+00  0.00000000000E+00 -0.44325666975E+03  0.92900637748E+03  0.81644128638E+03 0.  0.
        5    1    3    3  502    0  0.10162590564E+03 -0.15982742576E+03  0.18981832795E+03  0.26818970590E+03  0.46999998093E+01 0. -1.
       -5    1    3    3    0  502 -0.10162590564E+03  0.15982742576E+03 -0.63307499770E+03  0.66081667158E+03  0.46999998093E+01 0.  1.
</event>
<event>
 5   0  0.1146083E-02  0.7983577E+03  0.7818609E-02  0.9562397E-01
       -1   -1    0    0    0  501  0.00000000000E+00  0.00000000000E+00  0.16273412429E+03  0.16273412437E+03  0.50400001928E-02 0. -1.
        1   -1    0    0  501    0  0.00000000000E+00  0.00000000000E+00 -0.97916631832E+03  0.97916631833E+03  0.50400001928E-02 0.  1.
    10030    2    1    2    0    0  0.00000000000E+00  0.00000000000E+00 -0.81643219403E+03  0.11419004427E+04  0.79835774787E+03 0.  0.
        4    1    3    3  502    0 -0.11786593527E+03  0.25439583715E+03 -0.18148753925E+01  0.28038282281E+03  0.12699999809E+01 0. -1.
       -4    1    3    3    0  502  0.11786593527E+03 -0.25439583715E+03 -0.81461731864E+03  0.86151761989E+03  0.12699999809E+01 0.  1.
</event>
<event>
 5   0  0.1747544E-02  0.7951016E+03  0.7818609E-02  0.9567135E-01
        2   -1    0    0  501    0  0.00000000000E+00  0.00000000000E+00  0.12036906576E+04  0.12036906576E+04  0.25500000920E-02 0. -1.
       -2   -1    0    0    0  501  0.00000000000E+00  0.00000000000E+00 -0.13130171050E+03  0.13130171052E+03  0.25500000920E-02 0.  1.
    10030    2    1    2    0    0  0.00000000000E+00  0.00000000000E+00  0.10723889471E+04  0.13349923681E+04  0.79510160928E+03 0.  0.
        1    1    3    3  502    0 -0.21268388467E+03 -0.17906106477E+03  0.10133123051E+04  0.10507612133E+04  0.50400001928E-02 0. -1.
       -1    1    3    3    0  502  0.21268388467E+03  0.17906106477E+03  0.59076642015E+02  0.28423115483E+03  0.50400001928E-02 0.  1.
</event>
<event>
 5   0  0.1025900E-02  0.7997975E+03  0.7818609E-02  0.9560310E-01
        1   -1    0    0  501    0  0.00000000000E+00  0.00000000000E+00  0.74400536331E+03  0.74400536333E+03  0.50400001928E-02 0.  1.
       -1   -1    0    0    0  501  0.00000000000E+00  0.00000000000E+00 -0.21494337716E+03  0.21494337721E+03  0.50400001928E-02 0. -1.
    10030    2    1    2    0    0  0.00000000000E+00  0.00000000000E+00  0.52906198616E+03  0.95894874054E+03  0.79979753800E+03 0.  0.
        1    1    3    3  502    0  0.16329601471E+03  0.10711609598E+03  0.68294148317E+03  0.71031578604E+03  0.50400001928E-02 0.  1.
       -1    1    3    3    0  502 -0.16329601471E+03 -0.10711609598E+03 -0.15387949701E+03  0.24863295450E+03  0.50400001928E-02 0. -1.
</event>
<event>
 5   0  0.1818665E-02  0.8234761E+03  0.7818609E-02  0.9526645E-01
       -2   -1    0    0    0  501  0.00000000000E+00  0.00000000000E+00  0.46031760623E+03  0.46031760624E+03  0.25500000920E-02 0.  1.
        2   -1    0    0  501    0  0.00000000000E+00  0.00000000000E+00 -0.36828534529E+03  0.36828534530E+03  0.25500000920E-02 0. -1.
    10030    2    1    2    0    0  0.00000000000E+00  0.00000000000E+00  0.92032260941E+02  0.82860295154E+03  0.82347611638E+03 0.  0.
        3    1    3    3  502    0  0.27418202245E+03 -0.22027791179E+03 -0.16939630398E+03  0.39037579056E+03  0.10100000352E+00 0. -1.
       -3    1    3    3    0  502 -0.27418202245E+03  0.22027791179E+03  0.26142856492E+03  0.43822716097E+03  0.10100000352E+00 0.  1.
</event>
<event>
 5   0  0.1747544E-02  0.7958167E+03  0.7818609E-02  0.9566092E-01
       -2   -1    0    0    0  501  0.00000000000E+00  0.00000000000E+00  0.10043894849E+03  0.10043894852E+03  0.25500000920E-02 0. -1.
        2   -1    0    0  501    0  0.00000000000E+00  0.00000000000E+00 -0.15763908982E+04  0.15763908982E+04  0.25500000920E-02 0.  1.
    10030    2    1    2    0    0  0.00000000000E+00  0.00000000000E+00 -0.14759519497E+04  0.16768298467E+04  0.79581667300E+03 0.  0.
        1    1    3    3  502    0 -0.36092266121E+03 -0.55869359164E+02 -0.10707606280E+04  0.11313332291E+04  0.50400001928E-02 0.  1.
       -1    1    3    3    0  502  0.36092266121E+03  0.55869359164E+02 -0.40519132168E+03  0.54549661765E+03  0.50400001928E-02 0. -1.
</event>
<event>
 5   0  0.1747544E-02  0.8030733E+03  0.7818609E-02  0.9555579E-01
       -2   -1    0    0    0  501  0.00000000000E+00  0.00000000000E+00  0.13586835860E+03  0.13586835863E+03  0.25500000920E-02 0.  1.
        2   -1    0    0  501    0  0.00000000000E+00  0.00000000000E+00 -0.11866756334E+04  0.11866756334E+04  0.25500000920E-02 0. -1.
    10030    2    1    2    0    0  0.00000000000E+00  0.00000000000E+00 -0.10508072748E+04  0.13225439921E+04  0.80307327319E+03 0.  0.
        1    1    3    3  502    0  0.11125084382E+03  0.27920485370E+03 -0.96391086389E+03  0.10096812636E+04  0.50400001928E-02 0. -1.
       -1    1    3    3    0  502 -0.11125084382E+03 -0.27920485370E+03 -0.86896410931E+02  0.31286272842E+03  0.50400001928E-02 0.  1.
</event>
<event>
 5   0  0.1673727E-02  0.7980489E+03  0.7818609E-02  0.9562846E-01
       -2   -1    0    0    0  501  0.00000000000E+00  0.00000000000E+00  0.10175780041E+03  0.10175780044E+03  0.25500000920E-02 0.  1.
        2   -1    0    0  501    0  0.00000000000E+00  0.00000000000E+00 -0.15647007089E+04  0.15647007089E+04  0.25500000920E-02 0. -1.
    10030    2    1    2    0    0  0.00000000000E+00  0.00000000000E+00 -0.14629429085E+04  0.16664585093E+04  0.79804887684E+03 0.  0.
        5    1    3    3  502    0  0.23677548091E+03  0.19485647116E+03 -0.12645338067E+04  0.13011915735E+04  0.46999998093E+01 0. -1.
       -5    1    3    3    0  502 -0.23677548091E+03 -0.19485647116E+03 -0.19840910174E+03  0.36526693577E+03  0.46999998093E+01 0.  1.
</event>
<event>
 5   0  0.1049780E-02  0.7750103E+03  0.7818609E-02  0.9596910E-01
        1   -1    0    0  501    0  0.00000000000E+00  0.00000000000E+00  0.19917891410E+04  0.19917891410E+04  0.50400001928E-02 0.  1.
       -1   -1    0    0    0  501  0.00000000000E+00  0.00000000000E+00 -0.75389634413E+02  0.75389634581E+02  0.50400001928E-02 0. -1.
    10030    2    1    2    0    0  0.00000000000E+00  0.00000000000E+00  0.19163995065E+04  0.20671787755E+04  0.77501033630E+03 0.  0.
        5    1    3    3  502    0  0.16877566048E+03 -0.34424520657E+03  0.11078578742E+04  0.11723314997E+04  0.46999998093E+01 0.  1.
       -5    1    3    3    0  502 -0.16877566048E+03  0.34424520657E+03  0.80854163234E+03  0.89484727582E+03  0.46999998093E+01 0. -1.
</event>
<event>
 5   0  0.1818665E-02  0.8036835E+03  0.7818609E-02  0.9554701E-01
       -2   -1    0    0    0  501  0.00000000000E+00  0.00000000000E+00  0.38502174247E+03  0.38502174248E+03  0.25500000920E-02 0.  1.
        2   -1    0    0  501    0  0.00000000000E+00  0.00000000000E+00 -0.41939655460E+03  0.41939655461E+03  0.25500000920E-02 0. -1.
    10030    2    1    2    0    0  0.00000000000E+00  0.00000000000E+00 -0.34374812129E+02  0.80441829709E+03  0.80368350051E+03 0.  0.
        3    1    3    3  502    0  0.38639337419E+02  0.16471715554E+03  0.34763458190E+03  0.38661938966E+03  0.10100000352E+00 0.  1.
       -3    1    3    3    0  502 -0.38639337419E+02 -0.16471715554E+03 -0.38200939403E+03  0.41779890743E+03  0.10100000352E+00 0. -1.
</event>
<event>
 5   0  0.1038912E-02  0.7987621E+03  0.7818609E-02  0.9561811E-01
        1   -1    0    0  501    0  0.00000000000E+00  0.00000000000E+00  0.75465219866E+03  0.75465219868E+03  0.50400001928E-02 0. -1.
       -1   -1    0    0    0  501  0.00000000000E+00  0.00000000000E+00 -0.21136258152E+03  0.21136258158E+03  0.50400001928E-02 0.  1.
    10030    2    1    2    0    0  0.00000000000E+00  0.00000000000E+00  0.54328961715E+03  0.96601478026E+03  0.79876213455E+03 0.  0.
        2    1    3    3  502    0 -0.35503022268E+03 -0.18122038200E+03  0.24158104618E+03  0.46609943976E+03  0.25500000920E-02 0. -1.
       -2    1    3    3    0  502  0.35503022268E+03  0.18122038200E+03  0.30170857096E+03  0.49991534050E+03  0.25500000920E-02 0.  1.
</event>
<event>
 5   0  0.1025900E-02  0.8391436E+03  0.7818609E-02  0.9505025E-01
       -1   -1    0    0    0  501  0.00000000000E+00  0.00000000000E+00  0.45571580055E+03  0.45571580058E+03  0.50400001928E-02 0. -1.
        1   -1    0    0  501    0  0.00000000000E+00  0.00000000000E+00 -0.38629448452E+03  0.38629448455E+03  0.50400001928E-02 0.  1.
    10030    2    1    2    0    0  0.00000000000E+00  0.00000000000E+00  0.69421316038E+02  0.84201028513E+03  0.83914361175E+03 0.  0.
        1    1    3    3  502    0 -0.23402876105E+03 -0.28483650258E+03 -0.16632148058E+03  0.40443062338E+03  0.50400001928E-02 0.  1.
       -1    1    3    3    0  502  0.23402876105E+03  0.28483650258E+03  0.23574279662E+03  0.43757966175E+03  0.50400001928E-02 0. -1.
</event>
<event>
 5   0  0.1030323E-02  0.8001298E+03  0.7818609E-02  0.9559829E-01
       -1   -1    0    0    0  501  0.00000000000E+00  0.00000000000E+00  0.14434398904E+03  0.14434398913E+03  0.50400001928E-02 0.  1.
        1   -1    0    0  501    0  0.00000000000E+00  0.00000000000E+00 -0.11088229453E+04  0.11088229453E+04  0.50400001928E-02 0. -1.
    10030    2    1    2    0    0  0.00000000000E+00  0.00000000000E+00 -0.96447895629E+03  0.12531669345E+04  0.80012980729E+03 0.  0.
        3    1    3    3  502    0  0.17771491637E+03 -0.27509554531E+02 -0.10419523127E+04  0.10573570822E+04  0.10100000352E+00 0. -1.
       -3    1    3    3    0  502 -0.17771491637E+03  0.27509554531E+02  0.77473356428E+02  0.19580985227E+03  0.10100000352E+00 0.  1.
</event>
<event>
 5   0  0.1030323E-02  0.7898829E+03  0.7818609E-02  0.9574778E-01
        1   -1    0    0  501    0  0.00000000000E+00  0.00000000000E+00  0.13204393949E+04  0.13204393949E+04  0.50400001928E-02 0.  1.
       -1   -1    0    0    0  501  0.00000000000E+00  0.00000000000E+00 -0.11812638964E+03  0.11812638975E+03  0.50400001928E-02 0. -1.
    10030    2    1    2    0    0  0.00000000000E+00  0.00000000000E+00  0.12023130052E+04  0.14385657846E+04  0.78988287369E+03 0.  0.
        3    1    3    3  502    0  0.22993956496E+03  0.28163911918E+03  0.32027243241E+03  0.48452785075E+03  0.10100000352E+00 0. -1.
       -3    1    3    3    0  502 -0.22993956496E+03 -0.28163911918E+03  0.88204057283E+03  0.95403793389E+03  0.10100000352E+00 0.  1.
</event>
<event>
 5   0  0.1817089E-02  0.8085360E+03  0.7818609E-02  0.9547743E-01
        2   -1    0    0  501    0  0.00000000000E+00  0.00000000000E+00  0.66559568122E+03  0.66559568123E+03  0.25500000920E-02 0. -1.
       -2   -1    0    0    0  501  0.00000000000E+00  0.00000000000E+00 -0.24554340030E+03  0.24554340031E+03  0.25500000920E-02 0.  1.
    10030    2    1    2    0    0  0.00000000000E+00  0.00000000000E+00  0.42005228092E+03  0.91113908154E+03  0.80853602715E+03 0.  0.
        2    1    3    3  502    0  0.11997234005E+03 -0.34425569281E+03  0.13133550826E+02  0.36479834782E+03  0.25500000920E-02 0.  1.
       -2    1    3    3    0  502 -0.11997234005E+03  0.34425569281E+03  0.40691873010E+03  0.54634073372E+03  0.25500000920E-02 0. -1.
</event>
<event>
 5   0  0.1049780E-02  0.7492993E+03  0.7818609E-02  0.9636450E-01
       -1   -1    0    0    0  501  0.00000000000E+00  0.00000000000E+00  0.17353363035E+03  0.17353363042E+03  0.50400001928E-02 0.  1.
        1   -1    0    0  501    0  0.00000000000E+00  0.00000000000E+00 -0.80884817302E+03  0.80884817303E+03  0.50400001928E-02 0. -1.
    10030    2    1    2    0    0  0.00000000000E+00  0.00000000000E+00 -0.63531454267E+03  0.98238180345E+03  0.74929929910E+03 0.  0.
        5    1    3    3  502    0 -0.12800631197E+03 -0.70480264399E+02  0.13458908927E+03  0.19871939141E+03  0.46999998093E+01 0.  1.
       -5    1    3    3    0  502  0.12800631197E+03  0.70480264399E+02 -0.76990363194E+03  0.78366241204E+03  0.46999998093E+01 0. -1.
</event>
<event>
 5   0  0.1673727E-02  0.8013218E+03  0.7818609E-02  0.9558106E-01
        2   -1    0    0  501    0  0.00000000000E+00  0.00000000000E+00  0.20181812976E+04  0.20181812976E+04  0.25500000920E-02 0.  1.
       -2   -1    0    0    0  501  0.00000000000E+00  0.00000000000E+00 -0.79541486119E+02  0.79541486160E+02  0.25500000920E-02 0. -1.
    10030    2    1    2    0    0  0.00000000000E+00  0.00000000000E+00  0.19386398115E+04  0.20977227838E+04  0.80132175739E+03 0.  0.
        5    1    3    3  502    0 -0.95240576001E+02  0.74059169390E+02 -0.30784808029E+02  0.12460065125E+03  0.46999998093E+01 0. -1.
       -5    1    3    3    0  502  0.95240576001E+02 -0.74059169390E+02  0.19694246196E+04  0.19731221326E+04  0.46999998093E+01 0.  1.
</event>
<event>
 5   0  0.1038912E-02  0.7983387E+03  0.7818609E-02  0.9562425E-01
       -1   -1    0    0    0  501  0.00000000000E+00  0.00000000000E+00  0.13216844275E+03  0.13216844284E+03  0.50400001928E-02 0. -1.
        1   -1    0    0  501    0  0.00000000000E+00  0.00000000000E+00 -0.12055539462E+04  0.12055539462E+04  0.50400001928E-02 0.  1.
    10030    2    1    2    0    0  0.00000000000E+00  0.00000000000E+00 -0.10733855035E+04  0.13377223891E+04  0.79833874462E+03 0.  0.
        2    1    3    3  502    0 -0.30156319745E+03 -0.82922025667E+02 -0.12108262861E+03  0.33537654563E+03  0.25500000920E-02 0. -1.
       -2    1    3    3    0  502  0.30156319745E+03  0.82922025667E+02 -0.95230287487E+03  0.10023458435E+04  0.25500000920E-02 0.  1.
</event>
<event>
 5   0  0.6872500E-03  0.8031109E+03  0.7818609E-02  0.9555525E-01
        4   -1    0    0  501    0  0.00000000000E+00  0.00000000000E+00  0.86418198227E+03  0.86418291547E+03  0.12699999809E+01 0.  1.
       -4   -1    0    0    0  501  0.00000000000E+00  0.00000000000E+00 -0.18658572823E+03  0.18659005032E+03  0.12699999809E+01 0. -1.
    10030    2    1    2    0    0  0.00000000000E+00  0.00000000000E+00  0.67759625405E+03  0.10507729658E+04  0.80311091521E+03 0.  0.
        4    1    3    3  502    0 -0.11480818635E+03  0.29468245518E+03  0.66254314349E+03  0.73415509188E+03  0.12699999809E+01 0. -1.
       -4    1    3    3    0  502  0.11480818635E+03 -0.29468245518E+03  0.15053110553E+02  0.31661787391E+03  0.12699999809E+01 0.  1.
</event>
<event>
 5   0  0.1025900E-02  0.8026979E+03  0.7818609E-02  0.9556120E-01
       -1   -1    0    0    0  501  0.00000000000E+00  0.00000000000E+00  0.22041078288E+03  0.22041078294E+03  0.50400001928E-02 0.  1.
        1   -1    0    0  501    0  0.00000000000E+00  0.00000000000E+00 -0.73082169694E+03  0.73082169696E+03  0.50400001928E-02 0. -1.
    10030    2    1    2    0    0  0.00000000000E+00  0.00000000000E+00 -0.51041091406E+03  0.95123247990E+03  0.80269790683E+03 0.  0.
        1    1    3    3  502    0 -0.24168993790E+03 -0.29746781287E+03 -0.39631957318E+03  0.55133504322E+03  0.50400001928E-02 0. -1.
       -1    1    3    3    0  502  0.24168993790E+03  0.29746781287E+03 -0.11409134088E+03  0.39989743668E+03  0.50400001928E-02 0.  1.
</event>
<event>
 5   0  0.1038912E-02  0.7223234E+03  0.7818609E-02  0.9679800E-01
        1   -1    0    0  501    0  0.00000000000E+00  0.00000000000E+00  0.13757779288E+04  0.13757779289E+04  0.50400001928E-02 0.  1.
       -1   -1    0    0    0  501  0.00000000000E+00  0.00000000000E+00 -0.94810202197E+02  0.94810202331E+02  0.50400001928E-02 0. -1.
    10030    2    1    2    0    0  0.00000000000E+00  0.00000000000E+00  0.12809677266E+04  0.14705881312E+04  0.72232342816E+03 0.  0.
        2    1    3    3  502    0  0.84911005506E+02  0.77927662294E+01  0.13549914594E+04  0.13576717060E+04  0.25500000920E-02 0.  1.
       -2    1    3    3    0  502 -0.84911005506E+02 -0.77927662294E+01 -0.74023732782E+02  0.11291642521E+03  0.25500000920E-02 0. -1.
</event>
<event>
 5   0  0.1747544E-02  0.8002513E+03  0.7818609E-02  0.9559653E-01
       -2   -1    0    0    0  501  0.00000000000E+00  0.00000000000E+00  0.30449484818E+03  0.30449484819E+03  0.25500000920E-02 0. -1.
        2   -1    0    0  501    0  0.00000000000E+00  0.00000000000E+00 -0.52579056357E+03  0.52579056357E+03  0.25500000920E-02 0.  1.
    10030    2    1    2    0    0  0.00000000000E+00  0.00000000000E+00 -0.22129571539E+03  0.83028541177E+03  0.80025125513E+03 0.  0.
        1    1    3    3  502    0  0.13230259004E+03  0.31692930451E+03  0.10236802327E+03  0.35836764866E+03  0.50400001928E-02 0. -1.
       -1    1    3    3    0  502 -0.13230259004E+03 -0.31692930451E+03 -0.32366373866E+03  0.47191776311E+03  0.50400001928E-02 0.  1.
</event>
<event>
 5   0  0.1747544E-02  0.7958853E+03  0.7818609E-02  0.9565992E-01
        2   -1    0    0  501    0  0.00000000000E+00  0.00000000000E+00  0.16763360398E+04  0.16763360398E+04  0.25500000920E-02 0. -1.
       -2   -1    0    0    0  501  0.00000000000E+00  0.00000000000E+00 -0.94466956342E+02  0.94466956376E+02  0.25500000920E-02 0.  1.
    10030    2    1    2    0    0  0.00000000000E+00  0.00000000000E+00  0.15818690835E+04  0.17708029962E+04  0.79588532722E+03 0.  0.
        1    1    3    3  502    0 -0.37117038028E+03 -0.44556075622E+02  0.48744593740E+03  0.61429328255E+03  0.50400001928E-02 0.  1.
       -1    1    3    3    0  502  0.37117038028E+03  0.44556075622E+02  0.10944231461E+04  0.11565097137E+04  0.50400001928E-02 0. -1.
</event>
<event>
 5   0  0.6872500E-03  0.7953724E+03  0.7818609E-02  0.9566740E-01
       -3   -1    0    0    0  501  0.00000000000E+00  0.00000000000E+00  0.96178830743E+02  0.96178883774E+02  0.10100000352E+00 0.  1.
        3   -1    0    0  501    0  0.00000000000E+00  0.00000000000E+00 -0.16443772323E+04  0.16443772354E+04  0.10100000352E+00 0. -1.
    10030    2    1    2    0    0  0.00000000000E+00  0.00000000000E+00 -0.15481984016E+04  0.17405561192E+04  0.79537243693E+03 0.  0.
        4    1    3    3  502    0  0.91206228227E+01  0.92329139840E+02  0.72159678272E+02  0.11754355743E+03  0.12699999809E+01 0.  1.
       -4    1    3    3    0  502 -0.91206228227E+01 -0.92329139840E+02 -0.16203580798E+04  0.16230125618E+04  0.12699999809E+01 0. -1.
</event>
<event>
 5   0  0.1146083E-02  0.8007717E+03  0.7818609E-02  0.9558901E-01
        1   -1    0    0  501    0  0.00000000000E+00  0.00000000000E+00  0.44962919555E+03  0.44962919557E+03  0.50400001928E-02 0.  1.
       -1   -1    0    0    0  501  0.00000000000E+00  0.00000000000E+00 -0.35653567014E+03  0.35653567017E+03  0.50400001928E-02 0. -1.
    10030    2    1    2    0    0  0.00000000000E+00  0.00000000000E+00  0.93093525409E+02  0.80616486575E+03  0.80077174419E+03 0.  0.
        4    1    3    3  502    0  0.26142129325E+02  0.16626910957E+02  0.44841860193E+03  0.44948939982E+03  0.12699999809E+01 0.  1.
       -4    1    3    3    0  502 -0.26142129325E+02 -0.16626910957E+02 -0.35532507652E+03  0.35667546593E+03  0.12699999809E+01 0. -1.
</event>
<event>
 5   0  0.1673727E-02  0.7941397E+03  0.7818609E-02  0.9568539E-01
        2   -1    0    0  501    0  0.00000000000E+00  0.00000000000E+00  0.16456127934E+04  0.16456127934E+04  0.25500000920E-02 0. -1.
       -2   -1    0    0    0  501  0.00000000000E+00  0.00000000000E+00 -0.95808976632E+02  0.95808976666E+02  0.25500000920E-02 0.  1.
    10030    2    1    2    0    0  0.00000000000E+00  0.00000000000E+00  0.15498038168E+04  0.17414217701E+04  0.79413973002E+03 0.  0.
        5    1    3    3  502    0  0.28895753141E+03  0.18977289073E+02  0.13705550363E+04  0.14008211127E+04  0.46999998093E+01 0. -1.
       -5    1    3    3    0  502 -0.28895753141E+03 -0.18977289073E+02  0.17924878049E+03  0.34060065732E+03  0.46999998093E+01 0.  1.
</event>
<event>
 5   0  0.1049780E-02  0.8003421E+03  0.7818609E-02  0.9559522E-01
        1   -1    0    0  501    0  0.00000000000E+00  0.00000000000E+00  0.63926531243E+03  0.63926531245E+03  0.50400001928E-02 0.  1.
       -1   -1    0    0    0  501  0.00000000000E+00  0.00000000000E+00 -0.25050139488E+03  0.25050139493E+03  0.50400001928E-02 0. -1.
    10030    2    1    2    0    0  0.00000000000E+00  0.00000000000E+00  0.38876391756E+03  0.88976670738E+03  0.80034205810E+03 0.  0.
        5    1    3    3  502    0  0.22170593385E+03 -0.76021789208E+02  0.55493658928E+03  0.60241973877E+03  0.46999998093E+01 0.  1.
       -5    1    3    3    0  502 -0.22170593385E+03  0.76021789208E+02 -0.16617267173E+03  0.28734696861E+03  0.46999998093E+01 0. -1.
</event>
<event>
 5   0  0.1038912E-02  0.8122497E+03  0.7818609E-02  0.9542453E-01
        1   -1    0    0  501    0  0.00000000000E+00  0.00000000000E+00  0.20111196657E+03  0.20111196664E+03  0.50400001928E-02 0. -1.
       -1   -1    0    0    0  501  0.00000000000E+00  0.00000000000E+00 -0.82012729752E+03  0.82012729754E+03  0.50400001928E-02 0.  1.
    10030    2    1    2    0    0  0.00000000000E+00  0.00000000000E+00 -0.61901533095E+03  0.10212392642E+04  0.81224974899E+03 0.  0.
        2    1    3    3  502    0  0.88386163631E+02 -0.23635111554E+03 -0.70960372844E+03  0.75313439383E+03  0.25500000920E-02 0.  1.
       -2    1    3    3    0  502 -0.88386163631E+02  0.23635111554E+03  0.90588397490E+02  0.26810487035E+03  0.25500000920E-02 0. -1.
</event>
<event>
 5   0  0.1673727E-02  0.8377637E+03  0.7818609E-02  0.9506909E-01
       -2   -1    0    0    0  501  0.00000000000E+00  0.00000000000E+00  0.27689706567E+03  0.27689706569E+03  0.25500000920E-02 0.  1.
        2   -1    0    0  501    0  0.00000000000E+00  0.00000000000E+00 -0.63367235379E+03  0.63367235379E+03  0.25500000920E-02 0. -1.
    10030    2    1    2    0    0  0.00000000000E+00  0.00000000000E+00 -0.35677528811E+03  0.91056941948E+03  0.83776372653E+03 0.  0.
        5    1    3    3  502    0  0.18166410803E+03  0.33349516940E+03 -0.37043191007E+03  0.53053064582E+03  0.46999998093E+01 0. -1.
       -5    1    3    3    0  502 -0.18166410803E+03 -0.33349516940E+03  0.13656621952E+02  0.38003877366E+03  0.46999998093E+01 0.  1.
</event>
<event>
 5   0  0.1747544E-02  0.7993153E+03  0.7818609E-02  0.9561009E-01
        2   -1    0    0  501    0  0.00000000000E+00  0.00000000000E+00  0.10470612403E+04  0.10470612403E+04  0.25500000920E-02 0. -1.
       -2   -1    0    0    0  501  0.00000000000E+00  0.00000000000E+00 -0.15254718563E+03  0.15254718565E+03  0.25500000920E-02 0.  1.
    10030    2    1    2    0    0  0.00000000000E+00  0.00000000000E+00  0.89451405464E+03  0.11996084259E+04  0.79931532051E+03 0.  0.
        1    1    3    3  502    0  0.27040599132E+03 -0.12399741804E+03  0.46706441516E+02  0.30112497659E+03  0.50400001928E-02 0.  1.
       -1    1    3    3    0  502 -0.27040599132E+03  0.12399741804E+03  0.84780761312E+03  0.89848344933E+03  0.50400001928E-02 0. -1.
</event>
<event>
 5   0  0.1038912E-02  0.8112496E+03  0.7818609E-02  0.9543875E-01
        1   -1    0    0  501    0  0.00000000000E+00  0.00000000000E+00  0.39341773092E+03  0.39341773095E+03  0.50400001928E-02 0.  1.
       -1   -1    0    0    0  501  0.00000000000E+00  0.00000000000E+00 -0.41821058595E+03  0.41821058598E+03  0.50400001928E-02 0. -1.
    10030    2    1    2    0    0  0.00000000000E+00  0.00000000000E+00 -0.24792855029E+02  0.81162831693E+03  0.81124955419E+03 0.  0.
        2    1    3    3  502    0 -0.12267200168E+01 -0.21773857652E+03  0.32999115478E+03  0.39535522608E+03  0.25500000920E-02 0.  1.
       -2    1    3    3    0  502  0.12267200168E+01  0.21773857652E+03 -0.35478400981E+03  0.41627309085E+03  0.25500000920E-02 0. -1.
</event>
<event>
 5   0  0.1049780E-02  0.7932878E+03  0.7818609E-02  0.9569784E-01
       -1   -1    0    0    0  501  0.00000000000E+00  0.00000000000E+00  0.13029960769E+03  0.13029960779E+03  0.50400001928E-02 0.  1.
        1   -1    0    0  501    0  0.00000000000E+00  0.00000000000E+00 -0.12074203741E+04  0.12074203741E+04  0.50400001928E-02 0. -1.
    10030    2    1    2    0    0  0.00000000000E+00  0.00000000000E+00 -0.10771207664E+04  0.13377199819E+04  0.79328784470E+03 0.  0.
        5    1    3    3  502    0  0.20461083141E+03 -0.66716325119E+02 -0.11003474593E+04  0.11212061726E+04  0.46999998093E+01 0. -1.
       -5    1    3    3    0  502 -0.20461083141E+03  0.66716325119E+02  0.23226692829E+02  0.21651380932E+03  0.46999998093E+01 0.  1.
</event>
<event>
 5   0  0.1030323E-02  0.8023881E+03  0.7818609E-02  0.9556567E-01
        1   -1    0    0  501    0  0.00000000000E+00  0.00000000000E+00  0.10728629949E+04  0.10728629949E+04  0.50400001928E-02 0. -1.
       -1   -1    0    0    0  501  0.00000000000E+00  0.00000000000E+00 -0.15002536455E+03  0.15002536463E+03  0.50400001928E-02 0.  1.
    10030    2    1    2    0    0  0.00000000000E+00  0.00000000000E+00  0.92283763034E+03  0.12228883595E+04  0.80238809058E+03 0.  0.
        3    1    3    3  502    0  0.22097624733E+03 -0.11258728881E+01 -0.48913814395E+02  0.22632794991E+03  0.10100000352E+00 0.  1.
       -3    1    3    3    0  502 -0.22097624733E+03  0.11258728881E+01  0.97175144473E+03  0.99656040961E+03  0.10100000352E+00 0. -1.
</event>
<event>
 5   0  0.1030323E-02  0.8004017E+03  0.7818609E-02  0.9559436E-01
       -1   -1    0    0    0  501  0.00000000000E+00  0.00000000000E+00  0.64632532883E+03  0.64632532885E+03  0.50400001928E-02 0. -1.
        1   -1    0    0  501    0  0.00000000000E+00  0.00000000000E+00 -0.24780204319E+03  0.24780204324E+03  0.50400001928E-02 0.  1.
    10030    2    1    2    0    0  0.00000000000E+00  0.00000000000E+00  0.39852328564E+03  0.89412737208E+03  0.80040174182E+03 0.  0.
        3    1    3    3  502    0  0.29646436609E+03 -0.24698393917E+03  0.31784539730E+03  0.49991788661E+03  0.10100000352E+00 0. -1.
       -3    1    3    3    0  502 -0.29646436609E+03  0.24698393917E+03  0.80677888342E+02  0.39420948547E+03  0.10100000352E+00 0.  1.
</event>
<event>
 5   0  0.1049780E-02  0.8055096E+03  0.7818609E-02  0.9552076E-01
        1   -1    0    0  501    0  0.00000000000E+00  0.00000000000E+00  0.16453003949E+04  0.16453003950E+04  0.50400001928E-02 0. -1.
       -1   -1    0    0    0  501  0.00000000000E+00  0.00000000000E+00 -0.98590756955E+02  0.98590757084E+02  0.50400001928E-02 0.  1.
    10030    2    1    2    0    0  0.00000000000E+00  0.00000000000E+00  0.15467096380E+04  0.17438911520E+04  0.80550955668E+03 0.  0.
        5    1    3    3  502    0 -0.18388248165E+03  0.50192408264E+02  0.53077400209E+01  0.19074146641E+03  0.46999998093E+01 0.  1.
       -5    1    3    3    0  502  0.18388248165E+03 -0.50192408264E+02  0.15414018980E+04  0.15531496856E+04  0.46999998093E+01 0. -1.
</event>
<event>
 5   0  0.1146083E-02  0.7997522E+03  0.7818609E-02  0.9560376E-01
       -1   -1    0    0    0  501  0.00000000000E+00  0.00000000000E+00  0.37251429421E+03  0.37251429424E+03  0.50400001928E-02 0.  1.
        1   -1    0    0  501    0  0.00000000000E+00  0.00000000000E+00 -0.42924769777E+03  0.42924769780E+03  0.50400001928E-02 0. -1.
    10030    2    1    2    0    0  0.00000000000E+00  0.00000000000E+00 -0.56733403563E+02  0.80176199204E+03  0.79975221963E+03 0.  0.
        4    1    3    3  502    0 -0.23861684111E+02  0.11192799405E+02 -0.42837394858E+03  0.42918587052E+03  0.12699999809E+01 0. -1.
       -4    1    3    3    0  502  0.23861684111E+02 -0.11192799405E+02  0.37164054502E+03  0.37257612152E+03  0.12699999809E+01 0.  1.
</event>
<event>
 5   0  0.1049780E-02  0.8174211E+03  0.7818609E-02  0.9535138E-01
       -1   -1    0    0    0  501  0.00000000000E+00  0.00000000000E+00  0.34432001874E+03  0.34432001878E+03  0.50400001928E-02 0. -1.
        1   -1    0    0  501    0  0.00000000000E+00  0.00000000000E+00 -0.48514255605E+03  0.48514255608E+03  0.50400001928E-02 0.  1.
    10030    2    1    2    0    0  0.00000000000E+00  0.00000000000E+00 -0.14082253731E+03  0.82946257486E+03  0.81742105189E+03 0.  0.
        5    1    3    3  502    0  0.22044649902E+03  0.34353461366E+03 -0.49876703197E+02  0.41124501849E+03  0.46999998093E+01 0. -1.
       -5    1    3    3    0  502 -0.22044649902E+03 -0.34353461366E+03 -0.90945834116E+02  0.41821755637E+03  0.46999998093E+01 0.  1.
</event>
<event>
 5   0  0.1731337E-02  0.8030462E+03  0.7818609E-02  0.9555618E-01
        2   -1    0    0  501    0  0.00000000000E+00  0.00000000000E+00  0.85324119112E+03  0.85324119112E+03  0.25500000920E-02 0. -1.
       -2   -1    0    0    0  501  0.00000000000E+00  0.00000000000E+00 -0.18895102643E+03  0.18895102645E+03  0.25500000920E-02 0.  1.
    10030    2    1    2    0    0  0.00000000000E+00  0.00000000000E+00  0.66429016469E+03  0.10421922176E+04  0.80304619759E+03 0.  0.
        4    1    3    3  502    0  0.30143320917E+03  0.24419431687E+03  0.19773460751E+03  0.43542327900E+03  0.12699999809E+01 0.  1.
       -4    1    3    3    0  502 -0.30143320917E+03 -0.24419431687E+03  0.46655555717E+03  0.60676893857E+03  0.12699999809E+01 0. -1.
</event>
<event>
 5   0  0.1030323E-02  0.7991603E+03  0.7818609E-02  0.9561233E-01
       -1   -1    0    0    0  501  0.00000000000E+00  0.00000000000E+00  0.71191028997E+03  0.71191028999E+03  0.50400001928E-02 0.  1.
        1   -1    0    0  501    0  0.00000000000E+00  0.00000000000E+00 -0.22427585344E+03  0.22427585349E+03  0.50400001928E-02 0. -1.
    10030    2    1    2    0    0  0.00000000000E+00  0.00000000000E+00  0.48763443654E+03  0.93618614348E+03  0.79916027901E+03 0.  0.
        3    1    3    3  502    0 -0.27442683374E+03 -0.28858817800E+03  0.20547881435E+03  0.44812361789E+03  0.10100000352E+00 0. -1.
       -3    1    3    3    0  502  0.27442683374E+03  0.28858817800E+03  0.28215562218E+03  0.48806252559E+03  0.10100000352E+00 0.  1.
</event>
<event>
 5   0  0.1818665E-02  0.7973725E+03  0.7818609E-02  0.9563828E-01
        2   -1    0    0  501    0  0.00000000000E+00  0.00000000000E+00  0.92250523815E+03  0.92250523816E+03  0.25500000920E-02 0.  1.
       -2   -1    0    0    0  501  0.00000000000E+00  0.00000000000E+00 -0.17230332515E+03  0.17230332517E+03  0.25500000920E-02 0. -1.
    10030    2    1    2    0    0  0.00000000000E+00  0.00000000000E+00  0.75020191301E+03  0.10948085633E+04  0.79737248513E+03 0.  0.
        3    1    3    3  502    0 -0.14392162759E+03 -0.37156473512E+03  0.39336380526E+03  0.55991863763E+03  0.10100000352E+00 0. -1.
       -3    1    3    3    0  502  0.14392162759E+03  0.37156473512E+03  0.35683810775E+03  0.53488992570E+03  0.10100000352E+00 0.  1.
</event>
<event>
 5   0  0.1818665E-02  0.7950005E+03  0.7818609E-02  0.9567282E-01
        2   -1    0    0  501    0  0.00000000000E+00  0.00000000000E+00  0.74475828577E+03  0.74475828577E+03  0.25500000920E-02 0.  1.
       -2   -1    0    0    0  501  0.00000000000E+00  0.00000000000E+00 -0.21215802336E+03  0.21215802337E+03  0.25500000920E-02 0. -1.
    10030    2    1    2    0    0  0.00000000000E+00  0.00000000000E+00  0.53260026241E+03  0.95691630914E+03  0.79500049257E+03 0.  0.
        3    1    3    3  502    0 -0.15877669518E+03 -0.20596568500E+03 -0.95550714925E+02  0.27705929266E+03  0.10100000352E+00 0. -1.
       -3    1    3    3    0  502  0.15877669518E+03  0.20596568500E+03  0.62815097734E+03  0.67985701648E+03  0.10100000352E+00 0.  1.
</event>
<event>
 5   0  0.6872500E-03  0.7917145E+03  0.7818609E-02  0.9572088E-01
       -4   -1    0    0    0  501  0.00000000000E+00  0.00000000000E+00  0.57536240054E+03  0.57536380217E+03  0.12699999809E+01 0.  1.
        4   -1    0    0  501    0  0.00000000000E+00  0.00000000000E+00 -0.27235199021E+03  0.27235495125E+03  0.12699999809E+01 0. -1.
    10030    2    1    2    0    0  0.00000000000E+00  0.00000000000E+00  0.30301041033E+03  0.84771875342E+03  0.79171445366E+03 0.  0.
        1    1    3    3  502    0  0.12639986779E+03  0.15386424980E+03  0.51783503500E+03  0.55480109719E+03  0.50400001928E-02 0.  1.
       -1    1    3    3    0  502 -0.12639986779E+03 -0.15386424980E+03 -0.21482462467E+03  0.29291765623E+03  0.50400001928E-02 0. -1.
</event>
<event>
 5   0  0.1673727E-02  0.7984111E+03  0.7818609E-02  0.9562320E-01
       -2   -1    0    0    0  501  0.00000000000E+00  0.00000000000E+00  0.95673258650E+02  0.95673258684E+02  0.25500000920E-02 0.  1.
        2   -1    0    0  501    0  0.00000000000E+00  0.00000000000E+00 -0.16657222218E+04  0.16657222218E+04  0.25500000920E-02 0. -1.
    10030    2    1    2    0    0  0.00000000000E+00  0.00000000000E+00 -0.15700489632E+04  0.17613954805E+04  0.79841110463E+03 0.  0.
        5    1    3    3  502    0  0.39842459974E+03 -0.22437745507E+02 -0.80679358011E+03  0.90010198589E+03  0.46999998093E+01 0. -1.
       -5    1    3    3    0  502 -0.39842459974E+03  0.22437745507E+02 -0.76325538306E+03  0.86129349462E+03  0.46999998093E+01 0.  1.
</event>
<event>
 5   0  0.1049780E-02  0.7842669E+03  0.7818609E-02  0.9583074E-01
        1   -1    0    0  501    0  0.00000000000E+00  0.00000000000E+00  0.66029848029E+03  0.66029848031E+03  0.50400001928E-02 0.  1.
       -1   -1    0    0    0  501  0.00000000000E+00  0.00000000000E+00 -0.23287744843E+03  0.23287744848E+03  0.50400001928E-02 0. -1.
    10030    2    1    2    0    0  0.00000000000E+00  0.00000000000E+00  0.42742103186E+03  0.89317592879E+03  0.78426685592E+03 0.  0.
        5    1    3    3  502    0  0.31641653066E+03  0.34017628407E+02  0.47458303427E+03  0.57142608125E+03  0.46999998093E+01 0.  1.
       -5    1    3    3    0  502 -0.31641653066E+03 -0.34017628407E+02 -0.47162002413E+02  0.32174984754E+03  0.46999998093E+01 0. -1.
</event>
<event>
 5   0  0.1038912E-02  0.8004813E+03  0.7818609E-02  0.9559321E-01
       -1   -1    0    0    0  501  0.00000000000E+00  0.00000000000E+00  0.25106170843E+03  0.25106170848E+03  0.50400001928E-02 0. -1.
        1   -1    0    0  501    0  0.00000000000E+00  0.00000000000E+00 -0.63806060985E+03  0.63806060987E+03  0.50400001928E-02 0.  1.
    10030    2    1    2    0    0  0.00000000000E+00  0.00000000000E+00 -0.38699890143E+03  0.88912231835E+03  0.80048132226E+03 0.  0.
        2    1    3    3  502    0  0.16803527999E+03 -0.11205079497E+03 -0.57730825157E+03  0.61161757113E+03  0.25500000920E-02 0.  1.
       -2    1    3    3    0  502 -0.16803527999E+03  0.11205079497E+03  0.19030935014E+03  0.27750474722E+03  0.25500000920E-02 0. -1.
</event>
<event>
 5   0  0.1673727E-02  0.8011209E+03  0.7818609E-02  0.9558396E-01
        2   -1    0    0  501    0  0.00000000000E+00  0.00000000000E+00  0.23155569921E+04  0.23155569921E+04  0.25500000920E-02 0. -1.
       -2   -1    0    0    0  501  0.00000000000E+00  0.00000000000E+00 -0.69291610437E+02  0.69291610484E+02  0.25500000920E-02 0.  1.
    10030    2    1    2    0    0  0.00000000000E+00  0.00000000000E+00  0.22462653817E+04  0.23848486026E+04  0.80112089749E+03 0.  0.
        5    1    3    3  502    0  0.10819285705E+03  0.17575691770E+03  0.10127264340E+03  0.22994439923E+03  0.46999998093E+01 0.  1.
       -5    1    3    3    0  502 -0.10819285705E+03 -0.17575691770E+03  0.21449927383E+04  0.21549042034E+04  0.46999998093E+01 0. -1.
</event>
<event>
 5   0  0.1747544E-02  0.7961338E+03  0.7818609E-02  0.9565630E-01
        2   -1    0    0  501    0  0.00000000000E+00  0.00000000000E+00  0.10788116638E+04  0.10788116638E+04  0.25500000920E-02 0. -1.
       -2   -1    0    0    0  501  0.00000000000E+00  0.00000000000E+00 -0.14688130112E+03  0.14688130114E+03  0.25500000920E-02 0.  1.
    10030    2    1    2    0    0  0.00000000000E+00  0.00000000000E+00  0.93193036266E+03  0.12256929649E+04  0.79613380998E+03 0.  0.
        1    1    3    3  502    0  0.29141946610E+03 -0.26296620827E+03  0.36406644108E+03  0.53536987724E+03  0.50400001928E-02 0.  1.
       -1    1    3    3    0  502 -0.29141946610E+03  0.26296620827E+03  0.56786392159E+03  0.69032308768E+03  0.50400001928E-02 0. -1.
</event>
<event>
 5   0  0.1038912E-02  0.7991832E+03  0.7818609E-02  0.9561200E-01
        1   -1    0    0  501    0  0.00000000000E+00  0.00000000000E+00  0.43965226472E+03  0.43965226475E+03  0.50400001928E-02 0. -1.
       -1   -1    0    0    0  501  0.00000000000E+00  0.00000000000E+00 -0.36318123704E+03  0.36318123708E+03  0.50400001928E-02 0.  1.
    10030    2    1    2    0    0  0.00000000000E+00  0.00000000000E+00  0.76471027674E+02  0.80283350182E+03  0.79918321653E+03 0.  0.
        2    1    3    3  502    0  0.17217226696E+03  0.22660085906E+03 -0.24354919336E+03  0.37457635861E+03  0.25500000920E-02 0.  1.
       -2    1    3    3    0  502 -0.17217226696E+03 -0.22660085906E+03  0.32002022103E+03  0.42825714321E+03  0.25500000920E-02 0. -1.
</event>
<event>
 5   0  0.1747544E-02  0.8136443E+03  0.7818609E-02  0.9540475E-01
       -2   -1    0    0    0  501  0.00000000000E+00  0.00000000000E+00  0.12795860195E+03  0.12795860198E+03  0.25500000920E-02 0. -1.
        2   -1    0    0  501    0  0.00000000000E+00  0.00000000000E+00 -0.12934205011E+04  0.12934205011E+04  0.25500000920E-02 0.  1.
    10030    2    1    2    0    0  0.00000000000E+00  0.00000000000E+00 -0.11654618991E+04  0.14213791031E+04  0.81364434262E+03 0.  0.
        1    1    3    3  502    0 -0.32154215713E+03  0.18207384278E+03 -0.28542413999E+03  0.46691239302E+03  0.50400001928E-02 0.  1.
       -1    1    3    3    0  502  0.32154215713E+03 -0.18207384278E+03 -0.88003775913E+03  0.95446671003E+03  0.50400001928E-02 0. -1.
</event>
<event>
 5   0  0.1146083E-02  0.8018276E+03  0.7818609E-02  0.9557376E-01
        1   -1    0    0  501    0  0.00000000000E+00  0.00000000000E+00  0.25363913130E+03  0.25363913135E+03  0.50400001928E-02 0.  1.
       -1   -1    0    0    0  501  0.00000000000E+00  0.00000000000E+00 -0.63370293770E+03  0.63370293772E+03  0.50400001928E-02 0. -1.
    10030    2    1    2    0    0  0.00000000000E+00  0.00000000000E+00 -0.38006380639E+03  0.88734206907E+03  0.80182756913E+03 0.  0.
        4    1    3    3  502    0 -0.24504247049E+03  0.21493455196E+03 -0.44835237819E+03  0.55431411843E+03  0.12699999809E+01 0. -1.
       -4    1    3    3    0  502  0.24504247049E+03 -0.21493455196E+03  0.68288571794E+02  0.33302795064E+03  0.12699999809E+01 0.  1.
</event>
<event>
 5   0  0.6872500E-03  0.8038091E+03  0.7818609E-02  0.9554520E-01
        3   -1    0    0  501    0  0.00000000000E+00  0.00000000000E+00  0.45903127845E+03  0.45903128957E+03  0.10100000352E+00 0.  1.
       -3   -1    0    0    0  501  0.00000000000E+00  0.00000000000E+00 -0.35188729140E+03  0.35188730589E+03  0.10100000352E+00 0. -1.
    10030    2    1    2    0    0  0.00000000000E+00  0.00000000000E+00  0.10714398706E+03  0.81091859545E+03  0.80380914059E+03 0.  0.
        5    1    3    3  502    0  0.37170250024E+02 -0.19205061883E+02 -0.34965647293E+03  0.35218205654E+03  0.46999998093E+01 0. -1.
       -5    1    3    3    0  502 -0.37170250024E+02  0.19205061883E+02  0.45680045999E+03  0.45873653891E+03  0.46999998093E+01 0.  1.
</event>
<event>
 5   0  0.1818665E-02  0.8061694E+03  0.7818609E-02  0.9551130E-01
        2   -1    0    0  501    0  0.00000000000E+00  0.00000000000E+00  0.80153939915E+03  0.80153939915E+03  0.25500000920E-02 0.  1.
       -2   -1    0    0    0  501  0.00000000000E+00  0.00000000000E+00 -0.20270652728E+03  0.20270652729E+03  0.25500000920E-02 0. -1.
    10030    2    1    2    0    0  0.00000000000E+00  0.00000000000E+00  0.59883287187E+03  0.10042459264E+04  0.80616938192E+03 0.  0.
        3    1    3    3  502    0 -0.22250755512E+03 -0.16998698313E+03  0.66060970861E+03  0.71750288071E+03  0.10100000352E+00 0.  1.
       -3    1    3    3    0  502  0.22250755512E+03  0.16998698313E+03 -0.61776836738E+02  0.28674304573E+03  0.10100000352E+00 0. -1.
</event>
<event>
 5   0  0.1146083E-02  0.7995674E+03  0.7818609E-02  0.9560644E-01
       -1   -1    0    0    0  501  0.00000000000E+00  0.00000000000E+00  0.21142973042E+03  0.21142973048E+03  0.50400001928E-02 0. -1.
        1   -1    0    0  501    0  0.00000000000E+00  0.00000000000E+00 -0.75593436785E+03  0.75593436786E+03  0.50400001928E-02 0.  1.
    10030    2    1    2    0    0  0.00000000000E+00  0.00000000000E+00 -0.54450463742E+03  0.96736409834E+03  0.79956738214E+03 0.  0.
        4    1    3    3  502    0 -0.24347905633E+03  0.16616570755E+03  0.54482059225E+02  0.29977158123E+03  0.12699999809E+01 0. -1.
       -4    1    3    3    0  502  0.24347905633E+03 -0.16616570755E+03 -0.59898669665E+03  0.66759251711E+03  0.12699999809E+01 0.  1.
</event>
<event>
 5   0  0.1818665E-02  0.7996561E+03  0.7818609E-02  0.9560515E-01
        2   -1    0    0  501    0  0.00000000000E+00  0.00000000000E+00  0.12931806444E+04  0.12931806444E+04  0.25500000920E-02 0. -1.
       -2   -1    0    0    0  501  0.00000000000E+00  0.00000000000E+00 -0.12361960688E+03  0.12361960691E+03  0.25500000920E-02 0.  1.
    10030    2    1    2    0    0  0.00000000000E+00  0.00000000000E+00  0.11695610375E+04  0.14168002513E+04  0.79965613337E+03 0.  0.
        3    1    3    3  502    0  0.10461857660E+03  0.29385553869E+03  0.14160500448E+03  0.34256110650E+03  0.10100000352E+00 0.  1.
       -3    1    3    3    0  502 -0.10461857660E+03 -0.29385553869E+03  0.10279560330E+04  0.10742391448E+04  0.10100000352E+00 0. -1.
</event>
<event>
 5   0  0.1731337E-02  0.8074248E+03  0.7818609E-02  0.9549332E-01
       -2   -1    0    0    0  501  0.00000000000E+00  0.00000000000E+00  0.61749347897E+03  0.61749347897E+03  0.25500000920E-02 0. -1.
        2   -1    0    0  501    0  0.00000000000E+00  0.00000000000E+00 -0.26394400830E+03  0.26394400831E+03  0.25500000920E-02 0.  1.
    10030    2    1    2    0    0  0.00000000000E+00  0.00000000000E+00  0.35354947067E+03  0.88143748728E+03  0.80742480503E+03 0.  0.
        4    1    3    3  502    0  0.63619478706E+02 -0.10819084720E+03 -0.24210243521E+03  0.27270478456E+03  0.12699999809E+01 0.  1.
       -4    1    3    3    0  502 -0.63619478706E+02  0.10819084720E+03  0.59565190588E+03  0.60873270272E+03  0.12699999809E+01 0. -1.
</event>
<event>
 5   0  0.1817089E-02  0.7799631E+03  0.7818609E-02  0.9589481E-01
        2   -1    0    0  501    0  0.00000000000E+00  0.00000000000E+00  0.27891765246E+03  0.27891765247E+03  0.25500000920E-02 0.  1.
       -2   -1    0    0    0  501  0.00000000000E+00  0.00000000000E+00 -0.54527069856E+03  0.54527069856E+03  0.25500000920E-02 0. -1.
    10030    2    1    2    0    0  0.00000000000E+00  0.00000000000E+00 -0.26635304610E+03  0.82418835104E+03  0.77996313555E+03 0.  0.
        2    1    3    3  502    0 -0.35124160143E+03  0.93733089381E+02 -0.28235147144E+03  0.46030306109E+03  0.25500000920E-02 0. -1.
       -2    1    3    3    0  502  0.35124160143E+03 -0.93733089381E+02  0.15998425340E+02  0.36388528995E+03  0.25500000920E-02 0.  1.
</event>
<event>
 5   0  0.1817089E-02  0.8116645E+03  0.7818609E-02  0.9543285E-01
       -2   -1    0    0    0  501  0.00000000000E+00  0.00000000000E+00  0.36228095329E+03  0.36228095329E+03  0.25500000920E-02 0.  1.
        2   -1    0    0  501    0  0.00000000000E+00  0.00000000000E+00 -0.45461901877E+03  0.45461901878E+03  0.25500000920E-02 0. -1.
    10030    2    1    2    0    0  0.00000000000E+00  0.00000000000E+00 -0.92338065488E+02  0.81689997207E+03  0.81166449105E+03 0.  0.
        2    1    3    3  502    0 -0.24811976813E+03  0.93115700240E+02  0.26316647368E+03  0.37348433146E+03  0.25500000920E-02 0.  1.
       -2    1    3    3    0  502  0.24811976813E+03 -0.93115700240E+02 -0.35550453916E+03  0.44341564062E+03  0.25500000920E-02 0. -1.
</event>
<event>
 5   0  0.1038912E-02  0.7777858E+03  0.7818609E-02  0.9592740E-01
       -1   -1    0    0    0  501  0.00000000000E+00  0.00000000000E+00  0.20907819943E+03  0.20907819949E+03  0.50400001928E-02 0.  1.
        1   -1    0    0  501    0  0.00000000000E+00  0.00000000000E+00 -0.72335456890E+03  0.72335456892E+03  0.50400001928E-02 0. -1.
    10030    2    1    2    0    0  0.00000000000E+00  0.00000000000E+00 -0.51427636947E+03  0.93243276841E+03  0.77778575675E+03 0.  0.
        2    1    3    3  502    0  0.11933179747E+03 -0.20371828120E+02  0.18591432419E+03  0.22185406287E+03  0.25500000920E-02 0.  1.
       -2    1    3    3    0  502 -0.11933179747E+03  0.20371828120E+02 -0.70019069366E+03  0.71057870553E+03  0.25500000920E-02 0. -1.
</event>
<event>
 5   0  0.1817089E-02  0.7390297E+03  0.7818609E-02  0.9652720E-01
       -2   -1    0    0    0  501  0.00000000000E+00  0.00000000000E+00  0.13710243878E+03  0.13710243880E+03  0.25500000920E-02 0.  1.
        2   -1    0    0  501    0  0.00000000000E+00  0.00000000000E+00 -0.99590668564E+03  0.99590668564E+03  0.25500000920E-02 0. -1.
    10030    2    1    2    0    0  0.00000000000E+00  0.00000000000E+00 -0.85880424686E+03  0.11330091244E+04  0.73902972987E+03 0.  0.
        2    1    3    3  502    0  0.28492700849E+03 -0.13392191907E+03 -0.13282382106E+03  0.34170257245E+03  0.25500000920E-02 0.  1.
       -2    1    3    3    0  502 -0.28492700849E+03  0.13392191907E+03 -0.72598042580E+03  0.79130655199E+03  0.25500000920E-02 0. -1.
</event>
<event>
 5   0  0.1673727E-02  0.8052478E+03  0.7818609E-02  0.9552452E-01
       -2   -1    0    0    0  501  0.00000000000E+00  0.00000000000E+00  0.65325672573E+03  0.65325672573E+03  0.25500000920E-02 0. -1.
        2   -1    0    0  501    0  0.00000000000E+00  0.00000000000E+00 -0.24815055954E+03  0.24815055956E+03  0.25500000920E-02 0.  1.
    10030    2    1    2    0    0  0.00000000000E+00  0.00000000000E+00  0.40510616618E+03  0.90140728529E+03  0.80524784265E+03 0.  0.
        5    1    3    3  502    0  0.11542474027E+03  0.33389081448E+02  0.63268599659E+03  0.64401192668E+03  0.46999998093E+01 0. -1.
       -5    1    3    3    0  502 -0.11542474027E+03 -0.33389081448E+02 -0.22757983041E+03  0.25739535861E+03  0.46999998093E+01 0.  1.
</event>
<event>
 5   0  0.1673727E-02  0.8016613E+03  0.7818609E-02  0.9557616E-01
       -2   -1    0    0    0  501  0.00000000000E+00  0.00000000000E+00  0.12152506972E+03  0.12152506975E+03  0.25500000920E-02 0.  1.
        2   -1    0    0  501    0  0.00000000000E+00  0.00000000000E+00 -0.13220745053E+04  0.13220745053E+04  0.25500000920E-02 0. -1.
    10030    2    1    2    0    0  0.00000000000E+00  0.00000000000E+00 -0.12005494356E+04  0.14435995751E+04  0.80166126627E+03 0.  0.
        5    1    3    3  502    0  0.21405921712E+03 -0.74022311867E+02 -0.11957315137E+04  0.12170031200E+04  0.46999998093E+01 0. -1.
       -5    1    3    3    0  502 -0.21405921712E+03  0.74022311867E+02 -0.48179218447E+01  0.22659645508E+03  0.46999998093E+01 0.  1.
</event>
<event>
 5   0  0.1818665E-02  0.8019852E+03  0.7818609E-02  0.9557148E-01
        2   -1    0    0  501    0  0.00000000000E+00  0.00000000000E+00  0.15469440279E+04  0.15469440279E+04  0.25500000920E-02 0.  1.
       -2   -1    0    0    0  501  0.00000000000E+00  0.00000000000E+00 -0.10394369074E+03  0.10394369077E+03  0.25500000920E-02 0. -1.
    10030    2    1    2    0    0  0.00000000000E+00  0.00000000000E+00  0.14430003371E+04  0.16508877186E+04  0.80198521596E+03 0.  0.
        3    1    3    3  502    0 -0.21579969079E+03  0.26787179174E+02  0.27971507292E+02  0.21924751979E+03  0.10100000352E+00 0. -1.
       -3    1    3    3    0  502  0.21579969079E+03 -0.26787179174E+02  0.14150288298E+04  0.14316401989E+04  0.10100000352E+00 0.  1.
</event>
<event>
 5   0  0.1049780E-02  0.7917481E+03  0.7818609E-02  0.9572039E-01
        1   -1    0    0  501    0  0.00000000000E+00  0.00000000000E+00  0.10839701507E+04  0.10839701507E+04  0.50400001928E-02 0.  1.
       -1   -1    0    0    0  501  0.00000000000E+00  0.00000000000E+00 -0.14457618218E+03  0.14457618227E+03  0.50400001928E-02 0. -1.
    10030    2    1    2    0    0  0.00000000000E+00  0.00000000000E+00  0.93939396855E+03  0.12285463330E+04  0.79174810654E+03 0.  0.
        5    1    3    3  502    0  0.56029397821E+02 -0.12555640443E+03  0.10456858660E+04  0.10546965082E+04  0.46999998093E+01 0.  1.
       -5    1    3    3    0  502 -0.56029397821E+02  0.12555640443E+03 -0.10629189745E+03  0.17384982478E+03  0.46999998093E+01 0. -1.
</event>
<event>
 5   0  0.1025900E-02  0.7967226E+03  0.7818609E-02  0.9564773E-01
        1   -1    0    0  501    0  0.00000000000E+00  0.00000000000E+00  0.15479661614E+03  0.15479661623E+03  0.50400001928E-02 0. -1.
       -1   -1    0    0    0  501  0.00000000000E+00  0.00000000000E+00 -0.10251626652E+04  0.10251626652E+04  0.50400001928E-02 0.  1.
    10030    2    1    2    0    0  0.00000000000E+00  0.00000000000E+00 -0.87036604905E+03  0.11799592814E+04  0.79672256558E+03 0.  0.
        1    1    3    3  502    0 -0.36988981890E+03  0.59820262500E+02 -0.63550259297E+03  0.73774012201E+03  0.50400001928E-02 0.  1.
       -1    1    3    3    0  502  0.36988981890E+03 -0.59820262500E+02 -0.23486345607E+03  0.44221915941E+03  0.50400001928E-02 0. -1.
</event>
<event>
 5   0  0.1818665E-02  0.8058949E+03  0.7818609E-02  0.9551524E-01
        2   -1    0    0  501    0  0.00000000000E+00  0.00000000000E+00  0.13418309408E+04  0.13418309408E+04  0.25500000920E-02 0. -1.
       -2   -1    0    0    0  501  0.00000000000E+00  0.00000000000E+00 -0.12100379019E+03  0.12100379022E+03  0.25500000920E-02 0.  1.
    10030    2    1    2    0    0  0.00000000000E+00  0.00000000000E+00  0.12208271506E+04  0.14628347310E+04  0.80589485581E+03 0.  0.
        3    1    3    3  502    0 -0.12805640289E+03 -0.29850977636E+03  0.17758028824E+03  0.37019089383E+03  0.10100000352E+00 0.  1.
       -3    1    3    3    0  502  0.12805640289E+03  0.29850977636E+03  0.10432468624E+04  0.10926438372E+04  0.10100000352E+00 0. -1.
</event>
<event>
 5   0  0.6872500E-03  0.8069061E+03  0.7818609E-02  0.9550074E-01
       -4   -1    0    0    0  501  0.00000000000E+00  0.00000000000E+00  0.40918033355E+03  0.40918230444E+03  0.12699999809E+01 0. -1.
        4   -1    0    0  501    0  0.00000000000E+00  0.00000000000E+00 -0.39780195545E+03  0.39780398271E+03  0.12699999809E+01 0.  1.
    10030    2    1    2    0    0  0.00000000000E+00  0.00000000000E+00  0.11378378102E+02  0.80698628715E+03  0.80690606651E+03 0.  0.
        3    1    3    3  502    0 -0.36083357839E+03  0.13816878037E+03 -0.11043805874E+03  0.40185576788E+03  0.10100000352E+00 0.  1.
       -3    1    3    3    0  502  0.36083357839E+03 -0.13816878037E+03  0.12181643684E+03  0.40513051927E+03  0.10100000352E+00 0. -1.
</event>
<event>
 5   0  0.1731337E-02  0.7991316E+03  0.7818609E-02  0.9561275E-01
       -2   -1    0    0    0  501  0.00000000000E+00  0.00000000000E+00  0.14959782832E+03  0.14959782834E+03  0.25500000920E-02 0. -1.
        2   -1    0    0  501    0  0.00000000000E+00  0.00000000000E+00 -0.10672134161E+04  0.10672134161E+04  0.25500000920E-02 0.  1.
    10030    2    1    2    0    0  0.00000000000E+00  0.00000000000E+00 -0.91761558779E+03  0.12168112444E+04  0.79913155216E+03 0.  0.
        4    1    3    3  502    0 -0.15763268629E+03  0.34181619049E+03 -0.66289530402E+03  0.76231107093E+03  0.12699999809E+01 0.  1.
       -4    1    3    3    0  502  0.15763268629E+03 -0.34181619049E+03 -0.25472028377E+03  0.45450017352E+03  0.12699999809E+01 0. -1.
</event>
<event>
 5   0  0.6872500E-03  0.7918336E+03  0.7818609E-02  0.9571913E-01
       -3   -1    0    0    0  501  0.00000000000E+00  0.00000000000E+00  0.12917850642E+03  0.12917854591E+03  0.10100000352E+00 0.  1.
        3   -1    0    0  501    0  0.00000000000E+00  0.00000000000E+00 -0.12134378102E+04  0.12134378144E+04  0.10100000352E+00 0. -1.
    10030    2    1    2    0    0  0.00000000000E+00  0.00000000000E+00 -0.10842593038E+04  0.13426163603E+04  0.79183360193E+03 0.  0.
        3    1    3    3  502    0  0.38054507861E+02  0.27973595891E+02 -0.12086440936E+04  0.12095665434E+04  0.10100000352E+00 0. -1.
       -3    1    3    3    0  502 -0.38054507861E+02 -0.27973595891E+02  0.12438478985E+03  0.13304981692E+03  0.10100000352E+00 0.  1.
</event>
<event>
 5   0  0.1146083E-02  0.7984597E+03  0.7818609E-02  0.9562249E-01
       -1   -1    0    0    0  501  0.00000000000E+00  0.00000000000E+00  0.11592491022E+03  0.11592491033E+03  0.50400001928E-02 0. -1.
        1   -1    0    0  501    0  0.00000000000E+00  0.00000000000E+00 -0.13748939197E+04  0.13748939197E+04  0.50400001928E-02 0.  1.
    10030    2    1    2    0    0  0.00000000000E+00  0.00000000000E+00 -0.12589690095E+04  0.14908188301E+04  0.79845965281E+03 0.  0.
        4    1    3    3  502    0  0.22108151231E+03 -0.10971750085E+02 -0.91473911436E+01  0.22154616234E+03  0.12699999809E+01 0. -1.
       -4    1    3    3    0  502 -0.22108151231E+03  0.10971750085E+02 -0.12498216184E+04  0.12692726677E+04  0.12699999809E+01 0.  1.
</event>
<event>
 5   0  0.1731337E-02  0.8053435E+03  0.7818609E-02  0.9552315E-01
       -2   -1    0    0    0  501  0.00000000000E+00  0.00000000000E+00  0.77187387375E+02  0.77187387417E+02  0.25500000920E-02 0. -1.
        2   -1    0    0  501    0  0.00000000000E+00  0.00000000000E+00 -0.21006610320E+04  0.21006610320E+04  0.25500000920E-02 0.  1.
    10030    2    1    2    0    0  0.00000000000E+00  0.00000000000E+00 -0.20234736446E+04  0.21778484194E+04  0.80534349657E+03 0.  0.
        4    1    3    3  502    0 -0.33304213066E+03 -0.21368624592E+03 -0.81002002558E+03  0.90150592191E+03  0.12699999809E+01 0. -1.
       -4    1    3    3    0  502  0.33304213066E+03  0.21368624592E+03 -0.12134536190E+04  0.12763424975E+04  0.12699999809E+01 0.  1.
</event>
<event>
 5   0  0.1747544E-02  0.8016435E+03  0.7818609E-02  0.9557641E-01
       -2   -1    0    0    0  501  0.00000000000E+00  0.00000000000E+00  0.91454699244E+03  0.91454699244E+03  0.25500000920E-02 0. -1.
        2   -1    0    0  501    0  0.00000000000E+00  0.00000000000E+00 -0.17566957023E+03  0.17566957025E+03  0.25500000920E-02 0.  1.
    10030    2    1    2    0    0  0.00000000000E+00  0.00000000000E+00  0.73887742221E+03  0.10902165627E+04  0.80164350463E+03 0.  0.
        1    1    3    3  502    0  0.41180745323E+02  0.39190224159E+03  0.26973417240E+03  0.47753507153E+03  0.50400001928E-02 0. -1.
       -1    1    3    3    0  502 -0.41180745323E+02 -0.39190224159E+03  0.46914324980E+03  0.61268149116E+03  0.50400001928E-02 0.  1.
</event>
<event>
 5   0  0.1817089E-02  0.7984168E+03  0.7818609E-02  0.9562312E-01
        2   -1    0    0  501    0  0.00000000000E+00  0.00000000000E+00  0.15144527029E+04  0.15144527029E+04  0.25500000920E-02 0.  1.
       -2   -1    0    0    0  501  0.00000000000E+00  0.00000000000E+00 -0.10523098695E+03  0.10523098698E+03  0.25500000920E-02 0. -1.
    10030    2    1    2    0    0  0.00000000000E+00  0.00000000000E+00  0.14092217160E+04  0.16196836899E+04  0.79841681506E+03 0.  0.
        2    1    3    3  502    0 -0.24049011822E+03 -0.17685678557E+02  0.59206771829E+02  0.24830167544E+03  0.25500000920E-02 0. -1.
       -2    1    3    3    0  502  0.24049011822E+03  0.17685678557E+02  0.13500149442E+04  0.13713820145E+04  0.25500000920E-02 0.  1.
</event>
<event>
 5   0  0.1030323E-02  0.8018607E+03  0.7818609E-02  0.9557328E-01
       -1   -1    0    0    0  501  0.00000000000E+00  0.00000000000E+00  0.47894796693E+03  0.47894796695E+03  0.50400001928E-02 0. -1.
        1   -1    0    0  501    0  0.00000000000E+00  0.00000000000E+00 -0.33562129657E+03  0.33562129661E+03  0.50400001928E-02 0.  1.
    10030    2    1    2    0    0  0.00000000000E+00  0.00000000000E+00  0.14332667035E+03  0.81456926356E+03  0.80186068036E+03 0.  0.
        3    1    3    3  502    0  0.27550922596E+03 -0.14218636417E+03  0.32990249068E+03  0.45272282835E+03  0.10100000352E+00 0. -1.
       -3    1    3    3    0  502 -0.27550922596E+03  0.14218636417E+03 -0.18657582033E+03  0.36184643522E+03  0.10100000352E+00 0.  1.
</event>
<event>
 5   0  0.6872500E-03  0.7976718E+03  0.7818609E-02  0.9563393E-01
       -3   -1    0    0    0  501  0.00000000000E+00  0.00000000000E+00  0.14741899913E+04  0.14741899947E+04  0.10100000352E+00 0.  1.
        3   -1    0    0  501    0  0.00000000000E+00  0.00000000000E+00 -0.10790335590E+03  0.10790340317E+03  0.10100000352E+00 0. -1.
    10030    2    1    2    0    0  0.00000000000E+00  0.00000000000E+00  0.13662866354E+04  0.15820933979E+04  0.79767183083E+03 0.  0.
        1    1    3    3  502    0  0.13942266061E+03 -0.62943025039E+02  0.14136919137E+04  0.14219442077E+04  0.50400001928E-02 0.  1.
       -1    1    3    3    0  502 -0.13942266061E+03  0.62943025039E+02 -0.47405278373E+02  0.16014919024E+03  0.50400001928E-02 0. -1.
</event>
<event>
 5   0  0.1025900E-02  0.8032193E+03  0.7818609E-02  0.9555369E-01
        1   -1    0    0  501    0  0.00000000000E+00  0.00000000000E+00  0.12200303723E+04  0.12200303723E+04  0.50400001928E-02 0.  1.
       -1   -1    0    0    0  501  0.00000000000E+00  0.00000000000E+00 -0.13220189658E+03  0.13220189667E+03  0.50400001928E-02 0. -1.
    10030    2    1    2    0    0  0.00000000000E+00  0.00000000000E+00  0.10878284757E+04  0.13522322690E+04  0.80321934532E+03 0.  0.
        1    1    3    3  502    0  0.30409164435E+03 -0.12159601030E+03  0.93524746242E+03  0.99093144762E+03  0.50400001928E-02 0.  1.
       -1    1    3    3    0  502 -0.30409164435E+03  0.12159601030E+03  0.15258101332E+03  0.36130082138E+03  0.50400001928E-02 0. -1.
</event>
<event>
 5   0  0.1038912E-02  0.8077956E+03  0.7818609E-02  0.9548801E-01
        1   -1    0    0  501    0  0.00000000000E+00  0.00000000000E+00  0.48058745865E+03  0.48058745867E+03  0.50400001928E-02 0. -1.
       -1   -1    0    0    0  501  0.00000000000E+00  0.00000000000E+00 -0.33944587459E+03  0.33944587463E+03  0.50400001928E-02 0.  1.
    10030    2    1    2    0    0  0.00000000000E+00  0.00000000000E+00  0.14114158405E+03  0.82003333330E+03  0.80779559356E+03 0.  0.
        2    1    3    3  502    0 -0.13904371522E+02  0.24785158653E+03 -0.25286179656E+03  0.35434845655E+03  0.25500000920E-02 0.  1.
       -2    1    3    3    0  502  0.13904371522E+02 -0.24785158653E+03  0.39400338061E+03  0.46568487675E+03  0.25500000920E-02 0. -1.
</event>
<event>
 5   0  0.1817089E-02  0.7993177E+03  0.7818609E-02  0.9561005E-01
       -2   -1    0    0    0  501  0.00000000000E+00  0.00000000000E+00  0.20426107585E+03  0.20426107587E+03  0.25500000920E-02 0.  1.
        2   -1    0    0  501    0  0.00000000000E+00  0.00000000000E+00 -0.78197576061E+03  0.78197576062E+03  0.25500000920E-02 0. -1.
    10030    2    1    2    0    0  0.00000000000E+00  0.00000000000E+00 -0.57771468476E+03  0.98623683648E+03  0.79931773448E+03 0.  0.
        2    1    3    3  502    0  0.24077916047E+03 -0.26590267220E+03 -0.71446495312E+02  0.36576418209E+03  0.25500000920E-02 0.  1.
       -2    1    3    3    0  502 -0.24077916047E+03  0.26590267220E+03 -0.50626818945E+03  0.62047265439E+03  0.25500000920E-02 0. -1.
</event>
<event>
 5   0  0.1673727E-02  0.8382937E+03  0.7818609E-02  0.9506185E-01
        2   -1    0    0  501    0  0.00000000000E+00  0.00000000000E+00  0.54910487956E+03  0.54910487957E+03  0.25500000920E-02 0.  1.
       -2   -1    0    0    0  501  0.00000000000E+00  0.00000000000E+00 -0.31994630497E+03  0.31994630498E+03  0.25500000920E-02 0. -1.
    10030    2    1    2    0    0  0.00000000000E+00  0.00000000000E+00  0.22915857459E+03  0.86905118455E+03  0.83829368903E+03 0.  0.
        5    1    3    3  502    0  0.13095423591E+03  0.36259779670E+03  0.28503787180E+03  0.47947351588E+03  0.46999998093E+01 0.  1.
       -5    1    3    3    0  502 -0.13095423591E+03 -0.36259779670E+03 -0.55879297205E+02  0.38957766867E+03  0.46999998093E+01 0. -1.
</event>
<event>
 5   0  0.1025900E-02  0.8029407E+03  0.7818609E-02  0.9555770E-01
        1   -1    0    0  501    0  0.00000000000E+00  0.00000000000E+00  0.90199929047E+03  0.90199929049E+03  0.50400001928E-02 0. -1.
       -1   -1    0    0    0  501  0.00000000000E+00  0.00000000000E+00 -0.17869021729E+03  0.17869021737E+03  0.50400001928E-02 0.  1.
    10030    2    1    2    0    0  0.00000000000E+00  0.00000000000E+00  0.72330907318E+03  0.10806895079E+04  0.80294071826E+03 0.  0.
        1    1    3    3  502    0  0.18662308216E+03 -0.28017933194E+03  0.65606794880E+03  0.73739662754E+03  0.50400001928E-02 0. -1.
       -1    1    3    3    0  502 -0.18662308216E+03  0.28017933194E+03  0.67241124378E+02  0.34329288031E+03  0.50400001928E-02 0.  1.
</event>
<event>
 5   0  0.1747544E-02  0.8014184E+03  0.7818609E-02  0.9557966E-01
        2   -1    0    0  501    0  0.00000000000E+00  0.00000000000E+00  0.10461243520E+04  0.10461243520E+04  0.25500000920E-02 0.  1.
       -2   -1    0    0    0  501  0.00000000000E+00  0.00000000000E+00 -0.15348831023E+03  0.15348831026E+03  0.25500000920E-02 0. -1.
    10030    2    1    2    0    0  0.00000000000E+00  0.00000000000E+00  0.89263604175E+03  0.11996126622E+04  0.80141839034E+03 0.  0.
        1    1    3    3  502    0 -0.21410449924E+03  0.40690827565E+01  0.95328940530E+03  0.97704553851E+03  0.50400001928E-02 0.  1.
       -1    1    3    3    0  502  0.21410449924E+03 -0.40690827565E+01 -0.60653363556E+02  0.22256712373E+03  0.50400001928E-02 0. -1.
</event>
<event>
 5   0  0.1025900E-02  0.8022096E+03  0.7818609E-02  0.9556824E-01
        1   -1    0    0  501    0  0.00000000000E+00  0.00000000000E+00  0.42638521502E+03  0.42638521505E+03  0.50400001928E-02 0. -1.
       -1   -1    0    0    0  501  0.00000000000E+00  0.00000000000E+00 -0.37732327769E+03  0.37732327772E+03  0.50400001928E-02 0.  1.
    10030    2    1    2    0    0  0.00000000000E+00  0.00000000000E+00  0.49061937330E+02  0.80370849277E+03  0.80220961578E+03 0.  0.
        1    1    3    3  502    0 -0.93075780812E+02  0.12242801047E+03  0.39567332760E+03  0.42451042498E+03  0.50400001928E-02 0. -1.
       -1    1    3    3    0  502  0.93075780812E+02 -0.12242801047E+03 -0.34661139027E+03  0.37919806778E+03  0.50400001928E-02 0.  1.
</event>
<event>
 5   0  0.1673727E-02  0.7973607E+03  0.7818609E-02  0.9563845E-01
        2   -1    0    0  501    0  0.00000000000E+00  0.00000000000E+00  0.12345715239E+04  0.12345715240E+04  0.25500000920E-02 0. -1.
       -2   -1    0    0    0  501  0.00000000000E+00  0.00000000000E+00 -0.12874590469E+03  0.12874590472E+03  0.25500000920E-02 0.  1.
    10030    2    1    2    0    0  0.00000000000E+00  0.00000000000E+00  0.11058256193E+04  0.13633174287E+04  0.79736071580E+03 0.  0.
        5    1    3    3  502    0 -0.27627296512E+03  0.27563021957E+03  0.69208120453E+03  0.79454216557E+03  0.46999998093E+01 0. -1.
       -5    1    3    3    0  502  0.27627296512E+03 -0.27563021957E+03  0.41374441472E+03  0.56877526310E+03  0.46999998093E+01 0.  1.
</event>
<event>
 5   0  0.1747544E-02  0.8040755E+03  0.7818609E-02  0.9554137E-01
        2   -1    0    0  501    0  0.00000000000E+00  0.00000000000E+00  0.66125678923E+03  0.66125678924E+03  0.25500000920E-02 0.  1.
       -2   -1    0    0    0  501  0.00000000000E+00  0.00000000000E+00 -0.24443508266E+03  0.24443508267E+03  0.25500000920E-02 0. -1.
    10030    2    1    2    0    0  0.00000000000E+00  0.00000000000E+00  0.41682170658E+03  0.90569187191E+03  0.80407551373E+03 0.  0.
        1    1    3    3  502    0 -0.48637633078E+02 -0.29574131874E+03  0.51024156586E+03  0.59175586395E+03  0.50400001928E-02 0.  1.
       -1    1    3    3    0  502  0.48637633078E+02  0.29574131874E+03 -0.93419859280E+02  0.31393600796E+03  0.50400001928E-02 0. -1.
</event>
<event>
 5   0  0.1673727E-02  0.7987475E+03  0.7818609E-02  0.9561832E-01
       -2   -1    0    0    0  501  0.00000000000E+00  0.00000000000E+00  0.10176394165E+03  0.10176394168E+03  0.25500000920E-02 0. -1.
        2   -1    0    0  501    0  0.00000000000E+00  0.00000000000E+00 -0.15673467221E+04  0.15673467221E+04  0.25500000920E-02 0.  1.
    10030    2    1    2    0    0  0.00000000000E+00  0.00000000000E+00 -0.14655827804E+04  0.16691106637E+04  0.79874747047E+03 0.  0.
        5    1    3    3  502    0  0.17374610807E+03  0.34327508222E+03 -0.50917044429E+03  0.63820225907E+03  0.46999998093E+01 0. -1.
       -5    1    3    3    0  502 -0.17374610807E+03 -0.34327508222E+03 -0.95641233612E+03  0.10309084047E+04  0.46999998093E+01 0.  1.
</event>
<event>
 5   0  0.1673727E-02  0.7981152E+03  0.7818609E-02  0.9562749E-01
       -2   -1    0    0    0  501  0.00000000000E+00  0.00000000000E+00  0.25827602377E+03  0.25827602378E+03  0.25500000920E-02 0. -1.
        2   -1    0    0  501    0  0.00000000000E+00  0.00000000000E+00 -0.61657659938E+03  0.61657659939E+03  0.25500000920E-02 0.  1.
    10030    2    1    2    0    0  0.00000000000E+00  0.00000000000E+00 -0.35830057561E+03  0.87485262317E+03  0.79811516073E+03 0.  0.
        5    1    3    3  502    0  0.17721262018E+03 -0.22078794895E+03 -0.48738679938E+03  0.56366622514E+03  0.46999998093E+01 0.  1.
       -5    1    3    3    0  502 -0.17721262018E+03  0.22078794895E+03  0.12908622377E+03  0.31118639803E+03  0.46999998093E+01 0. -1.
</event>
<event>
 5   0  0.6872500E-03  0.8010460E+03  0.7818609E-02  0.9558504E-01
        4   -1    0    0  501    0  0.00000000000E+00  0.00000000000E+00  0.52067094787E+03  0.52067249673E+03  0.12699999809E+01 0. -1.
       -4   -1    0    0    0  501  0.00000000000E+00  0.00000000000E+00 -0.30809655907E+03  0.30809917658E+03  0.12699999809E+01 0.  1.
    10030    2    1    2    0    0  0.00000000000E+00  0.00000000000E+00  0.21257438881E+03  0.82877167331E+03  0.80104595106E+03 0.  0.
        1    1    3    3  502    0 -0.96450653783E+01  0.11929953569E+03 -0.28916368045E+03  0.31295533326E+03  0.50400001928E-02 0.  1.
       -1    1    3    3    0  502  0.96450653783E+01 -0.11929953569E+03  0.50173806925E+03  0.51581634005E+03  0.50400001928E-02 0. -1.
</event>
<event>
 5   0  0.1818665E-02  0.7800722E+03  0.7818609E-02  0.9589318E-01
        2   -1    0    0  501    0  0.00000000000E+00  0.00000000000E+00  0.24058058854E+03  0.24058058855E+03  0.25500000920E-02 0. -1.
       -2   -1    0    0    0  501  0.00000000000E+00  0.00000000000E+00 -0.63233761227E+03  0.63233761228E+03  0.25500000920E-02 0.  1.
    10030    2    1    2    0    0  0.00000000000E+00  0.00000000000E+00 -0.39175702373E+03  0.87291820083E+03  0.78007218877E+03 0.  0.
        3    1    3    3  502    0 -0.30171015086E+03 -0.18281093235E+03 -0.97057045378E+01  0.35290659248E+03  0.10100000352E+00 0. -1.
       -3    1    3    3    0  502  0.30171015086E+03  0.18281093235E+03 -0.38205131920E+03  0.52001160835E+03  0.10100000352E+00 0.  1.
</event>
<event>
 5   0  0.1038912E-02  0.8027829E+03  0.7818609E-02  0.9555998E-01
        1   -1    0    0  501    0  0.00000000000E+00  0.00000000000E+00  0.12485042775E+04  0.12485042775E+04  0.50400001928E-02 0.  1.
       -1   -1    0    0    0  501  0.00000000000E+00  0.00000000000E+00 -0.12904647842E+03  0.12904647851E+03  0.50400001928E-02 0. -1.
    10030    2    1    2    0    0  0.00000000000E+00  0.00000000000E+00  0.11194577991E+04  0.13775507560E+04  0.80278286073E+03 0.  0.
        2    1    3    3  502    0 -0.77277853008E+02 -0.36094467521E+03  0.28915935875E+03  0.46889877360E+03  0.25500000920E-02 0. -1.
       -2    1    3    3    0  502  0.77277853008E+02  0.36094467521E+03  0.83029844033E+03  0.90865198241E+03  0.25500000920E-02 0.  1.
</event>
<event>
 5   0  0.1731337E-02  0.8035710E+03  0.7818609E-02  0.9554863E-01
       -2   -1    0    0    0  501  0.00000000000E+00  0.00000000000E+00  0.48514203440E+03  0.48514203441E+03  0.25500000920E-02 0. -1.
        2   -1    0    0  501    0  0.00000000000E+00  0.00000000000E+00 -0.33275122051E+03  0.33275122052E+03  0.25500000920E-02 0.  1.
    10030    2    1    2    0    0  0.00000000000E+00  0.00000000000E+00  0.15239081389E+03  0.81789325493E+03  0.80357103999E+03 0.  0.
        4    1    3    3  502    0 -0.37301791909E+03  0.56166885683E+02 -0.64591671904E+02  0.38271501668E+03  0.12699999809E+01 0.  1.
       -4    1    3    3    0  502  0.37301791909E+03 -0.56166885683E+02  0.21698248579E+03  0.43517823826E+03  0.12699999809E+01 0. -1.
</event>
<event>
 5   0  0.1030323E-02  0.7893905E+03  0.7818609E-02  0.9575502E-01
        1   -1    0    0  501    0  0.00000000000E+00  0.00000000000E+00  0.11046922134E+04  0.11046922135E+04  0.50400001928E-02 0. -1.
       -1   -1    0    0    0  501  0.00000000000E+00  0.00000000000E+00 -0.14102058272E+03  0.14102058281E+03  0.50400001928E-02 0.  1.
    10030    2    1    2    0    0  0.00000000000E+00  0.00000000000E+00  0.96367163073E+03  0.12457127963E+04  0.78939049836E+03 0.  0.
        3    1    3    3  502    0  0.10392226993E+03  0.19138726112E+03 -0.37623245635E+02  0.22100778430E+03  0.10100000352E+00 0.  1.
       -3    1    3    3    0  502 -0.10392226993E+03 -0.19138726112E+03  0.10012948764E+04  0.10247050120E+04  0.10100000352E+00 0. -1.
</event>
<event>
 5   0  0.1818665E-02  0.8077893E+03  0.7818609E-02  0.9548810E-01
        2   -1    0    0  501    0  0.00000000000E+00  0.00000000000E+00  0.15065356054E+03  0.15065356056E+03  0.25500000920E-02 0. -1.
       -2   -1    0    0    0  501  0.00000000000E+00  0.00000000000E+00 -0.10828213884E+04  0.10828213884E+04  0.25500000920E-02 0.  1.
    10030    2    1    2    0    0  0.00000000000E+00  0.00000000000E+00 -0.93216782781E+03  0.12334749489E+04  0.80778932303E+03 0.  0.
        3    1    3    3  502    0 -0.17013868487E+03  0.13268911749E+03 -0.98744576070E+03  0.10107436443E+04  0.10100000352E+00 0.  1.
       -3    1    3    3    0  502  0.17013868487E+03 -0.13268911749E+03  0.55277932887E+02  0.22273130461E+03  0.10100000352E+00 0. -1.
</event>
<event>
 5   0  0.1146083E-02  0.8062531E+03  0.7818609E-02  0.9551010E-01
        1   -1    0    0  501    0  0.00000000000E+00  0.00000000000E+00  0.15032022245E+04  0.15032022245E+04  0.50400001928E-02 0.  1.
       -1   -1    0    0    0  501  0.00000000000E+00  0.00000000000E+00 -0.10810987318E+03  0.10810987330E+03  0.50400001928E-02 0. -1.
    10030    2    1    2    0    0  0.00000000000E+00  0.00000000000E+00  0.13950923513E+04  0.16113120978E+04  0.80625306688E+03 0.  0.
        4    1    3    3  502    0  0.29349715802E+03 -0.26388234426E+03  0.86155770180E+03  0.94765909472E+03  0.12699999809E+01 0.  1.
       -4    1    3    3    0  502 -0.29349715802E+03  0.26388234426E+03  0.53353464952E+03  0.66365300310E+03  0.12699999809E+01 0. -1.
</event>
<event>
 5   0  0.1747544E-02  0.8066932E+03  0.7818609E-02  0.9550379E-01
       -2   -1    0    0    0  501  0.00000000000E+00  0.00000000000E+00  0.33645305022E+03  0.33645305023E+03  0.25500000920E-02 0. -1.
        2   -1    0    0  501    0  0.00000000000E+00  0.00000000000E+00 -0.48353995675E+03  0.48353995676E+03  0.25500000920E-02 0.  1.
    10030    2    1    2    0    0  0.00000000000E+00  0.00000000000E+00 -0.14708690653E+03  0.81999300699E+03  0.80669323379E+03 0.  0.
        1    1    3    3  502    0  0.88789918810E+02 -0.18579429240E+03 -0.42608317436E+03  0.47323360011E+03  0.50400001928E-02 0.  1.
       -1    1    3    3    0  502 -0.88789918810E+02  0.18579429240E+03  0.27899626783E+03  0.34675940688E+03  0.50400001928E-02 0. -1.
</event>
<event>
 5   0  0.1049780E-02  0.8089501E+03  0.7818609E-02  0.9547152E-01
        1   -1    0    0  501    0  0.00000000000E+00  0.00000000000E+00  0.14619248674E+04  0.14619248674E+04  0.50400001928E-02 0. -1.
       -1   -1    0    0    0  501  0.00000000000E+00  0.00000000000E+00 -0.11190730270E+03  0.11190730282E+03  0.50400001928E-02 0.  1.
    10030    2    1    2    0    0  0.00000000000E+00  0.00000000000E+00  0.13500175647E+04  0.15738321703E+04  0.80895010666E+03 0.  0.
        5    1    3    3  502    0  0.24845843730E+03 -0.90813896778E+01  0.12956399457E+04  0.13192873173E+04  0.46999998093E+01 0. -1.
       -5    1    3    3    0  502 -0.24845843730E+03  0.90813896778E+01  0.54377619004E+02  0.25454485293E+03  0.46999998093E+01 0.  1.
</event>
<event>
 5   0  0.1146083E-02  0.8005237E+03  0.7818609E-02  0.9559259E-01
       -1   -1    0    0    0  501  0.00000000000E+00  0.00000000000E+00  0.18196979555E+03  0.18196979562E+03  0.50400001928E-02 0. -1.
        1   -1    0    0  501    0  0.00000000000E+00  0.00000000000E+00 -0.88041836523E+03  0.88041836524E+03  0.50400001928E-02 0.  1.
    10030    2    1    2    0    0  0.00000000000E+00  0.00000000000E+00 -0.69844856968E+03  0.10623881609E+04  0.80052370348E+03 0.  0.
        4    1    3    3  502    0  0.28984593934E+03 -0.50405602038E+02  0.10951652153E+02  0.29440269165E+03  0.12699999809E+01 0. -1.
       -4    1    3    3    0  502 -0.28984593934E+03  0.50405602038E+02 -0.70940022183E+03  0.76798546920E+03  0.12699999809E+01 0.  1.
</event>
<event>
 5   0  0.1818665E-02  0.7991607E+03  0.7818609E-02  0.9561233E-01
       -2   -1    0    0    0  501  0.00000000000E+00  0.00000000000E+00  0.15601807241E+03  0.15601807243E+03  0.25500000920E-02 0.  1.
        2   -1    0    0  501    0  0.00000000000E+00  0.00000000000E+00 -0.10233714710E+04  0.10233714710E+04  0.25500000920E-02 0. -1.
    10030    2    1    2    0    0  0.00000000000E+00  0.00000000000E+00 -0.86735339861E+03  0.11793895435E+04  0.79916067040E+03 0.  0.
        3    1    3    3  502    0  0.18331082437E+03  0.28229732324E+03 -0.75146709512E+03  0.82340600088E+03  0.10100000352E+00 0. -1.
       -3    1    3    3    0  502 -0.18331082437E+03 -0.28229732324E+03 -0.11588630349E+03  0.35598354257E+03  0.10100000352E+00 0.  1.
</event>
<event>
 5   0  0.1049780E-02  0.7822517E+03  0.7818609E-02  0.9586068E-01
        1   -1    0    0  501    0  0.00000000000E+00  0.00000000000E+00  0.15192885404E+04  0.15192885404E+04  0.50400001928E-02 0. -1.
       -1   -1    0    0    0  501  0.00000000000E+00  0.00000000000E+00 -0.10069148787E+03  0.10069148799E+03  0.50400001928E-02 0.  1.
    10030    2    1    2    0    0  0.00000000000E+00  0.00000000000E+00  0.14185970526E+04  0.16199800284E+04  0.78225168263E+03 0.  0.
        5    1    3    3  502    0  0.35250068555E+03 -0.16922982604E+03  0.69300966907E+03  0.79572605761E+03  0.46999998093E+01 0.  1.
       -5    1    3    3    0  502 -0.35250068555E+03  0.16922982604E+03  0.72558738349E+03  0.82425397082E+03  0.46999998093E+01 0. -1.
</event>
<event>
 5   0  0.1030323E-02  0.8435788E+03  0.7818609E-02  0.9498996E-01
       -1   -1    0    0    0  501  0.00000000000E+00  0.00000000000E+00  0.27616927447E+03  0.27616927452E+03  0.50400001928E-02 0. -1.
        1   -1    0    0  501    0  0.00000000000E+00  0.00000000000E+00 -0.64419294400E+03  0.64419294402E+03  0.50400001928E-02 0.  1.
    10030    2    1    2    0    0  0.00000000000E+00  0.00000000000E+00 -0.36802366953E+03  0.92036221854E+03  0.84357880010E+03 0.  0.
        3    1    3    3  502    0  0.96751195013E+02  0.40144371129E+03 -0.90231987330E+02  0.42268152173E+03  0.10100000352E+00 0. -1.
       -3    1    3    3    0  502 -0.96751195013E+02 -0.40144371129E+03 -0.27779168220E+03  0.49768069681E+03  0.10100000352E+00 0.  1.
</event>
<event>
 5   0  0.1038912E-02  0.7516880E+03  0.7818609E-02  0.9632706E-01
       -1   -1    0    0    0  501  0.00000000000E+00  0.00000000000E+00  0.28901338771E+03  0.28901338775E+03  0.50400001928E-02 0. -1.
        1   -1    0    0  501    0  0.00000000000E+00  0.00000000000E+00 -0.48876179860E+03  0.48876179863E+03  0.50400001928E-02 0.  1.
    10030    2    1    2    0    0  0.00000000000E+00  0.00000000000E+00 -0.19974841090E+03  0.77777518638E+03  0.75168797575E+03 0.  0.
        2    1    3    3  502    0  0.21191836862E+03 -0.61305783917E+02  0.21497358841E+03  0.30802830686E+03  0.25500000920E-02 0.  1.
       -2    1    3    3    0  502 -0.21191836862E+03  0.61305783917E+02 -0.41472199931E+03  0.46974687952E+03  0.25500000920E-02 0. -1.
</event>
<event>
 5   0  0.1817089E-02  0.7905146E+03  0.7818609E-02  0.9573849E-01
       -2   -1    0    0    0  501  0.00000000000E+00  0.00000000000E+00  0.23196978085E+03  0.23196978087E+03  0.25500000920E-02 0.  1.
        2   -1    0    0  501    0  0.00000000000E+00  0.00000000000E+00 -0.67348578839E+03  0.67348578840E+03  0.25500000920E-02 0. -1.
    10030    2    1    2    0    0  0.00000000000E+00  0.00000000000E+00 -0.44151600754E+03  0.90545556926E+03  0.79051464439E+03 0.  0.
        2    1    3    3  502    0  0.10911025718E+03 -0.15245582433E+03  0.17780260247E+03  0.25838264656E+03  0.25500000920E-02 0.  1.
       -2    1    3    3    0  502 -0.10911025718E+03  0.15245582433E+03 -0.61931861000E+03  0.64707292270E+03  0.25500000920E-02 0. -1.
</event>
<event>
 5   0  0.1038912E-02  0.7980079E+03  0.7818609E-02  0.9562905E-01
        1   -1    0    0  501    0  0.00000000000E+00  0.00000000000E+00  0.98047497690E+03  0.98047497692E+03  0.50400001928E-02 0. -1.
       -1   -1    0    0    0  501  0.00000000000E+00  0.00000000000E+00 -0.16237452419E+03  0.16237452427E+03  0.50400001928E-02 0.  1.
    10030    2    1    2    0    0  0.00000000000E+00  0.00000000000E+00  0.81810045272E+03  0.11428495012E+04  0.79800791451E+03 0.  0.
        2    1    3    3  502    0  0.26356687208E+03  0.11346067848E+03  0.12003645873E+02  0.28720186131E+03  0.25500000920E-02 0.  1.
       -2    1    3    3    0  502 -0.26356687208E+03 -0.11346067848E+03  0.80609680684E+03  0.85564763988E+03  0.25500000920E-02 0. -1.
</event>
<event>
 5   0  0.1038912E-02  0.7814090E+03  0.7818609E-02  0.9587324E-01
       -1   -1    0    0    0  501  0.00000000000E+00  0.00000000000E+00  0.20161016578E+03  0.20161016584E+03  0.50400001928E-02 0. -1.
        1   -1    0    0  501    0  0.00000000000E+00  0.00000000000E+00 -0.75715423865E+03  0.75715423867E+03  0.50400001928E-02 0.  1.
    10030    2    1    2    0    0  0.00000000000E+00  0.00000000000E+00 -0.55554407287E+03  0.95876440451E+03  0.78140896236E+03 0.  0.
        2    1    3    3  502    0  0.11450528355E+03  0.15896450392E+03  0.13698845616E+03  0.23905440928E+03  0.25500000920E-02 0. -1.
       -2    1    3    3    0  502 -0.11450528355E+03 -0.15896450392E+03 -0.69253252903E+03  0.71970999523E+03  0.25500000920E-02 0.  1.
</event>
<event>
 5   0  0.1030323E-02  0.8025723E+03  0.7818609E-02  0.9556301E-01
        1   -1    0    0  501    0  0.00000000000E+00  0.00000000000E+00  0.80146526737E+03  0.80146526738E+03  0.50400001928E-02 0.  1.
       -1   -1    0    0    0  501  0.00000000000E+00  0.00000000000E+00 -0.20092019551E+03  0.20092019558E+03  0.50400001928E-02 0. -1.
    10030    2    1    2    0    0  0.00000000000E+00  0.00000000000E+00  0.60054507186E+03  0.10023854630E+04  0.80257226031E+03 0.  0.
        3    1    3    3  502    0  0.17067010653E+03 -0.79597727751E+02 -0.14230304486E+03  0.23603866273E+03  0.10100000352E+00 0. -1.
       -3    1    3    3    0  502 -0.17067010653E+03  0.79597727751E+02  0.74284811671E+03  0.76634680023E+03  0.10100000352E+00 0.  1.
</event>
<event>
 5   0  0.1747544E-02  0.7990725E+03  0.7818609E-02  0.9561361E-01
       -2   -1    0    0    0  501  0.00000000000E+00  0.00000000000E+00  0.33080388840E+03  0.33080388841E+03  0.25500000920E-02 0. -1.
        2   -1    0    0  501    0  0.00000000000E+00  0.00000000000E+00 -0.48254937277E+03  0.48254937277E+03  0.25500000920E-02 0.  1.
    10030    2    1    2    0    0  0.00000000000E+00  0.00000000000E+00 -0.15174548436E+03  0.81335326119E+03  0.79907248448E+03 0.  0.
        1    1    3    3  502    0  0.37705465772E+02  0.11515421683E+03  0.31165042519E+03  0.33437730687E+03  0.50400001928E-02 0. -1.
       -1    1    3    3    0  502 -0.37705465772E+02 -0.11515421683E+03 -0.46339590955E+03  0.47897595432E+03  0.50400001928E-02 0.  1.
</event>
<event>
 5   0  0.6872500E-03  0.7920747E+03  0.7818609E-02  0.9571560E-01
       -3   -1    0    0    0  501  0.00000000000E+00  0.00000000000E+00  0.71088276953E+03  0.71088277670E+03  0.10100000352E+00 0.  1.
        3   -1    0    0  501    0  0.00000000000E+00  0.00000000000E+00 -0.22063494662E+03  0.22063496974E+03  0.10100000352E+00 0. -1.
    10030    2    1    2    0    0  0.00000000000E+00  0.00000000000E+00  0.49024782290E+03  0.93151774644E+03  0.79207473389E+03 0.  0.
        5    1    3    3  502    0 -0.39375562682E+03  0.31369043189E+02  0.27830420921E+03  0.48322130891E+03  0.46999998093E+01 0. -1.
       -5    1    3    3    0  502  0.39375562682E+03 -0.31369043189E+02  0.21194361369E+03  0.44829643753E+03  0.46999998093E+01 0.  1.
</event>
<event>
 5   0  0.1731337E-02  0.7990801E+03  0.7818609E-02  0.9561350E-01
        2   -1    0    0  501    0  0.00000000000E+00  0.00000000000E+00  0.92335214133E+03  0.92335214133E+03  0.25500000920E-02 0.  1.
       -2   -1    0    0    0  501  0.00000000000E+00  0.00000000000E+00 -0.17288340902E+03  0.17288340904E+03  0.25500000920E-02 0. -1.
    10030    2    1    2    0    0  0.00000000000E+00  0.00000000000E+00  0.75046873231E+03  0.10962355504E+04  0.79908013598E+03 0.  0.
        4    1    3    3  502    0  0.23210149245E+03  0.20777760858E+03  0.32024994492E+02  0.31316106175E+03  0.12699999809E+01 0. -1.
       -4    1    3    3    0  502 -0.23210149245E+03 -0.20777760858E+03  0.71844373781E+03  0.78307448862E+03  0.12699999809E+01 0.  1.
</event>
<event>
 5   0  0.1025900E-02  0.7906308E+03  0.7818609E-02  0.9573678E-01
        1   -1    0    0  501    0  0.00000000000E+00  0.00000000000E+00  0.75028248130E+03  0.75028248131E+03  0.50400001928E-02 0. -1.
       -1   -1    0    0    0  501  0.00000000000E+00  0.00000000000E+00 -0.20828726078E+03  0.20828726084E+03  0.50400001928E-02 0.  1.
    10030    2    1    2    0    0  0.00000000000E+00  0.00000000000E+00  0.54199522052E+03  0.95856974216E+03  0.79063084402E+03 0.  0.
        1    1    3    3  502    0  0.38102903806E+03 -0.99577954543E+02  0.31256380007E+03  0.50278725721E+03  0.50400001928E-02 0.  1.
       -1    1    3    3    0  502 -0.38102903806E+03  0.99577954543E+02  0.22943142045E+03  0.45578248495E+03  0.50400001928E-02 0. -1.
</event>
<event>
 5   0  0.1747544E-02  0.8008333E+03  0.7818609E-02  0.9558812E-01
       -2   -1    0    0    0  501  0.00000000000E+00  0.00000000000E+00  0.62915162838E+03  0.62915162839E+03  0.25500000920E-02 0. -1.
        2   -1    0    0  501    0  0.00000000000E+00  0.00000000000E+00 -0.25484080095E+03  0.25484080096E+03  0.25500000920E-02 0.  1.
    10030    2    1    2    0    0  0.00000000000E+00  0.00000000000E+00  0.37431082744E+03  0.88399242935E+03  0.80083332823E+03 0.  0.
        1    1    3    3  502    0  0.19702509844E+03  0.13510301098E+03 -0.16755687566E+03  0.29179962234E+03  0.50400001928E-02 0.  1.
       -1    1    3    3    0  502 -0.19702509844E+03 -0.13510301098E+03  0.54186770309E+03  0.59219280701E+03  0.50400001928E-02 0. -1.
</event>
<event>
 5   0  0.1731337E-02  0.7987518E+03  0.7818609E-02  0.9561826E-01
        2   -1    0    0  501    0  0.00000000000E+00  0.00000000000E+00  0.12732464921E+04  0.12732464921E+04  0.25500000920E-02 0.  1.
       -2   -1    0    0    0  501  0.00000000000E+00  0.00000000000E+00 -0.12527120777E+03  0.12527120779E+03  0.25500000920E-02 0. -1.
    10030    2    1    2    0    0  0.00000000000E+00  0.00000000000E+00  0.11479752843E+04  0.13985176999E+04  0.79875184099E+03 0.  0.
        4    1    3    3  502    0  0.82582670174E+02  0.28743248445E+03  0.10374323485E+04  0.10796781100E+04  0.12699999809E+01 0.  1.
       -4    1    3    3    0  502 -0.82582670174E+02 -0.28743248445E+03  0.11054293580E+03  0.31883958990E+03  0.12699999809E+01 0. -1.
</event>
<event>
 5   0  0.1673727E-02  0.7903670E+03  0.7818609E-02  0.9574066E-01
        2   -1    0    0  501    0  0.00000000000E+00  0.00000000000E+00  0.11336617427E+04  0.11336617427E+04  0.25500000920E-02 0. -1.
       -2   -1    0    0    0  501  0.00000000000E+00  0.00000000000E+00 -0.13775714512E+03  0.13775714515E+03  0.25500000920E-02 0.  1.
    10030    2    1    2    0    0  0.00000000000E+00  0.00000000000E+00  0.99590459754E+03  0.12714188878E+04  0.79036701657E+03 0.  0.
        5    1    3    3  502    0  0.34068977526E+02 -0.29323693579E+03  0.92050633510E+03  0.96669674599E+03  0.46999998093E+01 0. -1.
       -5    1    3    3    0  502 -0.34068977526E+02  0.29323693579E+03  0.75398262438E+02  0.30472214182E+03  0.46999998093E+01 0.  1.
</event>
<event>
 5   0  0.1747544E-02  0.7965816E+03  0.7818609E-02  0.9564978E-01
       -2   -1    0    0    0  501  0.00000000000E+00  0.00000000000E+00  0.14981686988E+03  0.14981686990E+03  0.25500000920E-02 0.  1.
        2   -1    0    0  501    0  0.00000000000E+00  0.00000000000E+00 -0.10588632433E+04  0.10588632433E+04  0.25500000920E-02 0. -1.
    10030    2    1    2    0    0  0.00000000000E+00  0.00000000000E+00 -0.90904637338E+03  0.12086801132E+04  0.79658163863E+03 0.  0.
        1    1    3    3  502    0  0.23034352380E+03  0.16663140396E+03 -0.87777880908E+03  0.92266993093E+03  0.50400001928E-02 0. -1.
       -1    1    3    3    0  502 -0.23034352380E+03 -0.16663140396E+03 -0.31267564300E+02  0.28601018224E+03  0.50400001928E-02 0.  1.
</event>
<event>
 5   0  0.1673727E-02  0.8058456E+03  0.7818609E-02  0.9551594E-01
       -2   -1    0    0    0  501  0.00000000000E+00  0.00000000000E+00  0.88441854042E+03  0.88441854042E+03  0.25500000920E-02 0.  1.
        2   -1    0    0  501    0  0.00000000000E+00  0.00000000000E+00 -0.18356328038E+03  0.18356328040E+03  0.25500000920E-02 0. -1.
    10030    2    1    2    0    0  0.00000000000E+00  0.00000000000E+00  0.70085526004E+03  0.10679818208E+04  0.80584556466E+03 0.  0.
        5    1    3    3  502    0  0.37860422259E+03 -0.69879213665E+02  0.19305543108E+03  0.43071655568E+03  0.46999998093E+01 0.  1.
       -5    1    3    3    0  502 -0.37860422259E+03  0.69879213665E+02  0.50779982896E+03  0.63726526514E+03  0.46999998093E+01 0. -1.
</event>
<event>
 5   0  0.1747544E-02  0.7954732E+03  0.7818609E-02  0.9566593E-01
        2   -1    0    0  501    0  0.00000000000E+00  0.00000000000E+00  0.15643942251E+04  0.15643942251E+04  0.25500000920E-02 0.  1.
       -2   -1    0    0    0  501  0.00000000000E+00  0.00000000000E+00 -0.10112182246E+03  0.10112182249E+03  0.25500000920E-02 0. -1.
    10030    2    1    2    0    0  0.00000000000E+00  0.00000000000E+00  0.14632724027E+04  0.16655160476E+04  0.79547318022E+03 0.  0.
        1    1    3    3  502    0 -0.61263979558E+02 -0.22900948737E+03  0.14003100984E+04  0.14202348370E+04  0.50400001928E-02 0.  1.
       -1    1    3    3    0  502  0.61263979558E+02  0.22900948737E+03  0.62962304264E+02  0.24528121062E+03  0.50400001928E-02 0. -1.
</event>
<event>
 5   0  0.1146083E-02  0.7949617E+03  0.7818609E-02  0.9567339E-01
       -1   -1    0    0    0  501  0.00000000000E+00  0.00000000000E+00  0.91604471167E+02  0.91604471306E+02  0.50400001928E-02 0. -1.
        1   -1    0    0  501    0  0.00000000000E+00  0.00000000000E+00 -0.17247088756E+04  0.17247088756E+04  0.50400001928E-02 0.  1.
    10030    2    1    2    0    0  0.00000000000E+00  0.00000000000E+00 -0.16331044044E+04  0.18163133469E+04  0.79496174650E+03 0.  0.
        4    1    3    3  502    0  0.16466218954E+03 -0.26655081964E+03 -0.13753969585E+04  0.14106315545E+04  0.12699999809E+01 0.  1.
       -4    1    3    3    0  502 -0.16466218954E+03  0.26655081964E+03 -0.25770744588E+03  0.40568179239E+03  0.12699999809E+01 0. -1.
</event>
<event>
 5   0  0.1030323E-02  0.8026753E+03  0.7818609E-02  0.9556153E-01
        1   -1    0    0  501    0  0.00000000000E+00  0.00000000000E+00  0.95854943533E+03  0.95854943534E+03  0.50400001928E-02 0. -1.
       -1   -1    0    0    0  501  0.00000000000E+00  0.00000000000E+00 -0.16803712713E+03  0.16803712720E+03  0.50400001928E-02 0.  1.
    10030    2    1    2    0    0  0.00000000000E+00  0.00000000000E+00  0.79051230820E+03  0.11265865625E+04  0.80267526029E+03 0.  0.
        3    1    3    3  502    0  0.24186909440E+03  0.29937862440E+03  0.55493717401E+03  0.67533954192E+03  0.10100000352E+00 0. -1.
       -3    1    3    3    0  502 -0.24186909440E+03 -0.29937862440E+03  0.23557513419E+03  0.45124702063E+03  0.10100000352E+00 0.  1.
</event>
<event>
 5   0  0.1747544E-02  0.7989676E+03  0.7818609E-02  0.9561513E-01
        2   -1    0    0  501    0  0.00000000000E+00  0.00000000000E+00  0.49763022168E+03  0.49763022168E+03  0.25500000920E-02 0. -1.
       -2   -1    0    0    0  501  0.00000000000E+00  0.00000000000E+00 -0.32069452888E+03  0.32069452889E+03  0.25500000920E-02 0.  1.
    10030    2    1    2    0    0  0.00000000000E+00  0.00000000000E+00  0.17693569279E+03  0.81832475058E+03  0.79896755755E+03 0.  0.
        1    1    3    3  502    0  0.20745724651E+03 -0.34109905785E+03  0.73975364509E+02  0.40602885486E+03  0.50400001928E-02 0. -1.
       -1    1    3    3    0  502 -0.20745724651E+03  0.34109905785E+03  0.10296032828E+03  0.41229589572E+03  0.50400001928E-02 0.  1.
</event>
<event>
 5   0  0.1038912E-02  0.7867993E+03  0.7818609E-02  0.9579324E-01
        1   -1    0    0  501    0  0.00000000000E+00  0.00000000000E+00  0.64249909576E+03  0.64249909578E+03  0.50400001928E-02 0.  1.
       -1   -1    0    0    0  501  0.00000000000E+00  0.00000000000E+00 -0.24087702690E+03  0.24087702695E+03  0.50400001928E-02 0. -1.
    10030    2    1    2    0    0  0.00000000000E+00  0.00000000000E+00  0.40162206886E+03  0.88337612273E+03  0.78679926793E+03 0.  0.
        2    1    3    3  502    0 -0.13414042184E+03 -0.20839109846E+03  0.54383309374E+03  0.59764114361E+03  0.25500000920E-02 0.  1.
       -2    1    3    3    0  502  0.13414042184E+03  0.20839109846E+03 -0.14221102488E+03  0.28573497912E+03  0.25500000920E-02 0. -1.
</event>
<event>
 5   0  0.1817089E-02  0.7937258E+03  0.7818609E-02  0.9569143E-01
        2   -1    0    0  501    0  0.00000000000E+00  0.00000000000E+00  0.18107179846E+04  0.18107179846E+04  0.25500000920E-02 0. -1.
       -2   -1    0    0    0  501  0.00000000000E+00  0.00000000000E+00 -0.86982154099E+02  0.86982154137E+02  0.25500000920E-02 0.  1.
    10030    2    1    2    0    0  0.00000000000E+00  0.00000000000E+00  0.17237358305E+04  0.18977001388E+04  0.79372577332E+03 0.  0.
        2    1    3    3  502    0 -0.23267278419E+03 -0.32096156749E+03  0.81731808804E+03  0.90838417498E+03  0.25500000920E-02 0.  1.
       -2    1    3    3    0  502  0.23267278419E+03  0.32096156749E+03  0.90641774250E+03  0.98931596380E+03  0.25500000920E-02 0. -1.
</event>
<event>
 5   0  0.1146083E-02  0.8005868E+03  0.7818609E-02  0.9559168E-01
       -1   -1    0    0    0  501  0.00000000000E+00  0.00000000000E+00  0.44496189199E+03  0.44496189202E+03  0.50400001928E-02 0. -1.
        1   -1    0    0  501    0  0.00000000000E+00  0.00000000000E+00 -0.36010907189E+03  0.36010907193E+03  0.50400001928E-02 0.  1.
    10030    2    1    2    0    0  0.00000000000E+00  0.00000000000E+00  0.84852820097E+02  0.80507096394E+03  0.80058681972E+03 0.  0.
        4    1    3    3  502    0  0.37950539459E+03 -0.12730507824E+03  0.43942704697E+02  0.40269529630E+03  0.12699999809E+01 0. -1.
       -4    1    3    3    0  502 -0.37950539459E+03  0.12730507824E+03  0.40910115400E+02  0.40237566764E+03  0.12699999809E+01 0.  1.
</event>
<event>
 5   0  0.1673727E-02  0.8055421E+03  0.7818609E-02  0.9552030E-01
        2   -1    0    0  501    0  0.00000000000E+00  0.00000000000E+00  0.76150485756E+03  0.76150485756E+03  0.25500000920E-02 0.  1.
       -2   -1    0    0    0  501  0.00000000000E+00  0.00000000000E+00 -0.21303150487E+03  0.21303150488E+03  0.25500000920E-02 0. -1.
    10030    2    1    2    0    0  0.00000000000E+00  0.00000000000E+00  0.54847335269E+03  0.97453636244E+03  0.80554211753E+03 0.  0.
        5    1    3    3  502    0  0.20110049370E+03  0.15670195883E+03  0.65142241818E+03  0.69954997632E+03  0.46999998093E+01 0.  1.
       -5    1    3    3    0  502 -0.20110049370E+03 -0.15670195883E+03 -0.10294906549E+03  0.27498638612E+03  0.46999998093E+01 0. -1.
</event>
<event>
 5   0  0.1146083E-02  0.8039038E+03  0.7818609E-02  0.9554384E-01
       -1   -1    0    0    0  501  0.00000000000E+00  0.00000000000E+00  0.35159612092E+03  0.35159612095E+03  0.50400001928E-02 0.  1.
        1   -1    0    0  501    0  0.00000000000E+00  0.00000000000E+00 -0.45951964980E+03  0.45951964983E+03  0.50400001928E-02 0. -1.
    10030    2    1    2    0    0  0.00000000000E+00  0.00000000000E+00 -0.10792352889E+03  0.81111577078E+03  0.80390379121E+03 0.  0.
        4    1    3    3  502    0  0.39534126892E+03  0.22880696154E+02 -0.12346712616E+03  0.41480596586E+03  0.12699999809E+01 0.  1.
       -4    1    3    3    0  502 -0.39534126892E+03 -0.22880696154E+02  0.15543597274E+02  0.39630980493E+03  0.12699999809E+01 0. -1.
</event>
<event>
 5   0  0.1747544E-02  0.8000615E+03  0.7818609E-02  0.9559928E-01
        2   -1    0    0  501    0  0.00000000000E+00  0.00000000000E+00  0.17187849294E+04  0.17187849295E+04  0.25500000920E-02 0.  1.
       -2   -1    0    0    0  501  0.00000000000E+00  0.00000000000E+00 -0.93103335324E+02  0.93103335359E+02  0.25500000920E-02 0. -1.
    10030    2    1    2    0    0  0.00000000000E+00  0.00000000000E+00  0.16256815941E+04  0.18118882648E+04  0.80006152181E+03 0.  0.
        1    1    3    3  502    0  0.29463709399E+03  0.58904003504E+02  0.21475818487E+03  0.36932611169E+03  0.50400001928E-02 0. -1.
       -1    1    3    3    0  502 -0.29463709399E+03 -0.58904003504E+02  0.14109234093E+04  0.14425621531E+04  0.50400001928E-02 0.  1.
</event>
<event>
 5   0  0.1038912E-02  0.8048170E+03  0.7818609E-02  0.9553071E-01
       -1   -1    0    0    0  501  0.00000000000E+00  0.00000000000E+00  0.10098693268E+03  0.10098693281E+03  0.50400001928E-02 0.  1.
        1   -1    0    0  501    0  0.00000000000E+00  0.00000000000E+00 -0.16035006424E+04  0.16035006424E+04  0.50400001928E-02 0. -1.
    10030    2    1    2    0    0  0.00000000000E+00  0.00000000000E+00 -0.15025137097E+04  0.17044875752E+04  0.80481702651E+03 0.  0.
        2    1    3    3  502    0  0.16575266548E+03 -0.11029957774E+03 -0.10634366088E+02  0.19938162581E+03  0.25500000920E-02 0.  1.
       -2    1    3    3    0  502 -0.16575266548E+03  0.11029957774E+03 -0.14918793436E+04  0.15051059494E+04  0.25500000920E-02 0. -1.
</event>
<event>
 5   0  0.1038912E-02  0.8019769E+03  0.7818609E-02  0.9557160E-01
        1   -1    0    0  501    0  0.00000000000E+00  0.00000000000E+00  0.43343027215E+03  0.43343027218E+03  0.50400001928E-02 0. -1.
       -1   -1    0    0    0  501  0.00000000000E+00  0.00000000000E+00 -0.37097486135E+03  0.37097486138E+03  0.50400001928E-02 0.  1.
    10030    2    1    2    0    0  0.00000000000E+00  0.00000000000E+00  0.62455410802E+02  0.80440513356E+03  0.80197689528E+03 0.  0.
        2    1    3    3  502    0 -0.39153153687E+03  0.83856403355E+02  0.52807829250E+02  0.40387808506E+03  0.25500000920E-02 0. -1.
       -2    1    3    3    0  502  0.39153153687E+03 -0.83856403355E+02  0.96475815522E+01  0.40052704851E+03  0.25500000920E-02 0.  1.
</event>
<event>
 5   0  0.1030323E-02  0.8034132E+03  0.7818609E-02  0.9555090E-01
        1   -1    0    0  501    0  0.00000000000E+00  0.00000000000E+00  0.50592160161E+03  0.50592160164E+03  0.50400001928E-02 0.  1.
       -1   -1    0    0    0  501  0.00000000000E+00  0.00000000000E+00 -0.31895885371E+03  0.31895885375E+03  0.50400001928E-02 0. -1.
    10030    2    1    2    0    0  0.00000000000E+00  0.00000000000E+00  0.18696274790E+03  0.82488045539E+03  0.80341315435E+03 0.  0.
        3    1    3    3  502    0 -0.88084605821E+02 -0.38124405301E+03  0.18680700416E+03  0.43359288825E+03  0.10100000352E+00 0.  1.
       -3    1    3    3    0  502  0.88084605821E+02  0.38124405301E+03  0.15574374436E+00  0.39128756714E+03  0.10100000352E+00 0. -1.
</event>
<event>
 5   0  0.1049780E-02  0.7878480E+03  0.7818609E-02  0.9577775E-01
       -1   -1    0    0    0  501  0.00000000000E+00  0.00000000000E+00  0.15428905318E+03  0.15428905327E+03  0.50400001928E-02 0. -1.
        1   -1    0    0  501    0  0.00000000000E+00  0.00000000000E+00 -0.10057492622E+04  0.10057492622E+04  0.50400001928E-02 0.  1.
    10030    2    1    2    0    0  0.00000000000E+00  0.00000000000E+00 -0.85146020898E+03  0.11600383154E+04  0.78784795857E+03 0.  0.
        5    1    3    3  502    0 -0.11734584544E+03 -0.32490059575E+03 -0.70441557871E+03  0.78457239442E+03  0.46999998093E+01 0.  1.
       -5    1    3    3    0  502  0.11734584544E+03  0.32490059575E+03 -0.14704463027E+03  0.37546592102E+03  0.46999998093E+01 0. -1.
</event>
<event>
 5   0  0.1146083E-02  0.7972922E+03  0.7818609E-02  0.9563945E-01
        1   -1    0    0  501    0  0.00000000000E+00  0.00000000000E+00  0.93929167412E+03  0.93929167413E+03  0.50400001928E-02 0.  1.
       -1   -1    0    0    0  501  0.00000000000E+00  0.00000000000E+00 -0.16918996374E+03  0.16918996381E+03  0.50400001928E-02 0. -1.
    10030    2    1    2    0    0  0.00000000000E+00  0.00000000000E+00  0.77010171038E+03  0.11084816379E+04  0.79729222832E+03 0.  0.
        4    1    3    3  502    0  0.13655018444E+03  0.36284230846E+03  0.25599450273E+03  0.46458077016E+03  0.12699999809E+01 0. -1.
       -4    1    3    3    0  502 -0.13655018444E+03 -0.36284230846E+03  0.51410720765E+03  0.64390086779E+03  0.12699999809E+01 0.  1.
</event>
<event>
 5   0  0.1731337E-02  0.8102857E+03  0.7818609E-02  0.9545247E-01
       -2   -1    0    0    0  501  0.00000000000E+00  0.00000000000E+00  0.21871621062E+03  0.21871621064E+03  0.25500000920E-02 0. -1.
        2   -1    0    0  501    0  0.00000000000E+00  0.00000000000E+00 -0.75047347773E+03  0.75047347774E+03  0.25500000920E-02 0.  1.
    10030    2    1    2    0    0  0.00000000000E+00  0.00000000000E+00 -0.53175726711E+03  0.96918968838E+03  0.81028566625E+03 0.  0.
        4    1    3    3  502    0 -0.68827184539E+02 -0.32569959112E+03 -0.54207795748E+03  0.63613483623E+03  0.12699999809E+01 0.  1.
       -4    1    3    3    0  502  0.68827184539E+02  0.32569959112E+03  0.10320690367E+02  0.33305485214E+03  0.12699999809E+01 0. -1.
</event>
<event>
 5   0  0.1747544E-02  0.8694086E+03  0.7818609E-02  0.9464651E-01
        2   -1    0    0  501    0  0.00000000000E+00  0.00000000000E+00  0.78609578906E+03  0.78609578906E+03  0.25500000920E-02 0. -1.
       -2   -1    0    0    0  501  0.00000000000E+00  0.00000000000E+00 -0.24038781244E+03  0.24038781245E+03  0.25500000920E-02 0.  1.
    10030    2    1    2    0    0  0.00000000000E+00  0.00000000000E+00  0.54570797662E+03  0.10264836015E+04  0.86940864294E+03 0.  0.
        1    1    3    3  502    0  0.11100387113E+03  0.15927321296E+03 -0.18636093650E+03  0.26911004153E+03  0.50400001928E-02 0.  1.
       -1    1    3    3    0  502 -0.11100387113E+03 -0.15927321296E+03  0.73206891312E+03  0.75737355998E+03  0.50400001928E-02 0. -1.
</event>
<event>
 5   0  0.1673727E-02  0.8147260E+03  0.7818609E-02  0.9538943E-01
        2   -1    0    0  501    0  0.00000000000E+00  0.00000000000E+00  0.95250725664E+03  0.95250725664E+03  0.25500000920E-02 0. -1.
       -2   -1    0    0    0  501  0.00000000000E+00  0.00000000000E+00 -0.17421872723E+03  0.17421872725E+03  0.25500000920E-02 0.  1.
    10030    2    1    2    0    0  0.00000000000E+00  0.00000000000E+00  0.77828852940E+03  0.11267259839E+04  0.81472597097E+03 0.  0.
        5    1    3    3  502    0 -0.21013670205E+03 -0.16137905798E+03 -0.38726245299E+02  0.26781046652E+03  0.46999998093E+01 0.  1.
       -5    1    3    3    0  502  0.21013670205E+03  0.16137905798E+03  0.81701477470E+03  0.85891551737E+03  0.46999998093E+01 0. -1.
</event>
<event>
 5   0  0.1817089E-02  0.7963787E+03  0.7818609E-02  0.9565274E-01
        2   -1    0    0  501    0  0.00000000000E+00  0.00000000000E+00  0.89690559740E+03  0.89690559740E+03  0.25500000920E-02 0.  1.
       -2   -1    0    0    0  501  0.00000000000E+00  0.00000000000E+00 -0.17677977458E+03  0.17677977460E+03  0.25500000920E-02 0. -1.
    10030    2    1    2    0    0  0.00000000000E+00  0.00000000000E+00  0.72012582282E+03  0.10736853720E+04  0.79637872735E+03 0.  0.
        2    1    3    3  502    0 -0.43470942899E+01  0.39804396918E+03  0.34679344039E+03  0.52794278946E+03  0.25500000920E-02 0.  1.
       -2    1    3    3    0  502  0.43470942899E+01 -0.39804396918E+03  0.37333238243E+03  0.54574258255E+03  0.25500000920E-02 0. -1.
</event>
<event>
 5   0  0.1038912E-02  0.9508816E+03  0.7818609E-02  0.9364121E-01
        1   -1    0    0  501    0  0.00000000000E+00  0.00000000000E+00  0.87538693428E+03  0.87538693429E+03  0.50400001928E-02 0. -1.
       -1   -1    0    0    0  501  0.00000000000E+00  0.00000000000E+00 -0.25822173432E+03  0.25822173437E+03  0.50400001928E-02 0.  1.
    10030    2    1    2    0    0  0.00000000000E+00  0.00000000000E+00  0.61716519995E+03  0.11336086687E+04  0.95088155395E+03 0.  0.
        2    1    3    3  502    0 -0.31664655709E+03  0.35446009913E+03  0.32253289934E+03  0.57439922976E+03  0.25500000920E-02 0.  1.
       -2    1    3    3    0  502  0.31664655709E+03 -0.35446009913E+03  0.29463230062E+03  0.55920943891E+03  0.25500000920E-02 0. -1.
</event>
<event>
 5   0  0.1025900E-02  0.7863871E+03  0.7818609E-02  0.9579933E-01
        1   -1    0    0  501    0  0.00000000000E+00  0.00000000000E+00  0.22893290070E+03  0.22893290076E+03  0.50400001928E-02 0. -1.
       -1   -1    0    0    0  501  0.00000000000E+00  0.00000000000E+00 -0.67531222509E+03  0.67531222511E+03  0.50400001928E-02 0.  1.
    10030    2    1    2    0    0  0.00000000000E+00  0.00000000000E+00 -0.44637932439E+03  0.90424512586E+03  0.78638714791E+03 0.  0.
        1    1    3    3  502    0 -0.17374784581E+03 -0.22805762038E+03 -0.53259431032E+03  0.60485972882E+03  0.50400001928E-02 0.  1.
       -1    1    3    3    0  502  0.17374784581E+03  0.22805762038E+03  0.86214985928E+02  0.29938539704E+03  0.50400001928E-02 0. -1.
</event>
<event>
 5   0  0.1673727E-02  0.7965759E+03  0.7818609E-02  0.9564987E-01
       -2   -1    0    0    0  501  0.00000000000E+00  0.00000000000E+00  0.30941311677E+03  0.30941311678E+03  0.25500000920E-02 0.  1.
        2   -1    0    0  501    0  0.00000000000E+00  0.00000000000E+00 -0.51269088081E+03  0.51269088081E+03  0.25500000920E-02 0. -1.
    10030    2    1    2    0    0  0.00000000000E+00  0.00000000000E+00 -0.20327776404E+03  0.82210399759E+03  0.79657588057E+03 0.  0.
        5    1    3    3  502    0  0.93086989852E+02 -0.14943550331E+03 -0.47031969073E+03  0.50221395721E+03  0.46999998093E+01 0. -1.
       -5    1    3    3    0  502 -0.93086989852E+02  0.14943550331E+03  0.26704192669E+03  0.31989004038E+03  0.46999998093E+01 0.  1.
</event>
<event>
 5   0  0.1747544E-02  0.8100243E+03  0.7818609E-02  0.9545620E-01
        2   -1    0    0  501    0  0.00000000000E+00  0.00000000000E+00  0.38744492526E+03  0.38744492527E+03  0.25500000920E-02 0.  1.
       -2   -1    0    0    0  501  0.00000000000E+00  0.00000000000E+00 -0.42337593351E+03  0.42337593352E+03  0.25500000920E-02 0. -1.
    10030    2    1    2    0    0  0.00000000000E+00  0.00000000000E+00 -0.35931008248E+02  0.81082085879E+03  0.81002433772E+03 0.  0.
        1    1    3    3  502    0 -0.11883369502E+03  0.12498777662E+03 -0.38478385287E+03  0.42166575013E+03  0.50400001928E-02 0. -1.
       -1    1    3    3    0  502  0.11883369502E+03 -0.12498777662E+03  0.34885284462E+03  0.38915510867E+03  0.50400001928E-02 0.  1.
</event>
<event>
 5   0  0.1049780E-02  0.7879936E+03  0.7818609E-02  0.9577560E-01
       -1   -1    0    0    0  501  0.00000000000E+00  0.00000000000E+00  0.35670056461E+03  0.35670056464E+03  0.50400001928E-02 0. -1.
        1   -1    0    0  501    0  0.00000000000E+00  0.00000000000E+00 -0.43519273781E+03  0.43519273783E+03  0.50400001928E-02 0.  1.
    10030    2    1    2    0    0  0.00000000000E+00  0.00000000000E+00 -0.78492173198E+02  0.79189330248E+03  0.78799364290E+03 0.  0.
        5    1    3    3  502    0  0.17392730738E+03  0.16860610090E+01  0.31599708236E+03  0.36073507885E+03  0.46999998093E+01 0. -1.
       -5    1    3    3    0  502 -0.17392730738E+03 -0.16860610090E+01 -0.39448925556E+03  0.43115822363E+03  0.46999998093E+01 0.  1.
</event>
<event>
 5   0  0.1030323E-02  0.7980276E+03  0.7818609E-02  0.9562876E-01
       -1   -1    0    0    0  501  0.00000000000E+00  0.00000000000E+00  0.16518352070E+03  0.16518352078E+03  0.50400001928E-02 0. -1.
        1   -1    0    0  501    0  0.00000000000E+00  0.00000000000E+00 -0.96384929017E+03  0.96384929019E+03  0.50400001928E-02 0.  1.
    10030    2    1    2    0    0  0.00000000000E+00  0.00000000000E+00 -0.79866576947E+03  0.11290328110E+04  0.79802761663E+03 0.  0.
        3    1    3    3  502    0  0.16419846266E+03  0.66227920434E+02 -0.90523213552E+03  0.92238414013E+03  0.10100000352E+00 0.  1.
       -3    1    3    3    0  502 -0.16419846266E+03 -0.66227920434E+02  0.10656636605E+03  0.20664867083E+03  0.10100000352E+00 0. -1.
</event>
<event>
 5   0  0.1673727E-02  0.7813527E+03  0.7818609E-02  0.9587407E-01
        2   -1    0    0  501    0  0.00000000000E+00  0.00000000000E+00  0.13195919993E+04  0.13195919993E+04  0.25500000920E-02 0.  1.
       -2   -1    0    0    0  501  0.00000000000E+00  0.00000000000E+00 -0.11566304153E+03  0.11566304156E+03  0.25500000920E-02 0. -1.
    10030    2    1    2    0    0  0.00000000000E+00  0.00000000000E+00  0.12039289578E+04  0.14352550409E+04  0.78135273532E+03 0.  0.
        5    1    3    3  502    0  0.33329229693E+03  0.56586309169E+02  0.96154457987E+03  0.10192525863E+04  0.46999998093E+01 0.  1.
       -5    1    3    3    0  502 -0.33329229693E+03 -0.56586309169E+02  0.24238437795E+03  0.41600245462E+03  0.46999998093E+01 0. -1.
</event>
<event>
 5   0  0.1030323E-02  0.8086393E+03  0.7818609E-02  0.9547596E-01
        1   -1    0    0  501    0  0.00000000000E+00  0.00000000000E+00  0.27515255785E+03  0.27515255790E+03  0.50400001928E-02 0.  1.
       -1   -1    0    0    0  501  0.00000000000E+00  0.00000000000E+00 -0.59412267556E+03  0.59412267558E+03  0.50400001928E-02 0. -1.
    10030    2    1    2    0    0  0.00000000000E+00  0.00000000000E+00 -0.31897011771E+03  0.86927523348E+03  0.80863928643E+03 0.  0.
        3    1    3    3  502    0 -0.10430920667E+03 -0.38070078344E+03 -0.65395502913E+02  0.40011258304E+03  0.10100000352E+00 0.  1.
       -3    1    3    3    0  502  0.10430920667E+03  0.38070078344E+03 -0.25357461480E+03  0.46916265045E+03  0.10100000352E+00 0. -1.
</event>
<event>
 5   0  0.1673727E-02  0.7782020E+03  0.7818609E-02  0.9592116E-01
        2   -1    0    0  501    0  0.00000000000E+00  0.00000000000E+00  0.12551056975E+04  0.12551056975E+04  0.25500000920E-02 0. -1.
       -2   -1    0    0    0  501  0.00000000000E+00  0.00000000000E+00 -0.12062696349E+03  0.12062696352E+03  0.25500000920E-02 0.  1.
    10030    2    1    2    0    0  0.00000000000E+00  0.00000000000E+00  0.11344787340E+04  0.13757326610E+04  0.77820200250E+03 0.  0.
        5    1    3    3  502    0 -0.20281300587E+03 -0.13210859940E+03  0.11057524686E+04  0.11319436422E+04  0.46999998093E+01 0. -1.
       -5    1    3    3    0  502  0.20281300587E+03  0.13210859940E+03  0.28726265470E+02  0.24378901885E+03  0.46999998093E+01 0.  1.
</event>
<event>
 5   0  0.1038912E-02  0.7982016E+03  0.7818609E-02  0.9562624E-01
        1   -1    0    0  501    0  0.00000000000E+00  0.00000000000E+00  0.44427819003E+03  0.44427819006E+03  0.50400001928E-02 0. -1.
       -1   -1    0    0    0  501  0.00000000000E+00  0.00000000000E+00 -0.35851740933E+03  0.35851740937E+03  0.50400001928E-02 0.  1.
    10030    2    1    2    0    0  0.00000000000E+00  0.00000000000E+00  0.85760780700E+02  0.80279559943E+03  0.79820164304E+03 0.  0.
        2    1    3    3  502    0 -0.30982448773E+03 -0.22530790837E+03 -0.69686055163E+02  0.38937258899E+03  0.25500000920E-02 0.  1.
       -2    1    3    3    0  502  0.30982448773E+03  0.22530790837E+03  0.15544683586E+03  0.41342301043E+03  0.25500000920E-02 0. -1.
</event>
<event>
 5   0  0.1747544E-02  0.8000034E+03  0.7818609E-02  0.9560012E-01
       -2   -1    0    0    0  501  0.00000000000E+00  0.00000000000E+00  0.63865703304E+02  0.63865703355E+02  0.25500000920E-02 0. -1.
        2   -1    0    0  501    0  0.00000000000E+00  0.00000000000E+00 -0.25052784675E+04  0.25052784675E+04  0.25500000920E-02 0.  1.
    10030    2    1    2    0    0  0.00000000000E+00  0.00000000000E+00 -0.24414127642E+04  0.25691441708E+04  0.80000342840E+03 0.  0.
        1    1    3    3  502    0 -0.21777273187E+03 -0.28951666089E+03 -0.17652901958E+04  0.18020805573E+04  0.50400001928E-02 0.  1.
       -1    1    3    3    0  502  0.21777273187E+03  0.28951666089E+03 -0.67612256836E+03  0.76706361350E+03  0.50400001928E-02 0. -1.
</event>
<event>
 5   0  0.1038912E-02  0.7383681E+03  0.7818609E-02  0.9653778E-01
       -1   -1    0    0    0  501  0.00000000000E+00  0.00000000000E+00  0.17388719677E+03  0.17388719684E+03  0.50400001928E-02 0.  1.
        1   -1    0    0  501    0  0.00000000000E+00  0.00000000000E+00 -0.78382342658E+03  0.78382342659E+03  0.50400001928E-02 0. -1.
    10030    2    1    2    0    0  0.00000000000E+00  0.00000000000E+00 -0.60993622981E+03  0.95771062344E+03  0.73836808830E+03 0.  0.
        2    1    3    3  502    0 -0.28064685917E+03  0.59113150494E+00 -0.61608465657E+03  0.67699579989E+03  0.25500000920E-02 0. -1.
       -2    1    3    3    0  502  0.28064685917E+03 -0.59113150494E+00  0.61484267681E+01  0.28071482355E+03  0.25500000920E-02 0.  1.
</event>
<event>
 5   0  0.1731337E-02  0.8109936E+03  0.7818609E-02  0.9544239E-01
        2   -1    0    0  501    0  0.00000000000E+00  0.00000000000E+00  0.10385176167E+04  0.10385176167E+04  0.25500000920E-02 0.  1.
       -2   -1    0    0    0  501  0.00000000000E+00  0.00000000000E+00 -0.15832917771E+03  0.15832917773E+03  0.25500000920E-02 0. -1.
    10030    2    1    2    0    0  0.00000000000E+00  0.00000000000E+00  0.88018843899E+03  0.11968467944E+04  0.81099356423E+03 0.  0.
        4    1    3    3  502    0 -0.39031860187E+02 -0.35977934231E+01  0.10357122384E+04  0.10364544775E+04  0.12699999809E+01 0.  1.
       -4    1    3    3    0  502  0.39031860187E+02  0.35977934231E+01 -0.15552379945E+03  0.16039231691E+03  0.12699999809E+01 0. -1.
</event>
<event>
 5   0  0.1146083E-02  0.7346065E+03  0.7818609E-02  0.9659815E-01
       -1   -1    0    0    0  501  0.00000000000E+00  0.00000000000E+00  0.92718885606E+02  0.92718885743E+02  0.50400001928E-02 0. -1.
        1   -1    0    0  501    0  0.00000000000E+00  0.00000000000E+00 -0.14550612716E+04  0.14550612716E+04  0.50400001928E-02 0.  1.
    10030    2    1    2    0    0  0.00000000000E+00  0.00000000000E+00 -0.13623423860E+04  0.15477801574E+04  0.73460645166E+03 0.  0.
        4    1    3    3  502    0 -0.18715105982E+02  0.87345195037E+01 -0.14538322748E+04  0.14539795195E+04  0.12699999809E+01 0.  1.
       -4    1    3    3    0  502  0.18715105982E+02 -0.87345195037E+01  0.91489888757E+02  0.93800637885E+02  0.12699999809E+01 0. -1.
</event>
<event>
 5   0  0.6872500E-03  0.7960068E+03  0.7818609E-02  0.9565815E-01
        4   -1    0    0  501    0  0.00000000000E+00  0.00000000000E+00  0.75129918572E+03  0.75130025913E+03  0.12699999809E+01 0.  1.
       -4   -1    0    0    0  501  0.00000000000E+00  0.00000000000E+00 -0.21084055037E+03  0.21084437527E+03  0.12699999809E+01 0. -1.
    10030    2    1    2    0    0  0.00000000000E+00  0.00000000000E+00  0.54045863535E+03  0.96214463439E+03  0.79600675938E+03 0.  0.
        1    1    3    3  502    0  0.33390956747E+03 -0.14234442361E+03  0.46754669600E+03  0.59190999919E+03  0.50400001928E-02 0.  1.
       -1    1    3    3    0  502 -0.33390956747E+03  0.14234442361E+03  0.72911939352E+02  0.37023463520E+03  0.50400001928E-02 0. -1.
</event>
<event>
 5   0  0.1049780E-02  0.8015147E+03  0.7818609E-02  0.9557827E-01
       -1   -1    0    0    0  501  0.00000000000E+00  0.00000000000E+00  0.58887543253E+03  0.58887543255E+03  0.50400001928E-02 0.  1.
        1   -1    0    0  501    0  0.00000000000E+00  0.00000000000E+00 -0.27273418472E+03  0.27273418477E+03  0.50400001928E-02 0. -1.
    10030    2    1    2    0    0  0.00000000000E+00  0.00000000000E+00  0.31614124781E+03  0.86160961732E+03  0.80151471858E+03 0.  0.
        5    1    3    3  502    0 -0.19327976531E+03  0.33295752149E+03  0.27761359800E+03  0.47466744000E+03  0.46999998093E+01 0.  1.
       -5    1    3    3    0  502  0.19327976531E+03 -0.33295752149E+03  0.38527649808E+02  0.38694217733E+03  0.46999998093E+01 0. -1.
</event>
<event>
 5   0  0.1038912E-02  0.7820000E+03  0.7818609E-02  0.9586443E-01
        1   -1    0    0  501    0  0.00000000000E+00  0.00000000000E+00  0.81431357533E+03  0.81431357535E+03  0.50400001928E-02 0.  1.
       -1   -1    0    0    0  501  0.00000000000E+00  0.00000000000E+00 -0.18774219531E+03  0.18774219537E+03  0.50400001928E-02 0. -1.
    10030    2    1    2    0    0  0.00000000000E+00  0.00000000000E+00  0.62657138002E+03  0.10020557707E+04  0.78200004691E+03 0.  0.
        2    1    3    3  502    0 -0.66732024577E+01 -0.26993314654E+02 -0.18647365628E+03  0.18853539498E+03  0.25500000920E-02 0. -1.
       -2    1    3    3    0  502  0.66732024577E+01  0.26993314654E+02  0.81304503631E+03  0.81352037574E+03  0.25500000920E-02 0.  1.
</event>
<event>
 5   0  0.1030323E-02  0.7950415E+03  0.7818609E-02  0.9567222E-01
       -1   -1    0    0    0  501  0.00000000000E+00  0.00000000000E+00  0.15516983353E+03  0.15516983362E+03  0.50400001928E-02 0. -1.
        1   -1    0    0  501    0  0.00000000000E+00  0.00000000000E+00 -0.10183857892E+04  0.10183857893E+04  0.50400001928E-02 0.  1.
    10030    2    1    2    0    0  0.00000000000E+00  0.00000000000E+00 -0.86321595571E+03  0.11735556229E+04  0.79504151702E+03 0.  0.
        3    1    3    3  502    0  0.39676448361E+03  0.22688359663E+02 -0.44529082568E+03  0.59684231314E+03  0.10100000352E+00 0.  1.
       -3    1    3    3    0  502 -0.39676448361E+03 -0.22688359663E+02 -0.41792513003E+03  0.57671330974E+03  0.10100000352E+00 0. -1.
</event>
<event>
 5   0  0.1049780E-02  0.7947160E+03  0.7818609E-02  0.9567697E-01
        1   -1    0    0  501    0  0.00000000000E+00  0.00000000000E+00  0.61742759384E+03  0.61742759386E+03  0.50400001928E-02 0. -1.
       -1   -1    0    0    0  501  0.00000000000E+00  0.00000000000E+00 -0.25572775453E+03  0.25572775458E+03  0.50400001928E-02 0.  1.
    10030    2    1    2    0    0  0.00000000000E+00  0.00000000000E+00  0.36169983931E+03  0.87315534844E+03  0.79471597993E+03 0.  0.
        5    1    3    3  502    0  0.24728849829E+03  0.18835837209E+03  0.45274416531E+03  0.54920838207E+03  0.46999998093E+01 0. -1.
       -5    1    3    3    0  502 -0.24728849829E+03 -0.18835837209E+03 -0.91044325993E+02  0.32394696636E+03  0.46999998093E+01 0.  1.
</event>
<event>
 5   0  0.1049780E-02  0.7914652E+03  0.7818609E-02  0.9572454E-01
        1   -1    0    0  501    0  0.00000000000E+00  0.00000000000E+00  0.60096344196E+03  0.60096344198E+03  0.50400001928E-02 0.  1.
       -1   -1    0    0    0  501  0.00000000000E+00  0.00000000000E+00 -0.26058872644E+03  0.26058872649E+03  0.50400001928E-02 0. -1.
    10030    2    1    2    0    0  0.00000000000E+00  0.00000000000E+00  0.34037471552E+03  0.86155216846E+03  0.79146521845E+03 0.  0.
        5    1    3    3  502    0  0.39532780933E+03 -0.15812376187E+02  0.17773692411E+03  0.43375870280E+03  0.46999998093E+01 0. -1.
       -5    1    3    3    0  502 -0.39532780933E+03  0.15812376187E+02  0.16263779141E+03  0.42779346566E+03  0.46999998093E+01 0.  1.
</event>
<event>
 5   0  0.1049780E-02  0.8045374E+03  0.7818609E-02  0.9553473E-01
        1   -1    0    0  501    0  0.00000000000E+00  0.00000000000E+00  0.16961423352E+04  0.16961423352E+04  0.50400001928E-02 0. -1.
       -1   -1    0    0    0  501  0.00000000000E+00  0.00000000000E+00 -0.95404789202E+02  0.95404789335E+02  0.50400001928E-02 0.  1.
    10030    2    1    2    0    0  0.00000000000E+00  0.00000000000E+00  0.16007375460E+04  0.17915471245E+04  0.80453738775E+03 0.  0.
        5    1    3    3  502    0 -0.10058649164E+03 -0.54943218180E+02  0.16589500722E+04  0.16629112519E+04  0.46999998093E+01 0. -1.
       -5    1    3    3    0  502  0.10058649164E+03  0.54943218180E+02 -0.58212526230E+02  0.12863587265E+03  0.46999998093E+01 0.  1.
</event>
<event>
 5   0  0.1731337E-02  0.7975724E+03  0.7818609E-02  0.9563538E-01
        2   -1    0    0  501    0  0.00000000000E+00  0.00000000000E+00  0.14757050379E+04  0.14757050379E+04  0.25500000920E-02 0.  1.
       -2   -1    0    0    0  501  0.00000000000E+00  0.00000000000E+00 -0.10776574349E+03  0.10776574352E+03  0.25500000920E-02 0. -1.
    10030    2    1    2    0    0  0.00000000000E+00  0.00000000000E+00  0.13679392944E+04  0.15834707814E+04  0.79757244335E+03 0.  0.
        4    1    3    3  502    0  0.24115693164E+03 -0.29224604548E+03  0.93086149196E+03  0.10050219634E+04  0.12699999809E+01 0.  1.
       -4    1    3    3    0  502 -0.24115693164E+03  0.29224604548E+03  0.43707780241E+03  0.57844881799E+03  0.12699999809E+01 0. -1.
</event>
<event>
 5   0  0.1146083E-02  0.7888251E+03  0.7818609E-02  0.9576335E-01
        1   -1    0    0  501    0  0.00000000000E+00  0.00000000000E+00  0.36965074386E+03  0.36965074390E+03  0.50400001928E-02 0. -1.
       -1   -1    0    0    0  501  0.00000000000E+00  0.00000000000E+00 -0.42083302877E+03  0.42083302880E+03  0.50400001928E-02 0.  1.
    10030    2    1    2    0    0  0.00000000000E+00  0.00000000000E+00 -0.51182284908E+02  0.79048377270E+03  0.78882505577E+03 0.  0.
        4    1    3    3  502    0 -0.26927826053E+03  0.22483236605E+03  0.15506343233E+03  0.38354485444E+03  0.12699999809E+01 0. -1.
       -4    1    3    3    0  502  0.26927826053E+03 -0.22483236605E+03 -0.20624571724E+03  0.40693891826E+03  0.12699999809E+01 0.  1.
</event>
<event>
 5   0  0.1818665E-02  0.7738647E+03  0.7818609E-02  0.9598637E-01
        2   -1    0    0  501    0  0.00000000000E+00  0.00000000000E+00  0.17927731231E+04  0.17927731231E+04  0.25500000920E-02 0. -1.
       -2   -1    0    0    0  501  0.00000000000E+00  0.00000000000E+00 -0.83511213929E+02  0.83511213968E+02  0.25500000920E-02 0.  1.
    10030    2    1    2    0    0  0.00000000000E+00  0.00000000000E+00  0.17092619091E+04  0.18762843370E+04  0.77386474230E+03 0.  0.
        3    1    3    3  502    0 -0.28337780489E+03 -0.26227865137E+03  0.79408583849E+03  0.88298663657E+03  0.10100000352E+00 0.  1.
       -3    1    3    3    0  502  0.28337780489E+03  0.26227865137E+03  0.91517607065E+03  0.99329770047E+03  0.10100000352E+00 0. -1.
</event>
<event>
 5   0  0.1747544E-02  0.8021811E+03  0.7818609E-02  0.9556865E-01
        2   -1    0    0  501    0  0.00000000000E+00  0.00000000000E+00  0.33835839805E+03  0.33835839806E+03  0.25500000920E-02 0. -1.
       -2   -1    0    0    0  501  0.00000000000E+00  0.00000000000E+00 -0.47545334942E+03  0.47545334943E+03  0.25500000920E-02 0.  1.
    10030    2    1    2    0    0  0.00000000000E+00  0.00000000000E+00 -0.13709495137E+03  0.81381174749E+03  0.80218111088E+03 0.  0.
        1    1    3    3  502    0 -0.34028504040E+03  0.10439853411E+03 -0.25610816292E+03  0.43850239883E+03  0.50400001928E-02 0.  1.
       -1    1    3    3    0  502  0.34028504040E+03 -0.10439853411E+03  0.11901321155E+03  0.37530934866E+03  0.50400001928E-02 0. -1.
</event>
<event>
 5   0  0.1146083E-02  0.7981839E+03  0.7818609E-02  0.9562650E-01
       -1   -1    0    0    0  501  0.00000000000E+00  0.00000000000E+00  0.42049078171E+03  0.42049078174E+03  0.50400001928E-02 0. -1.
        1   -1    0    0  501    0  0.00000000000E+00  0.00000000000E+00 -0.37878211375E+03  0.37878211379E+03  0.50400001928E-02 0.  1.
    10030    2    1    2    0    0  0.00000000000E+00  0.00000000000E+00  0.41708667955E+02  0.79927289552E+03  0.79818390646E+03 0.  0.
        4    1    3    3  502    0  0.16203520601E+03 -0.36796216414E+02  0.38420391135E+03  0.41859721443E+03  0.12699999809E+01 0. -1.
       -4    1    3    3    0  502 -0.16203520601E+03  0.36796216414E+02 -0.34249524340E+03  0.38067568110E+03  0.12699999809E+01 0.  1.
</event>
<event>
 5   0  0.1747544E-02  0.8103375E+03  0.7818609E-02  0.9545173E-01
        2   -1    0    0  501    0  0.00000000000E+00  0.00000000000E+00  0.17545405843E+03  0.17545405845E+03  0.25500000920E-02 0.  1.
       -2   -1    0    0    0  501  0.00000000000E+00  0.00000000000E+00 -0.93563939405E+03  0.93563939405E+03  0.25500000920E-02 0. -1.
    10030    2    1    2    0    0  0.00000000000E+00  0.00000000000E+00 -0.76018533562E+03  0.11110934525E+04  0.81033753196E+03 0.  0.
        1    1    3    3  502    0 -0.33144593457E+03 -0.16515435700E+02 -0.69881494026E+03  0.77360938975E+03  0.50400001928E-02 0. -1.
       -1    1    3    3    0  502  0.33144593457E+03  0.16515435700E+02 -0.61370395359E+02  0.33748406275E+03  0.50400001928E-02 0.  1.
</event>
<event>
 5   0  0.1818665E-02  0.8216609E+03  0.7818609E-02  0.9529182E-01
       -2   -1    0    0    0  501  0.00000000000E+00  0.00000000000E+00  0.78738431780E+02  0.78738431821E+02  0.25500000920E-02 0.  1.
        2   -1    0    0  501    0  0.00000000000E+00  0.00000000000E+00 -0.21435738789E+04  0.21435738789E+04  0.25500000920E-02 0. -1.
    10030    2    1    2    0    0  0.00000000000E+00  0.00000000000E+00 -0.20648354471E+04  0.22223123107E+04  0.82166086843E+03 0.  0.
        3    1    3    3  502    0 -0.30487154699E+03 -0.23604632283E+03 -0.14160324494E+04  0.14675872835E+04  0.10100000352E+00 0.  1.
       -3    1    3    3    0  502  0.30487154699E+03  0.23604632283E+03 -0.64880299770E+03  0.75472502722E+03  0.10100000352E+00 0. -1.
</event>
<event>
 5   0  0.1038912E-02  0.7851964E+03  0.7818609E-02  0.9581695E-01
       -1   -1    0    0    0  501  0.00000000000E+00  0.00000000000E+00  0.47126871217E+03  0.47126871219E+03  0.50400001928E-02 0. -1.
        1   -1    0    0  501    0  0.00000000000E+00  0.00000000000E+00 -0.32706042417E+03  0.32706042421E+03  0.50400001928E-02 0.  1.
    10030    2    1    2    0    0  0.00000000000E+00  0.00000000000E+00  0.14420828800E+03  0.79832913640E+03  0.78519639562E+03 0.  0.
        2    1    3    3  502    0  0.26692180949E+03 -0.16377543751E+03 -0.16863380449E+03  0.35567823427E+03  0.25500000920E-02 0.  1.
       -2    1    3    3    0  502 -0.26692180949E+03  0.16377543751E+03  0.31284209249E+03  0.44265090213E+03  0.25500000920E-02 0. -1.
</event>
<event>
 5   0  0.1818665E-02  0.7949004E+03  0.7818609E-02  0.9567428E-01
       -2   -1    0    0    0  501  0.00000000000E+00  0.00000000000E+00  0.33729117313E+03  0.33729117314E+03  0.25500000920E-02 0. -1.
        2   -1    0    0  501    0  0.00000000000E+00  0.00000000000E+00 -0.46833920396E+03  0.46833920397E+03  0.25500000920E-02 0.  1.
    10030    2    1    2    0    0  0.00000000000E+00  0.00000000000E+00 -0.13104803083E+03  0.80563037712E+03  0.79490044543E+03 0.  0.
        3    1    3    3  502    0  0.25515947420E+03 -0.30255931788E+03 -0.10232072685E+03  0.40880073318E+03  0.10100000352E+00 0.  1.
       -3    1    3    3    0  502 -0.25515947420E+03  0.30255931788E+03 -0.28727303985E+02  0.39682964393E+03  0.10100000352E+00 0. -1.
</event>
<event>
 5   0  0.1146083E-02  0.7992904E+03  0.7818609E-02  0.9561045E-01
        1   -1    0    0  501    0  0.00000000000E+00  0.00000000000E+00  0.11166436065E+04  0.11166436065E+04  0.50400001928E-02 0.  1.
       -1   -1    0    0    0  501  0.00000000000E+00  0.00000000000E+00 -0.14303247656E+03  0.14303247665E+03  0.50400001928E-02 0. -1.
    10030    2    1    2    0    0  0.00000000000E+00  0.00000000000E+00  0.97361112996E+03  0.12596760832E+04  0.79929043668E+03 0.  0.
        4    1    3    3  502    0 -0.14308995799E+03  0.25827231862E+03  0.91125812309E+03  0.95789994595E+03  0.12699999809E+01 0.  1.
       -4    1    3    3    0  502  0.14308995799E+03 -0.25827231862E+03  0.62353006869E+02  0.30177613724E+03  0.12699999809E+01 0. -1.
</event>
<event>
 5   0  0.6872500E-03  0.7955176E+03  0.7818609E-02  0.9566528E-01
       -4   -1    0    0    0  501  0.00000000000E+00  0.00000000000E+00  0.41150547251E+03  0.41150743226E+03  0.12699999809E+01 0. -1.
        4   -1    0    0  501    0  0.00000000000E+00  0.00000000000E+00 -0.38446742974E+03  0.38446952731E+03  0.12699999809E+01 0.  1.
    10030    2    1    2    0    0  0.00000000000E+00  0.00000000000E+00  0.27038042770E+02  0.79597695957E+03  0.79551760786E+03 0.  0.
        5    1    3    3  502    0  0.42752917619E+02 -0.39335173422E+03 -0.26958971054E+02  0.39661350822E+03  0.46999998093E+01 0.  1.
       -5    1    3    3    0  502 -0.42752917619E+02  0.39335173422E+03  0.53997013825E+02  0.39936345136E+03  0.46999998093E+01 0. -1.
</event>
<event>
 5   0  0.1146083E-02  0.8012974E+03  0.7818609E-02  0.9558141E-01
        1   -1    0    0  501    0  0.00000000000E+00  0.00000000000E+00  0.12069987271E+04  0.12069987271E+04  0.50400001928E-02 0.  1.
       -1   -1    0    0    0  501  0.00000000000E+00  0.00000000000E+00 -0.13299052902E+03  0.13299052911E+03  0.50400001928E-02 0. -1.
    10030    2    1    2    0    0  0.00000000000E+00  0.00000000000E+00  0.10740081981E+04  0.13399892562E+04  0.80129744618E+03 0.  0.
        4    1    3    3  502    0 -0.18438775408E+03 -0.19098278305E+03  0.35197695235E+02  0.26779424551E+03  0.12699999809E+01 0. -1.
       -4    1    3    3    0  502  0.18438775408E+03  0.19098278305E+03  0.10388105029E+04  0.10721950107E+04  0.12699999809E+01 0.  1.
</event>
<event>
 5   0  0.1747544E-02  0.8320951E+03  0.7818609E-02  0.9514688E-01
        2   -1    0    0  501    0  0.00000000000E+00  0.00000000000E+00  0.51501373505E+03  0.51501373506E+03  0.25500000920E-02 0. -1.
       -2   -1    0    0    0  501  0.00000000000E+00  0.00000000000E+00 -0.33609892347E+03  0.33609892348E+03  0.25500000920E-02 0.  1.
    10030    2    1    2    0    0  0.00000000000E+00  0.00000000000E+00  0.17891481158E+03  0.85111265853E+03  0.83209509536E+03 0.  0.
        1    1    3    3  502    0 -0.89755014454E+02  0.20934898145E+03  0.44557052791E+03  0.50041588106E+03  0.50400001928E-02 0. -1.
       -1    1    3    3    0  502  0.89755014454E+02 -0.20934898145E+03 -0.26665571632E+03  0.35069677747E+03  0.50400001928E-02 0.  1.
</event>
<event>
 5   0  0.1025900E-02  0.7920119E+03  0.7818609E-02  0.9571652E-01
        1   -1    0    0  501    0  0.00000000000E+00  0.00000000000E+00  0.16145313603E+03  0.16145313611E+03  0.50400001928E-02 0.  1.
       -1   -1    0    0    0  501  0.00000000000E+00  0.00000000000E+00 -0.97130797575E+03  0.97130797576E+03  0.50400001928E-02 0. -1.
    10030    2    1    2    0    0  0.00000000000E+00  0.00000000000E+00 -0.80985483971E+03  0.11327611119E+04  0.79201191605E+03 0.  0.
        1    1    3    3  502    0  0.15924844192E+03 -0.11995196714E+03  0.84438210831E+02  0.21651409226E+03  0.50400001928E-02 0.  1.
       -1    1    3    3    0  502 -0.15924844192E+03  0.11995196714E+03 -0.89429305054E+03  0.91624701961E+03  0.50400001928E-02 0. -1.
</event>
<event>
 5   0  0.1038912E-02  0.8002643E+03  0.7818609E-02  0.9559635E-01
        1   -1    0    0  501    0  0.00000000000E+00  0.00000000000E+00  0.26163063538E+03  0.26163063543E+03  0.50400001928E-02 0.  1.
       -1   -1    0    0    0  501  0.00000000000E+00  0.00000000000E+00 -0.61195333709E+03  0.61195333711E+03  0.50400001928E-02 0. -1.
    10030    2    1    2    0    0  0.00000000000E+00  0.00000000000E+00 -0.35032270172E+03  0.87358397254E+03  0.80026430743E+03 0.  0.
        2    1    3    3  502    0 -0.39301225210E+03  0.53879778956E+02 -0.23234469619E+03  0.45972352423E+03  0.25500000920E-02 0.  1.
       -2    1    3    3    0  502  0.39301225210E+03 -0.53879778956E+02 -0.11797800552E+03  0.41386044831E+03  0.25500000920E-02 0. -1.
</event>
<event>
 5   0  0.1817089E-02  0.7788842E+03  0.7818609E-02  0.9591094E-01
       -2   -1    0    0    0  501  0.00000000000E+00  0.00000000000E+00  0.67085179010E+02  0.67085179058E+02  0.25500000920E-02 0. -1.
        2   -1    0    0  501    0  0.00000000000E+00  0.00000000000E+00 -0.22607848950E+04  0.22607848950E+04  0.25500000920E-02 0.  1.
    10030    2    1    2    0    0  0.00000000000E+00  0.00000000000E+00 -0.21936997160E+04  0.23278700741E+04  0.77888422617E+03 0.  0.
        2    1    3    3  502    0 -0.34361826949E+03  0.10750587672E+03 -0.15404930180E+04  0.15820081438E+04  0.25500000920E-02 0. -1.
       -2    1    3    3    0  502  0.34361826949E+03 -0.10750587672E+03 -0.65320669807E+03  0.74586193030E+03  0.25500000920E-02 0.  1.
</event>
<event>
 5   0  0.1817089E-02  0.7923780E+03  0.7818609E-02  0.9571116E-01
       -2   -1    0    0    0  501  0.00000000000E+00  0.00000000000E+00  0.16164637749E+03  0.16164637751E+03  0.25500000920E-02 0. -1.
        2   -1    0    0  501    0  0.00000000000E+00  0.00000000000E+00 -0.97104381576E+03  0.97104381576E+03  0.25500000920E-02 0.  1.
    10030    2    1    2    0    0  0.00000000000E+00  0.00000000000E+00 -0.80939743827E+03  0.11326901933E+04  0.79237797852E+03 0.  0.
        2    1    3    3  502    0  0.96410713921E+02  0.27440919965E+03 -0.78925408126E+03  0.84114055864E+03  0.25500000920E-02 0.  1.
       -2    1    3    3    0  502 -0.96410713921E+02 -0.27440919965E+03 -0.20143357018E+02  0.29154963463E+03  0.25500000920E-02 0. -1.
</event>
<event>
 5   0  0.6872500E-03  0.8006484E+03  0.7818609E-02  0.9559079E-01
        4   -1    0    0  501    0  0.00000000000E+00  0.00000000000E+00  0.39302679859E+03  0.39302885048E+03  0.12699999809E+01 0.  1.
       -4   -1    0    0    0  501  0.00000000000E+00  0.00000000000E+00 -0.40775294040E+03  0.40775491818E+03  0.12699999809E+01 0. -1.
    10030    2    1    2    0    0  0.00000000000E+00  0.00000000000E+00 -0.14726141807E+02  0.80078376867E+03  0.80064835284E+03 0.  0.
        2    1    3    3  502    0  0.36066814152E+03 -0.14678628686E+03 -0.10028585584E+03  0.40210070282E+03  0.25500000920E-02 0. -1.
       -2    1    3    3    0  502 -0.36066814152E+03  0.14678628686E+03  0.85559714034E+02  0.39868306585E+03  0.25500000920E-02 0.  1.
</event>
<event>
 5   0  0.1747544E-02  0.8091784E+03  0.7818609E-02  0.9546826E-01
        2   -1    0    0  501    0  0.00000000000E+00  0.00000000000E+00  0.93047155516E+03  0.93047155516E+03  0.25500000920E-02 0.  1.
       -2   -1    0    0    0  501  0.00000000000E+00  0.00000000000E+00 -0.17592413502E+03  0.17592413504E+03  0.25500000920E-02 0. -1.
    10030    2    1    2    0    0  0.00000000000E+00  0.00000000000E+00  0.75454742014E+03  0.11063956902E+04  0.80917835739E+03 0.  0.
        1    1    3    3  502    0 -0.17297996804E+03  0.73267156833E+02 -0.11267717580E+03  0.21905773574E+03  0.50400001928E-02 0. -1.
       -1    1    3    3    0  502  0.17297996804E+03 -0.73267156833E+02  0.86722459594E+03  0.88733795447E+03  0.50400001928E-02 0.  1.
</event>
<event>
 5   0  0.1030323E-02  0.6464280E+03  0.7818609E-02  0.9813505E-01
       -1   -1    0    0    0  501  0.00000000000E+00  0.00000000000E+00  0.15126109854E+03  0.15126109862E+03  0.50400001928E-02 0. -1.
        1   -1    0    0  501    0  0.00000000000E+00  0.00000000000E+00 -0.69064216824E+03  0.69064216826E+03  0.50400001928E-02 0.  1.
    10030    2    1    2    0    0  0.00000000000E+00  0.00000000000E+00 -0.53938106971E+03  0.84190326688E+03  0.64642801025E+03 0.  0.
        3    1    3    3  502    0 -0.52318913360E+02  0.14351214459E+03 -0.64066517109E+03  0.65862347058E+03  0.10100000352E+00 0.  1.
       -3    1    3    3    0  502  0.52318913360E+02 -0.14351214459E+03  0.10128410139E+03  0.18327979631E+03  0.10100000352E+00 0. -1.
</event>
<event>
 5   0  0.1731337E-02  0.7798672E+03  0.7818609E-02  0.9589625E-01
        2   -1    0    0  501    0  0.00000000000E+00  0.00000000000E+00  0.92907790909E+03  0.92907790910E+03  0.25500000920E-02 0. -1.
       -2   -1    0    0    0  501  0.00000000000E+00  0.00000000000E+00 -0.16365495008E+03  0.16365495010E+03  0.25500000920E-02 0.  1.
    10030    2    1    2    0    0  0.00000000000E+00  0.00000000000E+00  0.76542295901E+03  0.10927328592E+04  0.77986716523E+03 0.  0.
        4    1    3    3  502    0 -0.37082303889E+03 -0.75704185114E+02  0.51419647659E+03  0.63846728910E+03  0.12699999809E+01 0.  1.
       -4    1    3    3    0  502  0.37082303889E+03  0.75704185114E+02  0.25122648242E+03  0.45426557010E+03  0.12699999809E+01 0. -1.
</event>
<event>
 5   0  0.1673727E-02  0.7738036E+03  0.7818609E-02  0.9598729E-01
        2   -1    0    0  501    0  0.00000000000E+00  0.00000000000E+00  0.10339300124E+04  0.10339300124E+04  0.25500000920E-02 0. -1.
       -2   -1    0    0    0  501  0.00000000000E+00  0.00000000000E+00 -0.14478060642E+03  0.14478060645E+03  0.25500000920E-02 0.  1.
    10030    2    1    2    0    0  0.00000000000E+00  0.00000000000E+00  0.88914940598E+03  0.11787106189E+04  0.77380362939E+03 0.  0.
        5    1    3    3  502    0  0.36890109200E+03  0.22831407406E+00  0.62210479921E+03  0.72327348839E+03  0.46999998093E+01 0.  1.
       -5    1    3    3    0  502 -0.36890109200E+03 -0.22831407406E+00  0.26704460677E+03  0.45543713047E+03  0.46999998093E+01 0. -1.
</event>
<event>
 5   0  0.1818665E-02  0.8034881E+03  0.7818609E-02  0.9554982E-01
       -2   -1    0    0    0  501  0.00000000000E+00  0.00000000000E+00  0.60326878150E+02  0.60326878204E+02  0.25500000920E-02 0. -1.
        2   -1    0    0  501    0  0.00000000000E+00  0.00000000000E+00 -0.26753957389E+04  0.26753957389E+04  0.25500000920E-02 0.  1.
    10030    2    1    2    0    0  0.00000000000E+00  0.00000000000E+00 -0.26150688608E+04  0.27357226171E+04  0.80348807787E+03 0.  0.
        3    1    3    3  502    0 -0.22733112086E+03 -0.10424695568E+03 -0.23704094673E+03  0.34457987015E+03  0.10100000352E+00 0. -1.
       -3    1    3    3    0  502  0.22733112086E+03  0.10424695568E+03 -0.23780279141E+04  0.23911427470E+04  0.10100000352E+00 0.  1.
</event>
<event>
 5   0  0.1025900E-02  0.7942867E+03  0.7818609E-02  0.9568324E-01
        1   -1    0    0  501    0  0.00000000000E+00  0.00000000000E+00  0.73270179846E+03  0.73270179848E+03  0.50400001928E-02 0. -1.
       -1   -1    0    0    0  501  0.00000000000E+00  0.00000000000E+00 -0.21526198465E+03  0.21526198470E+03  0.50400001928E-02 0.  1.
    10030    2    1    2    0    0  0.00000000000E+00  0.00000000000E+00  0.51743981381E+03  0.94796378318E+03  0.79428670724E+03 0.  0.
        1    1    3    3  502    0  0.19270401683E+03  0.23561993228E+03  0.56316503934E+03  0.64016127042E+03  0.50400001928E-02 0. -1.
       -1    1    3    3    0  502 -0.19270401683E+03 -0.23561993228E+03 -0.45725225525E+02  0.30780251276E+03  0.50400001928E-02 0.  1.
</event>
<event>
 5   0  0.6872500E-03  0.8238098E+03  0.7818609E-02  0.9526179E-01
       -4   -1    0    0    0  501  0.00000000000E+00  0.00000000000E+00  0.39408234986E+03  0.39408439625E+03  0.12699999809E+01 0.  1.
        4   -1    0    0  501    0  0.00000000000E+00  0.00000000000E+00 -0.43052936911E+03  0.43053124226E+03  0.12699999809E+01 0. -1.
    10030    2    1    2    0    0  0.00000000000E+00  0.00000000000E+00 -0.36447019251E+02  0.82461563852E+03  0.82380978756E+03 0.  0.
        1    1    3    3  502    0  0.26297609511E+03 -0.12295524341E+03  0.27428010430E+03  0.39937951139E+03  0.50400001928E-02 0.  1.
       -1    1    3    3    0  502 -0.26297609511E+03  0.12295524341E+03 -0.31072712355E+03  0.42523612713E+03  0.50400001928E-02 0. -1.
</event>
<event>
 5   0  0.1038912E-02  0.8048445E+03  0.7818609E-02  0.9553031E-01
       -1   -1    0    0    0  501  0.00000000000E+00  0.00000000000E+00  0.22329287984E+03  0.22329287990E+03  0.50400001928E-02 0. -1.
        1   -1    0    0  501    0  0.00000000000E+00  0.00000000000E+00 -0.72525221831E+03  0.72525221832E+03  0.50400001928E-02 0.  1.
    10030    2    1    2    0    0  0.00000000000E+00  0.00000000000E+00 -0.50195933846E+03  0.94854509822E+03  0.80484447311E+03 0.  0.
        2    1    3    3  502    0 -0.17935914807E+03  0.18794679815E+03 -0.61317837347E+03  0.66594400713E+03  0.25500000920E-02 0.  1.
       -2    1    3    3    0  502  0.17935914807E+03 -0.18794679815E+03  0.11121903501E+03  0.28260109109E+03  0.25500000920E-02 0. -1.
</event>
<event>
 5   0  0.1817089E-02  0.7986784E+03  0.7818609E-02  0.9561932E-01
       -2   -1    0    0    0  501  0.00000000000E+00  0.00000000000E+00  0.54664371093E+03  0.54664371094E+03  0.25500000920E-02 0.  1.
        2   -1    0    0  501    0  0.00000000000E+00  0.00000000000E+00 -0.29172896390E+03  0.29172896391E+03  0.25500000920E-02 0. -1.
    10030    2    1    2    0    0  0.00000000000E+00  0.00000000000E+00  0.25491474703E+03  0.83837267485E+03  0.79867841694E+03 0.  0.
        2    1    3    3  502    0  0.26565771332E+03 -0.29506676283E+02  0.43889670569E+03  0.51388226557E+03  0.25500000920E-02 0.  1.
       -2    1    3    3    0  502 -0.26565771332E+03  0.29506676283E+02 -0.18398195867E+03  0.32449040928E+03  0.25500000920E-02 0. -1.
</event>
<event>
 5   0  0.1731337E-02  0.8033678E+03  0.7818609E-02  0.9555155E-01
        2   -1    0    0  501    0  0.00000000000E+00  0.00000000000E+00  0.21869069388E+04  0.21869069388E+04  0.25500000920E-02 0.  1.
       -2   -1    0    0    0  501  0.00000000000E+00  0.00000000000E+00 -0.73779978422E+02  0.73779978466E+02  0.25500000920E-02 0. -1.
    10030    2    1    2    0    0  0.00000000000E+00  0.00000000000E+00  0.21131269604E+04  0.22606869173E+04  0.80336777831E+03 0.  0.
        4    1    3    3  502    0  0.19973662088E+03 -0.24907283250E+02  0.20347444930E+04  0.20446764671E+04  0.12699999809E+01 0.  1.
       -4    1    3    3    0  502 -0.19973662088E+03  0.24907283250E+02  0.78382467368E+02  0.21601045014E+03  0.12699999809E+01 0. -1.
</event>
<event>
 5   0  0.1673727E-02  0.7992951E+03  0.7818609E-02  0.9561038E-01
        2   -1    0    0  501    0  0.00000000000E+00  0.00000000000E+00  0.65386099404E+03  0.65386099404E+03  0.25500000920E-02 0. -1.
       -2   -1    0    0    0  501  0.00000000000E+00  0.00000000000E+00 -0.24426932441E+03  0.24426932442E+03  0.25500000920E-02 0.  1.
    10030    2    1    2    0    0  0.00000000000E+00  0.00000000000E+00  0.40959166962E+03  0.89813031846E+03  0.79929514769E+03 0.  0.
        5    1    3    3  502    0 -0.17389341850E+03 -0.35851066611E+03  0.23901239561E+03  0.46466959656E+03  0.46999998093E+01 0. -1.
       -5    1    3    3    0  502  0.17389341850E+03  0.35851066611E+03  0.17057927401E+03  0.43346072190E+03  0.46999998093E+01 0.  1.
</event>
<event>
 5   0  0.1025900E-02  0.8004733E+03  0.7818609E-02  0.9559332E-01
       -1   -1    0    0    0  501  0.00000000000E+00  0.00000000000E+00  0.12840602893E+03  0.12840602903E+03  0.50400001928E-02 0. -1.
        1   -1    0    0  501    0  0.00000000000E+00  0.00000000000E+00 -0.12475222468E+04  0.12475222468E+04  0.50400001928E-02 0.  1.
    10030    2    1    2    0    0  0.00000000000E+00  0.00000000000E+00 -0.11191162179E+04  0.13759282759E+04  0.80047330447E+03 0.  0.
        1    1    3    3  502    0 -0.15012200705E+03 -0.36483181014E+03 -0.44360589886E+03  0.59365399032E+03  0.50400001928E-02 0. -1.
       -1    1    3    3    0  502  0.15012200705E+03  0.36483181014E+03 -0.67551031903E+03  0.78227428554E+03  0.50400001928E-02 0.  1.
</event>
<event>
 5   0  0.1146083E-02  0.7951745E+03  0.7818609E-02  0.9567028E-01
        1   -1    0    0  501    0  0.00000000000E+00  0.00000000000E+00  0.28173264462E+03  0.28173264466E+03  0.50400001928E-02 0. -1.
       -1   -1    0    0    0  501  0.00000000000E+00  0.00000000000E+00 -0.56108380870E+03  0.56108380872E+03  0.50400001928E-02 0.  1.
    10030    2    1    2    0    0  0.00000000000E+00  0.00000000000E+00 -0.27935116408E+03  0.84281645338E+03  0.79517450992E+03 0.  0.
        4    1    3    3  502    0  0.19210154655E+03 -0.20201968615E+03  0.16078531868E+03  0.32182058570E+03  0.12699999809E+01 0.  1.
       -4    1    3    3    0  502 -0.19210154655E+03  0.20201968615E+03 -0.44013648277E+03  0.52099586768E+03  0.12699999809E+01 0. -1.
</event>
<event>
 5   0  0.1817089E-02  0.7952586E+03  0.7818609E-02  0.9566905E-01
       -2   -1    0    0    0  501  0.00000000000E+00  0.00000000000E+00  0.19656910482E+03  0.19656910484E+03  0.25500000920E-02 0. -1.
        2   -1    0    0  501    0  0.00000000000E+00  0.00000000000E+00 -0.80434346666E+03  0.80434346666E+03  0.25500000920E-02 0.  1.
    10030    2    1    2    0    0  0.00000000000E+00  0.00000000000E+00 -0.60777436184E+03  0.10009125715E+04  0.79525863773E+03 0.  0.
        2    1    3    3  502    0 -0.93054429919E+02 -0.66489073625E+02  0.17542161841E+03  0.20941028640E+03  0.25500000920E-02 0. -1.
       -2    1    3    3    0  502  0.93054429919E+02  0.66489073625E+02 -0.78319598025E+03  0.79150228510E+03  0.25500000920E-02 0.  1.
</event>
<event>
 5   0  0.1747544E-02  0.7966035E+03  0.7818609E-02  0.9564946E-01
       -2   -1    0    0    0  501  0.00000000000E+00  0.00000000000E+00  0.22938172082E+03  0.22938172084E+03  0.25500000920E-02 0.  1.
        2   -1    0    0  501    0  0.00000000000E+00  0.00000000000E+00 -0.69161698280E+03  0.69161698281E+03  0.25500000920E-02 0. -1.
    10030    2    1    2    0    0  0.00000000000E+00  0.00000000000E+00 -0.46223526198E+03  0.92099870364E+03  0.79660352415E+03 0.  0.
        1    1    3    3  502    0 -0.14907357226E+03 -0.14283172099E+03 -0.62492523077E+03  0.65814540532E+03  0.50400001928E-02 0. -1.
       -1    1    3    3    0  502  0.14907357226E+03  0.14283172099E+03  0.16268996879E+03  0.26285329832E+03  0.50400001928E-02 0.  1.
</event>
<event>
 5   0  0.1747544E-02  0.7874456E+03  0.7818609E-02  0.9578369E-01
        2   -1    0    0  501    0  0.00000000000E+00  0.00000000000E+00  0.17212593362E+04  0.17212593362E+04  0.25500000920E-02 0. -1.
       -2   -1    0    0    0  501  0.00000000000E+00  0.00000000000E+00 -0.90060599989E+02  0.90060600026E+02  0.25500000920E-02 0.  1.
    10030    2    1    2    0    0  0.00000000000E+00  0.00000000000E+00  0.16311987363E+04  0.18113199363E+04  0.78744561360E+03 0.  0.
        1    1    3    3  502    0  0.22284689350E+03 -0.23327946563E+03  0.13347505475E+04  0.13731857380E+04  0.50400001928E-02 0. -1.
       -1    1    3    3    0  502 -0.22284689350E+03  0.23327946563E+03  0.29644818872E+03  0.43813419822E+03  0.50400001928E-02 0.  1.
</event>
<event>
 5   0  0.1038912E-02  0.7963711E+03  0.7818609E-02  0.9565285E-01
        1   -1    0    0  501    0  0.00000000000E+00  0.00000000000E+00  0.32487252085E+03  0.32487252089E+03  0.50400001928E-02 0.  1.
       -1   -1    0    0    0  501  0.00000000000E+00  0.00000000000E+00 -0.48804289754E+03  0.48804289756E+03  0.50400001928E-02 0. -1.
    10030    2    1    2    0    0  0.00000000000E+00  0.00000000000E+00 -0.16317037669E+03  0.81291541846E+03  0.79637108545E+03 0.  0.
        2    1    3    3  502    0 -0.18358365082E+03  0.35030541231E+03 -0.12874992281E+03  0.41592473041E+03  0.25500000920E-02 0. -1.
       -2    1    3    3    0  502  0.18358365082E+03 -0.35030541231E+03 -0.34420453879E+02  0.39699068804E+03  0.25500000920E-02 0.  1.
</event>
<event>
 5   0  0.1673727E-02  0.7311053E+03  0.7818609E-02  0.9665468E-01
        2   -1    0    0  501    0  0.00000000000E+00  0.00000000000E+00  0.27128602972E+03  0.27128602973E+03  0.25500000920E-02 0.  1.
       -2   -1    0    0    0  501  0.00000000000E+00  0.00000000000E+00 -0.49257514936E+03  0.49257514937E+03  0.25500000920E-02 0. -1.
    10030    2    1    2    0    0  0.00000000000E+00  0.00000000000E+00 -0.22128911965E+03  0.76386117910E+03  0.73110534566E+03 0.  0.
        5    1    3    3  502    0  0.21429350074E+03 -0.27981605027E+03 -0.21187698382E+03  0.41125742877E+03  0.46999998093E+01 0. -1.
       -5    1    3    3    0  502 -0.21429350074E+03  0.27981605027E+03 -0.94121358311E+01  0.35260375033E+03  0.46999998093E+01 0.  1.
</event>
<event>
 5   0  0.1146083E-02  0.8015499E+03  0.7818609E-02  0.9557776E-01
       -1   -1    0    0    0  501  0.00000000000E+00  0.00000000000E+00  0.10233531893E+03  0.10233531906E+03  0.50400001928E-02 0. -1.
        1   -1    0    0  501    0  0.00000000000E+00  0.00000000000E+00 -0.15695515200E+04  0.15695515200E+04  0.50400001928E-02 0.  1.
    10030    2    1    2    0    0  0.00000000000E+00  0.00000000000E+00 -0.14672162011E+04  0.16718868391E+04  0.80154988738E+03 0.  0.
        4    1    3    3  502    0 -0.36118206778E+03  0.42157076974E+02 -0.38216648663E+03  0.52752492038E+03  0.12699999809E+01 0. -1.
       -4    1    3    3    0  502  0.36118206778E+03 -0.42157076974E+02 -0.10850497144E+04  0.11443619187E+04  0.12699999809E+01 0.  1.
</event>
<event>
 5   0  0.1025900E-02  0.8047033E+03  0.7818609E-02  0.9553234E-01
       -1   -1    0    0    0  501  0.00000000000E+00  0.00000000000E+00  0.30472605526E+03  0.30472605530E+03  0.50400001928E-02 0.  1.
        1   -1    0    0  501    0  0.00000000000E+00  0.00000000000E+00 -0.53125365776E+03  0.53125365778E+03  0.50400001928E-02 0. -1.
    10030    2    1    2    0    0  0.00000000000E+00  0.00000000000E+00 -0.22652760250E+03  0.83597971308E+03  0.80470325338E+03 0.  0.
        1    1    3    3  502    0  0.18246571699E+03  0.30851774750E+03  0.76624200440E+02  0.36653540963E+03  0.50400001928E-02 0.  1.
       -1    1    3    3    0  502 -0.18246571699E+03 -0.30851774750E+03 -0.30315180294E+03  0.46944430345E+03  0.50400001928E-02 0. -1.
</event>
<event>
 5   0  0.1025900E-02  0.8091397E+03  0.7818609E-02  0.9546881E-01
        1   -1    0    0  501    0  0.00000000000E+00  0.00000000000E+00  0.18339195522E+04  0.18339195522E+04  0.50400001928E-02 0. -1.
       -1   -1    0    0    0  501  0.00000000000E+00  0.00000000000E+00 -0.89249706359E+02  0.89249706502E+02  0.50400001928E-02 0.  1.
    10030    2    1    2    0    0  0.00000000000E+00  0.00000000000E+00  0.17446698458E+04  0.19231692587E+04  0.80913974483E+03 0.  0.
        1    1    3    3  502    0  0.23107136405E+03 -0.32788511983E+03  0.99752194252E+03  0.10751523859E+04  0.50400001928E-02 0. -1.
       -1    1    3    3    0  502 -0.23107136405E+03  0.32788511983E+03  0.74714790332E+03  0.84801687280E+03  0.50400001928E-02 0.  1.
</event>
<event>
 5   0  0.1038912E-02  0.8001917E+03  0.7818609E-02  0.9559740E-01
        1   -1    0    0  501    0  0.00000000000E+00  0.00000000000E+00  0.52197370846E+03  0.52197370848E+03  0.50400001928E-02 0. -1.
       -1   -1    0    0    0  501  0.00000000000E+00  0.00000000000E+00 -0.30667577084E+03  0.30667577088E+03  0.50400001928E-02 0.  1.
    10030    2    1    2    0    0  0.00000000000E+00  0.00000000000E+00  0.21529793762E+03  0.82864947936E+03  0.80019170059E+03 0.  0.
        2    1    3    3  502    0 -0.33714865017E+03  0.11028639530E+03  0.29928250976E+03  0.46411455693E+03  0.25500000920E-02 0. -1.
       -2    1    3    3    0  502  0.33714865017E+03 -0.11028639530E+03 -0.83984572145E+02  0.36453492242E+03  0.25500000920E-02 0.  1.
</event>
<event>
 5   0  0.6872500E-03  0.8138384E+03  0.7818609E-02  0.9540200E-01
       -3   -1    0    0    0  501  0.00000000000E+00  0.00000000000E+00  0.69263846668E+03  0.69263847405E+03  0.10100000352E+00 0. -1.
        3   -1    0    0  501    0  0.00000000000E+00  0.00000000000E+00 -0.23906155076E+03  0.23906157210E+03  0.10100000352E+00 0.  1.
    10030    2    1    2    0    0  0.00000000000E+00  0.00000000000E+00  0.45357691592E+03  0.93170004615E+03  0.81383840984E+03 0.  0.
        5    1    3    3  502    0 -0.56754540526E+02 -0.19485106875E+03  0.63052793895E+03  0.66240138032E+03  0.46999998093E+01 0. -1.
       -5    1    3    3    0  502  0.56754540526E+02  0.19485106875E+03 -0.17695102303E+03  0.26929866582E+03  0.46999998093E+01 0.  1.
</event>
<event>
 5   0  0.1025900E-02  0.8087718E+03  0.7818609E-02  0.9547406E-01
        1   -1    0    0  501    0  0.00000000000E+00  0.00000000000E+00  0.20583097191E+04  0.20583097191E+04  0.50400001928E-02 0. -1.
       -1   -1    0    0    0  501  0.00000000000E+00  0.00000000000E+00 -0.79447683931E+02  0.79447684091E+02  0.50400001928E-02 0.  1.
    10030    2    1    2    0    0  0.00000000000E+00  0.00000000000E+00  0.19788620352E+04  0.21377574032E+04  0.80877176057E+03 0.  0.
        1    1    3    3  502    0  0.32276461082E+03 -0.20884476384E+03  0.65787019961E+03  0.76196215716E+03  0.50400001928E-02 0. -1.
       -1    1    3    3    0  502 -0.32276461082E+03  0.20884476384E+03  0.13209918356E+04  0.13757952460E+04  0.50400001928E-02 0.  1.
</event>
<event>
 5   0  0.1818665E-02  0.8008335E+03  0.7818609E-02  0.9558812E-01
        2   -1    0    0  501    0  0.00000000000E+00  0.00000000000E+00  0.92668104904E+03  0.92668104904E+03  0.25500000920E-02 0. -1.
       -2   -1    0    0    0  501  0.00000000000E+00  0.00000000000E+00 -0.17301913656E+03  0.17301913658E+03  0.25500000920E-02 0.  1.
    10030    2    1    2    0    0  0.00000000000E+00  0.00000000000E+00  0.75366191248E+03  0.10997001856E+04  0.80083345331E+03 0.  0.
        3    1    3    3  502    0 -0.12911544407E+03 -0.37654411076E+03  0.43632816132E+03  0.59062554957E+03  0.10100000352E+00 0. -1.
       -3    1    3    3    0  502  0.12911544407E+03  0.37654411076E+03  0.31733375115E+03  0.50907463605E+03  0.10100000352E+00 0.  1.
</event>
<event>
 5   0  0.1030323E-02  0.8079869E+03  0.7818609E-02  0.9548528E-01
       -1   -1    0    0    0  501  0.00000000000E+00  0.00000000000E+00  0.41620364614E+03  0.41620364617E+03  0.50400001928E-02 0. -1.
        1   -1    0    0  501    0  0.00000000000E+00  0.00000000000E+00 -0.39214144802E+03  0.39214144805E+03  0.50400001928E-02 0.  1.
    10030    2    1    2    0    0  0.00000000000E+00  0.00000000000E+00  0.24062198116E+02  0.80834509422E+03  0.80798688230E+03 0.  0.
        3    1    3    3  502    0  0.23176672518E+03  0.24752342195E+02 -0.31808821535E+03  0.39434580801E+03  0.10100000352E+00 0.  1.
       -3    1    3    3    0  502 -0.23176672518E+03 -0.24752342195E+02  0.34215041347E+03  0.41399928621E+03  0.10100000352E+00 0. -1.
</event>
<event>
 5   0  0.1731337E-02  0.8051917E+03  0.7818609E-02  0.9552533E-01
       -2   -1    0    0    0  501  0.00000000000E+00  0.00000000000E+00  0.23286812653E+03  0.23286812654E+03  0.25500000920E-02 0. -1.
        2   -1    0    0  501    0  0.00000000000E+00  0.00000000000E+00 -0.69603090417E+03  0.69603090417E+03  0.25500000920E-02 0.  1.
    10030    2    1    2    0    0  0.00000000000E+00  0.00000000000E+00 -0.46316277764E+03  0.92889903071E+03  0.80519168567E+03 0.  0.
        4    1    3    3  502    0  0.10609824448E+03  0.37061268348E+03 -0.36547886409E+03  0.53121277435E+03  0.12699999809E+01 0.  1.
       -4    1    3    3    0  502 -0.10609824448E+03 -0.37061268348E+03 -0.97683913554E+02  0.39768625637E+03  0.12699999809E+01 0. -1.
</event>
<event>
 5   0  0.1818665E-02  0.7988925E+03  0.7818609E-02  0.9561622E-01
        2   -1    0    0  501    0  0.00000000000E+00  0.00000000000E+00  0.15953864201E+04  0.15953864201E+04  0.25500000920E-02 0.  1.
       -2   -1    0    0    0  501  0.00000000000E+00  0.00000000000E+00 -0.10001170150E+03  0.10001170153E+03  0.25500000920E-02 0. -1.
    10030    2    1    2    0    0  0.00000000000E+00  0.00000000000E+00  0.14953747186E+04  0.16953981216E+04  0.79889250953E+03 0.  0.
        3    1    3    3  502    0 -0.83024357284E+02 -0.25433828138E+03  0.13771445259E+04  0.14028927474E+04  0.10100000352E+00 0.  1.
       -3    1    3    3    0  502  0.83024357284E+02  0.25433828138E+03  0.11823019267E+03  0.29250537420E+03  0.10100000352E+00 0. -1.
</event>
<event>
 5   0  0.1817089E-02  0.7990760E+03  0.7818609E-02  0.9561356E-01
        2   -1    0    0  501    0  0.00000000000E+00  0.00000000000E+00  0.77224536892E+03  0.77224536893E+03  0.25500000920E-02 0. -1.
       -2   -1    0    0    0  501  0.00000000000E+00  0.00000000000E+00 -0.20670970644E+03  0.20670970646E+03  0.25500000920E-02 0.  1.
    10030    2    1    2    0    0  0.00000000000E+00  0.00000000000E+00  0.56553566248E+03  0.97895507538E+03  0.79907600019E+03 0.  0.
        2    1    3    3  502    0  0.27737032124E+03 -0.24185771144E+03  0.47335463158E+03  0.59957823087E+03  0.25500000920E-02 0. -1.
       -2    1    3    3    0  502 -0.27737032124E+03  0.24185771144E+03  0.92181030902E+02  0.37937684451E+03  0.25500000920E-02 0.  1.
</event>
<event>
 5   0  0.1049780E-02  0.8056308E+03  0.7818609E-02  0.9551902E-01
       -1   -1    0    0    0  501  0.00000000000E+00  0.00000000000E+00  0.25897243756E+03  0.25897243761E+03  0.50400001928E-02 0. -1.
        1   -1    0    0  501    0  0.00000000000E+00  0.00000000000E+00 -0.62655404604E+03  0.62655404606E+03  0.50400001928E-02 0.  1.
    10030    2    1    2    0    0  0.00000000000E+00  0.00000000000E+00 -0.36758160849E+03  0.88552648367E+03  0.80563075561E+03 0.  0.
        5    1    3    3  502    0 -0.34171095732E+03 -0.12533381791E+03 -0.37342003655E+03  0.52147824304E+03  0.46999998093E+01 0.  1.
       -5    1    3    3    0  502  0.34171095732E+03  0.12533381791E+03  0.58384280676E+01  0.36404824063E+03  0.46999998093E+01 0. -1.
</event>
<event>
 5   0  0.1025900E-02  0.7906724E+03  0.7818609E-02  0.9573617E-01
       -1   -1    0    0    0  501  0.00000000000E+00  0.00000000000E+00  0.84548519766E+02  0.84548519916E+02  0.50400001928E-02 0.  1.
        1   -1    0    0  501    0  0.00000000000E+00  0.00000000000E+00 -0.18485326870E+04  0.18485326870E+04  0.50400001928E-02 0. -1.
    10030    2    1    2    0    0  0.00000000000E+00  0.00000000000E+00 -0.17639841672E+04  0.19330812069E+04  0.79067237862E+03 0.  0.
        1    1    3    3  502    0  0.17493133047E+03 -0.27495627329E+03 -0.33482021900E+03  0.46723281314E+03  0.50400001928E-02 0.  1.
       -1    1    3    3    0  502 -0.17493133047E+03  0.27495627329E+03 -0.14291639482E+04  0.14658483938E+04  0.50400001928E-02 0. -1.
</event>
<event>
 5   0  0.1747544E-02  0.7955259E+03  0.7818609E-02  0.9566516E-01
        2   -1    0    0  501    0  0.00000000000E+00  0.00000000000E+00  0.21756444035E+03  0.21756444036E+03  0.25500000920E-02 0.  1.
       -2   -1    0    0    0  501  0.00000000000E+00  0.00000000000E+00 -0.72721152563E+03  0.72721152563E+03  0.25500000920E-02 0. -1.
    10030    2    1    2    0    0  0.00000000000E+00  0.00000000000E+00 -0.50964708528E+03  0.94477596599E+03  0.79552591057E+03 0.  0.
        1    1    3    3  502    0 -0.22090058793E+03  0.93560827475E+02  0.12197832381E+03  0.26912712552E+03  0.50400001928E-02 0.  1.
       -1    1    3    3    0  502  0.22090058793E+03 -0.93560827475E+02 -0.63162540909E+03  0.67564884047E+03  0.50400001928E-02 0. -1.
</event>
<event>
 5   0  0.1731337E-02  0.8022666E+03  0.7818609E-02  0.9556742E-01
        2   -1    0    0  501    0  0.00000000000E+00  0.00000000000E+00  0.12430860748E+04  0.12430860748E+04  0.25500000920E-02 0.  1.
       -2   -1    0    0    0  501  0.00000000000E+00  0.00000000000E+00 -0.12944231154E+03  0.12944231157E+03  0.25500000920E-02 0. -1.
    10030    2    1    2    0    0  0.00000000000E+00  0.00000000000E+00  0.11136437633E+04  0.13725283864E+04  0.80226662647E+03 0.  0.
        4    1    3    3  502    0 -0.28624325409E+03  0.23988992227E+03  0.80723227428E+03  0.88944248429E+03  0.12699999809E+01 0. -1.
       -4    1    3    3    0  502  0.28624325409E+03 -0.23988992227E+03  0.30641148899E+03  0.48308590209E+03  0.12699999809E+01 0.  1.
</event>
<event>
 5   0  0.1673727E-02  0.7827089E+03  0.7818609E-02  0.9585388E-01
        2   -1    0    0  501    0  0.00000000000E+00  0.00000000000E+00  0.25846687356E+04  0.25846687356E+04  0.25500000920E-02 0.  1.
       -2   -1    0    0    0  501  0.00000000000E+00  0.00000000000E+00 -0.59256447866E+02  0.59256447921E+02  0.25500000920E-02 0. -1.
    10030    2    1    2    0    0  0.00000000000E+00  0.00000000000E+00  0.25254122877E+04  0.26439251835E+04  0.78270885584E+03 0.  0.
        5    1    3    3  502    0  0.38189126615E+02 -0.26375122524E+03  0.22306609606E+04  0.22465292185E+04  0.46999998093E+01 0.  1.
       -5    1    3    3    0  502 -0.38189126615E+02  0.26375122524E+03  0.29475132712E+03  0.39739596505E+03  0.46999998093E+01 0. -1.
</event>
<event>
 5   0  0.1818665E-02  0.8110619E+03  0.7818609E-02  0.9544142E-01
       -2   -1    0    0    0  501  0.00000000000E+00  0.00000000000E+00  0.12574384112E+03  0.12574384115E+03  0.25500000920E-02 0. -1.
        2   -1    0    0  501    0  0.00000000000E+00  0.00000000000E+00 -0.13078600048E+04  0.13078600048E+04  0.25500000920E-02 0.  1.
    10030    2    1    2    0    0  0.00000000000E+00  0.00000000000E+00 -0.11821161637E+04  0.14336038460E+04  0.81106187353E+03 0.  0.
        3    1    3    3  502    0  0.19615683729E+03  0.62140331181E+02 -0.12087361426E+04  0.12261247890E+04  0.10100000352E+00 0.  1.
       -3    1    3    3    0  502 -0.19615683729E+03 -0.62140331181E+02  0.26619978958E+02  0.20747905691E+03  0.10100000352E+00 0. -1.
</event>
<event>
 5   0  0.1731337E-02  0.7992054E+03  0.7818609E-02  0.9561168E-01
        2   -1    0    0  501    0  0.00000000000E+00  0.00000000000E+00  0.70238527328E+03  0.70238527329E+03  0.25500000920E-02 0.  1.
       -2   -1    0    0    0  501  0.00000000000E+00  0.00000000000E+00 -0.22734289726E+03  0.22734289727E+03  0.25500000920E-02 0. -1.
    10030    2    1    2    0    0  0.00000000000E+00  0.00000000000E+00  0.47504237602E+03  0.92972817056E+03  0.79920536292E+03 0.  0.
        4    1    3    3  502    0  0.25348868345E+02 -0.39663871679E+03  0.18933332311E+03  0.44024261143E+03  0.12699999809E+01 0. -1.
       -4    1    3    3    0  502 -0.25348868345E+02  0.39663871679E+03  0.28570905292E+03  0.48948555913E+03  0.12699999809E+01 0.  1.
</event>
<event>
 5   0  0.6872500E-03  0.8023441E+03  0.7818609E-02  0.9556630E-01
       -3   -1    0    0    0  501  0.00000000000E+00  0.00000000000E+00  0.65672213789E+03  0.65672214566E+03  0.10100000352E+00 0.  1.
        3   -1    0    0  501    0  0.00000000000E+00  0.00000000000E+00 -0.24506405976E+03  0.24506408057E+03  0.10100000352E+00 0. -1.
    10030    2    1    2    0    0  0.00000000000E+00  0.00000000000E+00  0.41165807813E+03  0.90178622623E+03  0.80234408113E+03 0.  0.
        5    1    3    3  502    0  0.21095661855E+03 -0.28942050919E+03  0.40891713662E+03  0.54360117795E+03  0.46999998093E+01 0.  1.
       -5    1    3    3    0  502 -0.21095661855E+03  0.28942050919E+03  0.27409415141E+01  0.35818504828E+03  0.46999998093E+01 0. -1.
</event>
<event>
 5   0  0.1049780E-02  0.7581573E+03  0.7818609E-02  0.9622639E-01
        1   -1    0    0  501    0  0.00000000000E+00  0.00000000000E+00  0.13380708665E+04  0.13380708665E+04  0.50400001928E-02 0. -1.
       -1   -1    0    0    0  501  0.00000000000E+00  0.00000000000E+00 -0.10739389400E+03  0.10739389412E+03  0.50400001928E-02 0.  1.
    10030    2    1    2    0    0  0.00000000000E+00  0.00000000000E+00  0.12306769725E+04  0.14454647606E+04  0.75815734751E+03 0.  0.
        5    1    3    3  502    0 -0.12392364461E+03 -0.16718787692E+02 -0.66881318193E+02  0.14188653310E+03  0.46999998093E+01 0.  1.
       -5    1    3    3    0  502  0.12392364461E+03  0.16718787692E+02  0.12975582907E+04  0.13035782275E+04  0.46999998093E+01 0. -1.
</event>
<event>
 5   0  0.1038912E-02  0.8068882E+03  0.7818609E-02  0.9550100E-01
        1   -1    0    0  501    0  0.00000000000E+00  0.00000000000E+00  0.11590781780E+04  0.11590781781E+04  0.50400001928E-02 0.  1.
       -1   -1    0    0    0  501  0.00000000000E+00  0.00000000000E+00 -0.14042808133E+03  0.14042808142E+03  0.50400001928E-02 0. -1.
    10030    2    1    2    0    0  0.00000000000E+00  0.00000000000E+00  0.10186500967E+04  0.12995062595E+04  0.80688815760E+03 0.  0.
        2    1    3    3  502    0  0.31610771129E+03 -0.15221867376E+03  0.18854311515E+03  0.39830028378E+03  0.25500000920E-02 0. -1.
       -2    1    3    3    0  502 -0.31610771129E+03  0.15221867376E+03  0.83010698157E+03  0.90120597570E+03  0.25500000920E-02 0.  1.
</event>
<event>
 5   0  0.6872500E-03  0.7955802E+03  0.7818609E-02  0.9566437E-01
        3   -1    0    0  501    0  0.00000000000E+00  0.00000000000E+00  0.35809491748E+03  0.35809493172E+03  0.10100000352E+00 0. -1.
       -3   -1    0    0    0  501  0.00000000000E+00  0.00000000000E+00 -0.44188553250E+03  0.44188554404E+03  0.10100000352E+00 0.  1.
    10030    2    1    2    0    0  0.00000000000E+00  0.00000000000E+00 -0.83790615019E+02  0.79998047576E+03  0.79558022502E+03 0.  0.
        3    1    3    3  502    0 -0.91996237242E+02 -0.14759716292E+03 -0.40162913488E+03  0.43766905574E+03  0.10100000352E+00 0.  1.
       -3    1    3    3    0  502  0.91996237242E+02  0.14759716292E+03  0.31783851986E+03  0.36231142002E+03  0.10100000352E+00 0. -1.
</event>
<event>
 5   0  0.1731337E-02  0.7924311E+03  0.7818609E-02  0.9571038E-01
        2   -1    0    0  501    0  0.00000000000E+00  0.00000000000E+00  0.13685435025E+03  0.13685435027E+03  0.25500000920E-02 0.  1.
       -2   -1    0    0    0  501  0.00000000000E+00  0.00000000000E+00 -0.11471082064E+04  0.11471082064E+04  0.25500000920E-02 0. -1.
    10030    2    1    2    0    0  0.00000000000E+00  0.00000000000E+00 -0.10102538562E+04  0.12839625567E+04  0.79243106520E+03 0.  0.
        4    1    3    3  502    0 -0.83881134882E+02  0.51771911894E+02  0.11666657644E+03  0.15273859567E+03  0.12699999809E+01 0.  1.
       -4    1    3    3    0  502  0.83881134882E+02 -0.51771911894E+02 -0.11269204326E+04  0.11312239610E+04  0.12699999809E+01 0. -1.
</event>
<event>
 5   0  0.1818665E-02  0.7995919E+03  0.7818609E-02  0.9560608E-01
        2   -1    0    0  501    0  0.00000000000E+00  0.00000000000E+00  0.12921184207E+03  0.12921184210E+03  0.25500000920E-02 0.  1.
       -2   -1    0    0    0  501  0.00000000000E+00  0.00000000000E+00 -0.12370135068E+04  0.12370135068E+04  0.25500000920E-02 0. -1.
    10030    2    1    2    0    0  0.00000000000E+00  0.00000000000E+00 -0.11078016648E+04  0.13662253489E+04  0.79959188067E+03 0.  0.
        3    1    3    3  502    0 -0.39782555322E+03  0.39409886012E+02 -0.56124482211E+03  0.68906753694E+03  0.10100000352E+00 0.  1.
       -3    1    3    3    0  502  0.39782555322E+03 -0.39409886012E+02 -0.54655684264E+03  0.67715781200E+03  0.10100000352E+00 0. -1.
</event>
<event>
 5   0  0.6872500E-03  0.8080436E+03  0.7818609E-02  0.9548447E-01
        3   -1    0    0  501    0  0.00000000000E+00  0.00000000000E+00  0.53634162263E+03  0.53634163214E+03  0.10100000352E+00 0. -1.
       -3   -1    0    0    0  501  0.00000000000E+00  0.00000000000E+00 -0.30434630150E+03  0.30434631825E+03  0.10100000352E+00 0.  1.
    10030    2    1    2    0    0  0.00000000000E+00  0.00000000000E+00  0.23199532114E+03  0.84068795040E+03  0.80804356375E+03 0.  0.
        2    1    3    3  502    0 -0.15190455976E+02  0.82176928895E+02 -0.29525600893E+03  0.30685486538E+03  0.25500000920E-02 0.  1.
       -2    1    3    3    0  502  0.15190455976E+02 -0.82176928895E+02  0.52725133006E+03  0.53383308502E+03  0.25500000920E-02 0. -1.
</event>
<event>
 5   0  0.1817089E-02  0.7908213E+03  0.7818609E-02  0.9573399E-01
        2   -1    0    0  501    0  0.00000000000E+00  0.00000000000E+00  0.50035280297E+03  0.50035280298E+03  0.25500000920E-02 0. -1.
       -2   -1    0    0    0  501  0.00000000000E+00  0.00000000000E+00 -0.31247866584E+03  0.31247866585E+03  0.25500000920E-02 0.  1.
    10030    2    1    2    0    0  0.00000000000E+00  0.00000000000E+00  0.18787413714E+03  0.81283146883E+03  0.79082128532E+03 0.  0.
        2    1    3    3  502    0 -0.35359644847E+03  0.11802585392E+03  0.22947466641E+03  0.43774327305E+03  0.25500000920E-02 0. -1.
       -2    1    3    3    0  502  0.35359644847E+03 -0.11802585392E+03 -0.41600529277E+02  0.37508819578E+03  0.25500000920E-02 0.  1.
</event>
<event>
 5   0  0.1731337E-02  0.8523540E+03  0.7818609E-02  0.9487183E-01
        2   -1    0    0  501    0  0.00000000000E+00  0.00000000000E+00  0.18380814245E+04  0.18380814245E+04  0.25500000920E-02 0. -1.
       -2   -1    0    0    0  501  0.00000000000E+00  0.00000000000E+00 -0.98813263504E+02  0.98813263537E+02  0.25500000920E-02 0.  1.
    10030    2    1    2    0    0  0.00000000000E+00  0.00000000000E+00  0.17392681610E+04  0.19368946881E+04  0.85235397383E+03 0.  0.
        4    1    3    3  502    0  0.26294640992E+03  0.12048990794E+03  0.15808885179E+04  0.16071305956E+04  0.12699999809E+01 0. -1.
       -4    1    3    3    0  502 -0.26294640992E+03 -0.12048990794E+03  0.15837964309E+03  0.32976409242E+03  0.12699999809E+01 0.  1.
</event>
<event>
 5   0  0.1025900E-02  0.8197309E+03  0.7818609E-02  0.9531888E-01
       -1   -1    0    0    0  501  0.00000000000E+00  0.00000000000E+00  0.27779470146E+03  0.27779470150E+03  0.50400001928E-02 0.  1.
        1   -1    0    0  501    0  0.00000000000E+00  0.00000000000E+00 -0.60472606928E+03  0.60472606930E+03  0.50400001928E-02 0. -1.
    10030    2    1    2    0    0  0.00000000000E+00  0.00000000000E+00 -0.32693136782E+03  0.88252077080E+03  0.81973092636E+03 0.  0.
        1    1    3    3  502    0 -0.29317428523E+03  0.10764369335E+03 -0.44922364724E+03  0.54711992425E+03  0.50400001928E-02 0. -1.
       -1    1    3    3    0  502  0.29317428523E+03 -0.10764369335E+03  0.12229227942E+03  0.33540084655E+03  0.50400001928E-02 0.  1.
</event>
<event>
 5   0  0.1817089E-02  0.7981897E+03  0.7818609E-02  0.9562641E-01
        2   -1    0    0  501    0  0.00000000000E+00  0.00000000000E+00  0.58792311889E+03  0.58792311890E+03  0.25500000920E-02 0.  1.
       -2   -1    0    0    0  501  0.00000000000E+00  0.00000000000E+00 -0.27091416927E+03  0.27091416928E+03  0.25500000920E-02 0. -1.
    10030    2    1    2    0    0  0.00000000000E+00  0.00000000000E+00  0.31700894962E+03  0.85883728818E+03  0.79818971018E+03 0.  0.
        2    1    3    3  502    0  0.39696981074E+02  0.26891447589E+01  0.58578375246E+03  0.58713344859E+03  0.25500000920E-02 0.  1.
       -2    1    3    3    0  502 -0.39696981074E+02 -0.26891447589E+01 -0.26877480283E+03  0.27170383959E+03  0.25500000920E-02 0. -1.
</event>
<event>
 5   0  0.1049780E-02  0.8072635E+03  0.7818609E-02  0.9549563E-01
        1   -1    0    0  501    0  0.00000000000E+00  0.00000000000E+00  0.83600287910E+03  0.83600287912E+03  0.50400001928E-02 0. -1.
       -1   -1    0    0    0  501  0.00000000000E+00  0.00000000000E+00 -0.19487801333E+03  0.19487801339E+03  0.50400001928E-02 0.  1.
    10030    2    1    2    0    0  0.00000000000E+00  0.00000000000E+00  0.64112486577E+03  0.10308808925E+04  0.80726347684E+03 0.  0.
        5    1    3    3  502    0 -0.33742683626E+03 -0.53627190143E+00  0.37771511744E+02  0.33956727538E+03  0.46999998093E+01 0.  1.
       -5    1    3    3    0  502  0.33742683626E+03  0.53627190143E+00  0.60335335403E+03  0.69131361713E+03  0.46999998093E+01 0. -1.
</event>
<event>
 5   0  0.6872500E-03  0.7973615E+03  0.7818609E-02  0.9563844E-01
        3   -1    0    0  501    0  0.00000000000E+00  0.00000000000E+00  0.13993627441E+03  0.13993631085E+03  0.10100000352E+00 0. -1.
       -3   -1    0    0    0  501  0.00000000000E+00  0.00000000000E+00 -0.11358477396E+04  0.11358477441E+04  0.10100000352E+00 0.  1.
    10030    2    1    2    0    0  0.00000000000E+00  0.00000000000E+00 -0.99591146521E+03  0.12757840550E+04  0.79736146656E+03 0.  0.
        1    1    3    3  502    0  0.19430460891E+03  0.34799562505E+03 -0.48268501070E+03  0.62597128982E+03  0.50400001928E-02 0.  1.
       -1    1    3    3    0  502 -0.19430460891E+03 -0.34799562505E+03 -0.51322645451E+03  0.64981276514E+03  0.50400001928E-02 0. -1.
</event>
<event>
 5   0  0.1030323E-02  0.8025943E+03  0.7818609E-02  0.9556270E-01
       -1   -1    0    0    0  501  0.00000000000E+00  0.00000000000E+00  0.18578232975E+03  0.18578232982E+03  0.50400001928E-02 0. -1.
        1   -1    0    0  501    0  0.00000000000E+00  0.00000000000E+00 -0.86681755397E+03  0.86681755398E+03  0.50400001928E-02 0.  1.
    10030    2    1    2    0    0  0.00000000000E+00  0.00000000000E+00 -0.68103522422E+03  0.10525998838E+04  0.80259425537E+03 0.  0.
        3    1    3    3  502    0 -0.63575125127E+02 -0.15586966492E+03 -0.81827385859E+03  0.83540964014E+03  0.10100000352E+00 0.  1.
       -3    1    3    3    0  502  0.63575125127E+02  0.15586966492E+03  0.13723863438E+03  0.21719024366E+03  0.10100000352E+00 0. -1.
</event>
<event>
 5   0  0.1673727E-02  0.7990434E+03  0.7818609E-02  0.9561403E-01
       -2   -1    0    0    0  501  0.00000000000E+00  0.00000000000E+00  0.13471548483E+03  0.13471548486E+03  0.25500000920E-02 0. -1.
        2   -1    0    0  501    0  0.00000000000E+00  0.00000000000E+00 -0.11848496198E+04  0.11848496198E+04  0.25500000920E-02 0.  1.
    10030    2    1    2    0    0  0.00000000000E+00  0.00000000000E+00 -0.10501341350E+04  0.13195651047E+04  0.79904340560E+03 0.  0.
        5    1    3    3  502    0 -0.38042797478E+03 -0.95374679904E+01 -0.72583037974E+03  0.81955368186E+03  0.46999998093E+01 0.  1.
       -5    1    3    3    0  502  0.38042797478E+03  0.95374679904E+01 -0.32430375527E+03  0.50001142285E+03  0.46999998093E+01 0. -1.
</event>
<event>
 5   0  0.1049780E-02  0.7878942E+03  0.7818609E-02  0.9577707E-01
        1   -1    0    0  501    0  0.00000000000E+00  0.00000000000E+00  0.16341623125E+03  0.16341623132E+03  0.50400001928E-02 0.  1.
       -1   -1    0    0    0  501  0.00000000000E+00  0.00000000000E+00 -0.94968722908E+03  0.94968722909E+03  0.50400001928E-02 0. -1.
    10030    2    1    2    0    0  0.00000000000E+00  0.00000000000E+00 -0.78627099783E+03  0.11131034604E+04  0.78789417535E+03 0.  0.
        5    1    3    3  502    0 -0.10712452906E+03 -0.18024766950E+03 -0.86425854737E+03  0.88934234903E+03  0.46999998093E+01 0. -1.
       -5    1    3    3    0  502  0.10712452906E+03  0.18024766950E+03  0.77987549536E+02  0.22376111138E+03  0.46999998093E+01 0.  1.
</event>
<event>
 5   0  0.1818665E-02  0.8007887E+03  0.7818609E-02  0.9558876E-01
       -2   -1    0    0    0  501  0.00000000000E+00  0.00000000000E+00  0.27710066320E+03  0.27710066322E+03  0.25500000920E-02 0.  1.
        2   -1    0    0  501    0  0.00000000000E+00  0.00000000000E+00 -0.57854655922E+03  0.57854655923E+03  0.25500000920E-02 0. -1.
    10030    2    1    2    0    0  0.00000000000E+00  0.00000000000E+00 -0.30144589602E+03  0.85564722244E+03  0.80078869938E+03 0.  0.
        3    1    3    3  502    0  0.16672714831E+03 -0.24485213285E+03 -0.43855606209E+03  0.52922768138E+03  0.10100000352E+00 0. -1.
       -3    1    3    3    0  502 -0.16672714831E+03  0.24485213285E+03  0.13711016607E+03  0.32641954106E+03  0.10100000352E+00 0.  1.
</event>
<event>
 5   0  0.1025900E-02  0.8024649E+03  0.7818609E-02  0.9556456E-01
        1   -1    0    0  501    0  0.00000000000E+00  0.00000000000E+00  0.55163430687E+03  0.55163430690E+03  0.50400001928E-02 0.  1.
       -1   -1    0    0    0  501  0.00000000000E+00  0.00000000000E+00 -0.29183732507E+03  0.29183732512E+03  0.50400001928E-02 0. -1.
    10030    2    1    2    0    0  0.00000000000E+00  0.00000000000E+00  0.25979698180E+03  0.84347163201E+03  0.80246490407E+03 0.  0.
        1    1    3    3  502    0  0.19030411378E+03  0.91648974823E+02  0.48846458792E+03  0.53217745535E+03  0.50400001928E-02 0.  1.
       -1    1    3    3    0  502 -0.19030411378E+03 -0.91648974823E+02 -0.22866760612E+03  0.31129417666E+03  0.50400001928E-02 0. -1.
</event>
<event>
 5   0  0.1030323E-02  0.7997635E+03  0.7818609E-02  0.9560359E-01
       -1   -1    0    0    0  501  0.00000000000E+00  0.00000000000E+00  0.14665779622E+03  0.14665779630E+03  0.50400001928E-02 0.  1.
        1   -1    0    0  501    0  0.00000000000E+00  0.00000000000E+00 -0.10903302607E+04  0.10903302607E+04  0.50400001928E-02 0. -1.
    10030    2    1    2    0    0  0.00000000000E+00  0.00000000000E+00 -0.94367246449E+03  0.12369880570E+04  0.79976354816E+03 0.  0.
        3    1    3    3  502    0 -0.78237922819E+02 -0.23290163188E+03  0.16147198175E+02  0.24622161747E+03  0.10100000352E+00 0.  1.
       -3    1    3    3    0  502  0.78237922819E+02  0.23290163188E+03 -0.95981966267E+03  0.99076643955E+03  0.10100000352E+00 0. -1.
</event>
<event>
 5   0  0.1818665E-02  0.8079595E+03  0.7818609E-02  0.9548567E-01
        2   -1    0    0  501    0  0.00000000000E+00  0.00000000000E+00  0.14654980951E+04  0.14654980951E+04  0.25500000920E-02 0. -1.
       -2   -1    0    0    0  501  0.00000000000E+00  0.00000000000E+00 -0.11136120478E+03  0.11136120481E+03  0.25500000920E-02 0.  1.
    10030    2    1    2    0    0  0.00000000000E+00  0.00000000000E+00  0.13541368903E+04  0.15768592999E+04  0.80795948784E+03 0.  0.
        3    1    3    3  502    0 -0.22777824007E+03 -0.31673327760E+03  0.88172944445E+03  0.96418344686E+03  0.10100000352E+00 0. -1.
       -3    1    3    3    0  502  0.22777824007E+03  0.31673327760E+03  0.47240744583E+03  0.61267585301E+03  0.10100000352E+00 0.  1.
</event>
<event>
 5   0  0.1673727E-02  0.7896476E+03  0.7818609E-02  0.9575124E-01
       -2   -1    0    0    0  501  0.00000000000E+00  0.00000000000E+00  0.21326901479E+03  0.21326901481E+03  0.25500000920E-02 0. -1.
        2   -1    0    0  501    0  0.00000000000E+00  0.00000000000E+00 -0.73093524516E+03  0.73093524516E+03  0.25500000920E-02 0.  1.
    10030    2    1    2    0    0  0.00000000000E+00  0.00000000000E+00 -0.51766623037E+03  0.94420425997E+03  0.78964761665E+03 0.  0.
        5    1    3    3  502    0 -0.32080583082E+03 -0.11321966136E+03 -0.49836318797E+03  0.60342607661E+03  0.46999998093E+01 0.  1.
       -5    1    3    3    0  502  0.32080583082E+03  0.11321966136E+03 -0.19303042394E+02  0.34077818336E+03  0.46999998093E+01 0. -1.
</event>
<event>
 5   0  0.1673727E-02  0.7110450E+03  0.7818609E-02  0.9698528E-01
        2   -1    0    0  501    0  0.00000000000E+00  0.00000000000E+00  0.12738355039E+04  0.12738355039E+04  0.25500000920E-02 0. -1.
       -2   -1    0    0    0  501  0.00000000000E+00  0.00000000000E+00 -0.99224931494E+02  0.99224931526E+02  0.25500000920E-02 0.  1.
    10030    2    1    2    0    0  0.00000000000E+00  0.00000000000E+00  0.11746105724E+04  0.13730604354E+04  0.71104497925E+03 0.  0.
        5    1    3    3  502    0  0.17474105038E+03  0.27342121582E+03  0.30693395990E+03  0.44668125289E+03  0.46999998093E+01 0.  1.
       -5    1    3    3    0  502 -0.17474105038E+03 -0.27342121582E+03  0.86767661248E+03  0.92637918251E+03  0.46999998093E+01 0. -1.
</event>
<event>
 5   0  0.1146083E-02  0.7533433E+03  0.7818609E-02  0.9630120E-01
        1   -1    0    0  501    0  0.00000000000E+00  0.00000000000E+00  0.12263686272E+04  0.12263686272E+04  0.50400001928E-02 0. -1.
       -1   -1    0    0    0  501  0.00000000000E+00  0.00000000000E+00 -0.11569241364E+03  0.11569241375E+03  0.50400001928E-02 0.  1.
    10030    2    1    2    0    0  0.00000000000E+00  0.00000000000E+00  0.11106762135E+04  0.13420610409E+04  0.75334333890E+03 0.  0.
        4    1    3    3  502    0  0.77684382023E+02  0.15456267428E+03  0.11514145199E+04  0.11643373622E+04  0.12699999809E+01 0. -1.
       -4    1    3    3    0  502 -0.77684382023E+02 -0.15456267428E+03 -0.40738306323E+02  0.17772367877E+03  0.12699999809E+01 0.  1.
</event>
<event>
 5   0  0.1049780E-02  0.7980261E+03  0.7818609E-02  0.9562879E-01
        1   -1    0    0  501    0  0.00000000000E+00  0.00000000000E+00  0.20765696650E+03  0.20765696656E+03  0.50400001928E-02 0. -1.
       -1   -1    0    0    0  501  0.00000000000E+00  0.00000000000E+00 -0.76670384865E+03  0.76670384866E+03  0.50400001928E-02 0.  1.
    10030    2    1    2    0    0  0.00000000000E+00  0.00000000000E+00 -0.55904688215E+03  0.97436081522E+03  0.79802605333E+03 0.  0.
        5    1    3    3  502    0  0.66937339318E+02  0.35741212941E+03 -0.48001916237E+03  0.60221634309E+03  0.46999998093E+01 0.  1.
       -5    1    3    3    0  502 -0.66937339318E+02 -0.35741212941E+03 -0.79027719785E+02  0.37214447213E+03  0.46999998093E+01 0. -1.
</event>
<event>
 5   0  0.1146083E-02  0.7999371E+03  0.7818609E-02  0.9560108E-01
       -1   -1    0    0    0  501  0.00000000000E+00  0.00000000000E+00  0.61033407980E+03  0.61033407982E+03  0.50400001928E-02 0. -1.
        1   -1    0    0  501    0  0.00000000000E+00  0.00000000000E+00 -0.26211025628E+03  0.26211025633E+03  0.50400001928E-02 0.  1.
    10030    2    1    2    0    0  0.00000000000E+00  0.00000000000E+00  0.34822382353E+03  0.87244433615E+03  0.79993705278E+03 0.  0.
        4    1    3    3  502    0  0.22502942353E+03  0.26393145756E+03 -0.43128802287E+02  0.34951360807E+03  0.12699999809E+01 0. -1.
       -4    1    3    3    0  502 -0.22502942353E+03 -0.26393145756E+03  0.39135262581E+03  0.52293072808E+03  0.12699999809E+01 0.  1.
</event>
<event>
 5   0  0.1030323E-02  0.7955939E+03  0.7818609E-02  0.9566417E-01
       -1   -1    0    0    0  501  0.00000000000E+00  0.00000000000E+00  0.92231617126E+03  0.92231617127E+03  0.50400001928E-02 0. -1.
        1   -1    0    0  501    0  0.00000000000E+00  0.00000000000E+00 -0.17157069711E+03  0.17157069719E+03  0.50400001928E-02 0.  1.
    10030    2    1    2    0    0  0.00000000000E+00  0.00000000000E+00  0.75074547415E+03  0.10938868685E+04  0.79559393791E+03 0.  0.
        3    1    3    3  502    0  0.39498992831E+03 -0.47113802427E+02  0.37864509127E+03  0.54918928357E+03  0.10100000352E+00 0. -1.
       -3    1    3    3    0  502 -0.39498992831E+03  0.47113802427E+02  0.37210038288E+03  0.54469758489E+03  0.10100000352E+00 0.  1.
</event>
<event>
 5   0  0.6872500E-03  0.7878551E+03  0.7818609E-02  0.9577765E-01
       -3   -1    0    0    0  501  0.00000000000E+00  0.00000000000E+00  0.38101578583E+03  0.38101579922E+03  0.10100000352E+00 0. -1.
        3   -1    0    0  501    0  0.00000000000E+00  0.00000000000E+00 -0.40727680673E+03  0.40727681925E+03  0.10100000352E+00 0.  1.
    10030    2    1    2    0    0  0.00000000000E+00  0.00000000000E+00 -0.26261020893E+02  0.78829261847E+03  0.78785506987E+03 0.  0.
        5    1    3    3  502    0 -0.59847632832E+02  0.10068883244E+03  0.36315923819E+03  0.38161066864E+03  0.46999998093E+01 0. -1.
       -5    1    3    3    0  502  0.59847632832E+02 -0.10068883244E+03 -0.38942025909E+03  0.40668194983E+03  0.46999998093E+01 0.  1.
</event>
<event>
 5   0  0.1146083E-02  0.7981876E+03  0.7818609E-02  0.9562644E-01
        1   -1    0    0  501    0  0.00000000000E+00  0.00000000000E+00  0.70859559549E+03  0.70859559551E+03  0.50400001928E-02 0.  1.
       -1   -1    0    0    0  501  0.00000000000E+00  0.00000000000E+00 -0.22477683798E+03  0.22477683804E+03  0.50400001928E-02 0. -1.
    10030    2    1    2    0    0  0.00000000000E+00  0.00000000000E+00  0.48381875751E+03  0.93337243355E+03  0.79818764059E+03 0.  0.
        4    1    3    3  502    0 -0.14412966775E+02 -0.27917163941E+03  0.57498279979E+03  0.63933666469E+03  0.12699999809E+01 0.  1.
       -4    1    3    3    0  502  0.14412966775E+02  0.27917163941E+03 -0.91164042281E+02  0.29403576886E+03  0.12699999809E+01 0. -1.
</event>
<event>
 5   0  0.1673727E-02  0.7974799E+03  0.7818609E-02  0.9563672E-01
        2   -1    0    0  501    0  0.00000000000E+00  0.00000000000E+00  0.97170341317E+03  0.97170341318E+03  0.25500000920E-02 0. -1.
       -2   -1    0    0    0  501  0.00000000000E+00  0.00000000000E+00 -0.16362354840E+03  0.16362354842E+03  0.25500000920E-02 0.  1.
    10030    2    1    2    0    0  0.00000000000E+00  0.00000000000E+00  0.80807986477E+03  0.11353269616E+04  0.79747993196E+03 0.  0.
        5    1    3    3  502    0  0.13417349948E+03  0.15321602799E+03  0.89202737597E+03  0.91499322876E+03  0.46999998093E+01 0. -1.
       -5    1    3    3    0  502 -0.13417349948E+03 -0.15321602799E+03 -0.83947511194E+02  0.22033373284E+03  0.46999998093E+01 0.  1.
</event>
<event>
 5   0  0.1673727E-02  0.7979882E+03  0.7818609E-02  0.9562934E-01
       -2   -1    0    0    0  501  0.00000000000E+00  0.00000000000E+00  0.11379003429E+03  0.11379003432E+03  0.25500000920E-02 0. -1.
        2   -1    0    0  501    0  0.00000000000E+00  0.00000000000E+00 -0.13990355158E+04  0.13990355158E+04  0.25500000920E-02 0.  1.
    10030    2    1    2    0    0  0.00000000000E+00  0.00000000000E+00 -0.12852454815E+04  0.15128255501E+04  0.79798821880E+03 0.  0.
        5    1    3    3  502    0 -0.17199682859E+03 -0.12169325905E+02  0.39452059497E+02  0.17694506643E+03  0.46999998093E+01 0. -1.
       -5    1    3    3    0  502  0.17199682859E+03  0.12169325905E+02 -0.13246975410E+04  0.13358804837E+04  0.46999998093E+01 0.  1.
</event>
<event>
 5   0  0.1673727E-02  0.7988123E+03  0.7818609E-02  0.9561738E-01
       -2   -1    0    0    0  501  0.00000000000E+00  0.00000000000E+00  0.10129554380E+03  0.10129554383E+03  0.25500000920E-02 0.  1.
        2   -1    0    0  501    0  0.00000000000E+00  0.00000000000E+00 -0.15748499398E+04  0.15748499398E+04  0.25500000920E-02 0. -1.
    10030    2    1    2    0    0  0.00000000000E+00  0.00000000000E+00 -0.14735543960E+04  0.16761454836E+04  0.79881232110E+03 0.  0.
        5    1    3    3  502    0  0.83093851074E+02 -0.10204618763E+03  0.54437087963E+02  0.14249034719E+03  0.46999998093E+01 0.  1.
       -5    1    3    3    0  502 -0.83093851074E+02  0.10204618763E+03 -0.15279914840E+04  0.15336551365E+04  0.46999998093E+01 0. -1.
</event>
<event>
 5   0  0.1025900E-02  0.7947430E+03  0.7818609E-02  0.9567658E-01
       -1   -1    0    0    0  501  0.00000000000E+00  0.00000000000E+00  0.16714802902E+03  0.16714802910E+03  0.50400001928E-02 0. -1.
        1   -1    0    0  501    0  0.00000000000E+00  0.00000000000E+00 -0.94469622740E+03  0.94469622741E+03  0.50400001928E-02 0.  1.
    10030    2    1    2    0    0  0.00000000000E+00  0.00000000000E+00 -0.77754819838E+03  0.11118442565E+04  0.79474300874E+03 0.  0.
        1    1    3    3  502    0  0.13122597194E+03  0.67039804979E+02  0.12751040165E+03  0.19486788786E+03  0.50400001928E-02 0. -1.
       -1    1    3    3    0  502 -0.13122597194E+03 -0.67039804979E+02 -0.90505860003E+03  0.91697636866E+03  0.50400001928E-02 0.  1.
</event>
<event>
 5   0  0.1747544E-02  0.7983061E+03  0.7818609E-02  0.9562472E-01
        2   -1    0    0  501    0  0.00000000000E+00  0.00000000000E+00  0.72242390627E+03  0.72242390627E+03  0.25500000920E-02 0. -1.
       -2   -1    0    0    0  501  0.00000000000E+00  0.00000000000E+00 -0.22053971709E+03  0.22053971711E+03  0.25500000920E-02 0.  1.
    10030    2    1    2    0    0  0.00000000000E+00  0.00000000000E+00  0.50188418917E+03  0.94296362338E+03  0.79830611652E+03 0.  0.
        1    1    3    3  502    0  0.37134248846E+03 -0.10857005550E+03  0.36691977894E+03  0.53320992573E+03  0.50400001928E-02 0. -1.
       -1    1    3    3    0  502 -0.37134248846E+03  0.10857005550E+03  0.13496441023E+03  0.40975369765E+03  0.50400001928E-02 0.  1.
</event>
<event>
 5   0  0.1747544E-02  0.7872474E+03  0.7818609E-02  0.9578662E-01
        2   -1    0    0  501    0  0.00000000000E+00  0.00000000000E+00  0.11372265090E+04  0.11372265090E+04  0.25500000920E-02 0. -1.
       -2   -1    0    0    0  501  0.00000000000E+00  0.00000000000E+00 -0.13624342237E+03  0.13624342239E+03  0.25500000920E-02 0.  1.
    10030    2    1    2    0    0  0.00000000000E+00  0.00000000000E+00  0.10009830866E+04  0.12734699314E+04  0.78724743660E+03 0.  0.
        1    1    3    3  502    0  0.94534159862E+02  0.30484704964E+03  0.87314649459E+03  0.92965221029E+03  0.50400001928E-02 0. -1.
       -1    1    3    3    0  502 -0.94534159862E+02 -0.30484704964E+03  0.12783659205E+03  0.34381772111E+03  0.50400001928E-02 0.  1.
</event>
<event>
 5   0  0.1030323E-02  0.8077287E+03  0.7818609E-02  0.9548897E-01
        1   -1    0    0  501    0  0.00000000000E+00  0.00000000000E+00  0.98420675643E+03  0.98420675644E+03  0.50400001928E-02 0.  1.
       -1   -1    0    0    0  501  0.00000000000E+00  0.00000000000E+00 -0.16572374050E+03  0.16572374058E+03  0.50400001928E-02 0. -1.
    10030    2    1    2    0    0  0.00000000000E+00  0.00000000000E+00  0.81848301593E+03  0.11499304970E+04  0.80772872959E+03 0.  0.
        3    1    3    3  502    0  0.56689268669E+02  0.31308495350E+03  0.55123458946E+02  0.32291557289E+03  0.10100000352E+00 0. -1.
       -3    1    3    3    0  502 -0.56689268669E+02 -0.31308495350E+03  0.76335955699E+03  0.82701492413E+03  0.10100000352E+00 0.  1.
</event>
<event>
 5   0  0.1731337E-02  0.8058748E+03  0.7818609E-02  0.9551552E-01
        2   -1    0    0  501    0  0.00000000000E+00  0.00000000000E+00  0.66678703198E+03  0.66678703199E+03  0.25500000920E-02 0. -1.
       -2   -1    0    0    0  501  0.00000000000E+00  0.00000000000E+00 -0.24349388710E+03  0.24349388712E+03  0.25500000920E-02 0.  1.
    10030    2    1    2    0    0  0.00000000000E+00  0.00000000000E+00  0.42329314488E+03  0.91028091910E+03  0.80587484461E+03 0.  0.
        4    1    3    3  502    0 -0.21513846915E+03  0.33213354145E+03  0.29737165056E+03  0.49500379971E+03  0.12699999809E+01 0. -1.
       -4    1    3    3    0  502  0.21513846915E+03 -0.33213354145E+03  0.12592149431E+03  0.41527711940E+03  0.12699999809E+01 0.  1.
</event>
<event>
 5   0  0.1038912E-02  0.7994265E+03  0.7818609E-02  0.9560848E-01
       -1   -1    0    0    0  501  0.00000000000E+00  0.00000000000E+00  0.70317731984E+02  0.70317732164E+02  0.50400001928E-02 0.  1.
        1   -1    0    0  501    0  0.00000000000E+00  0.00000000000E+00 -0.22721252642E+04  0.22721252642E+04  0.50400001928E-02 0. -1.
    10030    2    1    2    0    0  0.00000000000E+00  0.00000000000E+00 -0.22018075322E+04  0.23424429964E+04  0.79942653341E+03 0.  0.
        2    1    3    3  502    0 -0.28107120514E+03  0.14835049338E+03 -0.18111975824E+04  0.18388707333E+04  0.25500000920E-02 0.  1.
       -2    1    3    3    0  502  0.28107120514E+03 -0.14835049338E+03 -0.39060994983E+03  0.50357226310E+03  0.25500000920E-02 0. -1.
</event>
<event>
 5   0  0.1817089E-02  0.7950453E+03  0.7818609E-02  0.9567217E-01
       -2   -1    0    0    0  501  0.00000000000E+00  0.00000000000E+00  0.14944075133E+03  0.14944075135E+03  0.25500000920E-02 0. -1.
        2   -1    0    0  501    0  0.00000000000E+00  0.00000000000E+00 -0.10574375247E+04  0.10574375247E+04  0.25500000920E-02 0.  1.
    10030    2    1    2    0    0  0.00000000000E+00  0.00000000000E+00 -0.90799677336E+03  0.12068782760E+04  0.79504530233E+03 0.  0.
        2    1    3    3  502    0  0.19351175775E+03  0.29373665377E+03 -0.17287639318E+03  0.39193656308E+03  0.25500000920E-02 0. -1.
       -2    1    3    3    0  502 -0.19351175775E+03 -0.29373665377E+03 -0.73512038018E+03  0.81494171296E+03  0.25500000920E-02 0.  1.
</event>
<event>
 5   0  0.1025900E-02  0.7967819E+03  0.7818609E-02  0.9564687E-01
        1   -1    0    0  501    0  0.00000000000E+00  0.00000000000E+00  0.10621767905E+04  0.10621767905E+04  0.50400001928E-02 0. -1.
       -1   -1    0    0    0  501  0.00000000000E+00  0.00000000000E+00 -0.14942459218E+03  0.14942459226E+03  0.50400001928E-02 0.  1.
    10030    2    1    2    0    0  0.00000000000E+00  0.00000000000E+00  0.91275219833E+03  0.12116013828E+04  0.79678186174E+03 0.  0.
        1    1    3    3  502    0 -0.33496148253E+03  0.61548804873E+02  0.14205320672E+03  0.36900753884E+03  0.50400001928E-02 0.  1.
       -1    1    3    3    0  502  0.33496148253E+03 -0.61548804873E+02  0.77069899161E+03  0.84259384394E+03  0.50400001928E-02 0. -1.
</event>
<event>
 5   0  0.1817089E-02  0.8918800E+03  0.7818609E-02  0.9435789E-01
       -2   -1    0    0    0  501  0.00000000000E+00  0.00000000000E+00  0.32180371551E+03  0.32180371552E+03  0.25500000920E-02 0. -1.
        2   -1    0    0  501    0  0.00000000000E+00  0.00000000000E+00 -0.61796204885E+03  0.61796204886E+03  0.25500000920E-02 0.  1.
    10030    2    1    2    0    0  0.00000000000E+00  0.00000000000E+00 -0.29615833334E+03  0.93976576437E+03  0.89187999949E+03 0.  0.
        2    1    3    3  502    0  0.25153453129E+03 -0.36656826366E+03 -0.18489161653E+03  0.48148397919E+03  0.25500000920E-02 0.  1.
       -2    1    3    3    0  502 -0.25153453129E+03  0.36656826366E+03 -0.11126671681E+03  0.45828178518E+03  0.25500000920E-02 0. -1.
</event>
<event>
 5   0  0.1673727E-02  0.8002098E+03  0.7818609E-02  0.9559713E-01
       -2   -1    0    0    0  501  0.00000000000E+00  0.00000000000E+00  0.33429596434E+03  0.33429596435E+03  0.25500000920E-02 0.  1.
        2   -1    0    0  501    0  0.00000000000E+00  0.00000000000E+00 -0.47886890196E+03  0.47886890197E+03  0.25500000920E-02 0. -1.
    10030    2    1    2    0    0  0.00000000000E+00  0.00000000000E+00 -0.14457293762E+03  0.81316486632E+03  0.80020982593E+03 0.  0.
        5    1    3    3  502    0 -0.10921669945E+03 -0.23243338228E+03  0.23945075243E+03  0.35115853610E+03  0.46999998093E+01 0.  1.
       -5    1    3    3    0  502  0.10921669945E+03  0.23243338228E+03 -0.38402369005E+03  0.46200633022E+03  0.46999998093E+01 0. -1.
</event>
<event>
 5   0  0.1673727E-02  0.8043700E+03  0.7818609E-02  0.9553713E-01
       -2   -1    0    0    0  501  0.00000000000E+00  0.00000000000E+00  0.17655070770E+03  0.17655070772E+03  0.25500000920E-02 0. -1.
        2   -1    0    0  501    0  0.00000000000E+00  0.00000000000E+00 -0.91618314796E+03  0.91618314796E+03  0.25500000920E-02 0.  1.
    10030    2    1    2    0    0  0.00000000000E+00  0.00000000000E+00 -0.73963244026E+03  0.10927338557E+04  0.80437002224E+03 0.  0.
        5    1    3    3  502    0  0.15094961571E+03 -0.35671727442E+03 -0.51674559418E+03  0.64581816284E+03  0.46999998093E+01 0.  1.
       -5    1    3    3    0  502 -0.15094961571E+03  0.35671727442E+03 -0.22288684608E+03  0.44691569284E+03  0.46999998093E+01 0. -1.
</event>
<event>
 5   0  0.6872500E-03  0.8213411E+03  0.7818609E-02  0.9529630E-01
       -4   -1    0    0    0  501  0.00000000000E+00  0.00000000000E+00  0.41402614468E+03  0.41402809250E+03  0.12699999809E+01 0. -1.
        4   -1    0    0  501    0  0.00000000000E+00  0.00000000000E+00 -0.40733830198E+03  0.40734028177E+03  0.12699999809E+01 0.  1.
    10030    2    1    2    0    0  0.00000000000E+00  0.00000000000E+00  0.66878427018E+01  0.82136837427E+03  0.82134114655E+03 0.  0.
        2    1    3    3  502    0 -0.39761860462E+03  0.10137499231E+03 -0.13175583218E+02  0.41054968007E+03  0.25500000920E-02 0. -1.
       -2    1    3    3    0  502  0.39761860462E+03 -0.10137499231E+03  0.19863425920E+02  0.41081869420E+03  0.25500000920E-02 0.  1.
</event>
<event>
 5   0  0.1025900E-02  0.8043754E+03  0.7818609E-02  0.9553705E-01
       -1   -1    0    0    0  501  0.00000000000E+00  0.00000000000E+00  0.38067330009E+03  0.38067330013E+03  0.50400001928E-02 0.  1.
        1   -1    0    0  501    0  0.00000000000E+00  0.00000000000E+00 -0.42491800175E+03  0.42491800178E+03  0.50400001928E-02 0. -1.
    10030    2    1    2    0    0  0.00000000000E+00  0.00000000000E+00 -0.44244701660E+02  0.80559130191E+03  0.80437538008E+03 0.  0.
        1    1    3    3  502    0  0.38285724494E+03 -0.10143573701E+03  0.47883665268E+02  0.39895077913E+03  0.50400001928E-02 0.  1.
       -1    1    3    3    0  502 -0.38285724494E+03  0.10143573701E+03 -0.92128366928E+02  0.40664052278E+03  0.50400001928E-02 0. -1.
</event>
<event>
 5   0  0.1030323E-02  0.7988016E+03  0.7818609E-02  0.9561753E-01
        1   -1    0    0  501    0  0.00000000000E+00  0.00000000000E+00  0.23745233458E+03  0.23745233463E+03  0.50400001928E-02 0. -1.
       -1   -1    0    0    0  501  0.00000000000E+00  0.00000000000E+00 -0.67180224079E+03  0.67180224080E+03  0.50400001928E-02 0.  1.
    10030    2    1    2    0    0  0.00000000000E+00  0.00000000000E+00 -0.43434990621E+03  0.90925457543E+03  0.79880162864E+03 0.  0.
        3    1    3    3  502    0  0.32790190961E+03 -0.22663052959E+03 -0.18837999015E+03  0.44087196572E+03  0.10100000352E+00 0.  1.
       -3    1    3    3    0  502 -0.32790190961E+03  0.22663052959E+03 -0.24596991606E+03  0.46838260971E+03  0.10100000352E+00 0. -1.
</event>
<event>
 5   0  0.1030323E-02  0.8047602E+03  0.7818609E-02  0.9553152E-01
        1   -1    0    0  501    0  0.00000000000E+00  0.00000000000E+00  0.17551137712E+04  0.17551137712E+04  0.50400001928E-02 0.  1.
       -1   -1    0    0    0  501  0.00000000000E+00  0.00000000000E+00 -0.92250290785E+02  0.92250290923E+02  0.50400001928E-02 0. -1.
    10030    2    1    2    0    0  0.00000000000E+00  0.00000000000E+00  0.16628634804E+04  0.18473640621E+04  0.80476022736E+03 0.  0.
        3    1    3    3  502    0  0.92037567139E+02 -0.33897917799E+03  0.38082625563E+03  0.51807957309E+03  0.10100000352E+00 0. -1.
       -3    1    3    3    0  502 -0.92037567139E+02  0.33897917799E+03  0.12820372247E+04  0.13292844890E+04  0.10100000352E+00 0.  1.
</event>
<event>
 5   0  0.1747544E-02  0.7705421E+03  0.7818609E-02  0.9603663E-01
       -2   -1    0    0    0  501  0.00000000000E+00  0.00000000000E+00  0.60586516945E+03  0.60586516946E+03  0.25500000920E-02 0. -1.
        2   -1    0    0  501    0  0.00000000000E+00  0.00000000000E+00 -0.24499474171E+03  0.24499474172E+03  0.25500000920E-02 0.  1.
    10030    2    1    2    0    0  0.00000000000E+00  0.00000000000E+00  0.36087042775E+03  0.85085991118E+03  0.77054209672E+03 0.  0.
        1    1    3    3  502    0 -0.12719929338E+02  0.33567315745E+03  0.38876882170E+03  0.51378931673E+03  0.50400001928E-02 0. -1.
       -1    1    3    3    0  502  0.12719929338E+02 -0.33567315745E+03 -0.27898393951E+02  0.33707059445E+03  0.50400001928E-02 0.  1.
</event>
<event>
 5   0  0.1049780E-02  0.7996568E+03  0.7818609E-02  0.9560514E-01
       -1   -1    0    0    0  501  0.00000000000E+00  0.00000000000E+00  0.12687601910E+03  0.12687601920E+03  0.50400001928E-02 0.  1.
        1   -1    0    0  501    0  0.00000000000E+00  0.00000000000E+00 -0.12599917683E+04  0.12599917684E+04  0.50400001928E-02 0. -1.
    10030    2    1    2    0    0  0.00000000000E+00  0.00000000000E+00 -0.11331157493E+04  0.13868677876E+04  0.79965677572E+03 0.  0.
        5    1    3    3  502    0  0.12682873008E+03  0.31421204221E+03 -0.19854525157E+03  0.39275570163E+03  0.46999998093E+01 0.  1.
       -5    1    3    3    0  502 -0.12682873008E+03 -0.31421204221E+03 -0.93457049768E+03  0.99411208593E+03  0.46999998093E+01 0. -1.
</event>
<event>
 5   0  0.1747544E-02  0.7678770E+03  0.7818609E-02  0.9607714E-01
       -2   -1    0    0    0  501  0.00000000000E+00  0.00000000000E+00  0.15173862884E+03  0.15173862886E+03  0.25500000920E-02 0.  1.
        2   -1    0    0  501    0  0.00000000000E+00  0.00000000000E+00 -0.97146496658E+03  0.97146496659E+03  0.25500000920E-02 0. -1.
    10030    2    1    2    0    0  0.00000000000E+00  0.00000000000E+00 -0.81972633774E+03  0.11232035954E+04  0.76787697454E+03 0.  0.
        1    1    3    3  502    0 -0.23904453914E+02  0.87640666283E+02  0.13579230286E+03  0.16337643295E+03  0.50400001928E-02 0.  1.
       -1    1    3    3    0  502  0.23904453914E+02 -0.87640666283E+02 -0.95551864060E+03  0.95982716250E+03  0.50400001928E-02 0. -1.
</event>
<event>
 5   0  0.1818665E-02  0.8085705E+03  0.7818609E-02  0.9547694E-01
       -2   -1    0    0    0  501  0.00000000000E+00  0.00000000000E+00  0.63687016273E+03  0.63687016274E+03  0.25500000920E-02 0. -1.
        2   -1    0    0  501    0  0.00000000000E+00  0.00000000000E+00 -0.25664033100E+03  0.25664033101E+03  0.25500000920E-02 0.  1.
    10030    2    1    2    0    0  0.00000000000E+00  0.00000000000E+00  0.38022983174E+03  0.89351049375E+03  0.80857051486E+03 0.  0.
        3    1    3    3  502    0 -0.75562941320E+02  0.39401298209E+03  0.13496673106E+03  0.42328715649E+03  0.10100000352E+00 0.  1.
       -3    1    3    3    0  502  0.75562941320E+02 -0.39401298209E+03  0.24526310068E+03  0.47022333726E+03  0.10100000352E+00 0. -1.
</event>
<event>
 5   0  0.1817089E-02  0.8136649E+03  0.7818609E-02  0.9540446E-01
       -2   -1    0    0    0  501  0.00000000000E+00  0.00000000000E+00  0.30239254370E+03  0.30239254371E+03  0.25500000920E-02 0.  1.
        2   -1    0    0  501    0  0.00000000000E+00  0.00000000000E+00 -0.54734363185E+03  0.54734363185E+03  0.25500000920E-02 0. -1.
    10030    2    1    2    0    0  0.00000000000E+00  0.00000000000E+00 -0.24495108815E+03  0.84973617556E+03  0.81366487725E+03 0.  0.
        2    1    3    3  502    0  0.15149183758E+03 -0.28019710323E+03  0.14183006264E+03  0.34867744434E+03  0.25500000920E-02 0.  1.
       -2    1    3    3    0  502 -0.15149183758E+03  0.28019710323E+03 -0.38678115080E+03  0.50105873122E+03  0.25500000920E-02 0. -1.
</event>
<event>
 5   0  0.1038912E-02  0.8103686E+03  0.7818609E-02  0.9545129E-01
        1   -1    0    0  501    0  0.00000000000E+00  0.00000000000E+00  0.59760651380E+03  0.59760651383E+03  0.50400001928E-02 0. -1.
       -1   -1    0    0    0  501  0.00000000000E+00  0.00000000000E+00 -0.27471977804E+03  0.27471977809E+03  0.50400001928E-02 0.  1.
    10030    2    1    2    0    0  0.00000000000E+00  0.00000000000E+00  0.32288673576E+03  0.87232629192E+03  0.81036862935E+03 0.  0.
        2    1    3    3  502    0  0.20679703479E+03 -0.95792577687E+01  0.53638024946E+03  0.57494395187E+03  0.25500000920E-02 0. -1.
       -2    1    3    3    0  502 -0.20679703479E+03  0.95792577687E+01 -0.21349351369E+03  0.29738234005E+03  0.25500000920E-02 0.  1.
</event>
<event>
 5   0  0.1673727E-02  0.7948458E+03  0.7818609E-02  0.9567508E-01
       -2   -1    0    0    0  501  0.00000000000E+00  0.00000000000E+00  0.25010841689E+03  0.25010841690E+03  0.25500000920E-02 0.  1.
        2   -1    0    0  501    0  0.00000000000E+00  0.00000000000E+00 -0.63150595977E+03  0.63150595978E+03  0.25500000920E-02 0. -1.
    10030    2    1    2    0    0  0.00000000000E+00  0.00000000000E+00 -0.38139754289E+03  0.88161437668E+03  0.79484578596E+03 0.  0.
        5    1    3    3  502    0 -0.89132108311E+02  0.78732585681E+02 -0.61127458325E+03  0.62275361011E+03  0.46999998093E+01 0. -1.
       -5    1    3    3    0  502  0.89132108311E+02 -0.78732585681E+02  0.22987704037E+03  0.25886076657E+03  0.46999998093E+01 0.  1.
</event>
<event>
 5   0  0.6872500E-03  0.8108507E+03  0.7818609E-02  0.9544443E-01
       -3   -1    0    0    0  501  0.00000000000E+00  0.00000000000E+00  0.11590402655E+03  0.11590407055E+03  0.10100000352E+00 0.  1.
        3   -1    0    0  501    0  0.00000000000E+00  0.00000000000E+00 -0.14181533399E+04  0.14181533435E+04  0.10100000352E+00 0. -1.
    10030    2    1    2    0    0  0.00000000000E+00  0.00000000000E+00 -0.13022493133E+04  0.15340574140E+04  0.81085071096E+03 0.  0.
        4    1    3    3  502    0  0.17708813621E+03  0.24690789897E+03 -0.14331519497E+03  0.33595323569E+03  0.12699999809E+01 0.  1.
       -4    1    3    3    0  502 -0.17708813621E+03 -0.24690789897E+03 -0.11589341183E+04  0.11981041783E+04  0.12699999809E+01 0. -1.
</event>
<event>
 5   0  0.1673727E-02  0.8111322E+03  0.7818609E-02  0.9544042E-01
       -2   -1    0    0    0  501  0.00000000000E+00  0.00000000000E+00  0.25386633415E+03  0.25386633417E+03  0.25500000920E-02 0.  1.
        2   -1    0    0  501    0  0.00000000000E+00  0.00000000000E+00 -0.64791518927E+03  0.64791518927E+03  0.25500000920E-02 0. -1.
    10030    2    1    2    0    0  0.00000000000E+00  0.00000000000E+00 -0.39404885512E+03  0.90178152344E+03  0.81113218146E+03 0.  0.
        5    1    3    3  502    0 -0.16593708775E+02  0.40408304468E+03 -0.16361053320E+03  0.43628998928E+03  0.46999998093E+01 0.  1.
       -5    1    3    3    0  502  0.16593708775E+02 -0.40408304468E+03 -0.23043832192E+03  0.46549153416E+03  0.46999998093E+01 0. -1.
</event>
<event>
 5   0  0.1747544E-02  0.7997915E+03  0.7818609E-02  0.9560319E-01
        2   -1    0    0  501    0  0.00000000000E+00  0.00000000000E+00  0.84550776066E+03  0.84550776066E+03  0.25500000920E-02 0. -1.
       -2   -1    0    0    0  501  0.00000000000E+00  0.00000000000E+00 -0.18913676562E+03  0.18913676563E+03  0.25500000920E-02 0.  1.
    10030    2    1    2    0    0  0.00000000000E+00  0.00000000000E+00  0.65637099504E+03  0.10346445263E+04  0.79979148074E+03 0.  0.
        1    1    3    3  502    0 -0.13159181757E+03  0.33298484096E+03  0.97781596917E+02  0.37115569709E+03  0.50400001928E-02 0. -1.
       -1    1    3    3    0  502  0.13159181757E+03 -0.33298484096E+03  0.55858939813E+03  0.66348882921E+03  0.50400001928E-02 0.  1.
</event>
<event>
 5   0  0.1731337E-02  0.8119505E+03  0.7818609E-02  0.9542879E-01
        2   -1    0    0  501    0  0.00000000000E+00  0.00000000000E+00  0.24037317259E+03  0.24037317261E+03  0.25500000920E-02 0.  1.
       -2   -1    0    0    0  501  0.00000000000E+00  0.00000000000E+00 -0.68566672347E+03  0.68566672348E+03  0.25500000920E-02 0. -1.
    10030    2    1    2    0    0  0.00000000000E+00  0.00000000000E+00 -0.44529355088E+03  0.92603989608E+03  0.81195045581E+03 0.  0.
        4    1    3    3  502    0 -0.53309820875E+02  0.87244175905E+02 -0.67074029517E+03  0.67848923330E+03  0.12699999809E+01 0. -1.
       -4    1    3    3    0  502  0.53309820875E+02 -0.87244175905E+02  0.22544674430E+03  0.24755066279E+03  0.12699999809E+01 0.  1.
</event>
<event>
 5   0  0.1038912E-02  0.8064358E+03  0.7818609E-02  0.9550748E-01
       -1   -1    0    0    0  501  0.00000000000E+00  0.00000000000E+00  0.38799812335E+03  0.38799812338E+03  0.50400001928E-02 0.  1.
        1   -1    0    0  501    0  0.00000000000E+00  0.00000000000E+00 -0.41903471701E+03  0.41903471704E+03  0.50400001928E-02 0. -1.
    10030    2    1    2    0    0  0.00000000000E+00  0.00000000000E+00 -0.31036593659E+02  0.80703284042E+03  0.80643582223E+03 0.  0.
        2    1    3    3  502    0 -0.12323116934E+03 -0.27378488451E+03 -0.28486546589E+03  0.41387488175E+03  0.25500000920E-02 0.  1.
       -2    1    3    3    0  502  0.12323116934E+03  0.27378488451E+03  0.25382887223E+03  0.39315795867E+03  0.25500000920E-02 0. -1.
</event>
<event>
 5   0  0.1038912E-02  0.8045801E+03  0.7818609E-02  0.9553411E-01
       -1   -1    0    0    0  501  0.00000000000E+00  0.00000000000E+00  0.24251838889E+03  0.24251838894E+03  0.50400001928E-02 0.  1.
        1   -1    0    0  501    0  0.00000000000E+00  0.00000000000E+00 -0.66731959759E+03  0.66731959760E+03  0.50400001928E-02 0. -1.
    10030    2    1    2    0    0  0.00000000000E+00  0.00000000000E+00 -0.42480120870E+03  0.90983798655E+03  0.80458007361E+03 0.  0.
        2    1    3    3  502    0 -0.37535973609E+03 -0.84398297338E+02 -0.79466217180E+02  0.39285224163E+03  0.25500000920E-02 0. -1.
       -2    1    3    3    0  502  0.37535973609E+03  0.84398297338E+02 -0.34533499152E+03  0.51698574492E+03  0.25500000920E-02 0.  1.
</event>
<event>
 5   0  0.1673727E-02  0.6985166E+03  0.7818609E-02  0.9719772E-01
       -2   -1    0    0    0  501  0.00000000000E+00  0.00000000000E+00  0.37377055304E+03  0.37377055305E+03  0.25500000920E-02 0.  1.
        2   -1    0    0  501    0  0.00000000000E+00  0.00000000000E+00 -0.32635358507E+03  0.32635358508E+03  0.25500000920E-02 0. -1.
    10030    2    1    2    0    0  0.00000000000E+00  0.00000000000E+00  0.47416967971E+02  0.70012413813E+03  0.69851659962E+03 0.  0.
        5    1    3    3  502    0 -0.33436365326E+03 -0.38150957326E+02  0.11722229757E+03  0.35639543377E+03  0.46999998093E+01 0.  1.
       -5    1    3    3    0  502  0.33436365326E+03  0.38150957326E+02 -0.69805329600E+02  0.34372870437E+03  0.46999998093E+01 0. -1.
</event>
<event>
 5   0  0.1818665E-02  0.8022012E+03  0.7818609E-02  0.9556836E-01
        2   -1    0    0  501    0  0.00000000000E+00  0.00000000000E+00  0.11032928890E+04  0.11032928890E+04  0.25500000920E-02 0. -1.
       -2   -1    0    0    0  501  0.00000000000E+00  0.00000000000E+00 -0.14581957710E+03  0.14581957713E+03  0.25500000920E-02 0.  1.
    10030    2    1    2    0    0  0.00000000000E+00  0.00000000000E+00  0.95747331191E+03  0.12491124661E+04  0.80220122791E+03 0.  0.
        3    1    3    3  502    0 -0.23289466799E+03  0.31650758982E+03  0.60393333101E+03  0.72052235170E+03  0.10100000352E+00 0. -1.
       -3    1    3    3    0  502  0.23289466799E+03 -0.31650758982E+03  0.35353998091E+03  0.52859011445E+03  0.10100000352E+00 0.  1.
</event>
<event>
 5   0  0.1038912E-02  0.8020380E+03  0.7818609E-02  0.9557072E-01
       -1   -1    0    0    0  501  0.00000000000E+00  0.00000000000E+00  0.19392324157E+03  0.19392324164E+03  0.50400001928E-02 0. -1.
        1   -1    0    0  501    0  0.00000000000E+00  0.00000000000E+00 -0.82927778021E+03  0.82927778023E+03  0.50400001928E-02 0.  1.
    10030    2    1    2    0    0  0.00000000000E+00  0.00000000000E+00 -0.63535453864E+03  0.10232010219E+04  0.80203799248E+03 0.  0.
        2    1    3    3  502    0 -0.34752521782E+02  0.12939090406E+03  0.16452718044E+03  0.21217666444E+03  0.25500000920E-02 0. -1.
       -2    1    3    3    0  502  0.34752521782E+02 -0.12939090406E+03 -0.79988171908E+03  0.81102435743E+03  0.25500000920E-02 0.  1.
</event>
<event>
 5   0  0.1731337E-02  0.8106583E+03  0.7818609E-02  0.9544717E-01
        2   -1    0    0  501    0  0.00000000000E+00  0.00000000000E+00  0.23448698073E+03  0.23448698075E+03  0.25500000920E-02 0. -1.
       -2   -1    0    0    0  501  0.00000000000E+00  0.00000000000E+00 -0.70064318906E+03  0.70064318906E+03  0.25500000920E-02 0.  1.
    10030    2    1    2    0    0  0.00000000000E+00  0.00000000000E+00 -0.46615620833E+03  0.93513016981E+03  0.81065826581E+03 0.  0.
        4    1    3    3  502    0 -0.15702309220E+03  0.74366593153E+02  0.18935138803E+03  0.25698677536E+03  0.12699999809E+01 0. -1.
       -4    1    3    3    0  502  0.15702309220E+03 -0.74366593153E+02 -0.65550759636E+03  0.67814339445E+03  0.12699999809E+01 0.  1.
</event>
<event>
 5   0  0.1038912E-02  0.8081364E+03  0.7818609E-02  0.9548314E-01
       -1   -1    0    0    0  501  0.00000000000E+00  0.00000000000E+00  0.48259000721E+03  0.48259000723E+03  0.50400001928E-02 0. -1.
        1   -1    0    0  501    0  0.00000000000E+00  0.00000000000E+00 -0.33832259785E+03  0.33832259789E+03  0.50400001928E-02 0.  1.
    10030    2    1    2    0    0  0.00000000000E+00  0.00000000000E+00  0.14426740936E+03  0.82091260512E+03  0.80813638691E+03 0.  0.
        2    1    3    3  502    0  0.27835610746E+03  0.21156871848E+03 -0.13362140789E+03  0.37429684190E+03  0.25500000920E-02 0.  1.
       -2    1    3    3    0  502 -0.27835610746E+03 -0.21156871848E+03  0.27788881725E+03  0.44661576322E+03  0.25500000920E-02 0. -1.
</event>
<event>
 5   0  0.1030323E-02  0.7772361E+03  0.7818609E-02  0.9593564E-01
       -1   -1    0    0    0  501  0.00000000000E+00  0.00000000000E+00  0.18106246266E+03  0.18106246273E+03  0.50400001928E-02 0.  1.
        1   -1    0    0  501    0  0.00000000000E+00  0.00000000000E+00 -0.83409884228E+03  0.83409884229E+03  0.50400001928E-02 0. -1.
    10030    2    1    2    0    0  0.00000000000E+00  0.00000000000E+00 -0.65303637962E+03  0.10151613050E+04  0.77723610448E+03 0.  0.
        3    1    3    3  502    0  0.17830802491E+03 -0.22532614844E+03  0.15221420474E+02  0.28774524628E+03  0.10100000352E+00 0.  1.
       -3    1    3    3    0  502 -0.17830802491E+03  0.22532614844E+03 -0.66825780009E+03  0.72741605873E+03  0.10100000352E+00 0. -1.
</event>
<event>
 5   0  0.1747544E-02  0.8071629E+03  0.7818609E-02  0.9549707E-01
        2   -1    0    0  501    0  0.00000000000E+00  0.00000000000E+00  0.54656453467E+03  0.54656453468E+03  0.25500000920E-02 0.  1.
       -2   -1    0    0    0  501  0.00000000000E+00  0.00000000000E+00 -0.29800319177E+03  0.29800319178E+03  0.25500000920E-02 0. -1.
    10030    2    1    2    0    0  0.00000000000E+00  0.00000000000E+00  0.24856134290E+03  0.84456772645E+03  0.80716287290E+03 0.  0.
        1    1    3    3  502    0  0.39737556609E+03  0.48070373547E+02  0.17824463941E+03  0.43816578237E+03  0.50400001928E-02 0. -1.
       -1    1    3    3    0  502 -0.39737556609E+03 -0.48070373547E+02  0.70316703496E+02  0.40640194408E+03  0.50400001928E-02 0.  1.
</event>
<event>
 5   0  0.1038912E-02  0.7600940E+03  0.7818609E-02  0.9619646E-01
        1   -1    0    0  501    0  0.00000000000E+00  0.00000000000E+00  0.71779714370E+03  0.71779714372E+03  0.50400001928E-02 0. -1.
       -1   -1    0    0    0  501  0.00000000000E+00  0.00000000000E+00 -0.20122080148E+03  0.20122080154E+03  0.50400001928E-02 0.  1.
    10030    2    1    2    0    0  0.00000000000E+00  0.00000000000E+00  0.51657634223E+03  0.91901794526E+03  0.76009398522E+03 0.  0.
        2    1    3    3  502    0  0.33009303722E+03  0.18833766358E+03  0.26046043612E+03  0.46072999418E+03  0.25500000920E-02 0. -1.
       -2    1    3    3    0  502 -0.33009303722E+03 -0.18833766358E+03  0.25611590610E+03  0.45828795108E+03  0.25500000920E-02 0.  1.
</event>
<event>
 5   0  0.1747544E-02  0.8069815E+03  0.7818609E-02  0.9549966E-01
        2   -1    0    0  501    0  0.00000000000E+00  0.00000000000E+00  0.37954378099E+03  0.37954378100E+03  0.25500000920E-02 0. -1.
       -2   -1    0    0    0  501  0.00000000000E+00  0.00000000000E+00 -0.42894865092E+03  0.42894865093E+03  0.25500000920E-02 0.  1.
    10030    2    1    2    0    0  0.00000000000E+00  0.00000000000E+00 -0.49404869928E+02  0.80849243193E+03  0.80698151857E+03 0.  0.
        1    1    3    3  502    0  0.38656563698E+03  0.48413683316E+02 -0.12991293930E+03  0.41067535627E+03  0.50400001928E-02 0.  1.
       -1    1    3    3    0  502 -0.38656563698E+03 -0.48413683316E+02  0.80508069375E+02  0.39781707566E+03  0.50400001928E-02 0. -1.
</event>
<event>
 5   0  0.1818665E-02  0.7928841E+03  0.7818609E-02  0.9570375E-01
       -2   -1    0    0    0  501  0.00000000000E+00  0.00000000000E+00  0.47032459529E+03  0.47032459529E+03  0.25500000920E-02 0.  1.
        2   -1    0    0  501    0  0.00000000000E+00  0.00000000000E+00 -0.33416556015E+03  0.33416556016E+03  0.25500000920E-02 0. -1.
    10030    2    1    2    0    0  0.00000000000E+00  0.00000000000E+00  0.13615903514E+03  0.80449015545E+03  0.79288405670E+03 0.  0.
        3    1    3    3  502    0  0.26755954361E+03 -0.29104726720E+03  0.98001022258E+02  0.40730925804E+03  0.10100000352E+00 0. -1.
       -3    1    3    3    0  502 -0.26755954361E+03  0.29104726720E+03  0.38158012881E+02  0.39718089741E+03  0.10100000352E+00 0.  1.
</event>
<event>
 5   0  0.1025900E-02  0.7907640E+03  0.7818609E-02  0.9573483E-01
       -1   -1    0    0    0  501  0.00000000000E+00  0.00000000000E+00  0.19903845464E+03  0.19903845470E+03  0.50400001928E-02 0.  1.
        1   -1    0    0  501    0  0.00000000000E+00  0.00000000000E+00 -0.78541067731E+03  0.78541067732E+03  0.50400001928E-02 0. -1.
    10030    2    1    2    0    0  0.00000000000E+00  0.00000000000E+00 -0.58637222267E+03  0.98444913203E+03  0.79076400401E+03 0.  0.
        1    1    3    3  502    0  0.41132315134E+02 -0.20489077837E+03  0.12466474363E+03  0.24333802978E+03  0.50400001928E-02 0.  1.
       -1    1    3    3    0  502 -0.41132315134E+02  0.20489077837E+03 -0.71103696629E+03  0.74111110224E+03  0.50400001928E-02 0. -1.
</event>
<event>
 5   0  0.1025900E-02  0.7926446E+03  0.7818609E-02  0.9570725E-01
        1   -1    0    0  501    0  0.00000000000E+00  0.00000000000E+00  0.31201826181E+03  0.31201826185E+03  0.50400001928E-02 0. -1.
       -1   -1    0    0    0  501  0.00000000000E+00  0.00000000000E+00 -0.50340445639E+03  0.50340445642E+03  0.50400001928E-02 0.  1.
    10030    2    1    2    0    0  0.00000000000E+00  0.00000000000E+00 -0.19138619458E+03  0.81542271827E+03  0.79264464547E+03 0.  0.
        1    1    3    3  502    0  0.39533762369E+03  0.25931575925E+02 -0.85046782868E+02  0.40521258450E+03  0.50400001928E-02 0.  1.
       -1    1    3    3    0  502 -0.39533762369E+03 -0.25931575925E+02 -0.10633941171E+03  0.41021013377E+03  0.50400001928E-02 0. -1.
</event>
<event>
 5   0  0.1747544E-02  0.7969225E+03  0.7818609E-02  0.9564482E-01
       -2   -1    0    0    0  501  0.00000000000E+00  0.00000000000E+00  0.28586426539E+03  0.28586426540E+03  0.25500000920E-02 0.  1.
        2   -1    0    0  501    0  0.00000000000E+00  0.00000000000E+00 -0.55540829189E+03  0.55540829189E+03  0.25500000920E-02 0. -1.
    10030    2    1    2    0    0  0.00000000000E+00  0.00000000000E+00 -0.26954402650E+03  0.84127255729E+03  0.79692253917E+03 0.  0.
        1    1    3    3  502    0  0.28863050440E+03  0.34884109044E+02 -0.42241899174E+03  0.51279847284E+03  0.50400001928E-02 0. -1.
       -1    1    3    3    0  502 -0.28863050440E+03 -0.34884109044E+02  0.15287496524E+03  0.32847408446E+03  0.50400001928E-02 0.  1.
</event>
<event>
 5   0  0.1038912E-02  0.7914714E+03  0.7818609E-02  0.9572445E-01
       -1   -1    0    0    0  501  0.00000000000E+00  0.00000000000E+00  0.22184364621E+03  0.22184364627E+03  0.50400001928E-02 0.  1.
        1   -1    0    0  501    0  0.00000000000E+00  0.00000000000E+00 -0.70593295337E+03  0.70593295339E+03  0.50400001928E-02 0. -1.
    10030    2    1    2    0    0  0.00000000000E+00  0.00000000000E+00 -0.48408930716E+03  0.92777659966E+03  0.79147139024E+03 0.  0.
        2    1    3    3  502    0  0.99453663049E+02 -0.38166803027E+02 -0.68881025301E+03  0.69699878092E+03  0.25500000920E-02 0. -1.
       -2    1    3    3    0  502 -0.99453663049E+02  0.38166803027E+02  0.20472094585E+03  0.23077781874E+03  0.25500000920E-02 0.  1.
</event>
<event>
 5   0  0.1025900E-02  0.7941547E+03  0.7818609E-02  0.9568517E-01
        1   -1    0    0  501    0  0.00000000000E+00  0.00000000000E+00  0.15737536493E+03  0.15737536501E+03  0.50400001928E-02 0.  1.
       -1   -1    0    0    0  501  0.00000000000E+00  0.00000000000E+00 -0.10018748320E+04  0.10018748320E+04  0.50400001928E-02 0. -1.
    10030    2    1    2    0    0  0.00000000000E+00  0.00000000000E+00 -0.84449946710E+03  0.11592501970E+04  0.79415468860E+03 0.  0.
        1    1    3    3  502    0 -0.24038788682E+03  0.24028898660E+03 -0.12257745701E+03  0.36131754207E+03  0.50400001928E-02 0.  1.
       -1    1    3    3    0  502  0.24038788682E+03 -0.24028898660E+03 -0.72192201009E+03  0.79793265498E+03  0.50400001928E-02 0. -1.
</event>
<event>
 5   0  0.1818665E-02  0.8397889E+03  0.7818609E-02  0.9504145E-01
       -2   -1    0    0    0  501  0.00000000000E+00  0.00000000000E+00  0.82628904771E+02  0.82628904810E+02  0.25500000920E-02 0.  1.
        2   -1    0    0  501    0  0.00000000000E+00  0.00000000000E+00 -0.21337733505E+04  0.21337733505E+04  0.25500000920E-02 0. -1.
    10030    2    1    2    0    0  0.00000000000E+00  0.00000000000E+00 -0.20511444457E+04  0.22164022553E+04  0.83978891401E+03 0.  0.
        3    1    3    3  502    0  0.20425511329E+03 -0.29190048876E+03 -0.43905970410E+03  0.56541973843E+03  0.10100000352E+00 0.  1.
       -3    1    3    3    0  502 -0.20425511329E+03  0.29190048876E+03 -0.16120847416E+04  0.16509825169E+04  0.10100000352E+00 0. -1.
</event>
<event>
 5   0  0.1146083E-02  0.7968798E+03  0.7818609E-02  0.9564544E-01
       -1   -1    0    0    0  501  0.00000000000E+00  0.00000000000E+00  0.83965966340E+02  0.83965966491E+02  0.50400001928E-02 0. -1.
        1   -1    0    0  501    0  0.00000000000E+00  0.00000000000E+00 -0.18906990443E+04  0.18906990443E+04  0.50400001928E-02 0.  1.
    10030    2    1    2    0    0  0.00000000000E+00  0.00000000000E+00 -0.18067330779E+04  0.19746650108E+04  0.79687984657E+03 0.  0.
        4    1    3    3  502    0  0.18396067386E+03  0.31267243454E+03 -0.49508199599E+03  0.61376980742E+03  0.12699999809E+01 0. -1.
       -4    1    3    3    0  502 -0.18396067386E+03 -0.31267243454E+03 -0.13116510819E+04  0.13608952034E+04  0.12699999809E+01 0.  1.
</event>
<event>
 5   0  0.1025900E-02  0.8460302E+03  0.7818609E-02  0.9495681E-01
       -1   -1    0    0    0  501  0.00000000000E+00  0.00000000000E+00  0.12096080913E+03  0.12096080923E+03  0.50400001928E-02 0. -1.
        1   -1    0    0  501    0  0.00000000000E+00  0.00000000000E+00 -0.14793366632E+04  0.14793366632E+04  0.50400001928E-02 0.  1.
    10030    2    1    2    0    0  0.00000000000E+00  0.00000000000E+00 -0.13583758540E+04  0.16002974724E+04  0.84603016457E+03 0.  0.
        1    1    3    3  502    0 -0.20685593335E+03  0.31435506032E+03 -0.10446673560E+04  0.11103775781E+04  0.50400001928E-02 0.  1.
       -1    1    3    3    0  502  0.20685593335E+03 -0.31435506032E+03 -0.31370849800E+03  0.48991989432E+03  0.50400001928E-02 0. -1.
</event>
<event>
 5   0  0.1146083E-02  0.7899187E+03  0.7818609E-02  0.9574725E-01
        1   -1    0    0  501    0  0.00000000000E+00  0.00000000000E+00  0.10330188847E+04  0.10330188847E+04  0.50400001928E-02 0.  1.
       -1   -1    0    0    0  501  0.00000000000E+00  0.00000000000E+00 -0.15100681008E+03  0.15100681016E+03  0.50400001928E-02 0. -1.
    10030    2    1    2    0    0  0.00000000000E+00  0.00000000000E+00  0.88201207464E+03  0.11840256949E+04  0.78991869604E+03 0.  0.
        4    1    3    3  502    0  0.35125856074E+03 -0.15016515058E+03  0.59134059749E+03  0.70400103983E+03  0.12699999809E+01 0. -1.
       -4    1    3    3    0  502 -0.35125856074E+03  0.15016515058E+03  0.29067147715E+03  0.48002465506E+03  0.12699999809E+01 0.  1.
</event>
<event>
 5   0  0.1817089E-02  0.8250389E+03  0.7818609E-02  0.9524465E-01
        2   -1    0    0  501    0  0.00000000000E+00  0.00000000000E+00  0.56379180693E+03  0.56379180694E+03  0.25500000920E-02 0.  1.
       -2   -1    0    0    0  501  0.00000000000E+00  0.00000000000E+00 -0.30183536562E+03  0.30183536564E+03  0.25500000920E-02 0. -1.
    10030    2    1    2    0    0  0.00000000000E+00  0.00000000000E+00  0.26195644131E+03  0.86562717257E+03  0.82503892317E+03 0.  0.
        2    1    3    3  502    0 -0.37317184400E+03  0.14679078676E+03  0.29430691896E+02  0.40208323250E+03  0.25500000920E-02 0. -1.
       -2    1    3    3    0  502  0.37317184400E+03 -0.14679078676E+03  0.23252574941E+03  0.46354394007E+03  0.25500000920E-02 0.  1.
</event>
<event>
 5   0  0.1731337E-02  0.7978654E+03  0.7818609E-02  0.9563112E-01
        2   -1    0    0  501    0  0.00000000000E+00  0.00000000000E+00  0.31699529278E+03  0.31699529279E+03  0.25500000920E-02 0.  1.
       -2   -1    0    0    0  501  0.00000000000E+00  0.00000000000E+00 -0.50204937900E+03  0.50204937900E+03  0.25500000920E-02 0. -1.
    10030    2    1    2    0    0  0.00000000000E+00  0.00000000000E+00 -0.18505408621E+03  0.81904467180E+03  0.79786537685E+03 0.  0.
        4    1    3    3  502    0 -0.23130994353E+03 -0.22506986653E+03 -0.33324021545E+03  0.46390881527E+03  0.12699999809E+01 0. -1.
       -4    1    3    3    0  502  0.23130994353E+03  0.22506986653E+03  0.14818612923E+03  0.35513585653E+03  0.12699999809E+01 0.  1.
</event>
<event>
 5   0  0.1818665E-02  0.7967450E+03  0.7818609E-02  0.9564741E-01
       -2   -1    0    0    0  501  0.00000000000E+00  0.00000000000E+00  0.10116855673E+03  0.10116855676E+03  0.25500000920E-02 0.  1.
        2   -1    0    0  501    0  0.00000000000E+00  0.00000000000E+00 -0.15686757065E+04  0.15686757065E+04  0.25500000920E-02 0. -1.
    10030    2    1    2    0    0  0.00000000000E+00  0.00000000000E+00 -0.14675071498E+04  0.16698442633E+04  0.79674502127E+03 0.  0.
        3    1    3    3  502    0 -0.12860255276E+03 -0.37498030825E+03 -0.65119269224E+03  0.76236525418E+03  0.10100000352E+00 0. -1.
       -3    1    3    3    0  502  0.12860255276E+03  0.37498030825E+03 -0.81631445756E+03  0.90747900911E+03  0.10100000352E+00 0.  1.
</event>
<event>
 5   0  0.1030323E-02  0.8021149E+03  0.7818609E-02  0.9556961E-01
        1   -1    0    0  501    0  0.00000000000E+00  0.00000000000E+00  0.22597525779E+03  0.22597525785E+03  0.50400001928E-02 0. -1.
       -1   -1    0    0    0  501  0.00000000000E+00  0.00000000000E+00 -0.71179066911E+03  0.71179066913E+03  0.50400001928E-02 0.  1.
    10030    2    1    2    0    0  0.00000000000E+00  0.00000000000E+00 -0.48581541132E+03  0.93776592698E+03  0.80211490444E+03 0.  0.
        3    1    3    3  502    0 -0.11293280212E+03 -0.35645480405E+03 -0.73352630778E+02  0.38104391317E+03  0.10100000352E+00 0. -1.
       -3    1    3    3    0  502  0.11293280212E+03  0.35645480405E+03 -0.41246278054E+03  0.55672201380E+03  0.10100000352E+00 0.  1.
</event>
<event>
 5   0  0.1673727E-02  0.7997157E+03  0.7818609E-02  0.9560429E-01
        2   -1    0    0  501    0  0.00000000000E+00  0.00000000000E+00  0.21910724904E+03  0.21910724905E+03  0.25500000920E-02 0. -1.
       -2   -1    0    0    0  501  0.00000000000E+00  0.00000000000E+00 -0.72971710071E+03  0.72971710072E+03  0.25500000920E-02 0.  1.
    10030    2    1    2    0    0  0.00000000000E+00  0.00000000000E+00 -0.51060985167E+03  0.94882434977E+03  0.79971571580E+03 0.  0.
        5    1    3    3  502    0  0.84706491932E+02  0.36568861554E+03 -0.41867753435E+03  0.56233114895E+03  0.46999998093E+01 0.  1.
       -5    1    3    3    0  502 -0.84706491932E+02 -0.36568861554E+03 -0.91932317320E+02  0.38649320082E+03  0.46999998093E+01 0. -1.
</event>
<event>
 5   0  0.6872500E-03  0.8069519E+03  0.7818609E-02  0.9550009E-01
       -3   -1    0    0    0  501  0.00000000000E+00  0.00000000000E+00  0.37952486076E+03  0.37952487420E+03  0.10100000352E+00 0.  1.
        3   -1    0    0  501    0  0.00000000000E+00  0.00000000000E+00 -0.42893847161E+03  0.42893848350E+03  0.10100000352E+00 0. -1.
    10030    2    1    2    0    0  0.00000000000E+00  0.00000000000E+00 -0.49413610847E+02  0.80846335770E+03  0.80695185470E+03 0.  0.
        5    1    3    3  502    0 -0.33740312279E+03  0.72186768612E+02 -0.23418919264E+03  0.41703532797E+03  0.46999998093E+01 0. -1.
       -5    1    3    3    0  502  0.33740312279E+03 -0.72186768612E+02  0.18477558179E+03  0.39142802973E+03  0.46999998093E+01 0.  1.
</event>
<event>
 5   0  0.1817089E-02  0.7865066E+03  0.7818609E-02  0.9579756E-01
        2   -1    0    0  501    0  0.00000000000E+00  0.00000000000E+00  0.75375534441E+03  0.75375534441E+03  0.25500000920E-02 0. -1.
       -2   -1    0    0    0  501  0.00000000000E+00  0.00000000000E+00 -0.20517024056E+03  0.20517024057E+03  0.25500000920E-02 0.  1.
    10030    2    1    2    0    0  0.00000000000E+00  0.00000000000E+00  0.54858510385E+03  0.95892558499E+03  0.78650661878E+03 0.  0.
        2    1    3    3  502    0 -0.67156132200E+02 -0.63681367349E+02 -0.19170348078E+03  0.21287434601E+03  0.25500000920E-02 0.  1.
       -2    1    3    3    0  502  0.67156132200E+02  0.63681367349E+02  0.74028858463E+03  0.74605123898E+03  0.25500000920E-02 0. -1.
</event>
<event>
 5   0  0.1030323E-02  0.8208124E+03  0.7818609E-02  0.9530371E-01
       -1   -1    0    0    0  501  0.00000000000E+00  0.00000000000E+00  0.16112872491E+03  0.16112872499E+03  0.50400001928E-02 0. -1.
        1   -1    0    0  501    0  0.00000000000E+00  0.00000000000E+00 -0.10453334879E+04  0.10453334879E+04  0.50400001928E-02 0.  1.
    10030    2    1    2    0    0  0.00000000000E+00  0.00000000000E+00 -0.88420476300E+03  0.12064622129E+04  0.82081240749E+03 0.  0.
        3    1    3    3  502    0 -0.13449861330E+03  0.35315457725E+03 -0.67739241060E+03  0.77567294690E+03  0.10100000352E+00 0.  1.
       -3    1    3    3    0  502  0.13449861330E+03 -0.35315457725E+03 -0.20681235241E+03  0.43078926603E+03  0.10100000352E+00 0. -1.
</event>
<event>
 5   0  0.1673727E-02  0.7742513E+03  0.7818609E-02  0.9598054E-01
       -2   -1    0    0    0  501  0.00000000000E+00  0.00000000000E+00  0.43307969525E+03  0.43307969525E+03  0.25500000920E-02 0.  1.
        2   -1    0    0  501    0  0.00000000000E+00  0.00000000000E+00 -0.34604777952E+03  0.34604777953E+03  0.25500000920E-02 0. -1.
    10030    2    1    2    0    0  0.00000000000E+00  0.00000000000E+00  0.87031915724E+02  0.77912747478E+03  0.77425129487E+03 0.  0.
        5    1    3    3  502    0  0.38687247241E+02  0.18256607116E+03  0.38479356432E+03  0.42768592515E+03  0.46999998093E+01 0.  1.
       -5    1    3    3    0  502 -0.38687247241E+02 -0.18256607116E+03 -0.29776164859E+03  0.35144154963E+03  0.46999998093E+01 0. -1.
</event>
<event>
 5   0  0.1049780E-02  0.8089703E+03  0.7818609E-02  0.9547123E-01
        1   -1    0    0  501    0  0.00000000000E+00  0.00000000000E+00  0.83727798826E+03  0.83727798828E+03  0.50400001928E-02 0.  1.
       -1   -1    0    0    0  501  0.00000000000E+00  0.00000000000E+00 -0.19540492513E+03  0.19540492520E+03  0.50400001928E-02 0. -1.
    10030    2    1    2    0    0  0.00000000000E+00  0.00000000000E+00  0.64187306313E+03  0.10326829135E+04  0.80897031504E+03 0.  0.
        5    1    3    3  502    0  0.60590355069E+02  0.23062545329E+03  0.73797035102E+03  0.77555246103E+03  0.46999998093E+01 0.  1.
       -5    1    3    3    0  502 -0.60590355069E+02 -0.23062545329E+03 -0.96097287894E+02  0.25713045244E+03  0.46999998093E+01 0. -1.
</event>
<event>
 5   0  0.1673727E-02  0.7987052E+03  0.7818609E-02  0.9561893E-01
        2   -1    0    0  501    0  0.00000000000E+00  0.00000000000E+00  0.17130907099E+04  0.17130907099E+04  0.25500000920E-02 0.  1.
       -2   -1    0    0    0  501  0.00000000000E+00  0.00000000000E+00 -0.93096354631E+02  0.93096354666E+02  0.25500000920E-02 0. -1.
    10030    2    1    2    0    0  0.00000000000E+00  0.00000000000E+00  0.16199943552E+04  0.18061870645E+04  0.79870520288E+03 0.  0.
        5    1    3    3  502    0 -0.11886447409E+03 -0.53548683969E+02 -0.43553013490E+02  0.13753246794E+03  0.46999998093E+01 0. -1.
       -5    1    3    3    0  502  0.11886447409E+03  0.53548683969E+02  0.16635473687E+04  0.16686545966E+04  0.46999998093E+01 0.  1.
</event>
<event>
 5   0  0.1747544E-02  0.7955158E+03  0.7818609E-02  0.9566531E-01
        2   -1    0    0  501    0  0.00000000000E+00  0.00000000000E+00  0.46440062527E+03  0.46440062528E+03  0.25500000920E-02 0. -1.
       -2   -1    0    0    0  501  0.00000000000E+00  0.00000000000E+00 -0.34067858520E+03  0.34067858521E+03  0.25500000920E-02 0.  1.
    10030    2    1    2    0    0  0.00000000000E+00  0.00000000000E+00  0.12372204008E+03  0.80507921049E+03  0.79551580245E+03 0.  0.
        1    1    3    3  502    0  0.36743391954E+02 -0.31436879602E+03 -0.18193650895E+03  0.36507356804E+03  0.50400001928E-02 0.  1.
       -1    1    3    3    0  502 -0.36743391954E+02  0.31436879602E+03  0.30565854903E+03  0.44000564245E+03  0.50400001928E-02 0. -1.
</event>
<event>
 5   0  0.1731337E-02  0.7897202E+03  0.7818609E-02  0.9575017E-01
        2   -1    0    0  501    0  0.00000000000E+00  0.00000000000E+00  0.66971536723E+03  0.66971536723E+03  0.25500000920E-02 0. -1.
       -2   -1    0    0    0  501  0.00000000000E+00  0.00000000000E+00 -0.23280710339E+03  0.23280710340E+03  0.25500000920E-02 0.  1.
    10030    2    1    2    0    0  0.00000000000E+00  0.00000000000E+00  0.43690826384E+03  0.90252247063E+03  0.78972019031E+03 0.  0.
        4    1    3    3  502    0  0.28362789111E+03  0.90322646898E+02  0.51495387508E+03  0.59479582003E+03  0.12699999809E+01 0. -1.
       -4    1    3    3    0  502 -0.28362789111E+03 -0.90322646898E+02 -0.78045611246E+02  0.30772665061E+03  0.12699999809E+01 0.  1.
</event>
<event>
 5   0  0.1030323E-02  0.8204593E+03  0.7818609E-02  0.9530866E-01
       -1   -1    0    0    0  501  0.00000000000E+00  0.00000000000E+00  0.44226014330E+03  0.44226014333E+03  0.50400001928E-02 0.  1.
        1   -1    0    0  501    0  0.00000000000E+00  0.00000000000E+00 -0.38051893388E+03  0.38051893391E+03  0.50400001928E-02 0. -1.
    10030    2    1    2    0    0  0.00000000000E+00  0.00000000000E+00  0.61741209420E+02  0.82277907724E+03  0.82045928175E+03 0.  0.
        3    1    3    3  502    0  0.39875826959E+03 -0.80478527677E+02  0.83967425028E+02  0.41537391546E+03  0.10100000352E+00 0. -1.
       -3    1    3    3    0  502 -0.39875826959E+03  0.80478527677E+02 -0.22226215608E+02  0.40740516178E+03  0.10100000352E+00 0.  1.
</event>
<event>
 5   0  0.1146083E-02  0.8025177E+03  0.7818609E-02  0.9556380E-01
       -1   -1    0    0    0  501  0.00000000000E+00  0.00000000000E+00  0.79130447865E+03  0.79130447866E+03  0.50400001928E-02 0. -1.
        1   -1    0    0  501    0  0.00000000000E+00  0.00000000000E+00 -0.20347245109E+03  0.20347245116E+03  0.50400001928E-02 0.  1.
    10030    2    1    2    0    0  0.00000000000E+00  0.00000000000E+00  0.58783202755E+03  0.99477692982E+03  0.80251769294E+03 0.  0.
        4    1    3    3  502    0  0.23511427825E+03 -0.46060412613E+02 -0.10507686325E+03  0.26161621803E+03  0.12699999809E+01 0.  1.
       -4    1    3    3    0  502 -0.23511427825E+03  0.46060412613E+02  0.69290889081E+03  0.73316071179E+03  0.12699999809E+01 0. -1.
</event>
<event>
 5   0  0.1747544E-02  0.8065855E+03  0.7818609E-02  0.9550533E-01
       -2   -1    0    0    0  501  0.00000000000E+00  0.00000000000E+00  0.40965447750E+03  0.40965447751E+03  0.25500000920E-02 0.  1.
        2   -1    0    0  501    0  0.00000000000E+00  0.00000000000E+00 -0.39702983124E+03  0.39702983125E+03  0.25500000920E-02 0. -1.
    10030    2    1    2    0    0  0.00000000000E+00  0.00000000000E+00  0.12624646261E+02  0.80668430876E+03  0.80658551457E+03 0.  0.
        1    1    3    3  502    0 -0.18691545409E+03  0.97626689942E+02  0.35012279690E+03  0.40872280399E+03  0.50400001928E-02 0.  1.
       -1    1    3    3    0  502  0.18691545409E+03 -0.97626689942E+02 -0.33749815064E+03  0.39796150477E+03  0.50400001928E-02 0. -1.
</event>
<event>
 5   0  0.1025900E-02  0.7990041E+03  0.7818609E-02  0.9561460E-01
        1   -1    0    0  501    0  0.00000000000E+00  0.00000000000E+00  0.63060054227E+03  0.63060054229E+03  0.50400001928E-02 0.  1.
       -1   -1    0    0    0  501  0.00000000000E+00  0.00000000000E+00 -0.25309504779E+03  0.25309504784E+03  0.50400001928E-02 0. -1.
    10030    2    1    2    0    0  0.00000000000E+00  0.00000000000E+00  0.37750549448E+03  0.88369559013E+03  0.79900406610E+03 0.  0.
        1    1    3    3  502    0  0.17411302920E+01 -0.30345870422E+03  0.47612384318E+03  0.56460971544E+03  0.50400001928E-02 0.  1.
       -1    1    3    3    0  502 -0.17411302920E+01  0.30345870422E+03 -0.98618348696E+02  0.31908587469E+03  0.50400001928E-02 0. -1.
</event>
<event>
 5   0  0.1731337E-02  0.7892508E+03  0.7818609E-02  0.9575708E-01
       -2   -1    0    0    0  501  0.00000000000E+00  0.00000000000E+00  0.19969170502E+03  0.19969170504E+03  0.25500000920E-02 0. -1.
        2   -1    0    0  501    0  0.00000000000E+00  0.00000000000E+00 -0.77984807154E+03  0.77984807154E+03  0.25500000920E-02 0.  1.
    10030    2    1    2    0    0  0.00000000000E+00  0.00000000000E+00 -0.58015636652E+03  0.97953977658E+03  0.78925076136E+03 0.  0.
        4    1    3    3  502    0  0.14902870390E+03 -0.35958034554E+03 -0.37070197607E+03  0.53752129952E+03  0.12699999809E+01 0.  1.
       -4    1    3    3    0  502 -0.14902870390E+03  0.35958034554E+03 -0.20945439045E+03  0.44201847706E+03  0.12699999809E+01 0. -1.
</event>
<event>
 5   0  0.1673727E-02  0.7782938E+03  0.7818609E-02  0.9591978E-01
       -2   -1    0    0    0  501  0.00000000000E+00  0.00000000000E+00  0.34056032259E+03  0.34056032260E+03  0.25500000920E-02 0.  1.
        2   -1    0    0  501    0  0.00000000000E+00  0.00000000000E+00 -0.44466515468E+03  0.44466515468E+03  0.25500000920E-02 0. -1.
    10030    2    1    2    0    0  0.00000000000E+00  0.00000000000E+00 -0.10410483209E+03  0.78522547728E+03  0.77829379678E+03 0.  0.
        5    1    3    3  502    0  0.13806585241E+03  0.29289396288E+03 -0.26976158749E+03  0.42147652031E+03  0.46999998093E+01 0. -1.
       -5    1    3    3    0  502 -0.13806585241E+03 -0.29289396288E+03  0.16565675540E+03  0.36374895697E+03  0.46999998093E+01 0.  1.
</event>
<event>
 5   0  0.1673727E-02  0.7946940E+03  0.7818609E-02  0.9567729E-01
       -2   -1    0    0    0  501  0.00000000000E+00  0.00000000000E+00  0.24906835332E+03  0.24906835333E+03  0.25500000920E-02 0.  1.
        2   -1    0    0  501    0  0.00000000000E+00  0.00000000000E+00 -0.63390082481E+03  0.63390082482E+03  0.25500000920E-02 0. -1.
    10030    2    1    2    0    0  0.00000000000E+00  0.00000000000E+00 -0.38483247150E+03  0.88296917815E+03  0.79469399044E+03 0.  0.
        5    1    3    3  502    0  0.70075792670E+01 -0.37141579346E+02  0.24703542396E+03  0.24995438338E+03  0.46999998093E+01 0.  1.
       -5    1    3    3    0  502 -0.70075792670E+01  0.37141579346E+02 -0.63186789546E+03  0.63301479476E+03  0.46999998093E+01 0. -1.
</event>
<event>
 5   0  0.1146083E-02  0.7994853E+03  0.7818609E-02  0.9560762E-01
        1   -1    0    0  501    0  0.00000000000E+00  0.00000000000E+00  0.30715053676E+03  0.30715053681E+03  0.50400001928E-02 0.  1.
       -1   -1    0    0    0  501  0.00000000000E+00  0.00000000000E+00 -0.52024710639E+03  0.52024710641E+03  0.50400001928E-02 0. -1.
    10030    2    1    2    0    0  0.00000000000E+00  0.00000000000E+00 -0.21309656963E+03  0.82739764322E+03  0.79948527943E+03 0.  0.
        4    1    3    3  502    0 -0.11808610858E+03 -0.25155900664E+03 -0.40392381225E+03  0.49028799890E+03  0.12699999809E+01 0. -1.
       -4    1    3    3    0  502  0.11808610858E+03  0.25155900664E+03  0.19082724263E+03  0.33710964432E+03  0.12699999809E+01 0.  1.
</event>
<event>
 5   0  0.1146083E-02  0.8487026E+03  0.7818609E-02  0.9492080E-01
        1   -1    0    0  501    0  0.00000000000E+00  0.00000000000E+00  0.57163282243E+03  0.57163282245E+03  0.50400001928E-02 0. -1.
       -1   -1    0    0    0  501  0.00000000000E+00  0.00000000000E+00 -0.31501693080E+03  0.31501693084E+03  0.50400001928E-02 0.  1.
    10030    2    1    2    0    0  0.00000000000E+00  0.00000000000E+00  0.25661589163E+03  0.88664975329E+03  0.84870257993E+03 0.  0.
        4    1    3    3  502    0  0.24767182881E+03  0.19369842768E+03  0.42602701192E+03  0.52949130631E+03  0.12699999809E+01 0. -1.
       -4    1    3    3    0  502 -0.24767182881E+03 -0.19369842768E+03 -0.16941112029E+03  0.35715844698E+03  0.12699999809E+01 0.  1.
</event>
<event>
 5   0  0.6872500E-03  0.8078137E+03  0.7818609E-02  0.9548775E-01
        3   -1    0    0  501    0  0.00000000000E+00  0.00000000000E+00  0.54101526027E+03  0.54101526969E+03  0.10100000352E+00 0.  1.
       -3   -1    0    0    0  501  0.00000000000E+00  0.00000000000E+00 -0.30154555196E+03  0.30154556887E+03  0.10100000352E+00 0. -1.
    10030    2    1    2    0    0  0.00000000000E+00  0.00000000000E+00  0.23946970831E+03  0.84256083856E+03  0.80781373192E+03 0.  0.
        3    1    3    3  502    0 -0.28345338537E+03  0.42478678086E+02 -0.17709463308E+03  0.33691657578E+03  0.10100000352E+00 0. -1.
       -3    1    3    3    0  502  0.28345338537E+03 -0.42478678086E+02  0.41656434139E+03  0.50564426278E+03  0.10100000352E+00 0.  1.
</event>
<event>
 5   0  0.1025900E-02  0.8038880E+03  0.7818609E-02  0.9554406E-01
        1   -1    0    0  501    0  0.00000000000E+00  0.00000000000E+00  0.99413574774E+03  0.99413574775E+03  0.50400001928E-02 0. -1.
       -1   -1    0    0    0  501  0.00000000000E+00  0.00000000000E+00 -0.16251200787E+03  0.16251200795E+03  0.50400001928E-02 0.  1.
    10030    2    1    2    0    0  0.00000000000E+00  0.00000000000E+00  0.83162373986E+03  0.11566477557E+04  0.80388804324E+03 0.  0.
        1    1    3    3  502    0 -0.54691688890E+02 -0.14969066405E+03 -0.11511065633E+03  0.19659333397E+03  0.50400001928E-02 0.  1.
       -1    1    3    3    0  502  0.54691688890E+02  0.14969066405E+03  0.94673439619E+03  0.96005442173E+03  0.50400001928E-02 0. -1.
</event>
<event>
 5   0  0.1673727E-02  0.7969262E+03  0.7818609E-02  0.9564477E-01
       -2   -1    0    0    0  501  0.00000000000E+00  0.00000000000E+00  0.17387878367E+03  0.17387878369E+03  0.25500000920E-02 0.  1.
        2   -1    0    0  501    0  0.00000000000E+00  0.00000000000E+00 -0.91312366855E+03  0.91312366855E+03  0.25500000920E-02 0. -1.
    10030    2    1    2    0    0  0.00000000000E+00  0.00000000000E+00 -0.73924488488E+03  0.10870024522E+04  0.79692617685E+03 0.  0.
        5    1    3    3  502    0  0.33301644778E+02  0.30552510949E+03 -0.23758794165E+02  0.30828746710E+03  0.46999998093E+01 0.  1.
       -5    1    3    3    0  502 -0.33301644778E+02 -0.30552510949E+03 -0.71548609072E+03  0.77871498514E+03  0.46999998093E+01 0. -1.
</event>
<event>
 5   0  0.1747544E-02  0.8069172E+03  0.7818609E-02  0.9550058E-01
        2   -1    0    0  501    0  0.00000000000E+00  0.00000000000E+00  0.54619513139E+03  0.54619513139E+03  0.25500000920E-02 0.  1.
       -2   -1    0    0    0  501  0.00000000000E+00  0.00000000000E+00 -0.29802322042E+03  0.29802322043E+03  0.25500000920E-02 0. -1.
    10030    2    1    2    0    0  0.00000000000E+00  0.00000000000E+00  0.24817191097E+03  0.84421835182E+03  0.80691717553E+03 0.  0.
        1    1    3    3  502    0  0.87278633116E+02  0.39125428754E+03  0.76355137400E+02  0.40807791456E+03  0.50400001928E-02 0.  1.
       -1    1    3    3    0  502 -0.87278633116E+02 -0.39125428754E+03  0.17181677357E+03  0.43614043727E+03  0.50400001928E-02 0. -1.
</event>
<event>
 5   0  0.1747544E-02  0.8022943E+03  0.7818609E-02  0.9556702E-01
        2   -1    0    0  501    0  0.00000000000E+00  0.00000000000E+00  0.73454711885E+03  0.73454711886E+03  0.25500000920E-02 0.  1.
       -2   -1    0    0    0  501  0.00000000000E+00  0.00000000000E+00 -0.21907245274E+03  0.21907245275E+03  0.25500000920E-02 0. -1.
    10030    2    1    2    0    0  0.00000000000E+00  0.00000000000E+00  0.51547466611E+03  0.95361957161E+03  0.80229430757E+03 0.  0.
        1    1    3    3  502    0  0.21053931968E+02  0.30701489302E+03  0.56360125252E+03  0.64214311836E+03  0.50400001928E-02 0.  1.
       -1    1    3    3    0  502 -0.21053931968E+02 -0.30701489302E+03 -0.48126586402E+02  0.31147645326E+03  0.50400001928E-02 0. -1.
</event>
<event>
 5   0  0.1747544E-02  0.8007036E+03  0.7818609E-02  0.9558999E-01
       -2   -1    0    0    0  501  0.00000000000E+00  0.00000000000E+00  0.25542641011E+03  0.25542641013E+03  0.25500000920E-02 0.  1.
        2   -1    0    0  501    0  0.00000000000E+00  0.00000000000E+00 -0.62750584389E+03  0.62750584390E+03  0.25500000920E-02 0. -1.
    10030    2    1    2    0    0  0.00000000000E+00  0.00000000000E+00 -0.37207943378E+03  0.88293225402E+03  0.80070360318E+03 0.  0.
        1    1    3    3  502    0  0.22509397347E+03 -0.24078365184E+03 -0.43661498749E+03  0.54706188974E+03  0.50400001928E-02 0. -1.
       -1    1    3    3    0  502 -0.22509397347E+03  0.24078365184E+03  0.64535553708E+02  0.33587036428E+03  0.50400001928E-02 0.  1.
</event>
<event>
 5   0  0.1038912E-02  0.8038062E+03  0.7818609E-02  0.9554524E-01
       -1   -1    0    0    0  501  0.00000000000E+00  0.00000000000E+00  0.14972467196E+03  0.14972467204E+03  0.50400001928E-02 0. -1.
        1   -1    0    0  501    0  0.00000000000E+00  0.00000000000E+00 -0.10788207532E+04  0.10788207532E+04  0.50400001928E-02 0.  1.
    10030    2    1    2    0    0  0.00000000000E+00  0.00000000000E+00 -0.92909608126E+03  0.12285454253E+04  0.80380615433E+03 0.  0.
        2    1    3    3  502    0  0.24325872141E+03  0.28679710228E+03 -0.24786552146E+03  0.45040504010E+03  0.25500000920E-02 0. -1.
       -2    1    3    3    0  502 -0.24325872141E+03 -0.28679710228E+03 -0.68123055980E+03  0.77814038517E+03  0.25500000920E-02 0.  1.
</event>
<event>
 5   0  0.1049780E-02  0.8044171E+03  0.7818609E-02  0.9553645E-01
       -1   -1    0    0    0  501  0.00000000000E+00  0.00000000000E+00  0.27229469627E+03  0.27229469631E+03  0.50400001928E-02 0.  1.
        1   -1    0    0  501    0  0.00000000000E+00  0.00000000000E+00 -0.59410527941E+03  0.59410527943E+03  0.50400001928E-02 0. -1.
    10030    2    1    2    0    0  0.00000000000E+00  0.00000000000E+00 -0.32181058314E+03  0.86639997574E+03  0.80441709737E+03 0.  0.
        5    1    3    3  502    0 -0.35769936615E+03 -0.16881186550E+03 -0.82469904413E+02  0.40406640248E+03  0.46999998093E+01 0. -1.
       -5    1    3    3    0  502  0.35769936615E+03  0.16881186550E+03 -0.23934067873E+03  0.46233357327E+03  0.46999998093E+01 0.  1.
</event>
<event>
 5   0  0.1673727E-02  0.7993402E+03  0.7818609E-02  0.9560973E-01
       -2   -1    0    0    0  501  0.00000000000E+00  0.00000000000E+00  0.74707597356E+03  0.74707597357E+03  0.25500000920E-02 0. -1.
        2   -1    0    0  501    0  0.00000000000E+00  0.00000000000E+00 -0.21381518209E+03  0.21381518210E+03  0.25500000920E-02 0.  1.
    10030    2    1    2    0    0  0.00000000000E+00  0.00000000000E+00  0.53326079147E+03  0.96089115567E+03  0.79934019124E+03 0.  0.
        5    1    3    3  502    0 -0.16167590996E+02 -0.24867835093E+03  0.64220279354E+03  0.68887504763E+03  0.46999998093E+01 0. -1.
       -5    1    3    3    0  502  0.16167590996E+02  0.24867835093E+03 -0.10894200207E+03  0.27201610804E+03  0.46999998093E+01 0.  1.
</event>
<event>
 5   0  0.1146083E-02  0.7936379E+03  0.7818609E-02  0.9569272E-01
       -1   -1    0    0    0  501  0.00000000000E+00  0.00000000000E+00  0.30970513673E+03  0.30970513677E+03  0.50400001928E-02 0.  1.
        1   -1    0    0  501    0  0.00000000000E+00  0.00000000000E+00 -0.50843609366E+03  0.50843609368E+03  0.50400001928E-02 0. -1.
    10030    2    1    2    0    0  0.00000000000E+00  0.00000000000E+00 -0.19873095693E+03  0.81814123045E+03  0.79363787695E+03 0.  0.
        4    1    3    3  502    0  0.21346823109E+03  0.20277076056E+03  0.17489174408E+03  0.34245204345E+03  0.12699999809E+01 0.  1.
       -4    1    3    3    0  502 -0.21346823109E+03 -0.20277076056E+03 -0.37362270101E+03  0.47568918700E+03  0.12699999809E+01 0. -1.
</event>
<event>
 5   0  0.1817089E-02  0.7959254E+03  0.7818609E-02  0.9565934E-01
       -2   -1    0    0    0  501  0.00000000000E+00  0.00000000000E+00  0.73338687682E+03  0.73338687683E+03  0.25500000920E-02 0.  1.
        2   -1    0    0  501    0  0.00000000000E+00  0.00000000000E+00 -0.21594920634E+03  0.21594920635E+03  0.25500000920E-02 0. -1.
    10030    2    1    2    0    0  0.00000000000E+00  0.00000000000E+00  0.51743767049E+03  0.94933608318E+03  0.79592540856E+03 0.  0.
        2    1    3    3  502    0 -0.35805206010E+03 -0.17299375056E+03  0.24000381348E+03  0.46446737879E+03  0.25500000920E-02 0.  1.
       -2    1    3    3    0  502  0.35805206010E+03  0.17299375056E+03  0.27743385701E+03  0.48486870438E+03  0.25500000920E-02 0. -1.
</event>
<event>
 5   0  0.1025900E-02  0.8161211E+03  0.7818609E-02  0.9536971E-01
       -1   -1    0    0    0  501  0.00000000000E+00  0.00000000000E+00  0.49851127857E+03  0.49851127859E+03  0.50400001928E-02 0.  1.
        1   -1    0    0  501    0  0.00000000000E+00  0.00000000000E+00 -0.33402139455E+03  0.33402139459E+03  0.50400001928E-02 0. -1.
    10030    2    1    2    0    0  0.00000000000E+00  0.00000000000E+00  0.16448988402E+03  0.83253267318E+03  0.81612114907E+03 0.  0.
        1    1    3    3  502    0 -0.34934098156E+02  0.11795124231E+02  0.49680847094E+03  0.49817484179E+03  0.50400001928E-02 0.  1.
       -1    1    3    3    0  502  0.34934098156E+02 -0.11795124231E+02 -0.33231858692E+03  0.33435783139E+03  0.50400001928E-02 0. -1.
</event>
<event>
 5   0  0.1818665E-02  0.8106439E+03  0.7818609E-02  0.9544737E-01
       -2   -1    0    0    0  501  0.00000000000E+00  0.00000000000E+00  0.10036186545E+03  0.10036186548E+03  0.25500000920E-02 0.  1.
        2   -1    0    0  501    0  0.00000000000E+00  0.00000000000E+00 -0.16369354563E+04  0.16369354563E+04  0.25500000920E-02 0. -1.
    10030    2    1    2    0    0  0.00000000000E+00  0.00000000000E+00 -0.15365735909E+04  0.17372973218E+04  0.81064393182E+03 0.  0.
        3    1    3    3  502    0 -0.25738669623E+03 -0.55964162327E+02 -0.10806353786E+03  0.28470622978E+03  0.10100000352E+00 0.  1.
       -3    1    3    3    0  502  0.25738669623E+03  0.55964162327E+02 -0.14285100530E+04  0.14525910920E+04  0.10100000352E+00 0. -1.
</event>
<event>
 5   0  0.1673727E-02  0.8008330E+03  0.7818609E-02  0.9558812E-01
       -2   -1    0    0    0  501  0.00000000000E+00  0.00000000000E+00  0.28558738441E+03  0.28558738442E+03  0.25500000920E-02 0.  1.
        2   -1    0    0  501    0  0.00000000000E+00  0.00000000000E+00 -0.56141615191E+03  0.56141615191E+03  0.25500000920E-02 0. -1.
    10030    2    1    2    0    0  0.00000000000E+00  0.00000000000E+00 -0.27582876749E+03  0.84700353634E+03  0.80083299232E+03 0.  0.
        5    1    3    3  502    0  0.36656441557E+03 -0.98229658729E+02 -0.27291643919E+03  0.46746551680E+03  0.46999998093E+01 0.  1.
       -5    1    3    3    0  502 -0.36656441557E+03  0.98229658729E+02 -0.29123283029E+01  0.37953801954E+03  0.46999998093E+01 0. -1.
</event>
<event>
 5   0  0.1025900E-02  0.7859351E+03  0.7818609E-02  0.9580602E-01
        1   -1    0    0  501    0  0.00000000000E+00  0.00000000000E+00  0.65020286930E+03  0.65020286931E+03  0.50400001928E-02 0.  1.
       -1   -1    0    0    0  501  0.00000000000E+00  0.00000000000E+00 -0.23750045857E+03  0.23750045862E+03  0.50400001928E-02 0. -1.
    10030    2    1    2    0    0  0.00000000000E+00  0.00000000000E+00  0.41270241072E+03  0.88770332794E+03  0.78593506005E+03 0.  0.
        1    1    3    3  502    0  0.25641863108E+03  0.25888974790E+03  0.40162790938E+02  0.36658896019E+03  0.50400001928E-02 0. -1.
       -1    1    3    3    0  502 -0.25641863108E+03 -0.25888974790E+03  0.37253961979E+03  0.52111436775E+03  0.50400001928E-02 0.  1.
</event>
<event>
 5   0  0.1146083E-02  0.8006029E+03  0.7818609E-02  0.9559145E-01
        1   -1    0    0  501    0  0.00000000000E+00  0.00000000000E+00  0.19848472863E+03  0.19848472869E+03  0.50400001928E-02 0.  1.
       -1   -1    0    0    0  501  0.00000000000E+00  0.00000000000E+00 -0.80732284070E+03  0.80732284072E+03  0.50400001928E-02 0. -1.
    10030    2    1    2    0    0  0.00000000000E+00  0.00000000000E+00 -0.60883811208E+03  0.10058075694E+04  0.80060291029E+03 0.  0.
        4    1    3    3  502    0 -0.31604565973E+03  0.21982683042E+03 -0.16661955203E+03  0.41949062257E+03  0.12699999809E+01 0.  1.
       -4    1    3    3    0  502  0.31604565973E+03 -0.21982683042E+03 -0.44221856004E+03  0.58631694684E+03  0.12699999809E+01 0. -1.
</event>
<event>
 5   0  0.1049780E-02  0.8074427E+03  0.7818609E-02  0.9549306E-01
       -1   -1    0    0    0  501  0.00000000000E+00  0.00000000000E+00  0.34180585058E+03  0.34180585061E+03  0.50400001928E-02 0. -1.
        1   -1    0    0  501    0  0.00000000000E+00  0.00000000000E+00 -0.47685236563E+03  0.47685236566E+03  0.50400001928E-02 0.  1.
    10030    2    1    2    0    0  0.00000000000E+00  0.00000000000E+00 -0.13504651506E+03  0.81865821627E+03  0.80744270004E+03 0.  0.
        5    1    3    3  502    0 -0.21051199575E+03  0.11317417945E+03  0.26233425515E+03  0.35491554865E+03  0.46999998093E+01 0. -1.
       -5    1    3    3    0  502  0.21051199575E+03 -0.11317417945E+03 -0.39738077020E+03  0.46374266763E+03  0.46999998093E+01 0.  1.
</event>
<event>
 5   0  0.1049780E-02  0.7973962E+03  0.7818609E-02  0.9563794E-01
       -1   -1    0    0    0  501  0.00000000000E+00  0.00000000000E+00  0.50500104379E+03  0.50500104381E+03  0.50400001928E-02 0.  1.
        1   -1    0    0  501    0  0.00000000000E+00  0.00000000000E+00 -0.31477195292E+03  0.31477195296E+03  0.50400001928E-02 0. -1.
    10030    2    1    2    0    0  0.00000000000E+00  0.00000000000E+00  0.19022909087E+03  0.81977299677E+03  0.79739617458E+03 0.  0.
        5    1    3    3  502    0  0.11415390995E+03 -0.13713070186E+03 -0.27140393345E+03  0.32483554245E+03  0.46999998093E+01 0. -1.
       -5    1    3    3    0  502 -0.11415390995E+03  0.13713070186E+03  0.46163302432E+03  0.49493745432E+03  0.46999998093E+01 0.  1.
</event>
<event>
 5   0  0.1673727E-02  0.8020057E+03  0.7818609E-02  0.9557118E-01
       -2   -1    0    0    0  501  0.00000000000E+00  0.00000000000E+00  0.34343411784E+03  0.34343411785E+03  0.25500000920E-02 0. -1.
        2   -1    0    0  501    0  0.00000000000E+00  0.00000000000E+00 -0.46822167397E+03  0.46822167398E+03  0.25500000920E-02 0.  1.
    10030    2    1    2    0    0  0.00000000000E+00  0.00000000000E+00 -0.12478755613E+03  0.81165579183E+03  0.80200572956E+03 0.  0.
        5    1    3    3  502    0  0.80901294999E+02 -0.11704118754E+03  0.31700035250E+03  0.34749816200E+03  0.46999998093E+01 0. -1.
       -5    1    3    3    0  502 -0.80901294999E+02  0.11704118754E+03 -0.44178790863E+03  0.46415762982E+03  0.46999998093E+01 0.  1.
</event>
<event>
 5   0  0.1673727E-02  0.7607690E+03  0.7818609E-02  0.9618605E-01
        2   -1    0    0  501    0  0.00000000000E+00  0.00000000000E+00  0.23986105699E+04  0.23986105699E+04  0.25500000920E-02 0. -1.
       -2   -1    0    0    0  501  0.00000000000E+00  0.00000000000E+00 -0.60323408336E+02  0.60323408390E+02  0.25500000920E-02 0.  1.
    10030    2    1    2    0    0  0.00000000000E+00  0.00000000000E+00  0.23382871615E+04  0.24589339783E+04  0.76076899231E+03 0.  0.
        5    1    3    3  502    0 -0.10502099024E+03  0.98299949524E+02  0.23072067125E+04  0.23116914138E+04  0.46999998093E+01 0. -1.
       -5    1    3    3    0  502  0.10502099024E+03 -0.98299949524E+02  0.31080448999E+02  0.14724256442E+03  0.46999998093E+01 0.  1.
</event>
<event>
 5   0  0.1673727E-02  0.7827752E+03  0.7818609E-02  0.9585289E-01
        2   -1    0    0  501    0  0.00000000000E+00  0.00000000000E+00  0.13589972082E+04  0.13589972082E+04  0.25500000920E-02 0.  1.
       -2   -1    0    0    0  501  0.00000000000E+00  0.00000000000E+00 -0.11271858937E+03  0.11271858940E+03  0.25500000920E-02 0. -1.
    10030    2    1    2    0    0  0.00000000000E+00  0.00000000000E+00  0.12462786188E+04  0.14717157976E+04  0.78277518684E+03 0.  0.
        5    1    3    3  502    0  0.25485623612E+03 -0.13591631346E+01  0.11815354270E+04  0.12087189928E+04  0.46999998093E+01 0.  1.
       -5    1    3    3    0  502 -0.25485623612E+03  0.13591631346E+01  0.64743191820E+02  0.26299680474E+03  0.46999998093E+01 0. -1.
</event>
<event>
 5   0  0.1673727E-02  0.7829375E+03  0.7818609E-02  0.9585048E-01
        2   -1    0    0  501    0  0.00000000000E+00  0.00000000000E+00  0.11308696551E+04  0.11308696551E+04  0.25500000920E-02 0. -1.
       -2   -1    0    0    0  501  0.00000000000E+00  0.00000000000E+00 -0.13551320215E+03  0.13551320217E+03  0.25500000920E-02 0.  1.
    10030    2    1    2    0    0  0.00000000000E+00  0.00000000000E+00  0.99535645300E+03  0.12663828573E+04  0.78293746417E+03 0.  0.
        5    1    3    3  502    0  0.32529268645E+03  0.21724435901E+03  0.47394841914E+03  0.61454018370E+03  0.46999998093E+01 0.  1.
       -5    1    3    3    0  502 -0.32529268645E+03 -0.21724435901E+03  0.52140803386E+03  0.65184267362E+03  0.46999998093E+01 0. -1.
</event>
<event>
 5   0  0.1038912E-02  0.8072876E+03  0.7818609E-02  0.9549528E-01
        1   -1    0    0  501    0  0.00000000000E+00  0.00000000000E+00  0.15621091889E+04  0.15621091889E+04  0.50400001928E-02 0.  1.
       -1   -1    0    0    0  501  0.00000000000E+00  0.00000000000E+00 -0.10430021025E+03  0.10430021037E+03  0.50400001928E-02 0. -1.
    10030    2    1    2    0    0  0.00000000000E+00  0.00000000000E+00  0.14578089787E+04  0.16664093993E+04  0.80728759916E+03 0.  0.
        2    1    3    3  502    0  0.15085022971E+03  0.30977852571E+03  0.11629273968E+04  0.12128968040E+04  0.25500000920E-02 0.  1.
       -2    1    3    3    0  502 -0.15085022971E+03 -0.30977852571E+03  0.29488158184E+03  0.45351259532E+03  0.25500000920E-02 0. -1.
</event>
<event>
 5   0  0.1818665E-02  0.8091751E+03  0.7818609E-02  0.9546831E-01
       -2   -1    0    0    0  501  0.00000000000E+00  0.00000000000E+00  0.11733943704E+03  0.11733943706E+03  0.25500000920E-02 0. -1.
        2   -1    0    0  501    0  0.00000000000E+00  0.00000000000E+00 -0.13950219548E+04  0.13950219548E+04  0.25500000920E-02 0.  1.
    10030    2    1    2    0    0  0.00000000000E+00  0.00000000000E+00 -0.12776825177E+04  0.15123613918E+04  0.80917511294E+03 0.  0.
        3    1    3    3  502    0  0.24069226587E+03  0.25321955417E+03 -0.10202221139E+04  0.10783812319E+04  0.10100000352E+00 0.  1.
       -3    1    3    3    0  502 -0.24069226587E+03 -0.25321955417E+03 -0.25746040386E+03  0.43398015994E+03  0.10100000352E+00 0. -1.
</event>
<event>
 5   0  0.1731337E-02  0.8223665E+03  0.7818609E-02  0.9528195E-01
        2   -1    0    0  501    0  0.00000000000E+00  0.00000000000E+00  0.19629142693E+03  0.19629142694E+03  0.25500000920E-02 0.  1.
       -2   -1    0    0    0  501  0.00000000000E+00  0.00000000000E+00 -0.86132987976E+03  0.86132987977E+03  0.25500000920E-02 0. -1.
    10030    2    1    2    0    0  0.00000000000E+00  0.00000000000E+00 -0.66503845283E+03  0.10576213067E+04  0.82236651480E+03 0.  0.
        4    1    3    3  502    0  0.29241330430E+03  0.18408053417E+02 -0.70353587702E+03  0.76210808952E+03  0.12699999809E+01 0. -1.
       -4    1    3    3    0  502 -0.29241330430E+03 -0.18408053417E+02  0.38497424187E+02  0.29551321719E+03  0.12699999809E+01 0.  1.
</event>
<event>
 5   0  0.1818665E-02  0.8089450E+03  0.7818609E-02  0.9547159E-01
       -2   -1    0    0    0  501  0.00000000000E+00  0.00000000000E+00  0.72785113786E+03  0.72785113786E+03  0.25500000920E-02 0. -1.
        2   -1    0    0  501    0  0.00000000000E+00  0.00000000000E+00 -0.22476848012E+03  0.22476848013E+03  0.25500000920E-02 0.  1.
    10030    2    1    2    0    0  0.00000000000E+00  0.00000000000E+00  0.50308265774E+03  0.95261961799E+03  0.80894497716E+03 0.  0.
        3    1    3    3  502    0  0.27663497084E+03  0.29390681477E+03  0.28247142855E+03  0.49264413222E+03  0.10100000352E+00 0.  1.
       -3    1    3    3    0  502 -0.27663497084E+03 -0.29390681477E+03  0.22061122919E+03  0.45997548577E+03  0.10100000352E+00 0. -1.
</event>
<event>
 5   0  0.1038912E-02  0.8067120E+03  0.7818609E-02  0.9550352E-01
        1   -1    0    0  501    0  0.00000000000E+00  0.00000000000E+00  0.91640601611E+03  0.91640601612E+03  0.50400001928E-02 0.  1.
       -1   -1    0    0    0  501  0.00000000000E+00  0.00000000000E+00 -0.17753707908E+03  0.17753707916E+03  0.50400001928E-02 0. -1.
    10030    2    1    2    0    0  0.00000000000E+00  0.00000000000E+00  0.73886893702E+03  0.10939430953E+04  0.80671196198E+03 0.  0.
        2    1    3    3  502    0  0.22314799292E+03 -0.16368601204E+03 -0.28487355909E+02  0.27820795591E+03  0.25500000920E-02 0. -1.
       -2    1    3    3    0  502 -0.22314799292E+03  0.16368601204E+03  0.76735629293E+03  0.81573513936E+03  0.25500000920E-02 0.  1.
</event>
<event>
 5   0  0.1817089E-02  0.8134274E+03  0.7818609E-02  0.9540782E-01
       -2   -1    0    0    0  501  0.00000000000E+00  0.00000000000E+00  0.43751817278E+03  0.43751817279E+03  0.25500000920E-02 0. -1.
        2   -1    0    0  501    0  0.00000000000E+00  0.00000000000E+00 -0.37807811578E+03  0.37807811579E+03  0.25500000920E-02 0.  1.
    10030    2    1    2    0    0  0.00000000000E+00  0.00000000000E+00  0.59440057001E+02  0.81559628858E+03  0.81342743104E+03 0.  0.
        2    1    3    3  502    0  0.30628231989E+03  0.15747883041E+03  0.24664754110E+03  0.42360766169E+03  0.25500000920E-02 0. -1.
       -2    1    3    3    0  502 -0.30628231989E+03 -0.15747883041E+03 -0.18720748410E+03  0.39198862689E+03  0.25500000920E-02 0.  1.
</event>
<event>
 5   0  0.1146083E-02  0.7988010E+03  0.7818609E-02  0.9561754E-01
       -1   -1    0    0    0  501  0.00000000000E+00  0.00000000000E+00  0.21263799086E+03  0.21263799092E+03  0.50400001928E-02 0. -1.
        1   -1    0    0  501    0  0.00000000000E+00  0.00000000000E+00 -0.75019873380E+03  0.75019873381E+03  0.50400001928E-02 0.  1.
    10030    2    1    2    0    0  0.00000000000E+00  0.00000000000E+00 -0.53756074294E+03  0.96283672473E+03  0.79880098031E+03 0.  0.
        4    1    3    3  502    0  0.11282832422E+03 -0.32141878941E+03 -0.17445250322E+02  0.34109561503E+03  0.12699999809E+01 0. -1.
       -4    1    3    3    0  502 -0.11282832422E+03  0.32141878941E+03 -0.52011549262E+03  0.62174110970E+03  0.12699999809E+01 0.  1.
</event>
<event>
 5   0  0.1146083E-02  0.8028802E+03  0.7818609E-02  0.9555857E-01
       -1   -1    0    0    0  501  0.00000000000E+00  0.00000000000E+00  0.20065255639E+03  0.20065255645E+03  0.50400001928E-02 0. -1.
        1   -1    0    0  501    0  0.00000000000E+00  0.00000000000E+00 -0.80315022814E+03  0.80315022815E+03  0.50400001928E-02 0.  1.
    10030    2    1    2    0    0  0.00000000000E+00  0.00000000000E+00 -0.60249767175E+03  0.10038027846E+04  0.80288018155E+03 0.  0.
        4    1    3    3  502    0 -0.23823919868E+02  0.24942457117E+03  0.90884852486E+02  0.26653679891E+03  0.12699999809E+01 0. -1.
       -4    1    3    3    0  502  0.23823919868E+02 -0.24942457117E+03 -0.69338252423E+03  0.73726598570E+03  0.12699999809E+01 0.  1.
</event>
<event>
 5   0  0.1731337E-02  0.7986580E+03  0.7818609E-02  0.9561962E-01
        2   -1    0    0  501    0  0.00000000000E+00  0.00000000000E+00  0.18326541169E+04  0.18326541169E+04  0.25500000920E-02 0.  1.
       -2   -1    0    0    0  501  0.00000000000E+00  0.00000000000E+00 -0.87012400421E+02  0.87012400458E+02  0.25500000920E-02 0. -1.
    10030    2    1    2    0    0  0.00000000000E+00  0.00000000000E+00  0.17456417165E+04  0.19196665173E+04  0.79865795905E+03 0.  0.
        4    1    3    3  502    0  0.15254294687E+03  0.23028674297E+03  0.17967601181E+03  0.32952453133E+03  0.12699999809E+01 0. -1.
       -4    1    3    3    0  502 -0.15254294687E+03 -0.23028674297E+03  0.15659657047E+04  0.15901419860E+04  0.12699999809E+01 0.  1.
</event>
<event>
 5   0  0.1030323E-02  0.8010679E+03  0.7818609E-02  0.9558473E-01
       -1   -1    0    0    0  501  0.00000000000E+00  0.00000000000E+00  0.19075394959E+03  0.19075394965E+03  0.50400001928E-02 0. -1.
        1   -1    0    0  501    0  0.00000000000E+00  0.00000000000E+00 -0.84101761379E+03  0.84101761381E+03  0.50400001928E-02 0.  1.
    10030    2    1    2    0    0  0.00000000000E+00  0.00000000000E+00 -0.65026366421E+03  0.10317715635E+04  0.80106786615E+03 0.  0.
        3    1    3    3  502    0 -0.21771963368E+03 -0.20035342181E+03  0.22588917842E+02  0.29673827177E+03  0.10100000352E+00 0. -1.
       -3    1    3    3    0  502  0.21771963368E+03  0.20035342181E+03 -0.67285258205E+03  0.73503329169E+03  0.10100000352E+00 0.  1.
</event>
<event>
 5   0  0.6872500E-03  0.7973658E+03  0.7818609E-02  0.9563838E-01
       -4   -1    0    0    0  501  0.00000000000E+00  0.00000000000E+00  0.65090932572E+03  0.65091056468E+03  0.12699999809E+01 0.  1.
        4   -1    0    0  501    0  0.00000000000E+00  0.00000000000E+00 -0.24419070798E+03  0.24419401050E+03  0.12699999809E+01 0. -1.
    10030    2    1    2    0    0  0.00000000000E+00  0.00000000000E+00  0.40671861774E+03  0.89510457517E+03  0.79736576706E+03 0.  0.
        3    1    3    3  502    0  0.77810571539E+02 -0.25328806924E+03  0.53776427820E+03  0.59949959147E+03  0.10100000352E+00 0.  1.
       -3    1    3    3    0  502 -0.77810571539E+02  0.25328806924E+03 -0.13104566046E+03  0.29560498370E+03  0.10100000352E+00 0. -1.
</event>
<event>
 5   0  0.1818665E-02  0.7896948E+03  0.7818609E-02  0.9575054E-01
        2   -1    0    0  501    0  0.00000000000E+00  0.00000000000E+00  0.33857482480E+03  0.33857482481E+03  0.25500000920E-02 0. -1.
       -2   -1    0    0    0  501  0.00000000000E+00  0.00000000000E+00 -0.46047274445E+03  0.46047274445E+03  0.25500000920E-02 0.  1.
    10030    2    1    2    0    0  0.00000000000E+00  0.00000000000E+00 -0.12189791965E+03  0.79904756926E+03  0.78969482405E+03 0.  0.
        3    1    3    3  502    0  0.24040807401E+03 -0.22574054980E+03  0.15876238937E+03  0.36600593485E+03  0.10100000352E+00 0. -1.
       -3    1    3    3    0  502 -0.24040807401E+03  0.22574054980E+03 -0.28066030902E+03  0.43304163441E+03  0.10100000352E+00 0.  1.
</event>
<event>
 5   0  0.1818665E-02  0.8000619E+03  0.7818609E-02  0.9559928E-01
        2   -1    0    0  501    0  0.00000000000E+00  0.00000000000E+00  0.50890080564E+03  0.50890080565E+03  0.25500000920E-02 0. -1.
       -2   -1    0    0    0  501  0.00000000000E+00  0.00000000000E+00 -0.31445175908E+03  0.31445175909E+03  0.25500000920E-02 0.  1.
    10030    2    1    2    0    0  0.00000000000E+00  0.00000000000E+00  0.19444904656E+03  0.82335256474E+03  0.80006188145E+03 0.  0.
        3    1    3    3  502    0  0.19516654175E+03  0.27446460096E+02  0.45546969585E+03  0.49628211859E+03  0.10100000352E+00 0. -1.
       -3    1    3    3    0  502 -0.19516654175E+03 -0.27446460096E+02 -0.26102064928E+03  0.32707044615E+03  0.10100000352E+00 0.  1.
</event>
<event>
 5   0  0.1731337E-02  0.8007905E+03  0.7818609E-02  0.9558874E-01
       -2   -1    0    0    0  501  0.00000000000E+00  0.00000000000E+00  0.39051703239E+03  0.39051703239E+03  0.25500000920E-02 0.  1.
        2   -1    0    0  501    0  0.00000000000E+00  0.00000000000E+00 -0.41052328866E+03  0.41052328867E+03  0.25500000920E-02 0. -1.
    10030    2    1    2    0    0  0.00000000000E+00  0.00000000000E+00 -0.20006256273E+02  0.80104032106E+03  0.80079045054E+03 0.  0.
        4    1    3    3  502    0  0.25304497605E+03  0.21503069895E+03 -0.23377979787E+03  0.40610905947E+03  0.12699999809E+01 0. -1.
       -4    1    3    3    0  502 -0.25304497605E+03 -0.21503069895E+03  0.21377354160E+03  0.39493126159E+03  0.12699999809E+01 0.  1.
</event>
<event>
 5   0  0.1025900E-02  0.8010668E+03  0.7818609E-02  0.9558474E-01
       -1   -1    0    0    0  501  0.00000000000E+00  0.00000000000E+00  0.17819224996E+03  0.17819225003E+03  0.50400001928E-02 0. -1.
        1   -1    0    0  501    0  0.00000000000E+00  0.00000000000E+00 -0.90030298140E+03  0.90030298142E+03  0.50400001928E-02 0.  1.
    10030    2    1    2    0    0  0.00000000000E+00  0.00000000000E+00 -0.72211073144E+03  0.10784952314E+04  0.80106682355E+03 0.  0.
        1    1    3    3  502    0  0.37492242256E+03  0.13978515403E+03 -0.38515048634E+03  0.55538059867E+03  0.50400001928E-02 0.  1.
       -1    1    3    3    0  502 -0.37492242256E+03 -0.13978515403E+03 -0.33696024510E+03  0.52311463278E+03  0.50400001928E-02 0. -1.
</event>
<event>
 5   0  0.1731337E-02  0.7871564E+03  0.7818609E-02  0.9578796E-01
        2   -1    0    0  501    0  0.00000000000E+00  0.00000000000E+00  0.62651377435E+03  0.62651377435E+03  0.25500000920E-02 0. -1.
       -2   -1    0    0    0  501  0.00000000000E+00  0.00000000000E+00 -0.24724724445E+03  0.24724724446E+03  0.25500000920E-02 0.  1.
    10030    2    1    2    0    0  0.00000000000E+00  0.00000000000E+00  0.37926652990E+03  0.87376101881E+03  0.78715641222E+03 0.  0.
        4    1    3    3  502    0  0.19434388578E+03  0.26941606737E+03  0.42391796115E+03  0.53857461320E+03  0.12699999809E+01 0. -1.
       -4    1    3    3    0  502 -0.19434388578E+03 -0.26941606737E+03 -0.44651431249E+02  0.33518640562E+03  0.12699999809E+01 0.  1.
</event>
<event>
 5   0  0.1030323E-02  0.8034939E+03  0.7818609E-02  0.9554974E-01
       -1   -1    0    0    0  501  0.00000000000E+00  0.00000000000E+00  0.42562937471E+03  0.42562937474E+03  0.50400001928E-02 0. -1.
        1   -1    0    0  501    0  0.00000000000E+00  0.00000000000E+00 -0.37920462350E+03  0.37920462353E+03  0.50400001928E-02 0.  1.
    10030    2    1    2    0    0  0.00000000000E+00  0.00000000000E+00  0.46424751214E+02  0.80483399827E+03  0.80349393728E+03 0.  0.
        3    1    3    3  502    0  0.25702636221E+01  0.19001215764E+03 -0.33134037387E+03  0.38196554800E+03  0.10100000352E+00 0.  1.
       -3    1    3    3    0  502 -0.25702636221E+01 -0.19001215764E+03  0.37776512508E+03  0.42286845027E+03  0.10100000352E+00 0. -1.
</event>
<event>
 5   0  0.1818665E-02  0.8243851E+03  0.7818609E-02  0.9525376E-01
       -2   -1    0    0    0  501  0.00000000000E+00  0.00000000000E+00  0.17038775209E+03  0.17038775211E+03  0.25500000920E-02 0.  1.
        2   -1    0    0  501    0  0.00000000000E+00  0.00000000000E+00 -0.99715321922E+03  0.99715321923E+03  0.25500000920E-02 0. -1.
    10030    2    1    2    0    0  0.00000000000E+00  0.00000000000E+00 -0.82676546714E+03  0.11675409713E+04  0.82438509333E+03 0.  0.
        3    1    3    3  502    0 -0.38975520521E+03  0.11162975639E+03 -0.51872370684E+03  0.65836510900E+03  0.10100000352E+00 0. -1.
       -3    1    3    3    0  502  0.38975520521E+03 -0.11162975639E+03 -0.30804176029E+03  0.50917586234E+03  0.10100000352E+00 0.  1.
</event>
<event>
 5   0  0.1673727E-02  0.8116476E+03  0.7818609E-02  0.9543309E-01
       -2   -1    0    0    0  501  0.00000000000E+00  0.00000000000E+00  0.67778830605E+02  0.67778830653E+02  0.25500000920E-02 0.  1.
        2   -1    0    0  501    0  0.00000000000E+00  0.00000000000E+00 -0.24298584010E+04  0.24298584010E+04  0.25500000920E-02 0. -1.
    10030    2    1    2    0    0  0.00000000000E+00  0.00000000000E+00 -0.23620795704E+04  0.24976372316E+04  0.81164761077E+03 0.  0.
        5    1    3    3  502    0 -0.19555173365E+03 -0.20506668668E+03 -0.28716523357E+03  0.40345853305E+03  0.46999998093E+01 0.  1.
       -5    1    3    3    0  502  0.19555173365E+03  0.20506668668E+03 -0.20749143368E+04  0.20941786986E+04  0.46999998093E+01 0. -1.
</event>
<event>
 5   0  0.1146083E-02  0.8022908E+03  0.7818609E-02  0.9556707E-01
        1   -1    0    0  501    0  0.00000000000E+00  0.00000000000E+00  0.82714921024E+03  0.82714921026E+03  0.50400001928E-02 0.  1.
       -1   -1    0    0    0  501  0.00000000000E+00  0.00000000000E+00 -0.19454488023E+03  0.19454488030E+03  0.50400001928E-02 0. -1.
    10030    2    1    2    0    0  0.00000000000E+00  0.00000000000E+00  0.63260433001E+03  0.10216940906E+04  0.80229083027E+03 0.  0.
        4    1    3    3  502    0  0.22553433684E+03 -0.32102519146E+03  0.20980830720E+03  0.44490903488E+03  0.12699999809E+01 0. -1.
       -4    1    3    3    0  502 -0.22553433684E+03  0.32102519146E+03  0.42279602281E+03  0.57678505568E+03  0.12699999809E+01 0.  1.
</event>
<event>
 5   0  0.1025900E-02  0.7776058E+03  0.7818609E-02  0.9593010E-01
        1   -1    0    0  501    0  0.00000000000E+00  0.00000000000E+00  0.12238604853E+04  0.12238604853E+04  0.50400001928E-02 0.  1.
       -1   -1    0    0    0  501  0.00000000000E+00  0.00000000000E+00 -0.12351710465E+03  0.12351710475E+03  0.50400001928E-02 0. -1.
    10030    2    1    2    0    0  0.00000000000E+00  0.00000000000E+00  0.11003433806E+04  0.13473775901E+04  0.77760582229E+03 0.  0.
        1    1    3    3  502    0 -0.55725174897E+02  0.85737798375E+02  0.12001434948E+04  0.12044918735E+04  0.50400001928E-02 0.  1.
       -1    1    3    3    0  502  0.55725174897E+02 -0.85737798375E+02 -0.99800114153E+02  0.14288571656E+03  0.50400001928E-02 0. -1.
</event>
<event>
 5   0  0.1747544E-02  0.8021213E+03  0.7818609E-02  0.9556952E-01
        2   -1    0    0  501    0  0.00000000000E+00  0.00000000000E+00  0.74751393210E+03  0.74751393210E+03  0.25500000920E-02 0.  1.
       -2   -1    0    0    0  501  0.00000000000E+00  0.00000000000E+00 -0.21517944361E+03  0.21517944362E+03  0.25500000920E-02 0. -1.
    10030    2    1    2    0    0  0.00000000000E+00  0.00000000000E+00  0.53233448849E+03  0.96269337573E+03  0.80212126766E+03 0.  0.
        1    1    3    3  502    0  0.37475840280E+03 -0.68253650863E+02  0.41677584393E+03  0.56462777601E+03  0.50400001928E-02 0.  1.
       -1    1    3    3    0  502 -0.37475840280E+03  0.68253650863E+02  0.11555864456E+03  0.39806559972E+03  0.50400001928E-02 0. -1.
</event>
<event>
 5   0  0.1146083E-02  0.7978640E+03  0.7818609E-02  0.9563114E-01
       -1   -1    0    0    0  501  0.00000000000E+00  0.00000000000E+00  0.28371353063E+03  0.28371353068E+03  0.50400001928E-02 0. -1.
        1   -1    0    0  501    0  0.00000000000E+00  0.00000000000E+00 -0.56094171222E+03  0.56094171224E+03  0.50400001928E-02 0.  1.
    10030    2    1    2    0    0  0.00000000000E+00  0.00000000000E+00 -0.27722818159E+03  0.84465524292E+03  0.79786403273E+03 0.  0.
        4    1    3    3  502    0  0.14472787860E+03 -0.31015145405E+03 -0.35558493866E+03  0.49354062122E+03  0.12699999809E+01 0.  1.
       -4    1    3    3    0  502 -0.14472787860E+03  0.31015145405E+03  0.78356757072E+02  0.35111462170E+03  0.12699999809E+01 0. -1.
</event>
<event>
 5   0  0.1673727E-02  0.7946396E+03  0.7818609E-02  0.9567809E-01
       -2   -1    0    0    0  501  0.00000000000E+00  0.00000000000E+00  0.83200181111E+03  0.83200181111E+03  0.25500000920E-02 0.  1.
        2   -1    0    0  501    0  0.00000000000E+00  0.00000000000E+00 -0.18973881179E+03  0.18973881181E+03  0.25500000920E-02 0. -1.
    10030    2    1    2    0    0  0.00000000000E+00  0.00000000000E+00  0.64226299931E+03  0.10217406229E+04  0.79463962916E+03 0.  0.
        5    1    3    3  502    0  0.13619133465E+03  0.36165455495E+03  0.43966755747E+03  0.58538171123E+03  0.46999998093E+01 0.  1.
       -5    1    3    3    0  502 -0.13619133465E+03 -0.36165455495E+03  0.20259544184E+03  0.43635891168E+03  0.46999998093E+01 0. -1.
</event>
<event>
 5   0  0.1038912E-02  0.7996270E+03  0.7818609E-02  0.9560557E-01
       -1   -1    0    0    0  501  0.00000000000E+00  0.00000000000E+00  0.21697731917E+03  0.21697731923E+03  0.50400001928E-02 0. -1.
        1   -1    0    0  501    0  0.00000000000E+00  0.00000000000E+00 -0.73671686273E+03  0.73671686275E+03  0.50400001928E-02 0.  1.
    10030    2    1    2    0    0  0.00000000000E+00  0.00000000000E+00 -0.51973954356E+03  0.95369418197E+03  0.79962703780E+03 0.  0.
        2    1    3    3  502    0  0.24986172634E+03  0.24639730376E+03 -0.48837914212E+03  0.60137899868E+03  0.25500000920E-02 0.  1.
       -2    1    3    3    0  502 -0.24986172634E+03 -0.24639730376E+03 -0.31360401441E+02  0.35231518329E+03  0.25500000920E-02 0. -1.
</event>
<event>
 5   0  0.1049780E-02  0.8040553E+03  0.7818609E-02  0.9554166E-01
        1   -1    0    0  501    0  0.00000000000E+00  0.00000000000E+00  0.26744865052E+03  0.26744865057E+03  0.50400001928E-02 0. -1.
       -1   -1    0    0    0  501  0.00000000000E+00  0.00000000000E+00 -0.60432627061E+03  0.60432627063E+03  0.50400001928E-02 0.  1.
    10030    2    1    2    0    0  0.00000000000E+00  0.00000000000E+00 -0.33687762009E+03  0.87177492120E+03  0.80405533536E+03 0.  0.
        5    1    3    3  502    0 -0.12231619410E+03  0.35576406915E+02 -0.58183514152E+03  0.59563508458E+03  0.46999998093E+01 0.  1.
       -5    1    3    3    0  502  0.12231619410E+03 -0.35576406915E+02  0.24495752143E+03  0.27613983662E+03  0.46999998093E+01 0. -1.
</event>
<event>
 5   0  0.1025900E-02  0.8036884E+03  0.7818609E-02  0.9554694E-01
       -1   -1    0    0    0  501  0.00000000000E+00  0.00000000000E+00  0.92786860393E+03  0.92786860395E+03  0.50400001928E-02 0. -1.
        1   -1    0    0  501    0  0.00000000000E+00  0.00000000000E+00 -0.17403194631E+03  0.17403194638E+03  0.50400001928E-02 0.  1.
    10030    2    1    2    0    0  0.00000000000E+00  0.00000000000E+00  0.75383665763E+03  0.11019005503E+04  0.80368844488E+03 0.  0.
        1    1    3    3  502    0 -0.17364120982E+03  0.17108799740E+03 -0.61082378519E+02  0.25130346116E+03  0.50400001928E-02 0.  1.
       -1    1    3    3    0  502  0.17364120982E+03 -0.17108799740E+03  0.81491903615E+03  0.85059708917E+03  0.50400001928E-02 0. -1.
</event>
<event>
 5   0  0.1673727E-02  0.8005601E+03  0.7818609E-02  0.9559207E-01
       -2   -1    0    0    0  501  0.00000000000E+00  0.00000000000E+00  0.10191351820E+04  0.10191351820E+04  0.25500000920E-02 0. -1.
        2   -1    0    0  501    0  0.00000000000E+00  0.00000000000E+00 -0.15721575037E+03  0.15721575039E+03  0.25500000920E-02 0.  1.
    10030    2    1    2    0    0  0.00000000000E+00  0.00000000000E+00  0.86191943167E+03  0.11763509324E+04  0.80056005993E+03 0.  0.
        5    1    3    3  502    0  0.24989054567E+03 -0.31258229953E+03  0.44124911135E+03  0.59571456845E+03  0.46999998093E+01 0. -1.
       -5    1    3    3    0  502 -0.24989054567E+03  0.31258229953E+03  0.42067032032E+03  0.58063636399E+03  0.46999998093E+01 0.  1.
</event>
<event>
 5   0  0.1038912E-02  0.8051766E+03  0.7818609E-02  0.9552554E-01
        1   -1    0    0  501    0  0.00000000000E+00  0.00000000000E+00  0.15138729728E+04  0.15138729728E+04  0.50400001928E-02 0.  1.
       -1   -1    0    0    0  501  0.00000000000E+00  0.00000000000E+00 -0.10706139589E+03  0.10706139601E+03  0.50400001928E-02 0. -1.
    10030    2    1    2    0    0  0.00000000000E+00  0.00000000000E+00  0.14068115769E+04  0.16209343688E+04  0.80517663596E+03 0.  0.
        2    1    3    3  502    0  0.15991249233E+03  0.28288654009E+03  0.11818416668E+04  0.12257024620E+04  0.25500000920E-02 0.  1.
       -2    1    3    3    0  502 -0.15991249233E+03 -0.28288654009E+03  0.22496991010E+03  0.39523190689E+03  0.25500000920E-02 0. -1.
</event>
<event>
 5   0  0.1030323E-02  0.8076157E+03  0.7818609E-02  0.9549059E-01
       -1   -1    0    0    0  501  0.00000000000E+00  0.00000000000E+00  0.51576757806E+03  0.51576757808E+03  0.50400001928E-02 0.  1.
        1   -1    0    0  501    0  0.00000000000E+00  0.00000000000E+00 -0.31615166238E+03  0.31615166242E+03  0.50400001928E-02 0. -1.
    10030    2    1    2    0    0  0.00000000000E+00  0.00000000000E+00  0.19961591568E+03  0.83191924050E+03  0.80761569383E+03 0.  0.
        3    1    3    3  502    0 -0.24001620838E+03 -0.19647595534E+03  0.36614264247E+03  0.47986563343E+03  0.10100000352E+00 0.  1.
       -3    1    3    3    0  502  0.24001620838E+03  0.19647595534E+03 -0.16652672679E+03  0.35205360707E+03  0.10100000352E+00 0. -1.
</event>
<event>
 5   0  0.1818665E-02  0.8013320E+03  0.7818609E-02  0.9558091E-01
       -2   -1    0    0    0  501  0.00000000000E+00  0.00000000000E+00  0.18450437988E+03  0.18450437989E+03  0.25500000920E-02 0. -1.
        2   -1    0    0  501    0  0.00000000000E+00  0.00000000000E+00 -0.87007821183E+03  0.87007821183E+03  0.25500000920E-02 0.  1.
    10030    2    1    2    0    0  0.00000000000E+00  0.00000000000E+00 -0.68557383195E+03  0.10545825917E+04  0.80133199344E+03 0.  0.
        3    1    3    3  502    0 -0.18903877627E+03  0.34853059647E+03 -0.41866184613E+03  0.57661684611E+03  0.10100000352E+00 0.  1.
       -3    1    3    3    0  502  0.18903877627E+03 -0.34853059647E+03 -0.26691198582E+03  0.47796574562E+03  0.10100000352E+00 0. -1.
</event>
<event>
 5   0  0.1673727E-02  0.7847092E+03  0.7818609E-02  0.9582417E-01
       -2   -1    0    0    0  501  0.00000000000E+00  0.00000000000E+00  0.25008804604E+03  0.25008804605E+03  0.25500000920E-02 0. -1.
        2   -1    0    0  501    0  0.00000000000E+00  0.00000000000E+00 -0.61555179304E+03  0.61555179305E+03  0.25500000920E-02 0.  1.
    10030    2    1    2    0    0  0.00000000000E+00  0.00000000000E+00 -0.36546374700E+03  0.86563983910E+03  0.78470923320E+03 0.  0.
        5    1    3    3  502    0  0.17153488347E+03  0.10164373819E+03  0.18999765681E+03  0.27545755635E+03  0.46999998093E+01 0. -1.
       -5    1    3    3    0  502 -0.17153488347E+03 -0.10164373819E+03 -0.55546140381E+03  0.59018228275E+03  0.46999998093E+01 0.  1.
</event>
<event>
 5   0  0.1747544E-02  0.7952655E+03  0.7818609E-02  0.9566896E-01
        2   -1    0    0  501    0  0.00000000000E+00  0.00000000000E+00  0.49108341281E+03  0.49108341282E+03  0.25500000920E-02 0. -1.
       -2   -1    0    0    0  501  0.00000000000E+00  0.00000000000E+00 -0.32196524897E+03  0.32196524898E+03  0.25500000920E-02 0.  1.
    10030    2    1    2    0    0  0.00000000000E+00  0.00000000000E+00  0.16911816384E+03  0.81304866180E+03  0.79526547336E+03 0.  0.
        1    1    3    3  502    0  0.25660522334E+03  0.17563173298E+03 -0.16881135956E+03  0.35382201941E+03  0.50400001928E-02 0.  1.
       -1    1    3    3    0  502 -0.25660522334E+03 -0.17563173298E+03  0.33792952339E+03  0.45922664239E+03  0.50400001928E-02 0. -1.
</event>
<event>
 5   0  0.1146083E-02  0.8052977E+03  0.7818609E-02  0.9552380E-01
        1   -1    0    0  501    0  0.00000000000E+00  0.00000000000E+00  0.15604377077E+04  0.15604377077E+04  0.50400001928E-02 0. -1.
       -1   -1    0    0    0  501  0.00000000000E+00  0.00000000000E+00 -0.10389782197E+03  0.10389782209E+03  0.50400001928E-02 0.  1.
    10030    2    1    2    0    0  0.00000000000E+00  0.00000000000E+00  0.14565398857E+04  0.16643355298E+04  0.80529765742E+03 0.  0.
        4    1    3    3  502    0  0.10944270930E+03  0.32933734982E+03  0.30631369484E+03  0.46289360457E+03  0.12699999809E+01 0.  1.
       -4    1    3    3    0  502 -0.10944270930E+03 -0.32933734982E+03  0.11502261909E+04  0.12014419252E+04  0.12699999809E+01 0. -1.
</event>
<event>
 5   0  0.1030323E-02  0.7869269E+03  0.7818609E-02  0.9579135E-01
        1   -1    0    0  501    0  0.00000000000E+00  0.00000000000E+00  0.25670275098E+03  0.25670275103E+03  0.50400001928E-02 0. -1.
       -1   -1    0    0    0  501  0.00000000000E+00  0.00000000000E+00 -0.60308458362E+03  0.60308458364E+03  0.50400001928E-02 0.  1.
    10030    2    1    2    0    0  0.00000000000E+00  0.00000000000E+00 -0.34638183265E+03  0.85978733467E+03  0.78692686247E+03 0.  0.
        3    1    3    3  502    0 -0.45536159862E+02 -0.19634015735E+03  0.19601749644E+03  0.28115097076E+03  0.10100000352E+00 0. -1.
       -3    1    3    3    0  502  0.45536159862E+02  0.19634015735E+03 -0.54239932909E+03  0.57863636391E+03  0.10100000352E+00 0.  1.
</event>
<event>
 5   0  0.1025900E-02  0.7967995E+03  0.7818609E-02  0.9564661E-01
        1   -1    0    0  501    0  0.00000000000E+00  0.00000000000E+00  0.21698675554E+04  0.21698675554E+04  0.50400001928E-02 0. -1.
       -1   -1    0    0    0  501  0.00000000000E+00  0.00000000000E+00 -0.73148403842E+02  0.73148404015E+02  0.50400001928E-02 0.  1.
    10030    2    1    2    0    0  0.00000000000E+00  0.00000000000E+00  0.20967191516E+04  0.22430159594E+04  0.79679946894E+03 0.  0.
        1    1    3    3  502    0 -0.38478876952E+03 -0.30308551553E+02  0.13261982797E+04  0.13812251382E+04  0.50400001928E-02 0. -1.
       -1    1    3    3    0  502  0.38478876952E+03  0.30308551553E+02  0.77052087187E+03  0.86179082118E+03  0.50400001928E-02 0.  1.
</event>
<event>
 5   0  0.1817089E-02  0.8028462E+03  0.7818609E-02  0.9555907E-01
        2   -1    0    0  501    0  0.00000000000E+00  0.00000000000E+00  0.88319095442E+03  0.88319095442E+03  0.25500000920E-02 0.  1.
       -2   -1    0    0    0  501  0.00000000000E+00  0.00000000000E+00 -0.18245260318E+03  0.18245260320E+03  0.25500000920E-02 0. -1.
    10030    2    1    2    0    0  0.00000000000E+00  0.00000000000E+00  0.70073835124E+03  0.10656435576E+04  0.80284615899E+03 0.  0.
        2    1    3    3  502    0 -0.29199286506E+03  0.12634630663E+03  0.67527359981E+03  0.74647013138E+03  0.25500000920E-02 0.  1.
       -2    1    3    3    0  502  0.29199286506E+03 -0.12634630663E+03  0.25464751429E+02  0.31917342624E+03  0.25500000920E-02 0. -1.
</event>
<event>
 5   0  0.1025900E-02  0.8057664E+03  0.7818609E-02  0.9551708E-01
        1   -1    0    0  501    0  0.00000000000E+00  0.00000000000E+00  0.88714067523E+03  0.88714067524E+03  0.50400001928E-02 0.  1.
       -1   -1    0    0    0  501  0.00000000000E+00  0.00000000000E+00 -0.18296407867E+03  0.18296407874E+03  0.50400001928E-02 0. -1.
    10030    2    1    2    0    0  0.00000000000E+00  0.00000000000E+00  0.70417659656E+03  0.10701047540E+04  0.80576640867E+03 0.  0.
        1    1    3    3  502    0 -0.36755647511E+03  0.12859523962E+03  0.21483889902E+03  0.44473615842E+03  0.50400001928E-02 0.  1.
       -1    1    3    3    0  502  0.36755647511E+03 -0.12859523962E+03  0.48933769754E+03  0.62536859556E+03  0.50400001928E-02 0. -1.
</event>
<event>
 5   0  0.6872500E-03  0.8036487E+03  0.7818609E-02  0.9554751E-01
       -4   -1    0    0    0  501  0.00000000000E+00  0.00000000000E+00  0.16415067122E+03  0.16415558401E+03  0.12699999809E+01 0.  1.
        4   -1    0    0  501    0  0.00000000000E+00  0.00000000000E+00 -0.98360562856E+03  0.98360644845E+03  0.12699999809E+01 0. -1.
    10030    2    1    2    0    0  0.00000000000E+00  0.00000000000E+00 -0.81945495733E+03  0.11477620325E+04  0.80364871434E+03 0.  0.
        1    1    3    3  502    0 -0.18472777412E+03 -0.23985518202E+03 -0.78707200820E+03  0.84328951434E+03  0.50400001928E-02 0. -1.
       -1    1    3    3    0  502  0.18472777412E+03  0.23985518202E+03 -0.32382949132E+02  0.30447251812E+03  0.50400001928E-02 0.  1.
</event>
<event>
 5   0  0.1146083E-02  0.7936223E+03  0.7818609E-02  0.9569295E-01
       -1   -1    0    0    0  501  0.00000000000E+00  0.00000000000E+00  0.51880543208E+03  0.51880543210E+03  0.50400001928E-02 0. -1.
        1   -1    0    0  501    0  0.00000000000E+00  0.00000000000E+00 -0.30350318377E+03  0.30350318381E+03  0.50400001928E-02 0.  1.
    10030    2    1    2    0    0  0.00000000000E+00  0.00000000000E+00  0.21530224831E+03  0.82230861592E+03  0.79362232938E+03 0.  0.
        4    1    3    3  502    0 -0.30781855117E+03 -0.18280432017E+03  0.28497384787E+03  0.45758210934E+03  0.12699999809E+01 0.  1.
       -4    1    3    3    0  502  0.30781855117E+03  0.18280432017E+03 -0.69671599560E+02  0.36472650658E+03  0.12699999809E+01 0. -1.
</event>
<event>
 5   0  0.1818665E-02  0.8435623E+03  0.7818609E-02  0.9499018E-01
        2   -1    0    0  501    0  0.00000000000E+00  0.00000000000E+00  0.15388192297E+04  0.15388192297E+04  0.25500000920E-02 0. -1.
       -2   -1    0    0    0  501  0.00000000000E+00  0.00000000000E+00 -0.11560768963E+03  0.11560768966E+03  0.25500000920E-02 0.  1.
    10030    2    1    2    0    0  0.00000000000E+00  0.00000000000E+00  0.14232115400E+04  0.16544269193E+04  0.84356229390E+03 0.  0.
        3    1    3    3  502    0 -0.37239003339E+03  0.58801329502E+02  0.10825204896E+04  0.11462907807E+04  0.10100000352E+00 0. -1.
       -3    1    3    3    0  502  0.37239003339E+03 -0.58801329502E+02  0.34069105043E+03  0.50813613861E+03  0.10100000352E+00 0.  1.
</event>
<event>
 5   0  0.1818665E-02  0.8070336E+03  0.7818609E-02  0.9549892E-01
       -2   -1    0    0    0  501  0.00000000000E+00  0.00000000000E+00  0.33428597321E+03  0.33428597322E+03  0.25500000920E-02 0. -1.
        2   -1    0    0  501    0  0.00000000000E+00  0.00000000000E+00 -0.48708542452E+03  0.48708542453E+03  0.25500000920E-02 0.  1.
    10030    2    1    2    0    0  0.00000000000E+00  0.00000000000E+00 -0.15279945131E+03  0.82137139775E+03  0.80703364287E+03 0.  0.
        3    1    3    3  502    0 -0.20617918460E+03 -0.17931892856E+02  0.27615653898E+03  0.34509977277E+03  0.10100000352E+00 0. -1.
       -3    1    3    3    0  502  0.20617918460E+03  0.17931892856E+02 -0.42895599030E+03  0.47627162498E+03  0.10100000352E+00 0.  1.
</event>
<event>
 5   0  0.1038912E-02  0.8527555E+03  0.7818609E-02  0.9486646E-01
       -1   -1    0    0    0  501  0.00000000000E+00  0.00000000000E+00  0.12664304050E+03  0.12664304060E+03  0.50400001928E-02 0.  1.
        1   -1    0    0  501    0  0.00000000000E+00  0.00000000000E+00 -0.14355151729E+04  0.14355151729E+04  0.50400001928E-02 0. -1.
    10030    2    1    2    0    0  0.00000000000E+00  0.00000000000E+00 -0.13088721324E+04  0.15621582135E+04  0.85275554823E+03 0.  0.
        2    1    3    3  502    0 -0.32733499895E+03  0.40034204196E+02 -0.15932588747E+03  0.36624537877E+03  0.25500000920E-02 0.  1.
       -2    1    3    3    0  502  0.32733499895E+03 -0.40034204196E+02 -0.11495462449E+04  0.11959128347E+04  0.25500000920E-02 0. -1.
</event>
<event>
 5   0  0.6872500E-03  0.8075205E+03  0.7818609E-02  0.9549195E-01
       -3   -1    0    0    0  501  0.00000000000E+00  0.00000000000E+00  0.33507180999E+03  0.33507182522E+03  0.10100000352E+00 0.  1.
        3   -1    0    0  501    0  0.00000000000E+00  0.00000000000E+00 -0.48652955175E+03  0.48652956224E+03  0.10100000352E+00 0. -1.
    10030    2    1    2    0    0  0.00000000000E+00  0.00000000000E+00 -0.15145774176E+03  0.82160138745E+03  0.80752052130E+03 0.  0.
        1    1    3    3  502    0  0.17726963710E+03 -0.71440902973E+01  0.29328927018E+03  0.34277420890E+03  0.50400001928E-02 0.  1.
       -1    1    3    3    0  502 -0.17726963710E+03  0.71440902973E+01 -0.44474701194E+03  0.47882717855E+03  0.50400001928E-02 0. -1.
</event>
<event>
 5   0  0.1049780E-02  0.7994617E+03  0.7818609E-02  0.9560797E-01
        1   -1    0    0  501    0  0.00000000000E+00  0.00000000000E+00  0.85448818055E+03  0.85448818057E+03  0.50400001928E-02 0.  1.
       -1   -1    0    0    0  501  0.00000000000E+00  0.00000000000E+00 -0.18699468091E+03  0.18699468098E+03  0.50400001928E-02 0. -1.
    10030    2    1    2    0    0  0.00000000000E+00  0.00000000000E+00  0.66749349964E+03  0.10414828615E+04  0.79946168065E+03 0.  0.
        5    1    3    3  502    0  0.44700178349E+02  0.19287535383E+02 -0.18308186054E+03  0.18950243435E+03  0.46999998093E+01 0. -1.
       -5    1    3    3    0  502 -0.44700178349E+02 -0.19287535383E+02  0.85057536019E+03  0.85198042719E+03  0.46999998093E+01 0.  1.
</event>
<event>
 5   0  0.1673727E-02  0.7919400E+03  0.7818609E-02  0.9571757E-01
        2   -1    0    0  501    0  0.00000000000E+00  0.00000000000E+00  0.46724253348E+03  0.46724253349E+03  0.25500000920E-02 0.  1.
       -2   -1    0    0    0  501  0.00000000000E+00  0.00000000000E+00 -0.33556931910E+03  0.33556931911E+03  0.25500000920E-02 0. -1.
    10030    2    1    2    0    0  0.00000000000E+00  0.00000000000E+00  0.13167321438E+03  0.80281185259E+03  0.79194004525E+03 0.  0.
        5    1    3    3  502    0 -0.33186766586E+03 -0.26807581893E+02 -0.15138375735E+03  0.36577852053E+03  0.46999998093E+01 0. -1.
       -5    1    3    3    0  502  0.33186766586E+03  0.26807581893E+02  0.28305697174E+03  0.43703333207E+03  0.46999998093E+01 0.  1.
</event>
<event>
 5   0  0.1747544E-02  0.8001871E+03  0.7818609E-02  0.9559746E-01
       -2   -1    0    0    0  501  0.00000000000E+00  0.00000000000E+00  0.19066045569E+03  0.19066045570E+03  0.25500000920E-02 0.  1.
        2   -1    0    0  501    0  0.00000000000E+00  0.00000000000E+00 -0.83958078940E+03  0.83958078940E+03  0.25500000920E-02 0. -1.
    10030    2    1    2    0    0  0.00000000000E+00  0.00000000000E+00 -0.64892033371E+03  0.10302412451E+04  0.80018711788E+03 0.  0.
        1    1    3    3  502    0  0.82108298863E+02 -0.12226916216E+03  0.15448883637E+03  0.21344395364E+03  0.50400001928E-02 0.  1.
       -1    1    3    3    0  502 -0.82108298863E+02  0.12226916216E+03 -0.80340917008E+03  0.81679729147E+03  0.50400001928E-02 0. -1.
</event>
<event>
 5   0  0.1049780E-02  0.7971760E+03  0.7818609E-02  0.9564114E-01
       -1   -1    0    0    0  501  0.00000000000E+00  0.00000000000E+00  0.96860030314E+02  0.96860030445E+02  0.50400001928E-02 0. -1.
        1   -1    0    0  501    0  0.00000000000E+00  0.00000000000E+00 -0.16402266517E+04  0.16402266517E+04  0.50400001928E-02 0.  1.
    10030    2    1    2    0    0  0.00000000000E+00  0.00000000000E+00 -0.15433666214E+04  0.17370866821E+04  0.79717602404E+03 0.  0.
        5    1    3    3  502    0  0.35448234006E+03  0.18158529348E+03 -0.73940944140E+03  0.83986865655E+03  0.46999998093E+01 0. -1.
       -5    1    3    3    0  502 -0.35448234006E+03 -0.18158529348E+03 -0.80395717997E+03  0.89721802559E+03  0.46999998093E+01 0.  1.
</event>
<event>
 5   0  0.1038912E-02  0.7281584E+03  0.7818609E-02  0.9670253E-01
       -1   -1    0    0    0  501  0.00000000000E+00  0.00000000000E+00  0.12603929440E+03  0.12603929450E+03  0.50400001928E-02 0.  1.
        1   -1    0    0  501    0  0.00000000000E+00  0.00000000000E+00 -0.10516852247E+04  0.10516852247E+04  0.50400001928E-02 0. -1.
    10030    2    1    2    0    0  0.00000000000E+00  0.00000000000E+00 -0.92564593027E+03  0.11777245192E+04  0.72815839956E+03 0.  0.
        2    1    3    3  502    0  0.66578532348E+01 -0.21311108968E+03 -0.94014279679E+03  0.96401718964E+03  0.25500000920E-02 0. -1.
       -2    1    3    3    0  502 -0.66578532348E+01  0.21311108968E+03  0.14496866524E+02  0.21370732954E+03  0.25500000920E-02 0.  1.
</event>
<event>
 5   0  0.1731337E-02  0.7961547E+03  0.7818609E-02  0.9565600E-01
        2   -1    0    0  501    0  0.00000000000E+00  0.00000000000E+00  0.87586637188E+03  0.87586637188E+03  0.25500000920E-02 0. -1.
       -2   -1    0    0    0  501  0.00000000000E+00  0.00000000000E+00 -0.18092437392E+03  0.18092437393E+03  0.25500000920E-02 0.  1.
    10030    2    1    2    0    0  0.00000000000E+00  0.00000000000E+00  0.69494199796E+03  0.10567907458E+04  0.79615469597E+03 0.  0.
        4    1    3    3  502    0  0.10361793374E+01 -0.82054308353E+02  0.86451468523E+03  0.86840154137E+03  0.12699999809E+01 0. -1.
       -4    1    3    3    0  502 -0.10361793374E+01  0.82054308353E+02 -0.16957268726E+03  0.18838920445E+03  0.12699999809E+01 0.  1.
</event>
<event>
 5   0  0.1818665E-02  0.7928864E+03  0.7818609E-02  0.9570371E-01
        2   -1    0    0  501    0  0.00000000000E+00  0.00000000000E+00  0.16465126248E+04  0.16465126248E+04  0.25500000920E-02 0. -1.
       -2   -1    0    0    0  501  0.00000000000E+00  0.00000000000E+00 -0.95454614452E+02  0.95454614486E+02  0.25500000920E-02 0.  1.
    10030    2    1    2    0    0  0.00000000000E+00  0.00000000000E+00  0.15510580104E+04  0.17419672393E+04  0.79288644288E+03 0.  0.
        3    1    3    3  502    0 -0.29335194998E+03  0.82835163771E+02  0.13324148616E+04  0.13668381047E+04  0.10100000352E+00 0. -1.
       -3    1    3    3    0  502  0.29335194998E+03 -0.82835163771E+02  0.21864314879E+03  0.37512913461E+03  0.10100000352E+00 0.  1.
</event>
<event>
 5   0  0.1673727E-02  0.8013080E+03  0.7818609E-02  0.9558126E-01
       -2   -1    0    0    0  501  0.00000000000E+00  0.00000000000E+00  0.38324644045E+03  0.38324644046E+03  0.25500000920E-02 0.  1.
        2   -1    0    0  501    0  0.00000000000E+00  0.00000000000E+00 -0.41885227385E+03  0.41885227386E+03  0.25500000920E-02 0. -1.
    10030    2    1    2    0    0  0.00000000000E+00  0.00000000000E+00 -0.35605833394E+02  0.80209871432E+03  0.80130803824E+03 0.  0.
        5    1    3    3  502    0 -0.11814433662E+03 -0.37266898170E+03 -0.10541812994E+03  0.40493866982E+03  0.46999998093E+01 0.  1.
       -5    1    3    3    0  502  0.11814433662E+03  0.37266898170E+03  0.69812296547E+02  0.39716004450E+03  0.46999998093E+01 0. -1.
</event>
<event>
 5   0  0.1673727E-02  0.7986310E+03  0.7818609E-02  0.9562001E-01
        2   -1    0    0  501    0  0.00000000000E+00  0.00000000000E+00  0.63661711271E+03  0.63661711271E+03  0.25500000920E-02 0. -1.
       -2   -1    0    0    0  501  0.00000000000E+00  0.00000000000E+00 -0.25046905487E+03  0.25046905488E+03  0.25500000920E-02 0.  1.
    10030    2    1    2    0    0  0.00000000000E+00  0.00000000000E+00  0.38614805784E+03  0.88708616760E+03  0.79863104508E+03 0.  0.
        5    1    3    3  502    0  0.37027559323E+03 -0.81655123034E+02  0.33207080143E+03  0.50404829255E+03  0.46999998093E+01 0. -1.
       -5    1    3    3    0  502 -0.37027559323E+03  0.81655123034E+02  0.54077256406E+02  0.38303787505E+03  0.46999998093E+01 0.  1.
</event>
<event>
 5   0  0.1673727E-02  0.7959368E+03  0.7818609E-02  0.9565917E-01
        2   -1    0    0  501    0  0.00000000000E+00  0.00000000000E+00  0.17723282236E+04  0.17723282236E+04  0.25500000920E-02 0. -1.
       -2   -1    0    0    0  501  0.00000000000E+00  0.00000000000E+00 -0.89362040062E+02  0.89362040098E+02  0.25500000920E-02 0.  1.
    10030    2    1    2    0    0  0.00000000000E+00  0.00000000000E+00  0.16829661836E+04  0.18616902637E+04  0.79593684613E+03 0.  0.
        5    1    3    3  502    0 -0.11789591734E+03 -0.33702231146E+03  0.43050348350E+03  0.55931996662E+03  0.46999998093E+01 0.  1.
       -5    1    3    3    0  502  0.11789591734E+03  0.33702231146E+03  0.12524627001E+04  0.13023702971E+04  0.46999998093E+01 0. -1.
</event>
<event>
 5   0  0.1049780E-02  0.8275413E+03  0.7818609E-02  0.9520986E-01
       -1   -1    0    0    0  501  0.00000000000E+00  0.00000000000E+00  0.25274981787E+03  0.25274981792E+03  0.50400001928E-02 0. -1.
        1   -1    0    0  501    0  0.00000000000E+00  0.00000000000E+00 -0.67737393019E+03  0.67737393021E+03  0.50400001928E-02 0.  1.
    10030    2    1    2    0    0  0.00000000000E+00  0.00000000000E+00 -0.42462411232E+03  0.93012374813E+03  0.82754126790E+03 0.  0.
        5    1    3    3  502    0  0.25789593308E+03 -0.14063283450E+03  0.11517568494E+03  0.31555575551E+03  0.46999998093E+01 0. -1.
       -5    1    3    3    0  502 -0.25789593308E+03  0.14063283450E+03 -0.53979979726E+03  0.61456799262E+03  0.46999998093E+01 0.  1.
</event>
<event>
 5   0  0.1747544E-02  0.8081207E+03  0.7818609E-02  0.9548336E-01
        2   -1    0    0  501    0  0.00000000000E+00  0.00000000000E+00  0.27979494979E+03  0.27979494980E+03  0.25500000920E-02 0. -1.
       -2   -1    0    0    0  501  0.00000000000E+00  0.00000000000E+00 -0.58351583186E+03  0.58351583187E+03  0.25500000920E-02 0.  1.
    10030    2    1    2    0    0  0.00000000000E+00  0.00000000000E+00 -0.30372088208E+03  0.86331078167E+03  0.80812074069E+03 0.  0.
        1    1    3    3  502    0  0.23325618605E+03  0.12901961285E+03 -0.47626023361E+03  0.54578229998E+03  0.50400001928E-02 0.  1.
       -1    1    3    3    0  502 -0.23325618605E+03 -0.12901961285E+03  0.17253935154E+03  0.31752848168E+03  0.50400001928E-02 0. -1.
</event>
<event>
 5   0  0.1038912E-02  0.8094038E+03  0.7818609E-02  0.9546504E-01
        1   -1    0    0  501    0  0.00000000000E+00  0.00000000000E+00  0.29329587554E+03  0.29329587558E+03  0.50400001928E-02 0. -1.
       -1   -1    0    0    0  501  0.00000000000E+00  0.00000000000E+00 -0.55842459039E+03  0.55842459041E+03  0.50400001928E-02 0.  1.
    10030    2    1    2    0    0  0.00000000000E+00  0.00000000000E+00 -0.26512871485E+03  0.85172046599E+03  0.80940380327E+03 0.  0.
        2    1    3    3  502    0 -0.19582027053E+03  0.21159490158E+03  0.16630139891E+03  0.33282748686E+03  0.25500000920E-02 0. -1.
       -2    1    3    3    0  502  0.19582027053E+03 -0.21159490158E+03 -0.43143011376E+03  0.51889297913E+03  0.25500000920E-02 0.  1.
</event>
<event>
 5   0  0.1038912E-02  0.8123560E+03  0.7818609E-02  0.9542303E-01
       -1   -1    0    0    0  501  0.00000000000E+00  0.00000000000E+00  0.96940301777E+02  0.96940301908E+02  0.50400001928E-02 0. -1.
        1   -1    0    0  501    0  0.00000000000E+00  0.00000000000E+00 -0.17018778135E+04  0.17018778135E+04  0.50400001928E-02 0.  1.
    10030    2    1    2    0    0  0.00000000000E+00  0.00000000000E+00 -0.16049375117E+04  0.17988181154E+04  0.81235595389E+03 0.  0.
        2    1    3    3  502    0 -0.34500002552E+03  0.15896587655E+03 -0.11209417798E+04  0.11835563532E+04  0.25500000920E-02 0.  1.
       -2    1    3    3    0  502  0.34500002552E+03 -0.15896587655E+03 -0.48399573198E+03  0.61526176226E+03  0.25500000920E-02 0. -1.
</event>
<event>
 5   0  0.1030323E-02  0.8037265E+03  0.7818609E-02  0.9554639E-01
       -1   -1    0    0    0  501  0.00000000000E+00  0.00000000000E+00  0.67378972413E+03  0.67378972414E+03  0.50400001928E-02 0. -1.
        1   -1    0    0  501    0  0.00000000000E+00  0.00000000000E+00 -0.23968019830E+03  0.23968019836E+03  0.50400001928E-02 0.  1.
    10030    2    1    2    0    0  0.00000000000E+00  0.00000000000E+00  0.43410952582E+03  0.91346992250E+03  0.80372645776E+03 0.  0.
        3    1    3    3  502    0 -0.30731064764E+03 -0.23645818428E+03  0.97087583738E+02  0.39972279918E+03  0.10100000352E+00 0.  1.
       -3    1    3    3    0  502  0.30731064764E+03  0.23645818428E+03  0.33702194208E+03  0.51374712332E+03  0.10100000352E+00 0. -1.
</event>
<event>
 5   0  0.1747544E-02  0.7896340E+03  0.7818609E-02  0.9575144E-01
       -2   -1    0    0    0  501  0.00000000000E+00  0.00000000000E+00  0.24866630444E+03  0.24866630445E+03  0.25500000920E-02 0.  1.
        2   -1    0    0  501    0  0.00000000000E+00  0.00000000000E+00 -0.62686597356E+03  0.62686597357E+03  0.25500000920E-02 0. -1.
    10030    2    1    2    0    0  0.00000000000E+00  0.00000000000E+00 -0.37819966913E+03  0.87553227802E+03  0.78963395325E+03 0.  0.
        1    1    3    3  502    0  0.37619253410E+03 -0.11959191322E+03 -0.18069963922E+03  0.43413754509E+03  0.50400001928E-02 0.  1.
       -1    1    3    3    0  502 -0.37619253410E+03  0.11959191322E+03 -0.19750002991E+03  0.44139473293E+03  0.50400001928E-02 0. -1.
</event>
<event>
 5   0  0.1146083E-02  0.8044606E+03  0.7818609E-02  0.9553583E-01
       -1   -1    0    0    0  501  0.00000000000E+00  0.00000000000E+00  0.13213431065E+03  0.13213431074E+03  0.50400001928E-02 0.  1.
        1   -1    0    0  501    0  0.00000000000E+00  0.00000000000E+00 -0.12244298687E+04  0.12244298687E+04  0.50400001928E-02 0. -1.
    10030    2    1    2    0    0  0.00000000000E+00  0.00000000000E+00 -0.10922955581E+04  0.13565641795E+04  0.80446055642E+03 0.  0.
        4    1    3    3  502    0  0.38752457554E+03  0.51540373954E+02 -0.70573189076E+03  0.80677804961E+03  0.12699999809E+01 0. -1.
       -4    1    3    3    0  502 -0.38752457554E+03 -0.51540373954E+02 -0.38656366729E+03  0.54978612984E+03  0.12699999809E+01 0.  1.
</event>
<event>
 5   0  0.1146083E-02  0.7987486E+03  0.7818609E-02  0.9561830E-01
        1   -1    0    0  501    0  0.00000000000E+00  0.00000000000E+00  0.57191563727E+03  0.57191563729E+03  0.50400001928E-02 0. -1.
       -1   -1    0    0    0  501  0.00000000000E+00  0.00000000000E+00 -0.27888696103E+03  0.27888696108E+03  0.50400001928E-02 0.  1.
    10030    2    1    2    0    0  0.00000000000E+00  0.00000000000E+00  0.29302867623E+03  0.85080259837E+03  0.79874855636E+03 0.  0.
        4    1    3    3  502    0 -0.14610699193E+03  0.34906714133E+02  0.54067378643E+03  0.56115549362E+03  0.12699999809E+01 0. -1.
       -4    1    3    3    0  502  0.14610699193E+03 -0.34906714133E+02 -0.24764511020E+03  0.28964710475E+03  0.12699999809E+01 0.  1.
</event>
<event>
 5   0  0.1049780E-02  0.8059035E+03  0.7818609E-02  0.9551511E-01
       -1   -1    0    0    0  501  0.00000000000E+00  0.00000000000E+00  0.23156954196E+03  0.23156954202E+03  0.50400001928E-02 0.  1.
        1   -1    0    0  501    0  0.00000000000E+00  0.00000000000E+00 -0.70117219173E+03  0.70117219175E+03  0.50400001928E-02 0. -1.
    10030    2    1    2    0    0  0.00000000000E+00  0.00000000000E+00 -0.46960264977E+03  0.93274173376E+03  0.80590352601E+03 0.  0.
        5    1    3    3  502    0 -0.37629875763E+02  0.37754272089E+03 -0.77833451866E+02  0.38734306483E+03  0.46999998093E+01 0.  1.
       -5    1    3    3    0  502  0.37629875763E+02 -0.37754272089E+03 -0.39176919790E+03  0.54539866893E+03  0.46999998093E+01 0. -1.
</event>
<event>
 5   0  0.1817089E-02  0.6641977E+03  0.7818609E-02  0.9780497E-01
        2   -1    0    0  501    0  0.00000000000E+00  0.00000000000E+00  0.82605151969E+03  0.82605151969E+03  0.25500000920E-02 0. -1.
       -2   -1    0    0    0  501  0.00000000000E+00  0.00000000000E+00 -0.13351426431E+03  0.13351426434E+03  0.25500000920E-02 0.  1.
    10030    2    1    2    0    0  0.00000000000E+00  0.00000000000E+00  0.69253725538E+03  0.95956578403E+03  0.66419774449E+03 0.  0.
        2    1    3    3  502    0  0.20749947819E+03 -0.95458424525E+02  0.69456189487E+03  0.73115290472E+03  0.25500000920E-02 0. -1.
       -2    1    3    3    0  502 -0.20749947819E+03  0.95458424525E+02 -0.20246394934E+01  0.22841287931E+03  0.25500000920E-02 0.  1.
</event>
<event>
 5   0  0.1731337E-02  0.8073701E+03  0.7818609E-02  0.9549410E-01
        2   -1    0    0  501    0  0.00000000000E+00  0.00000000000E+00  0.11314632543E+04  0.11314632543E+04  0.25500000920E-02 0.  1.
       -2   -1    0    0    0  501  0.00000000000E+00  0.00000000000E+00 -0.14402733704E+03  0.14402733706E+03  0.25500000920E-02 0. -1.
    10030    2    1    2    0    0  0.00000000000E+00  0.00000000000E+00  0.98743591724E+03  0.12754905913E+04  0.80737014927E+03 0.  0.
        4    1    3    3  502    0 -0.46481593936E+02  0.38085376065E+03  0.69198178580E+03  0.79123354982E+03  0.12699999809E+01 0.  1.
       -4    1    3    3    0  502  0.46481593936E+02 -0.38085376065E+03  0.29545413144E+03  0.48425704152E+03  0.12699999809E+01 0. -1.
</event>
<event>
 5   0  0.1673727E-02  0.8027653E+03  0.7818609E-02  0.9556023E-01
       -2   -1    0    0    0  501  0.00000000000E+00  0.00000000000E+00  0.12038772360E+03  0.12038772362E+03  0.25500000920E-02 0. -1.
        2   -1    0    0  501    0  0.00000000000E+00  0.00000000000E+00 -0.13382429114E+04  0.13382429114E+04  0.25500000920E-02 0.  1.
    10030    2    1    2    0    0  0.00000000000E+00  0.00000000000E+00 -0.12178551878E+04  0.14586306350E+04  0.80276526517E+03 0.  0.
        5    1    3    3  502    0  0.29916608952E+03  0.18120006721E+03 -0.96661566683E+03  0.10279599948E+04  0.46999998093E+01 0.  1.
       -5    1    3    3    0  502 -0.29916608952E+03 -0.18120006721E+03 -0.25123952096E+03  0.43067064024E+03  0.46999998093E+01 0. -1.
</event>
<event>
 5   0  0.1818665E-02  0.8065112E+03  0.7818609E-02  0.9550640E-01
       -2   -1    0    0    0  501  0.00000000000E+00  0.00000000000E+00  0.73747864627E+03  0.73747864627E+03  0.25500000920E-02 0. -1.
        2   -1    0    0  501    0  0.00000000000E+00  0.00000000000E+00 -0.22050142395E+03  0.22050142396E+03  0.25500000920E-02 0.  1.
    10030    2    1    2    0    0  0.00000000000E+00  0.00000000000E+00  0.51697722232E+03  0.95798007024E+03  0.80651123152E+03 0.  0.
        3    1    3    3  502    0 -0.12911407868E+03  0.66168721151E+02  0.70540476339E+03  0.72016986565E+03  0.10100000352E+00 0. -1.
       -3    1    3    3    0  502  0.12911407868E+03 -0.66168721151E+02 -0.18842754107E+03  0.23781020459E+03  0.10100000352E+00 0.  1.
</event>
<event>
 5   0  0.1673727E-02  0.7987399E+03  0.7818609E-02  0.9561843E-01
        2   -1    0    0  501    0  0.00000000000E+00  0.00000000000E+00  0.71983341550E+03  0.71983341551E+03  0.25500000920E-02 0. -1.
       -2   -1    0    0    0  501  0.00000000000E+00  0.00000000000E+00 -0.22157400946E+03  0.22157400948E+03  0.25500000920E-02 0.  1.
    10030    2    1    2    0    0  0.00000000000E+00  0.00000000000E+00  0.49825940604E+03  0.94140742499E+03  0.79873994774E+03 0.  0.
        5    1    3    3  502    0  0.56184865821E+02  0.63168799819E+02 -0.21087366776E+03  0.22723738727E+03  0.46999998093E+01 0.  1.
       -5    1    3    3    0  502 -0.56184865821E+02 -0.63168799819E+02  0.70913307380E+03  0.71417003772E+03  0.46999998093E+01 0. -1.
</event>
<event>
 5   0  0.1817089E-02  0.8001453E+03  0.7818609E-02  0.9559807E-01
       -2   -1    0    0    0  501  0.00000000000E+00  0.00000000000E+00  0.11058460611E+03  0.11058460614E+03  0.25500000920E-02 0. -1.
        2   -1    0    0  501    0  0.00000000000E+00  0.00000000000E+00 -0.14473814877E+04  0.14473814877E+04  0.25500000920E-02 0.  1.
    10030    2    1    2    0    0  0.00000000000E+00  0.00000000000E+00 -0.13367968816E+04  0.15579660938E+04  0.80014526614E+03 0.  0.
        2    1    3    3  502    0 -0.67767281445E+02  0.17540022094E+03 -0.13559783946E+04  0.13689539980E+04  0.25500000920E-02 0.  1.
       -2    1    3    3    0  502  0.67767281445E+02 -0.17540022094E+03  0.19181513004E+02  0.18901209587E+03  0.25500000920E-02 0. -1.
</event>
<event>
 5   0  0.1025900E-02  0.8337948E+03  0.7818609E-02  0.9512349E-01
       -1   -1    0    0    0  501  0.00000000000E+00  0.00000000000E+00  0.15137191114E+03  0.15137191123E+03  0.50400001928E-02 0.  1.
        1   -1    0    0  501    0  0.00000000000E+00  0.00000000000E+00 -0.11481881628E+04  0.11481881628E+04  0.50400001928E-02 0. -1.
    10030    2    1    2    0    0  0.00000000000E+00  0.00000000000E+00 -0.99681625164E+03  0.12995600740E+04  0.83379478678E+03 0.  0.
        1    1    3    3  502    0  0.28693231699E+03  0.42065698836E+02 -0.96522065727E+03  0.10078445291E+04  0.50400001928E-02 0. -1.
       -1    1    3    3    0  502 -0.28693231699E+03 -0.42065698836E+02 -0.31595594377E+02  0.29171554495E+03  0.50400001928E-02 0.  1.
</event>
<event>
 5   0  0.1146083E-02  0.8078035E+03  0.7818609E-02  0.9548790E-01
        1   -1    0    0  501    0  0.00000000000E+00  0.00000000000E+00  0.15040552242E+04  0.15040552242E+04  0.50400001928E-02 0.  1.
       -1   -1    0    0    0  501  0.00000000000E+00  0.00000000000E+00 -0.10846451070E+03  0.10846451081E+03  0.50400001928E-02 0. -1.
    10030    2    1    2    0    0  0.00000000000E+00  0.00000000000E+00  0.13955907135E+04  0.16125197350E+04  0.80780347624E+03 0.  0.
        4    1    3    3  502    0 -0.20473830753E+03  0.34996751907E+02  0.13892700468E+04  0.14047118648E+04  0.12699999809E+01 0.  1.
       -4    1    3    3    0  502  0.20473830753E+03 -0.34996751907E+02  0.63206667165E+01  0.20780787026E+03  0.12699999809E+01 0. -1.
</event>
<event>
 5   0  0.1731337E-02  0.8003137E+03  0.7818609E-02  0.9559563E-01
        2   -1    0    0  501    0  0.00000000000E+00  0.00000000000E+00  0.45822569033E+03  0.45822569034E+03  0.25500000920E-02 0.  1.
       -2   -1    0    0    0  501  0.00000000000E+00  0.00000000000E+00 -0.34944677686E+03  0.34944677687E+03  0.25500000920E-02 0. -1.
    10030    2    1    2    0    0  0.00000000000E+00  0.00000000000E+00  0.10877891347E+03  0.80767246720E+03  0.80031366492E+03 0.  0.
        4    1    3    3  502    0  0.21354855775E+03 -0.10858326912E+03  0.37785266076E+03  0.44740089293E+03  0.12699999809E+01 0.  1.
       -4    1    3    3    0  502 -0.21354855775E+03  0.10858326912E+03 -0.26907374729E+03  0.36027157427E+03  0.12699999809E+01 0. -1.
</event>
<event>
 5   0  0.1731337E-02  0.8044846E+03  0.7818609E-02  0.9553548E-01
        2   -1    0    0  501    0  0.00000000000E+00  0.00000000000E+00  0.97144696669E+03  0.97144696669E+03  0.25500000920E-02 0. -1.
       -2   -1    0    0    0  501  0.00000000000E+00  0.00000000000E+00 -0.16655451727E+03  0.16655451728E+03  0.25500000920E-02 0.  1.
    10030    2    1    2    0    0  0.00000000000E+00  0.00000000000E+00  0.80489244942E+03  0.11380014840E+04  0.80448463155E+03 0.  0.
        4    1    3    3  502    0  0.76853149230E+02 -0.32888161218E+03  0.71148326815E+03  0.78757829778E+03  0.12699999809E+01 0. -1.
       -4    1    3    3    0  502 -0.76853149230E+02  0.32888161218E+03  0.93409181274E+02  0.35042318620E+03  0.12699999809E+01 0.  1.
</event>
<event>
 5   0  0.1038912E-02  0.8003215E+03  0.7818609E-02  0.9559552E-01
        1   -1    0    0  501    0  0.00000000000E+00  0.00000000000E+00  0.12774510827E+04  0.12774510828E+04  0.50400001928E-02 0.  1.
       -1   -1    0    0    0  501  0.00000000000E+00  0.00000000000E+00 -0.12535011767E+03  0.12535011777E+03  0.50400001928E-02 0. -1.
    10030    2    1    2    0    0  0.00000000000E+00  0.00000000000E+00  0.11521009651E+04  0.14028012005E+04  0.80032154442E+03 0.  0.
        2    1    3    3  502    0 -0.35060212513E+03 -0.52289763209E+02  0.90148864406E+03  0.96867840116E+03  0.25500000920E-02 0. -1.
       -2    1    3    3    0  502  0.35060212513E+03  0.52289763209E+02  0.25061232101E+03  0.43412279937E+03  0.25500000920E-02 0.  1.
</event>
<event>
 5   0  0.6872500E-03  0.7988108E+03  0.7818609E-02  0.9561740E-01
       -4   -1    0    0    0  501  0.00000000000E+00  0.00000000000E+00  0.12801657148E+03  0.12802287090E+03  0.12699999809E+01 0.  1.
        4   -1    0    0  501    0  0.00000000000E+00  0.00000000000E+00 -0.12460879033E+04  0.12460885505E+04  0.12699999809E+01 0. -1.
    10030    2    1    2    0    0  0.00000000000E+00  0.00000000000E+00 -0.11180713319E+04  0.13741114214E+04  0.79881080074E+03 0.  0.
        5    1    3    3  502    0  0.37247271867E+03  0.80087841265E+01 -0.31152746306E+03  0.48566605503E+03  0.46999998093E+01 0.  1.
       -5    1    3    3    0  502 -0.37247271867E+03 -0.80087841265E+01 -0.80654386880E+03  0.88844536640E+03  0.46999998093E+01 0. -1.
</event>
<event>
 5   0  0.1817089E-02  0.8030064E+03  0.7818609E-02  0.9555676E-01
        2   -1    0    0  501    0  0.00000000000E+00  0.00000000000E+00  0.26932764172E+04  0.26932764172E+04  0.25500000920E-02 0.  1.
       -2   -1    0    0    0  501  0.00000000000E+00  0.00000000000E+00 -0.59854538714E+02  0.59854538768E+02  0.25500000920E-02 0. -1.
    10030    2    1    2    0    0  0.00000000000E+00  0.00000000000E+00  0.26334218784E+04  0.27531309559E+04  0.80300639513E+03 0.  0.
        2    1    3    3  502    0  0.11029163242E+03  0.20896583871E+03  0.24296574523E+04  0.24411198867E+04  0.25500000920E-02 0.  1.
       -2    1    3    3    0  502 -0.11029163242E+03 -0.20896583871E+03  0.20376442618E+03  0.31201106922E+03  0.25500000920E-02 0. -1.
</event>
<event>
 5   0  0.1818665E-02  0.8321278E+03  0.7818609E-02  0.9514643E-01
        2   -1    0    0  501    0  0.00000000000E+00  0.00000000000E+00  0.12451285211E+04  0.12451285211E+04  0.25500000920E-02 0.  1.
       -2   -1    0    0    0  501  0.00000000000E+00  0.00000000000E+00 -0.13902914808E+03  0.13902914811E+03  0.25500000920E-02 0. -1.
    10030    2    1    2    0    0  0.00000000000E+00  0.00000000000E+00  0.11060993730E+04  0.13841576692E+04  0.83212777280E+03 0.  0.
        3    1    3    3  502    0  0.38641633386E+03  0.65626831764E+02  0.32086037636E+03  0.50653317309E+03  0.10100000352E+00 0. -1.
       -3    1    3    3    0  502 -0.38641633386E+03 -0.65626831764E+02  0.78523899668E+03  0.87762449615E+03  0.10100000352E+00 0.  1.
</event>
<event>
 5   0  0.6872500E-03  0.7914267E+03  0.7818609E-02  0.9572510E-01
       -3   -1    0    0    0  501  0.00000000000E+00  0.00000000000E+00  0.63080492282E+03  0.63080493090E+03  0.10100000352E+00 0. -1.
        3   -1    0    0  501    0  0.00000000000E+00  0.00000000000E+00 -0.24823690482E+03  0.24823692537E+03  0.10100000352E+00 0.  1.
    10030    2    1    2    0    0  0.00000000000E+00  0.00000000000E+00  0.38256801800E+03  0.87904185627E+03  0.79142674751E+03 0.  0.
        5    1    3    3  502    0 -0.88192151683E+02  0.12265215781E+03 -0.21491470575E+03  0.26273908765E+03  0.46999998093E+01 0.  1.
       -5    1    3    3    0  502  0.88192151683E+02 -0.12265215781E+03  0.59748272375E+03  0.61630276862E+03  0.46999998093E+01 0. -1.
</event>
<event>
 5   0  0.1817089E-02  0.7938626E+03  0.7818609E-02  0.9568943E-01
        2   -1    0    0  501    0  0.00000000000E+00  0.00000000000E+00  0.15687341782E+04  0.15687341782E+04  0.25500000920E-02 0. -1.
       -2   -1    0    0    0  501  0.00000000000E+00  0.00000000000E+00 -0.10043413698E+03  0.10043413701E+03  0.25500000920E-02 0.  1.
    10030    2    1    2    0    0  0.00000000000E+00  0.00000000000E+00  0.14683000413E+04  0.16691683153E+04  0.79386261625E+03 0.  0.
        2    1    3    3  502    0 -0.91466894298E+02 -0.36659044877E+03  0.47836127336E+03  0.60957711385E+03  0.25500000920E-02 0. -1.
       -2    1    3    3    0  502  0.91466894298E+02  0.36659044877E+03  0.98993876790E+03  0.10595912014E+04  0.25500000920E-02 0.  1.
</event>
<event>
 5   0  0.1747544E-02  0.7985720E+03  0.7818609E-02  0.9562086E-01
        2   -1    0    0  501    0  0.00000000000E+00  0.00000000000E+00  0.21423213030E+03  0.21423213032E+03  0.25500000920E-02 0.  1.
       -2   -1    0    0    0  501  0.00000000000E+00  0.00000000000E+00 -0.74418951022E+03  0.74418951023E+03  0.25500000920E-02 0. -1.
    10030    2    1    2    0    0  0.00000000000E+00  0.00000000000E+00 -0.52995737992E+03  0.95842164054E+03  0.79857198581E+03 0.  0.
        1    1    3    3  502    0  0.10537789774E+03  0.90092842965E+01  0.19711556478E+03  0.22369670189E+03  0.50400001928E-02 0.  1.
       -1    1    3    3    0  502 -0.10537789774E+03 -0.90092842965E+01 -0.72707294470E+03  0.73472493865E+03  0.50400001928E-02 0. -1.
</event>
<event>
 5   0  0.1030323E-02  0.7976628E+03  0.7818609E-02  0.9563406E-01
       -1   -1    0    0    0  501  0.00000000000E+00  0.00000000000E+00  0.12373816905E+04  0.12373816905E+04  0.50400001928E-02 0. -1.
        1   -1    0    0  501    0  0.00000000000E+00  0.00000000000E+00 -0.12855086290E+03  0.12855086300E+03  0.50400001928E-02 0.  1.
    10030    2    1    2    0    0  0.00000000000E+00  0.00000000000E+00  0.11088308276E+04  0.13659325535E+04  0.79766279625E+03 0.  0.
        3    1    3    3  502    0  0.14183143679E+03  0.34947885127E+03  0.77646829740E+03  0.86322340736E+03  0.10100000352E+00 0. -1.
       -3    1    3    3    0  502 -0.14183143679E+03 -0.34947885127E+03  0.33236253020E+03  0.50270914616E+03  0.10100000352E+00 0.  1.
</event>
<event>
 5   0  0.1673727E-02  0.8042813E+03  0.7818609E-02  0.9553841E-01
       -2   -1    0    0    0  501  0.00000000000E+00  0.00000000000E+00  0.19578345726E+03  0.19578345728E+03  0.25500000920E-02 0.  1.
        2   -1    0    0  501    0  0.00000000000E+00  0.00000000000E+00 -0.82599978759E+03  0.82599978759E+03  0.25500000920E-02 0. -1.
    10030    2    1    2    0    0  0.00000000000E+00  0.00000000000E+00 -0.63021633033E+03  0.10217832449E+04  0.80428127946E+03 0.  0.
        5    1    3    3  502    0 -0.17143193155E+03  0.20409124388E+03 -0.69761709162E+03  0.74681580024E+03  0.46999998093E+01 0. -1.
       -5    1    3    3    0  502  0.17143193155E+03 -0.20409124388E+03  0.67400761288E+02  0.27496744462E+03  0.46999998093E+01 0.  1.
</event>
<event>
 5   0  0.1731337E-02  0.8037433E+03  0.7818609E-02  0.9554615E-01
        2   -1    0    0  501    0  0.00000000000E+00  0.00000000000E+00  0.74703460012E+03  0.74703460013E+03  0.25500000920E-02 0. -1.
       -2   -1    0    0    0  501  0.00000000000E+00  0.00000000000E+00 -0.21618920608E+03  0.21618920609E+03  0.25500000920E-02 0.  1.
    10030    2    1    2    0    0  0.00000000000E+00  0.00000000000E+00  0.53084539404E+03  0.96322380622E+03  0.80374328519E+03 0.  0.
        4    1    3    3  502    0 -0.36149065796E+03  0.16713153829E+03  0.20098861157E+03  0.44610142542E+03  0.12699999809E+01 0.  1.
       -4    1    3    3    0  502  0.36149065796E+03 -0.16713153829E+03  0.32985678247E+03  0.51712238080E+03  0.12699999809E+01 0. -1.
</event>
<event>
 5   0  0.1817089E-02  0.7970539E+03  0.7818609E-02  0.9564291E-01
       -2   -1    0    0    0  501  0.00000000000E+00  0.00000000000E+00  0.38334920375E+03  0.38334920376E+03  0.25500000920E-02 0.  1.
        2   -1    0    0  501    0  0.00000000000E+00  0.00000000000E+00 -0.41430564384E+03  0.41430564385E+03  0.25500000920E-02 0. -1.
    10030    2    1    2    0    0  0.00000000000E+00  0.00000000000E+00 -0.30956440095E+02  0.79765484761E+03  0.79705392210E+03 0.  0.
        2    1    3    3  502    0 -0.38612896775E+03 -0.65093896476E+02  0.58678548438E+02  0.39594945024E+03  0.25500000920E-02 0. -1.
       -2    1    3    3    0  502  0.38612896775E+03  0.65093896476E+02 -0.89634988533E+02  0.40170539736E+03  0.25500000920E-02 0.  1.
</event>
<event>
 5   0  0.1030323E-02  0.7053988E+03  0.7818609E-02  0.9708044E-01
       -1   -1    0    0    0  501  0.00000000000E+00  0.00000000000E+00  0.51342227099E+02  0.51342227347E+02  0.50400001928E-02 0.  1.
        1   -1    0    0  501    0  0.00000000000E+00  0.00000000000E+00 -0.24228956410E+04  0.24228956411E+04  0.50400001928E-02 0. -1.
    10030    2    1    2    0    0  0.00000000000E+00  0.00000000000E+00 -0.23715534140E+04  0.24742378684E+04  0.70539877673E+03 0.  0.
        3    1    3    3  502    0 -0.51606584566E+02  0.14727141403E+02  0.36936960338E+02  0.65149654677E+02  0.10100000352E+00 0.  1.
       -3    1    3    3    0  502  0.51606584566E+02 -0.14727141403E+02 -0.24084903743E+04  0.24090882137E+04  0.10100000352E+00 0. -1.
</event>
<event>
 5   0  0.1049780E-02  0.7903909E+03  0.7818609E-02  0.9574031E-01
       -1   -1    0    0    0  501  0.00000000000E+00  0.00000000000E+00  0.49999863216E+03  0.49999863218E+03  0.50400001928E-02 0.  1.
        1   -1    0    0  501    0  0.00000000000E+00  0.00000000000E+00 -0.31235977018E+03  0.31235977022E+03  0.50400001928E-02 0. -1.
    10030    2    1    2    0    0  0.00000000000E+00  0.00000000000E+00  0.18763886198E+03  0.81235840240E+03  0.79039093582E+03 0.  0.
        5    1    3    3  502    0 -0.23957594966E+03 -0.28228317792E+02  0.41551030909E+03  0.48048348623E+03  0.46999998093E+01 0.  1.
       -5    1    3    3    0  502  0.23957594966E+03  0.28228317792E+02 -0.22787144711E+03  0.33187491617E+03  0.46999998093E+01 0. -1.
</event>
<event>
 5   0  0.1747544E-02  0.7965131E+03  0.7818609E-02  0.9565078E-01
       -2   -1    0    0    0  501  0.00000000000E+00  0.00000000000E+00  0.33830534954E+03  0.33830534955E+03  0.25500000920E-02 0.  1.
        2   -1    0    0  501    0  0.00000000000E+00  0.00000000000E+00 -0.46883177364E+03  0.46883177365E+03  0.25500000920E-02 0. -1.
    10030    2    1    2    0    0  0.00000000000E+00  0.00000000000E+00 -0.13052642410E+03  0.80713712320E+03  0.79651314381E+03 0.  0.
        1    1    3    3  502    0 -0.30416714361E+02  0.38978247481E+03 -0.14212170364E+03  0.41599775582E+03  0.50400001928E-02 0. -1.
       -1    1    3    3    0  502  0.30416714361E+02 -0.38978247481E+03  0.11595279539E+02  0.39113936738E+03  0.50400001928E-02 0.  1.
</event>
<event>
 5   0  0.1673727E-02  0.8004505E+03  0.7818609E-02  0.9559365E-01
        2   -1    0    0  501    0  0.00000000000E+00  0.00000000000E+00  0.14855099865E+04  0.14855099865E+04  0.25500000920E-02 0. -1.
       -2   -1    0    0    0  501  0.00000000000E+00  0.00000000000E+00 -0.10782846156E+03  0.10782846159E+03  0.25500000920E-02 0.  1.
    10030    2    1    2    0    0  0.00000000000E+00  0.00000000000E+00  0.13776815249E+04  0.15933384481E+04  0.80045051440E+03 0.  0.
        5    1    3    3  502    0  0.11508182460E+01 -0.38952922837E+03  0.87153638767E+03  0.95463716100E+03  0.46999998093E+01 0. -1.
       -5    1    3    3    0  502 -0.11508182460E+01  0.38952922837E+03  0.50614513725E+03  0.63870128707E+03  0.46999998093E+01 0.  1.
</event>
<event>
 5   0  0.1673727E-02  0.7967167E+03  0.7818609E-02  0.9564782E-01
       -2   -1    0    0    0  501  0.00000000000E+00  0.00000000000E+00  0.10083756137E+03  0.10083756140E+03  0.25500000920E-02 0.  1.
        2   -1    0    0  501    0  0.00000000000E+00  0.00000000000E+00 -0.15737130796E+04  0.15737130796E+04  0.25500000920E-02 0. -1.
    10030    2    1    2    0    0  0.00000000000E+00  0.00000000000E+00 -0.14728755183E+04  0.16745506410E+04  0.79671673580E+03 0.  0.
        5    1    3    3  502    0  0.26766015886E+03 -0.18938545242E+03 -0.26104430180E+03  0.41913604919E+03  0.46999998093E+01 0.  1.
       -5    1    3    3    0  502 -0.26766015886E+03  0.18938545242E+03 -0.12118312165E+04  0.12554145919E+04  0.46999998093E+01 0. -1.
</event>
<event>
 5   0  0.1146083E-02  0.7233024E+03  0.7818609E-02  0.9678191E-01
        1   -1    0    0  501    0  0.00000000000E+00  0.00000000000E+00  0.16220364239E+03  0.16220364246E+03  0.50400001928E-02 0.  1.
       -1   -1    0    0    0  501  0.00000000000E+00  0.00000000000E+00 -0.80634188626E+03  0.80634188627E+03  0.50400001928E-02 0. -1.
    10030    2    1    2    0    0  0.00000000000E+00  0.00000000000E+00 -0.64413824387E+03  0.96854552874E+03  0.72330240150E+03 0.  0.
        4    1    3    3  502    0  0.39621930811E+02 -0.33465717395E+03 -0.14632718039E+03  0.36739430874E+03  0.12699999809E+01 0.  1.
       -4    1    3    3    0  502 -0.39621930811E+02  0.33465717395E+03 -0.49781106349E+03  0.60115122000E+03  0.12699999809E+01 0. -1.
</event>
<event>
 5   0  0.1146083E-02  0.7401862E+03  0.7818609E-02  0.9650874E-01
       -1   -1    0    0    0  501  0.00000000000E+00  0.00000000000E+00  0.22226618245E+03  0.22226618251E+03  0.50400001928E-02 0. -1.
        1   -1    0    0  501    0  0.00000000000E+00  0.00000000000E+00 -0.61623807866E+03  0.61623807868E+03  0.50400001928E-02 0.  1.
    10030    2    1    2    0    0  0.00000000000E+00  0.00000000000E+00 -0.39397189621E+03  0.83850426118E+03  0.74018615295E+03 0.  0.
        4    1    3    3  502    0 -0.14130306919E+02  0.33107343082E+03 -0.10299354563E+02  0.33153728565E+03  0.12699999809E+01 0. -1.
       -4    1    3    3    0  502  0.14130306919E+02 -0.33107343082E+03 -0.38367254164E+03  0.50696697553E+03  0.12699999809E+01 0.  1.
</event>
<event>
 5   0  0.1038912E-02  0.8140408E+03  0.7818609E-02  0.9539913E-01
        1   -1    0    0  501    0  0.00000000000E+00  0.00000000000E+00  0.60487063043E+03  0.60487063045E+03  0.50400001928E-02 0.  1.
       -1   -1    0    0    0  501  0.00000000000E+00  0.00000000000E+00 -0.27388603928E+03  0.27388603933E+03  0.50400001928E-02 0. -1.
    10030    2    1    2    0    0  0.00000000000E+00  0.00000000000E+00  0.33098459115E+03  0.87875666978E+03  0.81404083749E+03 0.  0.
        2    1    3    3  502    0 -0.11995393575E+03 -0.38659655331E+03  0.21154252838E+03  0.45672320179E+03  0.25500000920E-02 0. -1.
       -2    1    3    3    0  502  0.11995393575E+03  0.38659655331E+03  0.11944206278E+03  0.42203346799E+03  0.25500000920E-02 0.  1.
</event>
<event>
 5   0  0.1747544E-02  0.7941068E+03  0.7818609E-02  0.9568587E-01
        2   -1    0    0  501    0  0.00000000000E+00  0.00000000000E+00  0.40378888311E+03  0.40378888311E+03  0.25500000920E-02 0. -1.
       -2   -1    0    0    0  501  0.00000000000E+00  0.00000000000E+00 -0.39043028427E+03  0.39043028428E+03  0.25500000920E-02 0.  1.
    10030    2    1    2    0    0  0.00000000000E+00  0.00000000000E+00  0.13358598835E+02  0.79421916739E+03  0.79410681504E+03 0.  0.
        1    1    3    3  502    0  0.37209137332E+03 -0.13645991048E+03 -0.17368044069E+02  0.39670511245E+03  0.50400001928E-02 0.  1.
       -1    1    3    3    0  502 -0.37209137332E+03  0.13645991048E+03  0.30726642903E+02  0.39751405494E+03  0.50400001928E-02 0. -1.
</event>
<event>
 5   0  0.1673727E-02  0.7904303E+03  0.7818609E-02  0.9573973E-01
        2   -1    0    0  501    0  0.00000000000E+00  0.00000000000E+00  0.37060346128E+03  0.37060346129E+03  0.25500000920E-02 0. -1.
       -2   -1    0    0    0  501  0.00000000000E+00  0.00000000000E+00 -0.42146127171E+03  0.42146127172E+03  0.25500000920E-02 0.  1.
    10030    2    1    2    0    0  0.00000000000E+00  0.00000000000E+00 -0.50857810430E+02  0.79206473300E+03  0.79043027800E+03 0.  0.
        5    1    3    3  502    0  0.32537131728E+02  0.22922982181E+03  0.29549563316E+03  0.37542607177E+03  0.46999998093E+01 0. -1.
       -5    1    3    3    0  502 -0.32537131728E+02 -0.22922982181E+03 -0.34635344359E+03  0.41663866123E+03  0.46999998093E+01 0.  1.
</event>
<event>
 5   0  0.1818665E-02  0.7991461E+03  0.7818609E-02  0.9561254E-01
        2   -1    0    0  501    0  0.00000000000E+00  0.00000000000E+00  0.46032018841E+03  0.46032018842E+03  0.25500000920E-02 0. -1.
       -2   -1    0    0    0  501  0.00000000000E+00  0.00000000000E+00 -0.34684255502E+03  0.34684255502E+03  0.25500000920E-02 0.  1.
    10030    2    1    2    0    0  0.00000000000E+00  0.00000000000E+00  0.11347763340E+03  0.80716274344E+03  0.79914612001E+03 0.  0.
        3    1    3    3  502    0 -0.29573177760E+03  0.13800602910E+03 -0.17612913219E+03  0.37084286397E+03  0.10100000352E+00 0.  1.
       -3    1    3    3    0  502  0.29573177760E+03 -0.13800602910E+03  0.28960676559E+03  0.43631987948E+03  0.10100000352E+00 0. -1.
</event>
<event>
 5   0  0.1146083E-02  0.8091273E+03  0.7818609E-02  0.9546899E-01
        1   -1    0    0  501    0  0.00000000000E+00  0.00000000000E+00  0.58568320526E+03  0.58568320528E+03  0.50400001928E-02 0.  1.
       -1   -1    0    0    0  501  0.00000000000E+00  0.00000000000E+00 -0.27945436853E+03  0.27945436857E+03  0.50400001928E-02 0. -1.
    10030    2    1    2    0    0  0.00000000000E+00  0.00000000000E+00  0.30622883673E+03  0.86513757385E+03  0.80912725899E+03 0.  0.
        4    1    3    3  502    0 -0.20169424567E+03 -0.70979199258E+02  0.52032913639E+03  0.56255012091E+03  0.12699999809E+01 0.  1.
       -4    1    3    3    0  502  0.20169424567E+03  0.70979199258E+02 -0.21410029966E+03  0.30258745294E+03  0.12699999809E+01 0. -1.
</event>
<event>
 5   0  0.1747544E-02  0.8032032E+03  0.7818609E-02  0.9555392E-01
       -2   -1    0    0    0  501  0.00000000000E+00  0.00000000000E+00  0.13639641047E+03  0.13639641050E+03  0.25500000920E-02 0.  1.
        2   -1    0    0  501    0  0.00000000000E+00  0.00000000000E+00 -0.11824638878E+04  0.11824638878E+04  0.25500000920E-02 0. -1.
    10030    2    1    2    0    0  0.00000000000E+00  0.00000000000E+00 -0.10460674773E+04  0.13188602983E+04  0.80320316192E+03 0.  0.
        1    1    3    3  502    0 -0.33740374026E+02 -0.71104929371E+02  0.12360927781E+03  0.14653865499E+03  0.50400001928E-02 0.  1.
       -1    1    3    3    0  502  0.33740374026E+02  0.71104929371E+02 -0.11696767551E+04  0.11723216433E+04  0.50400001928E-02 0. -1.
</event>
<event>
 5   0  0.1146083E-02  0.8136237E+03  0.7818609E-02  0.9540504E-01
        1   -1    0    0  501    0  0.00000000000E+00  0.00000000000E+00  0.22616549531E+03  0.22616549537E+03  0.50400001928E-02 0. -1.
       -1   -1    0    0    0  501  0.00000000000E+00  0.00000000000E+00 -0.73174679025E+03  0.73174679027E+03  0.50400001928E-02 0.  1.
    10030    2    1    2    0    0  0.00000000000E+00  0.00000000000E+00 -0.50558129494E+03  0.95791228563E+03  0.81362368524E+03 0.  0.
        4    1    3    3  502    0 -0.33919776239E+03 -0.17489457961E+03 -0.86910793601E+02  0.39140558878E+03  0.12699999809E+01 0. -1.
       -4    1    3    3    0  502  0.33919776239E+03  0.17489457961E+03 -0.41867050133E+03  0.56650669685E+03  0.12699999809E+01 0.  1.
</event>
<event>
 5   0  0.1818665E-02  0.7916256E+03  0.7818609E-02  0.9572218E-01
       -2   -1    0    0    0  501  0.00000000000E+00  0.00000000000E+00  0.22566223094E+03  0.22566223096E+03  0.25500000920E-02 0.  1.
        2   -1    0    0  501    0  0.00000000000E+00  0.00000000000E+00 -0.69425783541E+03  0.69425783542E+03  0.25500000920E-02 0. -1.
    10030    2    1    2    0    0  0.00000000000E+00  0.00000000000E+00 -0.46859560447E+03  0.91992006638E+03  0.79162559837E+03 0.  0.
        3    1    3    3  502    0 -0.26774796518E+03 -0.14103694514E+03  0.62170742405E+02  0.30894271988E+03  0.10100000352E+00 0.  1.
       -3    1    3    3    0  502  0.26774796518E+03  0.14103694514E+03 -0.53076634687E+03  0.61097734650E+03  0.10100000352E+00 0. -1.
</event>
<event>
 5   0  0.1731337E-02  0.7950584E+03  0.7818609E-02  0.9567198E-01
        2   -1    0    0  501    0  0.00000000000E+00  0.00000000000E+00  0.49576956656E+03  0.49576956656E+03  0.25500000920E-02 0.  1.
       -2   -1    0    0    0  501  0.00000000000E+00  0.00000000000E+00 -0.31875589765E+03  0.31875589766E+03  0.25500000920E-02 0. -1.
    10030    2    1    2    0    0  0.00000000000E+00  0.00000000000E+00  0.17701366891E+03  0.81452546422E+03  0.79505842105E+03 0.  0.
        4    1    3    3  502    0 -0.15283330588E+03 -0.98341879377E+02 -0.27370146693E+03  0.32854718158E+03  0.12699999809E+01 0. -1.
       -4    1    3    3    0  502  0.15283330588E+03  0.98341879377E+02  0.45071513584E+03  0.48597828264E+03  0.12699999809E+01 0.  1.
</event>
<event>
 5   0  0.1025900E-02  0.8026611E+03  0.7818609E-02  0.9556173E-01
       -1   -1    0    0    0  501  0.00000000000E+00  0.00000000000E+00  0.29877219265E+03  0.29877219269E+03  0.50400001928E-02 0.  1.
        1   -1    0    0  501    0  0.00000000000E+00  0.00000000000E+00 -0.53909368685E+03  0.53909368687E+03  0.50400001928E-02 0. -1.
    10030    2    1    2    0    0  0.00000000000E+00  0.00000000000E+00 -0.24032149420E+03  0.83786587956E+03  0.80266108137E+03 0.  0.
        1    1    3    3  502    0  0.26474168838E+03  0.19017065248E+03 -0.36455148121E+03  0.48903049098E+03  0.50400001928E-02 0. -1.
       -1    1    3    3    0  502 -0.26474168838E+03 -0.19017065248E+03  0.12422998700E+03  0.34883538858E+03  0.50400001928E-02 0.  1.
</event>
<event>
 5   0  0.1747544E-02  0.8106457E+03  0.7818609E-02  0.9544734E-01
        2   -1    0    0  501    0  0.00000000000E+00  0.00000000000E+00  0.14424468755E+04  0.14424468755E+04  0.25500000920E-02 0.  1.
       -2   -1    0    0    0  501  0.00000000000E+00  0.00000000000E+00 -0.11389439903E+03  0.11389439906E+03  0.25500000920E-02 0. -1.
    10030    2    1    2    0    0  0.00000000000E+00  0.00000000000E+00  0.13285524764E+04  0.15563412745E+04  0.81064571804E+03 0.  0.
        1    1    3    3  502    0  0.24232337961E+03  0.25993981342E+03  0.29003635263E+03  0.45870514798E+03  0.50400001928E-02 0. -1.
       -1    1    3    3    0  502 -0.24232337961E+03 -0.25993981342E+03  0.10385161238E+04  0.10976361266E+04  0.50400001928E-02 0.  1.
</event>
<event>
 5   0  0.1049780E-02  0.7987866E+03  0.7818609E-02  0.9561775E-01
       -1   -1    0    0    0  501  0.00000000000E+00  0.00000000000E+00  0.11491686657E+03  0.11491686668E+03  0.50400001928E-02 0. -1.
        1   -1    0    0  501    0  0.00000000000E+00  0.00000000000E+00 -0.13880905886E+04  0.13880905886E+04  0.50400001928E-02 0.  1.
    10030    2    1    2    0    0  0.00000000000E+00  0.00000000000E+00 -0.12731737220E+04  0.15030074552E+04  0.79878663244E+03 0.  0.
        5    1    3    3  502    0 -0.14401757707E+03 -0.36970050542E+03 -0.55090825344E+03  0.67892674120E+03  0.46999998093E+01 0.  1.
       -5    1    3    3    0  502  0.14401757707E+03  0.36970050542E+03 -0.72226546854E+03  0.82408071404E+03  0.46999998093E+01 0. -1.
</event>
<event>
 5   0  0.1049780E-02  0.7990950E+03  0.7818609E-02  0.9561328E-01
        1   -1    0    0  501    0  0.00000000000E+00  0.00000000000E+00  0.56092382516E+03  0.56092382518E+03  0.50400001928E-02 0. -1.
       -1   -1    0    0    0  501  0.00000000000E+00  0.00000000000E+00 -0.28459868881E+03  0.28459868885E+03  0.50400001928E-02 0.  1.
    10030    2    1    2    0    0  0.00000000000E+00  0.00000000000E+00  0.27632513635E+03  0.84552251403E+03  0.79909495103E+03 0.  0.
        5    1    3    3  502    0  0.15842691515E+03  0.24196151220E+03  0.42980621773E+03  0.51807329175E+03  0.46999998093E+01 0. -1.
       -5    1    3    3    0  502 -0.15842691515E+03 -0.24196151220E+03 -0.15348108138E+03  0.32744922228E+03  0.46999998093E+01 0.  1.
</event>
<event>
 5   0  0.1146083E-02  0.7955703E+03  0.7818609E-02  0.9566451E-01
        1   -1    0    0  501    0  0.00000000000E+00  0.00000000000E+00  0.35073871947E+03  0.35073871951E+03  0.50400001928E-02 0.  1.
       -1   -1    0    0    0  501  0.00000000000E+00  0.00000000000E+00 -0.45114214700E+03  0.45114214703E+03  0.50400001928E-02 0. -1.
    10030    2    1    2    0    0  0.00000000000E+00  0.00000000000E+00 -0.10040342753E+03  0.80188086653E+03  0.79557028341E+03 0.  0.
        4    1    3    3  502    0 -0.21829912470E+03 -0.26036177430E+03 -0.25869667498E+03  0.42704606766E+03  0.12699999809E+01 0. -1.
       -4    1    3    3    0  502  0.21829912470E+03  0.26036177430E+03  0.15829324745E+03  0.37483479887E+03  0.12699999809E+01 0.  1.
</event>
<event>
 5   0  0.1030323E-02  0.7937018E+03  0.7818609E-02  0.9569178E-01
        1   -1    0    0  501    0  0.00000000000E+00  0.00000000000E+00  0.80559140265E+03  0.80559140267E+03  0.50400001928E-02 0. -1.
       -1   -1    0    0    0  501  0.00000000000E+00  0.00000000000E+00 -0.19549694226E+03  0.19549694233E+03  0.50400001928E-02 0.  1.
    10030    2    1    2    0    0  0.00000000000E+00  0.00000000000E+00  0.61009446039E+03  0.10010883450E+04  0.79370184823E+03 0.  0.
        3    1    3    3  502    0 -0.67845935672E+02 -0.38930849333E+03  0.35098437784E+03  0.52853970300E+03  0.10100000352E+00 0. -1.
       -3    1    3    3    0  502  0.67845935672E+02  0.38930849333E+03  0.25911008255E+03  0.47254864199E+03  0.10100000352E+00 0.  1.
</event>
<event>
 5   0  0.1030323E-02  0.8002638E+03  0.7818609E-02  0.9559635E-01
       -1   -1    0    0    0  501  0.00000000000E+00  0.00000000000E+00  0.18252254335E+03  0.18252254341E+03  0.50400001928E-02 0. -1.
        1   -1    0    0  501    0  0.00000000000E+00  0.00000000000E+00 -0.87718227418E+03  0.87718227420E+03  0.50400001928E-02 0.  1.
    10030    2    1    2    0    0  0.00000000000E+00  0.00000000000E+00 -0.69465973084E+03  0.10597048176E+04  0.80026380577E+03 0.  0.
        3    1    3    3  502    0 -0.14012425161E+03 -0.31061313287E+03 -0.69595431182E+02  0.34779140076E+03  0.10100000352E+00 0. -1.
       -3    1    3    3    0  502  0.14012425161E+03  0.31061313287E+03 -0.62506429966E+03  0.71191341686E+03  0.10100000352E+00 0.  1.
</event>
<event>
 5   0  0.1146083E-02  0.8769521E+03  0.7818609E-02  0.9454860E-01
        1   -1    0    0  501    0  0.00000000000E+00  0.00000000000E+00  0.38137018531E+03  0.38137018534E+03  0.50400001928E-02 0.  1.
       -1   -1    0    0    0  501  0.00000000000E+00  0.00000000000E+00 -0.50413287800E+03  0.50413287802E+03  0.50400001928E-02 0. -1.
    10030    2    1    2    0    0  0.00000000000E+00  0.00000000000E+00 -0.12276269269E+03  0.88550306336E+03  0.87695210617E+03 0.  0.
        4    1    3    3  502    0  0.14363651207E+03  0.30567918664E+03 -0.34372980467E+03  0.48189522125E+03  0.12699999809E+01 0. -1.
       -4    1    3    3    0  502 -0.14363651207E+03 -0.30567918664E+03  0.22096711198E+03  0.40360784212E+03  0.12699999809E+01 0.  1.
</event>
<event>
 5   0  0.1030323E-02  0.8120751E+03  0.7818609E-02  0.9542702E-01
        1   -1    0    0  501    0  0.00000000000E+00  0.00000000000E+00  0.10631835423E+04  0.10631835423E+04  0.50400001928E-02 0.  1.
       -1   -1    0    0    0  501  0.00000000000E+00  0.00000000000E+00 -0.15506869764E+03  0.15506869772E+03  0.50400001928E-02 0. -1.
    10030    2    1    2    0    0  0.00000000000E+00  0.00000000000E+00  0.90811484464E+03  0.12182522400E+04  0.81207508842E+03 0.  0.
        3    1    3    3  502    0  0.34268923662E+03  0.28482669173E+02  0.77796709175E+03  0.85057626430E+03  0.10100000352E+00 0.  1.
       -3    1    3    3    0  502 -0.34268923662E+03 -0.28482669173E+02  0.13014775289E+03  0.36767597572E+03  0.10100000352E+00 0. -1.
</event>
<event>
 5   0  0.1025900E-02  0.8166754E+03  0.7818609E-02  0.9536189E-01
       -1   -1    0    0    0  501  0.00000000000E+00  0.00000000000E+00  0.44828768934E+03  0.44828768937E+03  0.50400001928E-02 0. -1.
        1   -1    0    0  501    0  0.00000000000E+00  0.00000000000E+00 -0.37194792147E+03  0.37194792150E+03  0.50400001928E-02 0.  1.
    10030    2    1    2    0    0  0.00000000000E+00  0.00000000000E+00  0.76339767872E+02  0.82023561088E+03  0.81667539279E+03 0.  0.
        1    1    3    3  502    0 -0.33763963938E+03 -0.22340734518E+03 -0.15243780252E+02  0.40514656709E+03  0.50400001928E-02 0.  1.
       -1    1    3    3    0  502  0.33763963938E+03  0.22340734518E+03  0.91583548124E+02  0.41508904379E+03  0.50400001928E-02 0. -1.
</event>
<event>
 5   0  0.1049780E-02  0.7835532E+03  0.7818609E-02  0.9584133E-01
        1   -1    0    0  501    0  0.00000000000E+00  0.00000000000E+00  0.10453619993E+04  0.10453619993E+04  0.50400001928E-02 0.  1.
       -1   -1    0    0    0  501  0.00000000000E+00  0.00000000000E+00 -0.14682845506E+03  0.14682845515E+03  0.50400001928E-02 0. -1.
    10030    2    1    2    0    0  0.00000000000E+00  0.00000000000E+00  0.89853354426E+03  0.11921904545E+04  0.78355315685E+03 0.  0.
        5    1    3    3  502    0 -0.17867601186E+02 -0.26193465300E+03  0.89165402520E+03  0.92951492956E+03  0.46999998093E+01 0.  1.
       -5    1    3    3    0  502  0.17867601186E+02  0.26193465300E+03  0.68795190519E+01  0.26267552492E+03  0.46999998093E+01 0. -1.
</event>
<event>
 5   0  0.1818665E-02  0.8012769E+03  0.7818609E-02  0.9558171E-01
       -2   -1    0    0    0  501  0.00000000000E+00  0.00000000000E+00  0.21664895122E+03  0.21664895123E+03  0.25500000920E-02 0. -1.
        2   -1    0    0  501    0  0.00000000000E+00  0.00000000000E+00 -0.74088138440E+03  0.74088138440E+03  0.25500000920E-02 0.  1.
    10030    2    1    2    0    0  0.00000000000E+00  0.00000000000E+00 -0.52423243318E+03  0.95753033563E+03  0.80127691821E+03 0.  0.
        3    1    3    3  502    0  0.20539676535E+03 -0.40968601413E+02 -0.67025023973E+03  0.70221197055E+03  0.10100000352E+00 0.  1.
       -3    1    3    3    0  502 -0.20539676535E+03  0.40968601413E+02  0.14601780655E+03  0.25531836509E+03  0.10100000352E+00 0. -1.
</event>
<event>
 5   0  0.1817089E-02  0.8019836E+03  0.7818609E-02  0.9557150E-01
       -2   -1    0    0    0  501  0.00000000000E+00  0.00000000000E+00  0.30957535625E+03  0.30957535626E+03  0.25500000920E-02 0. -1.
        2   -1    0    0  501    0  0.00000000000E+00  0.00000000000E+00 -0.51940322689E+03  0.51940322689E+03  0.25500000920E-02 0.  1.
    10030    2    1    2    0    0  0.00000000000E+00  0.00000000000E+00 -0.20982787063E+03  0.82897858316E+03  0.80198363826E+03 0.  0.
        2    1    3    3  502    0  0.11684457796E+03 -0.16803067890E+03  0.25152273679E+03  0.32426941203E+03  0.25500000920E-02 0. -1.
       -2    1    3    3    0  502 -0.11684457796E+03  0.16803067890E+03 -0.46135060742E+03  0.50470917113E+03  0.25500000920E-02 0.  1.
</event>
<event>
 5   0  0.1049780E-02  0.8023906E+03  0.7818609E-02  0.9556563E-01
        1   -1    0    0  501    0  0.00000000000E+00  0.00000000000E+00  0.66568402302E+03  0.66568402304E+03  0.50400001928E-02 0.  1.
       -1   -1    0    0    0  501  0.00000000000E+00  0.00000000000E+00 -0.24179289640E+03  0.24179289645E+03  0.50400001928E-02 0. -1.
    10030    2    1    2    0    0  0.00000000000E+00  0.00000000000E+00  0.42389112662E+03  0.90747691950E+03  0.80239059827E+03 0.  0.
        5    1    3    3  502    0  0.32103209096E+03 -0.10490737177E+03  0.45678981025E+03  0.56810754336E+03  0.46999998093E+01 0.  1.
       -5    1    3    3    0  502 -0.32103209096E+03  0.10490737177E+03 -0.32898683627E+02  0.33936937614E+03  0.46999998093E+01 0. -1.
</event>
<event>
 5   0  0.1818665E-02  0.7780909E+03  0.7818609E-02  0.9592283E-01
       -2   -1    0    0    0  501  0.00000000000E+00  0.00000000000E+00  0.49693008547E+03  0.49693008548E+03  0.25500000920E-02 0.  1.
        2   -1    0    0  501    0  0.00000000000E+00  0.00000000000E+00 -0.30458279082E+03  0.30458279083E+03  0.25500000920E-02 0. -1.
    10030    2    1    2    0    0  0.00000000000E+00  0.00000000000E+00  0.19234729465E+03  0.80151287631E+03  0.77809087460E+03 0.  0.
        3    1    3    3  502    0  0.17893298711E+03  0.33756270217E+03  0.20541785765E+02  0.38260628188E+03  0.10100000352E+00 0. -1.
       -3    1    3    3    0  502 -0.17893298711E+03 -0.33756270217E+03  0.17180550888E+03  0.41890659443E+03  0.10100000352E+00 0.  1.
</event>
<event>
 5   0  0.1747544E-02  0.8103706E+03  0.7818609E-02  0.9545126E-01
       -2   -1    0    0    0  501  0.00000000000E+00  0.00000000000E+00  0.44989510085E+03  0.44989510086E+03  0.25500000920E-02 0.  1.
        2   -1    0    0  501    0  0.00000000000E+00  0.00000000000E+00 -0.36491866578E+03  0.36491866579E+03  0.25500000920E-02 0. -1.
    10030    2    1    2    0    0  0.00000000000E+00  0.00000000000E+00  0.84976435071E+02  0.81481376664E+03  0.81037058177E+03 0.  0.
        1    1    3    3  502    0 -0.19288697864E+03 -0.19413304838E+03 -0.25795117303E+03  0.37607424093E+03  0.50400001928E-02 0. -1.
       -1    1    3    3    0  502  0.19288697864E+03  0.19413304838E+03  0.34292760810E+03  0.43873952571E+03  0.50400001928E-02 0.  1.
</event>
<event>
 5   0  0.1731337E-02  0.8003128E+03  0.7818609E-02  0.9559564E-01
        2   -1    0    0  501    0  0.00000000000E+00  0.00000000000E+00  0.42351425680E+03  0.42351425681E+03  0.25500000920E-02 0. -1.
       -2   -1    0    0    0  501  0.00000000000E+00  0.00000000000E+00 -0.37808680205E+03  0.37808680206E+03  0.25500000920E-02 0.  1.
    10030    2    1    2    0    0  0.00000000000E+00  0.00000000000E+00  0.45427454757E+02  0.80160105887E+03  0.80031281630E+03 0.  0.
        4    1    3    3  502    0 -0.16202803891E+03  0.35713245552E+03 -0.56955882034E+02  0.39628558084E+03  0.12699999809E+01 0.  1.
       -4    1    3    3    0  502  0.16202803891E+03 -0.35713245552E+03  0.10238333679E+03  0.40531547803E+03  0.12699999809E+01 0. -1.
</event>
<event>
 5   0  0.1817089E-02  0.7654027E+03  0.7818609E-02  0.9611491E-01
        2   -1    0    0  501    0  0.00000000000E+00  0.00000000000E+00  0.47844597672E+03  0.47844597673E+03  0.25500000920E-02 0.  1.
       -2   -1    0    0    0  501  0.00000000000E+00  0.00000000000E+00 -0.30611672137E+03  0.30611672138E+03  0.25500000920E-02 0. -1.
    10030    2    1    2    0    0  0.00000000000E+00  0.00000000000E+00  0.17232925535E+03  0.78456269810E+03  0.76540267507E+03 0.  0.
        2    1    3    3  502    0 -0.23518984523E+03  0.29755727624E+03  0.13848867988E+03  0.40377433103E+03  0.25500000920E-02 0. -1.
       -2    1    3    3    0  502  0.23518984523E+03 -0.29755727624E+03  0.33840575475E+02  0.38078836707E+03  0.25500000920E-02 0.  1.
</event>
<event>
 5   0  0.1049780E-02  0.8351616E+03  0.7818609E-02  0.9510472E-01
        1   -1    0    0  501    0  0.00000000000E+00  0.00000000000E+00  0.90290684074E+03  0.90290684075E+03  0.50400001928E-02 0.  1.
       -1   -1    0    0    0  501  0.00000000000E+00  0.00000000000E+00 -0.19312481190E+03  0.19312481197E+03  0.50400001928E-02 0. -1.
    10030    2    1    2    0    0  0.00000000000E+00  0.00000000000E+00  0.70978202883E+03  0.10960316527E+04  0.83516157437E+03 0.  0.
        5    1    3    3  502    0  0.20491054233E+03 -0.28498638470E+03  0.58094594083E+02  0.35581264970E+03  0.46999998093E+01 0. -1.
       -5    1    3    3    0  502 -0.20491054233E+03  0.28498638470E+03  0.65168743475E+03  0.74021900302E+03  0.46999998093E+01 0.  1.
</event>
<event>
 5   0  0.1817089E-02  0.7982017E+03  0.7818609E-02  0.9562624E-01
       -2   -1    0    0    0  501  0.00000000000E+00  0.00000000000E+00  0.30566352183E+03  0.30566352184E+03  0.25500000920E-02 0. -1.
        2   -1    0    0  501    0  0.00000000000E+00  0.00000000000E+00 -0.52110071327E+03  0.52110071327E+03  0.25500000920E-02 0.  1.
    10030    2    1    2    0    0  0.00000000000E+00  0.00000000000E+00 -0.21543719144E+03  0.82676423511E+03  0.79820167690E+03 0.  0.
        2    1    3    3  502    0 -0.39420522816E+03 -0.34855065362E+02 -0.54209149390E+02  0.39943869289E+03  0.25500000920E-02 0.  1.
       -2    1    3    3    0  502  0.39420522816E+03  0.34855065362E+02 -0.16122804205E+03  0.42732554223E+03  0.25500000920E-02 0. -1.
</event>
<event>
 5   0  0.1049780E-02  0.8031874E+03  0.7818609E-02  0.9555415E-01
       -1   -1    0    0    0  501  0.00000000000E+00  0.00000000000E+00  0.53471901601E+03  0.53471901604E+03  0.50400001928E-02 0.  1.
        1   -1    0    0  501    0  0.00000000000E+00  0.00000000000E+00 -0.30161171460E+03  0.30161171464E+03  0.50400001928E-02 0. -1.
    10030    2    1    2    0    0  0.00000000000E+00  0.00000000000E+00  0.23310730141E+03  0.83633073068E+03  0.80318744830E+03 0.  0.
        5    1    3    3  502    0 -0.86525051587E+01  0.17833443811E+03  0.49108686488E+03  0.52255759158E+03  0.46999998093E+01 0.  1.
       -5    1    3    3    0  502  0.86525051587E+01 -0.17833443811E+03 -0.25797956347E+03  0.31377313911E+03  0.46999998093E+01 0. -1.
</event>
<event>
 5   0  0.1038912E-02  0.7845526E+03  0.7818609E-02  0.9582650E-01
        1   -1    0    0  501    0  0.00000000000E+00  0.00000000000E+00  0.75801314087E+03  0.75801314089E+03  0.50400001928E-02 0.  1.
       -1   -1    0    0    0  501  0.00000000000E+00  0.00000000000E+00 -0.20300529390E+03  0.20300529397E+03  0.50400001928E-02 0. -1.
    10030    2    1    2    0    0  0.00000000000E+00  0.00000000000E+00  0.55500784697E+03  0.96101843485E+03  0.78455256161E+03 0.  0.
        2    1    3    3  502    0  0.30020432015E+03  0.94294927554E+01 -0.31578377086E+02  0.30200785267E+03  0.25500000920E-02 0. -1.
       -2    1    3    3    0  502 -0.30020432015E+03 -0.94294927554E+01  0.58658622405E+03  0.65901058218E+03  0.25500000920E-02 0.  1.
</event>
<event>
 5   0  0.1038912E-02  0.8076324E+03  0.7818609E-02  0.9549035E-01
        1   -1    0    0  501    0  0.00000000000E+00  0.00000000000E+00  0.11392779853E+04  0.11392779853E+04  0.50400001928E-02 0.  1.
       -1   -1    0    0    0  501  0.00000000000E+00  0.00000000000E+00 -0.14313234404E+03  0.14313234413E+03  0.50400001928E-02 0. -1.
    10030    2    1    2    0    0  0.00000000000E+00  0.00000000000E+00  0.99614564128E+03  0.12824103295E+04  0.80763241296E+03 0.  0.
        2    1    3    3  502    0  0.10194962289E+03 -0.67008484831E+02 -0.11316952625E+03  0.16640674363E+03  0.25500000920E-02 0. -1.
       -2    1    3    3    0  502 -0.10194962289E+03  0.67008484831E+02  0.11093151675E+04  0.11160035858E+04  0.25500000920E-02 0.  1.
</event>
<event>
 5   0  0.1038912E-02  0.7933506E+03  0.7818609E-02  0.9569692E-01
        1   -1    0    0  501    0  0.00000000000E+00  0.00000000000E+00  0.42120684268E+03  0.42120684271E+03  0.50400001928E-02 0. -1.
       -1   -1    0    0    0  501  0.00000000000E+00  0.00000000000E+00 -0.37357251274E+03  0.37357251277E+03  0.50400001928E-02 0.  1.
    10030    2    1    2    0    0  0.00000000000E+00  0.00000000000E+00  0.47634329947E+02  0.79477935549E+03  0.79335061260E+03 0.  0.
        2    1    3    3  502    0 -0.81566416784E+02 -0.40063014895E+02  0.41063838932E+03  0.42057343271E+03  0.25500000920E-02 0. -1.
       -2    1    3    3    0  502  0.81566416784E+02  0.40063014895E+02 -0.36300405938E+03  0.37420592278E+03  0.25500000920E-02 0.  1.
</event>
<event>
 5   0  0.1747544E-02  0.8238158E+03  0.7818609E-02  0.9526170E-01
        2   -1    0    0  501    0  0.00000000000E+00  0.00000000000E+00  0.72130162006E+03  0.72130162007E+03  0.25500000920E-02 0. -1.
       -2   -1    0    0    0  501  0.00000000000E+00  0.00000000000E+00 -0.23522490842E+03  0.23522490844E+03  0.25500000920E-02 0.  1.
    10030    2    1    2    0    0  0.00000000000E+00  0.00000000000E+00  0.48607671164E+03  0.95652652850E+03  0.82381577439E+03 0.  0.
        1    1    3    3  502    0  0.21503976057E+03 -0.67700843184E+02  0.64330831479E+03  0.68166787419E+03  0.50400001928E-02 0. -1.
       -1    1    3    3    0  502 -0.21503976057E+03  0.67700843184E+02 -0.15723160315E+03  0.27485865431E+03  0.50400001928E-02 0.  1.
</event>
<event>
 5   0  0.1731337E-02  0.8000643E+03  0.7818609E-02  0.9559924E-01
       -2   -1    0    0    0  501  0.00000000000E+00  0.00000000000E+00  0.13115299582E+03  0.13115299584E+03  0.25500000920E-02 0.  1.
        2   -1    0    0  501    0  0.00000000000E+00  0.00000000000E+00 -0.12201452812E+04  0.12201452812E+04  0.25500000920E-02 0. -1.
    10030    2    1    2    0    0  0.00000000000E+00  0.00000000000E+00 -0.10889922853E+04  0.13512982770E+04  0.80006426985E+03 0.  0.
        4    1    3    3  502    0 -0.34405095981E+03 -0.19715238060E+03 -0.45537950856E+03  0.60383129584E+03  0.12699999809E+01 0.  1.
       -4    1    3    3    0  502  0.34405095981E+03  0.19715238060E+03 -0.63361277678E+03  0.74746698116E+03  0.12699999809E+01 0. -1.
</event>
<event>
 5   0  0.1030323E-02  0.8247861E+03  0.7818609E-02  0.9524817E-01
        1   -1    0    0  501    0  0.00000000000E+00  0.00000000000E+00  0.13503922609E+03  0.13503922618E+03  0.50400001928E-02 0. -1.
       -1   -1    0    0    0  501  0.00000000000E+00  0.00000000000E+00 -0.12593972042E+04  0.12593972042E+04  0.50400001928E-02 0.  1.
    10030    2    1    2    0    0  0.00000000000E+00  0.00000000000E+00 -0.11243579781E+04  0.13944364304E+04  0.82478609073E+03 0.  0.
        3    1    3    3  502    0 -0.16932812298E+03 -0.36946195016E+03 -0.44390656182E+03  0.60185313131E+03  0.10100000352E+00 0. -1.
       -3    1    3    3    0  502  0.16932812298E+03  0.36946195016E+03 -0.68045141629E+03  0.79258329908E+03  0.10100000352E+00 0.  1.
</event>
<event>
 5   0  0.1818665E-02  0.7998659E+03  0.7818609E-02  0.9560211E-01
        2   -1    0    0  501    0  0.00000000000E+00  0.00000000000E+00  0.11381728650E+04  0.11381728650E+04  0.25500000920E-02 0.  1.
       -2   -1    0    0    0  501  0.00000000000E+00  0.00000000000E+00 -0.14052905294E+03  0.14052905296E+03  0.25500000920E-02 0. -1.
    10030    2    1    2    0    0  0.00000000000E+00  0.00000000000E+00  0.99764381205E+03  0.12787019180E+04  0.79986587578E+03 0.  0.
        3    1    3    3  502    0  0.26962365296E+03 -0.26601465056E+03  0.70408222598E+03  0.79949515301E+03  0.10100000352E+00 0. -1.
       -3    1    3    3    0  502 -0.26962365296E+03  0.26601465056E+03  0.29356158607E+03  0.47920676494E+03  0.10100000352E+00 0.  1.
</event>
<event>
 5   0  0.1030323E-02  0.7991239E+03  0.7818609E-02  0.9561286E-01
        1   -1    0    0  501    0  0.00000000000E+00  0.00000000000E+00  0.53671771992E+03  0.53671771994E+03  0.50400001928E-02 0. -1.
       -1   -1    0    0    0  501  0.00000000000E+00  0.00000000000E+00 -0.29745569493E+03  0.29745569497E+03  0.50400001928E-02 0.  1.
    10030    2    1    2    0    0  0.00000000000E+00  0.00000000000E+00  0.23926202499E+03  0.83417341491E+03  0.79912387622E+03 0.  0.
        3    1    3    3  502    0  0.63616873655E+02  0.14206207489E+03 -0.26450518601E+03  0.30690673398E+03  0.10100000352E+00 0.  1.
       -3    1    3    3    0  502 -0.63616873655E+02 -0.14206207489E+03  0.50376721100E+03  0.52726668093E+03  0.10100000352E+00 0. -1.
</event>
<event>
 5   0  0.1038912E-02  0.7972715E+03  0.7818609E-02  0.9563975E-01
       -1   -1    0    0    0  501  0.00000000000E+00  0.00000000000E+00  0.29694183467E+03  0.29694183471E+03  0.50400001928E-02 0.  1.
        1   -1    0    0  501    0  0.00000000000E+00  0.00000000000E+00 -0.53515684772E+03  0.53515684774E+03  0.50400001928E-02 0. -1.
    10030    2    1    2    0    0  0.00000000000E+00  0.00000000000E+00 -0.23821501305E+03  0.83209868245E+03  0.79727148758E+03 0.  0.
        2    1    3    3  502    0  0.14040719990E+03 -0.77957022110E+01  0.27019534091E+03  0.30459887888E+03  0.25500000920E-02 0.  1.
       -2    1    3    3    0  502 -0.14040719990E+03  0.77957022110E+01 -0.50841035396E+03  0.52749980358E+03  0.25500000920E-02 0. -1.
</event>
<event>
 5   0  0.1817089E-02  0.8078623E+03  0.7818609E-02  0.9548706E-01
       -2   -1    0    0    0  501  0.00000000000E+00  0.00000000000E+00  0.15391354140E+03  0.15391354142E+03  0.25500000920E-02 0. -1.
        2   -1    0    0  501    0  0.00000000000E+00  0.00000000000E+00 -0.10600780909E+04  0.10600780909E+04  0.25500000920E-02 0.  1.
    10030    2    1    2    0    0  0.00000000000E+00  0.00000000000E+00 -0.90616454951E+03  0.12139916323E+04  0.80786229804E+03 0.  0.
        2    1    3    3  502    0 -0.35088218144E+03 -0.38818669294E+01 -0.75372788556E+03  0.83140790207E+03  0.25500000920E-02 0.  1.
       -2    1    3    3    0  502  0.35088218144E+03  0.38818669294E+01 -0.15243666395E+03  0.38258373027E+03  0.25500000920E-02 0. -1.
</event>
<event>
 5   0  0.1049780E-02  0.7931707E+03  0.7818609E-02  0.9569955E-01
       -1   -1    0    0    0  501  0.00000000000E+00  0.00000000000E+00  0.40431265367E+03  0.40431265370E+03  0.50400001928E-02 0.  1.
        1   -1    0    0  501    0  0.00000000000E+00  0.00000000000E+00 -0.38900576382E+03  0.38900576385E+03  0.50400001928E-02 0. -1.
    10030    2    1    2    0    0  0.00000000000E+00  0.00000000000E+00  0.15306889851E+02  0.79331841756E+03  0.79317073242E+03 0.  0.
        5    1    3    3  502    0  0.30855763087E+03 -0.24881749919E+03 -0.41768266192E+01  0.39643094651E+03  0.46999998093E+01 0. -1.
       -5    1    3    3    0  502 -0.30855763087E+03  0.24881749919E+03  0.19483716470E+02  0.39688747105E+03  0.46999998093E+01 0.  1.
</event>
<event>
 5   0  0.1025900E-02  0.8020901E+03  0.7818609E-02  0.9556997E-01
       -1   -1    0    0    0  501  0.00000000000E+00  0.00000000000E+00  0.99960418318E+02  0.99960418445E+02  0.50400001928E-02 0.  1.
        1   -1    0    0  501    0  0.00000000000E+00  0.00000000000E+00 -0.16090082243E+04  0.16090082243E+04  0.50400001928E-02 0. -1.
    10030    2    1    2    0    0  0.00000000000E+00  0.00000000000E+00 -0.15090478060E+04  0.17089686428E+04  0.80209010790E+03 0.  0.
        1    1    3    3  502    0  0.35581832631E+02  0.24798164974E+03 -0.14217802021E+04  0.14436827590E+04  0.50400001928E-02 0. -1.
       -1    1    3    3    0  502 -0.35581832631E+02 -0.24798164974E+03 -0.87267603872E+02  0.26528588378E+03  0.50400001928E-02 0.  1.
</event>
<event>
 5   0  0.1731337E-02  0.8030564E+03  0.7818609E-02  0.9555604E-01
       -2   -1    0    0    0  501  0.00000000000E+00  0.00000000000E+00  0.12768860355E+03  0.12768860358E+03  0.25500000920E-02 0.  1.
        2   -1    0    0  501    0  0.00000000000E+00  0.00000000000E+00 -0.12626411421E+04  0.12626411421E+04  0.25500000920E-02 0. -1.
    10030    2    1    2    0    0  0.00000000000E+00  0.00000000000E+00 -0.11349525386E+04  0.13903297457E+04  0.80305637223E+03 0.  0.
        4    1    3    3  502    0 -0.24373363623E+03 -0.82763426053E+02 -0.33946006068E+02  0.25963400076E+03  0.12699999809E+01 0.  1.
       -4    1    3    3    0  502  0.24373363623E+03  0.82763426053E+02 -0.11010065325E+04  0.11306957449E+04  0.12699999809E+01 0. -1.
</event>
<event>
 5   0  0.1025900E-02  0.8070070E+03  0.7818609E-02  0.9549930E-01
       -1   -1    0    0    0  501  0.00000000000E+00  0.00000000000E+00  0.66306418703E+03  0.66306418705E+03  0.50400001928E-02 0.  1.
        1   -1    0    0  501    0  0.00000000000E+00  0.00000000000E+00 -0.24554949536E+03  0.24554949542E+03  0.50400001928E-02 0. -1.
    10030    2    1    2    0    0  0.00000000000E+00  0.00000000000E+00  0.41751469167E+03  0.90861368247E+03  0.80700700506E+03 0.  0.
        1    1    3    3  502    0 -0.60062751849E+02 -0.15776172901E+03  0.62139640622E+03  0.64391753430E+03  0.50400001928E-02 0.  1.
       -1    1    3    3    0  502  0.60062751849E+02  0.15776172901E+03 -0.20388171455E+03  0.26469614816E+03  0.50400001928E-02 0. -1.
</event>
<event>
 5   0  0.1731337E-02  0.7969208E+03  0.7818609E-02  0.9564485E-01
       -2   -1    0    0    0  501  0.00000000000E+00  0.00000000000E+00  0.32806825794E+03  0.32806825795E+03  0.25500000920E-02 0.  1.
        2   -1    0    0  501    0  0.00000000000E+00  0.00000000000E+00 -0.48395629693E+03  0.48395629694E+03  0.25500000920E-02 0. -1.
    10030    2    1    2    0    0  0.00000000000E+00  0.00000000000E+00 -0.15588803899E+03  0.81202455489E+03  0.79692082232E+03 0.  0.
        4    1    3    3  502    0  0.93132039433E+01  0.32717788341E+03 -0.30948849230E+03  0.45046292070E+03  0.12699999809E+01 0. -1.
       -4    1    3    3    0  502 -0.93132039433E+01 -0.32717788341E+03  0.15360045331E+03  0.36156163419E+03  0.12699999809E+01 0.  1.
</event>
<event>
 5   0  0.1673727E-02  0.7797901E+03  0.7818609E-02  0.9589740E-01
        2   -1    0    0  501    0  0.00000000000E+00  0.00000000000E+00  0.40120482457E+03  0.40120482458E+03  0.25500000920E-02 0. -1.
       -2   -1    0    0    0  501  0.00000000000E+00  0.00000000000E+00 -0.37890412108E+03  0.37890412109E+03  0.25500000920E-02 0.  1.
    10030    2    1    2    0    0  0.00000000000E+00  0.00000000000E+00  0.22300703490E+02  0.78010894567E+03  0.77979012929E+03 0.  0.
        5    1    3    3  502    0  0.31592596770E+03  0.11594130618E+03 -0.18576626928E+03  0.38442528578E+03  0.46999998093E+01 0.  1.
       -5    1    3    3    0  502 -0.31592596770E+03 -0.11594130618E+03  0.20806697277E+03  0.39568365989E+03  0.46999998093E+01 0. -1.
</event>
<event>
 5   0  0.1146083E-02  0.7827744E+03  0.7818609E-02  0.9585291E-01
        1   -1    0    0  501    0  0.00000000000E+00  0.00000000000E+00  0.44504082184E+03  0.44504082187E+03  0.50400001928E-02 0. -1.
       -1   -1    0    0    0  501  0.00000000000E+00  0.00000000000E+00 -0.34420199973E+03  0.34420199976E+03  0.50400001928E-02 0.  1.
    10030    2    1    2    0    0  0.00000000000E+00  0.00000000000E+00  0.10083882212E+03  0.78924282164E+03  0.78277440138E+03 0.  0.
        4    1    3    3  502    0  0.29220773899E+03  0.15212912158E+03 -0.16264098481E+03  0.36739942188E+03  0.12699999809E+01 0.  1.
       -4    1    3    3    0  502 -0.29220773899E+03 -0.15212912158E+03  0.26347980693E+03  0.42184339976E+03  0.12699999809E+01 0. -1.
</event>
<event>
 5   0  0.1673727E-02  0.8268941E+03  0.7818609E-02  0.9521885E-01
       -2   -1    0    0    0  501  0.00000000000E+00  0.00000000000E+00  0.91980613573E+02  0.91980613608E+02  0.25500000920E-02 0.  1.
        2   -1    0    0  501    0  0.00000000000E+00  0.00000000000E+00 -0.18584184868E+04  0.18584184868E+04  0.25500000920E-02 0. -1.
    10030    2    1    2    0    0  0.00000000000E+00  0.00000000000E+00 -0.17664378733E+04  0.19503991005E+04  0.82689412316E+03 0.  0.
        5    1    3    3  502    0 -0.36078818435E+03 -0.10130809801E+03 -0.12950472877E+04  0.13481843390E+04  0.46999998093E+01 0. -1.
       -5    1    3    3    0  502  0.36078818435E+03  0.10130809801E+03 -0.47139058560E+03  0.60221476143E+03  0.46999998093E+01 0.  1.
</event>
<event>
 5   0  0.6872500E-03  0.7871159E+03  0.7818609E-02  0.9578856E-01
       -4   -1    0    0    0  501  0.00000000000E+00  0.00000000000E+00  0.27688241912E+03  0.27688533171E+03  0.12699999809E+01 0.  1.
        4   -1    0    0  501    0  0.00000000000E+00  0.00000000000E+00 -0.55939289295E+03  0.55939433460E+03  0.12699999809E+01 0. -1.
    10030    2    1    2    0    0  0.00000000000E+00  0.00000000000E+00 -0.28251047383E+03  0.83627966632E+03  0.78711594602E+03 0.  0.
        3    1    3    3  502    0 -0.12357017943E+03  0.10691213675E+03  0.23914137241E+03  0.28963494338E+03  0.10100000352E+00 0.  1.
       -3    1    3    3    0  502  0.12357017943E+03 -0.10691213675E+03 -0.52165184624E+03  0.54664472294E+03  0.10100000352E+00 0. -1.
</event>
<event>
 5   0  0.1817089E-02  0.7919733E+03  0.7818609E-02  0.9571709E-01
       -2   -1    0    0    0  501  0.00000000000E+00  0.00000000000E+00  0.19182025458E+03  0.19182025459E+03  0.25500000920E-02 0.  1.
        2   -1    0    0  501    0  0.00000000000E+00  0.00000000000E+00 -0.81746027494E+03  0.81746027494E+03  0.25500000920E-02 0. -1.
    10030    2    1    2    0    0  0.00000000000E+00  0.00000000000E+00 -0.62564002036E+03  0.10092805295E+04  0.79197332797E+03 0.  0.
        2    1    3    3  502    0 -0.34176314929E+03 -0.19035753110E+03 -0.39104078285E+03  0.55312831578E+03  0.25500000920E-02 0.  1.
       -2    1    3    3    0  502  0.34176314929E+03  0.19035753110E+03 -0.23459923751E+03  0.45615221375E+03  0.25500000920E-02 0. -1.
</event>
<event>
 5   0  0.1049780E-02  0.8129161E+03  0.7818609E-02  0.9541507E-01
       -1   -1    0    0    0  501  0.00000000000E+00  0.00000000000E+00  0.52978994592E+03  0.52978994595E+03  0.50400001928E-02 0.  1.
        1   -1    0    0  501    0  0.00000000000E+00  0.00000000000E+00 -0.31183708159E+03  0.31183708163E+03  0.50400001928E-02 0. -1.
    10030    2    1    2    0    0  0.00000000000E+00  0.00000000000E+00  0.21795286434E+03  0.84162702758E+03  0.81291611036E+03 0.  0.
        5    1    3    3  502    0 -0.15647422766E+03  0.32732931546E+03  0.29863307963E+03  0.46992815507E+03  0.46999998093E+01 0.  1.
       -5    1    3    3    0  502  0.15647422766E+03 -0.32732931546E+03 -0.80680215294E+02  0.37169887250E+03  0.46999998093E+01 0. -1.
</event>
</LesHouchesEvents>
