<LesHouchesEvents version="3.0">
<header>
<!--
#*********************************************************************
#                                                                    *
#                        MadGraph5_aMC@NLO                           *
#                                                                    *
#                           Going Beyond                             *
#                                                                    *
#                   http://madgraph.hep.uiuc.edu                     *
#                   http://madgraph.phys.ucl.ac.be                   *
#                   http://amcatnlo.cern.ch                          *
#                                                                    *
#                     The MadGraph5_aMC@NLO team                     *
#                                                                    *
#....................................................................*
#                                                                    *
# This file contains all the information necessary to reproduce      *
# the events generated:                                              *
#                                                                    *
# 1. software version                                                *
# 2. proc_card          : code generation info including model       *
# 3. param_card         : model primary parameters in the LH format  *
# 4. run_card           : running parameters (collider and cuts)     *
# 5. pythia_card        : present only if pythia has been run        *
# 6. pgs_card           : present only if pgs has been run           *
# 7. delphes_cards      : present only if delphes has been run       *
#                                                                    *
#                                                                    *
#*********************************************************************
-->
<MGVersion>
#5.2.2.3
</MGVersion>
<MG5ProcCard>
#************************************************************
#*                     MadGraph5_aMC@NLO                    *
#*                                                          *
#*                *                       *                 *
#*                  *        * *        *                   *
#*                    * * * * 5 * * * *                     *
#*                  *        * *        *                   *
#*                *                       *                 *
#*                                                          *
#*                                                          *
#*         VERSION 2.2.3                 2015-02-10         *
#*                                                          *
#*    The MadGraph5_aMC@NLO Development Team - Find us at   *
#*    https://server06.fynu.ucl.ac.be/projects/madgraph     *
#*                                                          *
#************************************************************
#*                                                          *
#*               Command File for MadGraph5_aMC@NLO         *
#*                                                          *
#*     run as ./bin/mg5_aMC  filename                       *
#*                                                          *
#************************************************************
set group_subprocesses Auto
set ignore_six_quark_processes False
set loop_optimized_output True
set gauge unitary
set complex_mass_scheme False
import model sm
define p = g u c d s u~ c~ d~ s~
define j = g u c d s u~ c~ d~ s~
define l+ = e+ mu+
define l- = e- mu-
define vl = ve vm vt
define vl~ = ve~ vm~ vt~
import model Zprime_UFO
generate p p > zph, zph > j j
add process p p > zph, zph > b b~
output Dijet_signal
</MG5ProcCard>
<MGProcCard>
#*********************************************************************
#                        MadGraph/MadEvent                           *
#                   http://madgraph.hep.uiuc.edu                     *
#                                                                    *
#                          proc_card.dat                             *
#*********************************************************************
#                                                                    *
#            This Files is generated by MADGRAPH 5                   *
#                                                                    *
# WARNING: This Files is generated for MADEVENT (compatibility issue)*
#          This files is NOT a valid MG4 proc_card.dat               *
#          Running this in MG4 will NEVER reproduce the result of MG5*
#                                                                    *
#*********************************************************************
#*********************************************************************
# Process(es) requested : mg2 input                                  *
#*********************************************************************
# Begin PROCESS # This is TAG. Do not modify this line
p p > zph , zph > j j           #Process
# Be carefull the coupling are here in MG5 convention
          
end_coup           # End the couplings input

done               # this tells MG there are no more procs
# End PROCESS  # This is TAG. Do not modify this line
#*********************************************************************
# Model information                                                  *
#*********************************************************************
# Begin MODEL  # This is TAG. Do not modify this line
Zprime_UFO
# End   MODEL  # This is TAG. Do not modify this line
#*********************************************************************
# Start multiparticle definitions                                    *
#*********************************************************************
# Begin MULTIPARTICLES # This is TAG. Do not modify this line

# End  MULTIPARTICLES # This is TAG. Do not modify this line
</MGProcCard>
<MGRunCard>
#*********************************************************************
#                       MadGraph5_aMC@NLO                            *
#                                                                    *
#                     run_card.dat MadEvent                          *
#                                                                    *
#  This file is used to set the parameters of the run.               *
#                                                                    *
#  Some notation/conventions:                                        *
#                                                                    *
#   Lines starting with a '# ' are info or comments                  *
#                                                                    *
#   mind the format:   value    = variable     ! comment             *
#*********************************************************************
#
#*******************                                                 
# Running parameters
#*******************                                                 
#                                                                    
#*********************************************************************
# Tag name for the run (one word)                                    *
#*********************************************************************
  tag_1     = run_tag ! name of the run 
#*********************************************************************
# Run to generate the grid pack                                      *
#*********************************************************************
  .false.     = gridpack  !True = setting up the grid pack
#*********************************************************************
# Number of events and rnd seed                                      *
# Warning: Do not generate more than 1M events in a single run       *
# If you want to run Pythia, avoid more than 50k events in a run.    *
#*********************************************************************
  2000 = nevents ! Number of unweighted events requested 
 2811 = iseed   ! rnd seed (0=assigned automatically=default))
#*********************************************************************
# Collider type and energy                                           *
# lpp: 0=No PDF, 1=proton, -1=antiproton, 2=photon from proton,      *
#                                         3=photon from electron     *
#*********************************************************************
        1     = lpp1    ! beam 1 type 
        1     = lpp2    ! beam 2 type
     4000     = ebeam1  ! beam 1 total energy in GeV
     4000     = ebeam2  ! beam 2 total energy in GeV
#*********************************************************************
# Beam polarization from -100 (left-handed) to 100 (right-handed)    *
#*********************************************************************
        0     = polbeam1 ! beam polarization for beam 1
        0     = polbeam2 ! beam polarization for beam 2
#*********************************************************************
# PDF CHOICE: this automatically fixes also alpha_s and its evol.    *
#*********************************************************************
 'nn23lo1'    = pdlabel     ! PDF set                                     
 230000    = lhaid     ! if pdlabel=lhapdf, this is the lhapdf number
#*********************************************************************
# Renormalization and factorization scales                           *
#*********************************************************************
 F        = fixed_ren_scale  ! if .true. use fixed ren scale
 F        = fixed_fac_scale  ! if .true. use fixed fac scale
 91.1880  = scale            ! fixed ren scale
 91.1880  = dsqrt_q2fact1    ! fixed fact scale for pdf1
 91.1880  = dsqrt_q2fact2    ! fixed fact scale for pdf2
 1        = scalefact        ! scale factor for event-by-event scales
#*********************************************************************
# Matching - Warning! ickkw > 1 is still beta
#*********************************************************************
 0        = ickkw            ! 0 no matching, 1 MLM, 2 CKKW matching
 1        = highestmult      ! for ickkw=2, highest mult group
 1        = ktscheme         ! for ickkw=1, 1 Durham kT, 2 Pythia pTE
 1        = alpsfact         ! scale factor for QCD emission vx
 F        = chcluster        ! cluster only according to channel diag
 T        = pdfwgt           ! for ickkw=1, perform pdf reweighting
 5        = asrwgtflavor     ! highest quark flavor for a_s reweight
 T        = clusinfo         ! include clustering tag in output
 3.0      = lhe_version       ! Change the way clustering information pass to shower.        
#*********************************************************************
#**********************************************************
#
#**********************************************************
# Automatic ptj and mjj cuts if xqcut > 0
# (turn off for VBF and single top processes)
#**********************************************************
   T  = auto_ptj_mjj  ! Automatic setting of ptj and mjj
#**********************************************************
#                                                                    
#**********************************
# BW cutoff (M+/-bwcutoff*Gamma)
#**********************************
  15  = bwcutoff      ! (M+/-bwcutoff*Gamma)
#**********************************************************
# Apply pt/E/eta/dr/mij cuts on decay products or not
# (note that etmiss/ptll/ptheavy/ht/sorted cuts always apply)
#**********************************************************
   T  = cut_decays    ! Cut decay products 
#*************************************************************
# Number of helicities to sum per event (0 = all helicities)
# 0 gives more stable result, but longer run time (needed for
# long decay chains e.g.).
# Use >=2 if most helicities contribute, e.g. pure QCD.
#*************************************************************
   0  = nhel          ! Number of helicities used per event
#*******************                                                 
# Standard Cuts
#*******************                                                 
#                                                                    
#*********************************************************************
# Minimum and maximum pt's (for max, -1 means no cut)                *
#*********************************************************************
 20  = ptj       ! minimum pt for the jets 
  0  = ptb       ! minimum pt for the b 
 10  = pta       ! minimum pt for the photons 
 10  = ptl       ! minimum pt for the charged leptons 
  0  = misset    ! minimum missing Et (sum of neutrino's momenta)
  0  = ptheavy   ! minimum pt for one heavy final state
 1.0 = ptonium   ! minimum pt for the quarkonium states
 -1  = ptjmax    ! maximum pt for the jets
 -1  = ptbmax    ! maximum pt for the b
 -1  = ptamax    ! maximum pt for the photons
 -1  = ptlmax    ! maximum pt for the charged leptons
 -1  = missetmax ! maximum missing Et (sum of neutrino's momenta)
#*********************************************************************
# Minimum and maximum E's (in the center of mass frame)              *
#*********************************************************************
  0  = ej     ! minimum E for the jets 
  0  = eb     ! minimum E for the b 
  0  = ea     ! minimum E for the photons 
  0  = el     ! minimum E for the charged leptons 
 -1   = ejmax ! maximum E for the jets
 -1   = ebmax ! maximum E for the b
 -1   = eamax ! maximum E for the photons
 -1   = elmax ! maximum E for the charged leptons
#*********************************************************************
# Maximum and minimum absolute rapidity (for max, -1 means no cut)   *
#*********************************************************************
   5  = etaj    ! max rap for the jets 
  -1  = etab    ! max rap for the b
 2.5  = etaa    ! max rap for the photons 
 2.5  = etal    ! max rap for the charged leptons 
 0.6  = etaonium ! max rap for the quarkonium states
   0  = etajmin ! min rap for the jets
   0  = etabmin ! min rap for the b
   0  = etaamin ! min rap for the photons
   0  = etalmin ! main rap for the charged leptons
#*********************************************************************
# Minimum and maximum DeltaR distance                                *
#*********************************************************************
 0.4 = drjj    ! min distance between jets 
 0   = drbb    ! min distance between b's 
 0.4 = drll    ! min distance between leptons 
 0.4 = draa    ! min distance between gammas 
 0   = drbj    ! min distance between b and jet 
 0.4 = draj    ! min distance between gamma and jet 
 0.4 = drjl    ! min distance between jet and lepton 
 0   = drab    ! min distance between gamma and b 
 0   = drbl    ! min distance between b and lepton 
 0.4 = dral    ! min distance between gamma and lepton 
 -1  = drjjmax ! max distance between jets
 -1  = drbbmax ! max distance between b's
 -1  = drllmax ! max distance between leptons
 -1  = draamax ! max distance between gammas
 -1  = drbjmax ! max distance between b and jet
 -1  = drajmax ! max distance between gamma and jet
 -1  = drjlmax ! max distance between jet and lepton
 -1  = drabmax ! max distance between gamma and b
 -1  = drblmax ! max distance between b and lepton
 -1  = dralmax ! maxdistance between gamma and lepton
#*********************************************************************
# Minimum and maximum invariant mass for pairs                       *
# WARNING: for four lepton final state mmll cut require to have      *
#          different lepton masses for each flavor!                  *           
#*********************************************************************
 0   = mmjj    ! min invariant mass of a jet pair 
 0   = mmbb    ! min invariant mass of a b pair 
 0   = mmaa    ! min invariant mass of gamma gamma pair
 0   = mmll    ! min invariant mass of l+l- (same flavour) lepton pair
 -1  = mmjjmax ! max invariant mass of a jet pair
 -1  = mmbbmax ! max invariant mass of a b pair
 -1  = mmaamax ! max invariant mass of gamma gamma pair
 -1  = mmllmax ! max invariant mass of l+l- (same flavour) lepton pair
#*********************************************************************
# Minimum and maximum invariant mass for all letpons                 *
#*********************************************************************
 0   = mmnl    ! min invariant mass for all letpons (l+- and vl) 
 -1  = mmnlmax ! max invariant mass for all letpons (l+- and vl) 
#*********************************************************************
# Minimum and maximum pt for 4-momenta sum of leptons                *
#*********************************************************************
 0   = ptllmin  ! Minimum pt for 4-momenta sum of leptons(l and vl)
 -1  = ptllmax  ! Maximum pt for 4-momenta sum of leptons(l and vl)
#*********************************************************************
# Inclusive cuts                                                     *
#*********************************************************************
 0  = xptj ! minimum pt for at least one jet  
 0  = xptb ! minimum pt for at least one b 
 0  = xpta ! minimum pt for at least one photon 
 0  = xptl ! minimum pt for at least one charged lepton 
#*********************************************************************
# Control the pt's of the jets sorted by pt                          *
#*********************************************************************
 0   = ptj1min ! minimum pt for the leading jet in pt
 0   = ptj2min ! minimum pt for the second jet in pt
 0   = ptj3min ! minimum pt for the third jet in pt
 0   = ptj4min ! minimum pt for the fourth jet in pt
 -1  = ptj1max ! maximum pt for the leading jet in pt 
 -1  = ptj2max ! maximum pt for the second jet in pt
 -1  = ptj3max ! maximum pt for the third jet in pt
 -1  = ptj4max ! maximum pt for the fourth jet in pt
 0   = cutuse  ! reject event if fails any (0) / all (1) jet pt cuts
#*********************************************************************
# Control the pt's of leptons sorted by pt                           *
#*********************************************************************
 0   = ptl1min ! minimum pt for the leading lepton in pt
 0   = ptl2min ! minimum pt for the second lepton in pt
 0   = ptl3min ! minimum pt for the third lepton in pt
 0   = ptl4min ! minimum pt for the fourth lepton in pt
 -1  = ptl1max ! maximum pt for the leading lepton in pt 
 -1  = ptl2max ! maximum pt for the second lepton in pt
 -1  = ptl3max ! maximum pt for the third lepton in pt
 -1  = ptl4max ! maximum pt for the fourth lepton in pt
#*********************************************************************
# Control the Ht(k)=Sum of k leading jets                            *
#*********************************************************************
 0   = htjmin ! minimum jet HT=Sum(jet pt)
 -1  = htjmax ! maximum jet HT=Sum(jet pt)
 0   = ihtmin  !inclusive Ht for all partons (including b)
 -1  = ihtmax  !inclusive Ht for all partons (including b)
 0   = ht2min ! minimum Ht for the two leading jets
 0   = ht3min ! minimum Ht for the three leading jets
 0   = ht4min ! minimum Ht for the four leading jets
 -1  = ht2max ! maximum Ht for the two leading jets
 -1  = ht3max ! maximum Ht for the three leading jets
 -1  = ht4max ! maximum Ht for the four leading jets
#***********************************************************************
# Photon-isolation cuts, according to hep-ph/9801442                   *
# When ptgmin=0, all the other parameters are ignored                  *
# When ptgmin>0, pta and draj are not going to be used                 *
#***********************************************************************
   0 = ptgmin ! Min photon transverse momentum
 0.4 = R0gamma ! Radius of isolation code
 1.0 = xn ! n parameter of eq.(3.4) in hep-ph/9801442
 1.0 = epsgamma ! epsilon_gamma parameter of eq.(3.4) in hep-ph/9801442
 .true. = isoEM ! isolate photons from EM energy (photons and leptons)
#*********************************************************************
# WBF cuts                                                           *
#*********************************************************************
 0   = xetamin ! minimum rapidity for two jets in the WBF case  
 0   = deltaeta ! minimum rapidity for two jets in the WBF case 
#*********************************************************************
# KT DURHAM CUT                                                      *
#*********************************************************************
 -1    =  ktdurham        
 0.4  =  dparameter 
#*********************************************************************
# maximal pdg code for quark to be considered as a light jet         *
# (otherwise b cuts are applied)                                     *
#*********************************************************************
 4 = maxjetflavor    ! Maximum jet pdg code
#*********************************************************************
# Jet measure cuts                                                   *
#*********************************************************************
 0   = xqcut   ! minimum kt jet measure between partons
#*********************************************************************
#
#*********************************************************************
# Store info for systematics studies                                 *
# WARNING: If use_syst is T, matched Pythia output is                *
#          meaningful ONLY if plotted taking matchscale              *
#          reweighting into account!                                 *
#*********************************************************************
   F  = use_syst      ! Enable systematics studies
#
#**************************************
# Parameter of the systematics study
#  will be used by SysCalc (if installed)
#**************************************                                  
#
0.5 1 2 = sys_scalefact  # factorization/renormalization scale factor
0.5 1 2 = sys_alpsfact  # \alpha_s emission scale factors
30 50 = sys_matchscale # variation of merging scale
# PDF sets and number of members (0 or none for all members).
CT10nlo.LHgrid = sys_pdf # matching scales
# MSTW2008nlo68cl.LHgrid 1  = sys_pdf
</MGRunCard>
<slha>
######################################################################
## PARAM_CARD AUTOMATICALY GENERATED BY MG5 FOLLOWING UFO MODEL   ####
######################################################################
##                                                                  ##
##  Width set on Auto will be computed following the information    ##
##        present in the decay.py files of the model.               ##
##        See  arXiv:1402.1178 for more details.                    ##
##                                                                  ##
######################################################################

###################################
## INFORMATION FOR CKMBLOCK
###################################
Block ckmblock 
    1 2.277360e-01 # cabi 

###################################
## INFORMATION FOR FRBLOCK
###################################
Block frblock 
    1 1.600000e+00 # gz 

###################################
## INFORMATION FOR MASS
###################################
Block mass 
    1 5.040000e-03 # MD 
    2 2.550000e-03 # MU 
    3 1.010000e-01 # MS 
    4 1.270000e+00 # MC 
    5 4.700000e+00 # MB 
    6 1.720000e+02 # MT 
   11 5.110000e-04 # Me 
   13 1.056600e-01 # MM 
   15 1.777000e+00 # MTA 
   23 9.118760e+01 # MZ 
   25 1.200000e+02 # MH 
  10030 1.000000e+03 # MZph 
  10031 3.000000e+02 # MZpl 
## Dependent parameters, given by model restrictions.
## Those values should be edited following the 
## analytical expression. MG5 ignores those values 
## but they are important for interfacing the output of MG5
## to external program such as Pythia.
  12 0.000000 # ve : 0.0 
  14 0.000000 # vm : 0.0 
  16 0.000000 # vt : 0.0 
  21 0.000000 # g : 0.0 
  22 0.000000 # a : 0.0 
  24 79.824360 # w+ : cmath.sqrt(MZ__exp__2/2. + cmath.sqrt(MZ__exp__4/4. - (aEW*cmath.pi*MZ__exp__2)/(Gf*sqrt__2))) 

###################################
## INFORMATION FOR SMINPUTS
###################################
Block sminputs 
    1 1.279000e+02 # aEWM1 
    2 1.166370e-05 # Gf 
    3 1.184000e-01 # aS 

###################################
## INFORMATION FOR YUKAWA
###################################
Block yukawa 
    1 5.040000e-03 # ymdo 
    2 2.550000e-03 # ymup 
    3 1.010000e-01 # yms 
    4 1.270000e+00 # ymc 
    5 4.700000e+00 # ymb 
    6 1.720000e+02 # ymt 
   11 5.110000e-04 # yme 
   13 1.056600e-01 # ymm 
   15 1.777000e+00 # ymtau 

###################################
## INFORMATION FOR DECAY
###################################
DECAY   6 1.508336e+00 # WT 
DECAY  23 2.495200e+00 # WZ 
DECAY  24 2.085000e+00 # WW 
DECAY  25 5.753088e-03 # WH 
## Dependent parameters, given by model restrictions.
## Those values should be edited following the 
## analytical expression. MG5 ignores those values 
## but they are important for interfacing the output of MG5
## to external program such as Pythia.
DECAY  1 0.000000 # d : 0.0 
DECAY  2 0.000000 # u : 0.0 
DECAY  3 0.000000 # s : 0.0 
DECAY  4 0.000000 # c : 0.0 
DECAY  5 0.000000 # b : 0.0 
DECAY  11 0.000000 # e- : 0.0 
DECAY  12 0.000000 # ve : 0.0 
DECAY  13 0.000000 # mu- : 0.0 
DECAY  14 0.000000 # vm : 0.0 
DECAY  15 0.000000 # ta- : 0.0 
DECAY  16 0.000000 # vt : 0.0 
DECAY  21 0.000000 # g : 0.0 
DECAY  22 0.000000 # a : 0.0 
DECAY  10030 0.308725 # zph : (gz__exp__2*MZph*(5 + cmath.sqrt(1 - (4*MT__exp__2)/MZph__exp__2)))/(144.*cmath.pi) 
DECAY  10031 0.132629 # zpl : (5*gz__exp__2*MZpl)/(144.*cmath.pi) 
#===========================================================
# QUANTUM NUMBERS OF NEW STATE(S) (NON SM PDG CODE)
#===========================================================

Block QNUMBERS 10030  # zph 
        1 0  # 3 times electric charge
        2 3  # number of spin states (2S+1)
        3 1  # colour rep (1: singlet, 3: triplet, 8: octet)
        4 0  # Particle/Antiparticle distinction (0=own anti)
Block QNUMBERS 10031  # zpl 
        1 0  # 3 times electric charge
        2 3  # number of spin states (2S+1)
        3 1  # colour rep (1: singlet, 3: triplet, 8: octet)
        4 0  # Particle/Antiparticle distinction (0=own anti)
</slha>
## END BANNER##
<MGGenerationInfo>
#  Number of Events        :         4035
#  Integrated weight (pb)  :  0.50518E+01
#  Max wgt                 :  0.16635E-02
#  Average wgt             :  0.12520E-02
</MGGenerationInfo>
</header>
<init>
     2212     2212  0.40000000000E+04  0.40000000000E+04 0 0  247000  247000 2   1
  0.50543552061E+01  0.10220166758E-01  0.16634970000E-02   0
</init>
<event>
 5   0  0.1663497E-02  0.9718718E+03  0.7818609E-02  0.9339945E-01
        2   -1    0    0  501    0  0.00000000000E+00  0.00000000000E+00  0.53508573950E+03  0.53508573951E+03  0.25500000920E-02 0.  1.
       -2   -1    0    0    0  501  0.00000000000E+00  0.00000000000E+00 -0.44130063913E+03  0.44130063914E+03  0.25500000920E-02 0. -1.
    10030    2    1    2    0    0  0.00000000000E+00  0.00000000000E+00  0.93785100369E+02  0.97638637864E+03  0.97187175870E+03 0.  0.
        1    1    3    3  502    0 -0.34555891980E+03  0.31079208791E+03  0.18943535977E+03  0.50188489170E+03  0.50400001928E-02 0.  1.
       -1    1    3    3    0  502  0.34555891980E+03 -0.31079208791E+03 -0.95650259403E+02  0.47450148694E+03  0.50400001928E-02 0. -1.
</event>
<event>
 5   0  0.1663497E-02  0.9997817E+03  0.7818609E-02  0.9308784E-01
       -2   -1    0    0    0  501  0.00000000000E+00  0.00000000000E+00  0.10773246438E+04  0.10773246438E+04  0.25500000920E-02 0.  1.
        2   -1    0    0  501    0  0.00000000000E+00  0.00000000000E+00 -0.23195504441E+03  0.23195504443E+03  0.25500000920E-02 0. -1.
    10030    2    1    2    0    0  0.00000000000E+00  0.00000000000E+00  0.84536959936E+03  0.13092796882E+04  0.99978174739E+03 0.  0.
        1    1    3    3  502    0  0.31463564131E+03 -0.14913407490E+02  0.93101368000E+03  0.98285526344E+03  0.50400001928E-02 0.  1.
       -1    1    3    3    0  502 -0.31463564131E+03  0.14913407490E+02 -0.85644080643E+02  0.32642442476E+03  0.50400001928E-02 0. -1.
</event>
<event>
 5   0  0.1598986E-02  0.1004495E+04  0.7818609E-02  0.9303628E-01
        2   -1    0    0  501    0  0.00000000000E+00  0.00000000000E+00  0.66149683486E+03  0.66149683487E+03  0.25500000920E-02 0. -1.
       -2   -1    0    0    0  501  0.00000000000E+00  0.00000000000E+00 -0.38133599410E+03  0.38133599411E+03  0.25500000920E-02 0.  1.
    10030    2    1    2    0    0  0.00000000000E+00  0.00000000000E+00  0.28016084076E+03  0.10428328290E+04  0.10044950037E+04 0.  0.
        3    1    3    3  502    0  0.48532381206E+03  0.47044784258E+02  0.15068092805E+02  0.48783139700E+03  0.10100000352E+00 0.  1.
       -3    1    3    3    0  502 -0.48532381206E+03 -0.47044784258E+02  0.26509274796E+03  0.55500143198E+03  0.10100000352E+00 0. -1.
</event>
<event>
 5   0  0.1663497E-02  0.8484303E+03  0.7818609E-02  0.9492446E-01
        2   -1    0    0  501    0  0.00000000000E+00  0.00000000000E+00  0.20544273521E+04  0.20544273522E+04  0.25500000920E-02 0.  1.
       -2   -1    0    0    0  501  0.00000000000E+00  0.00000000000E+00 -0.87595458614E+02  0.87595458652E+02  0.25500000920E-02 0. -1.
    10030    2    1    2    0    0  0.00000000000E+00  0.00000000000E+00  0.19668318935E+04  0.21420228108E+04  0.84843032983E+03 0.  0.
        1    1    3    3  502    0  0.77774560742E+02  0.16487433417E+03  0.19504940726E+04  0.19589945267E+04  0.50400001928E-02 0.  1.
       -1    1    3    3    0  502 -0.77774560742E+02 -0.16487433417E+03  0.16337820950E+02  0.18302828412E+03  0.50400001928E-02 0. -1.
</event>
<event>
 5   0  0.1598986E-02  0.8734871E+03  0.7818609E-02  0.9459344E-01
        2   -1    0    0  501    0  0.00000000000E+00  0.00000000000E+00  0.57464451409E+03  0.57464451409E+03  0.25500000920E-02 0. -1.
       -2   -1    0    0    0  501  0.00000000000E+00  0.00000000000E+00 -0.33193554789E+03  0.33193554790E+03  0.25500000920E-02 0.  1.
    10030    2    1    2    0    0  0.00000000000E+00  0.00000000000E+00  0.24270896620E+03  0.90658006199E+03  0.87348713015E+03 0.  0.
        3    1    3    3  502    0 -0.32271253699E+03  0.13840531694E+03  0.39089633059E+03  0.52545158175E+03  0.10100000352E+00 0.  1.
       -3    1    3    3    0  502  0.32271253699E+03 -0.13840531694E+03 -0.14818736440E+03  0.38112848025E+03  0.10100000352E+00 0. -1.
</event>
<event>
 5   0  0.9507815E-03  0.1009513E+04  0.7818609E-02  0.9298172E-01
       -1   -1    0    0    0  501  0.00000000000E+00  0.00000000000E+00  0.26213278549E+03  0.26213278554E+03  0.50400001928E-02 0. -1.
        1   -1    0    0  501    0  0.00000000000E+00  0.00000000000E+00 -0.97194736844E+03  0.97194736846E+03  0.50400001928E-02 0.  1.
    10030    2    1    2    0    0  0.00000000000E+00  0.00000000000E+00 -0.70981458295E+03  0.12340801540E+04  0.10095132908E+04 0.  0.
        1    1    3    3  502    0  0.91498025152E+02  0.10773181947E+03  0.23744697103E+03  0.27633149949E+03  0.50400001928E-02 0. -1.
       -1    1    3    3    0  502 -0.91498025152E+02 -0.10773181947E+03 -0.94726155398E+03  0.95774865451E+03  0.50400001928E-02 0.  1.
</event>
<event>
 5   0  0.1000773E-02  0.9621557E+03  0.7818609E-02  0.9351054E-01
        1   -1    0    0  501    0  0.00000000000E+00  0.00000000000E+00  0.74788503120E+03  0.74788503122E+03  0.50400001928E-02 0.  1.
       -1   -1    0    0    0  501  0.00000000000E+00  0.00000000000E+00 -0.30945386623E+03  0.30945386627E+03  0.50400001928E-02 0. -1.
    10030    2    1    2    0    0  0.00000000000E+00  0.00000000000E+00  0.43843116498E+03  0.10573388975E+04  0.96215573465E+03 0.  0.
        3    1    3    3  502    0  0.18199102824E+03  0.24646522717E+03  0.62681241713E+03  0.69768163157E+03  0.10100000352E+00 0.  1.
       -3    1    3    3    0  502 -0.18199102824E+03 -0.24646522717E+03 -0.18838125215E+03  0.35965726592E+03  0.10100000352E+00 0. -1.
</event>
<event>
 5   0  0.1663497E-02  0.1010845E+04  0.7818609E-02  0.9296730E-01
        2   -1    0    0  501    0  0.00000000000E+00  0.00000000000E+00  0.11369875677E+04  0.11369875677E+04  0.25500000920E-02 0.  1.
       -2   -1    0    0    0  501  0.00000000000E+00  0.00000000000E+00 -0.22467419985E+03  0.22467419987E+03  0.25500000920E-02 0. -1.
    10030    2    1    2    0    0  0.00000000000E+00  0.00000000000E+00  0.91231336788E+03  0.13616617676E+04  0.10108447399E+04 0.  0.
        1    1    3    3  502    0 -0.34690080069E+03 -0.36295627808E+03  0.37790753202E+03  0.62840395296E+03  0.50400001928E-02 0. -1.
       -1    1    3    3    0  502  0.34690080069E+03  0.36295627808E+03  0.53440583586E+03  0.73325781464E+03  0.50400001928E-02 0.  1.
</event>
<event>
 5   0  0.6314750E-03  0.1028141E+04  0.7818609E-02  0.9278207E-01
       -4   -1    0    0    0  501  0.00000000000E+00  0.00000000000E+00  0.30689824073E+03  0.30690086846E+03  0.12699999809E+01 0. -1.
        4   -1    0    0  501    0  0.00000000000E+00  0.00000000000E+00 -0.86108869880E+03  0.86108963534E+03  0.12699999809E+01 0.  1.
    10030    2    1    2    0    0  0.00000000000E+00  0.00000000000E+00 -0.55419045807E+03  0.11679905038E+04  0.10281414072E+04 0.  0.
        5    1    3    3  502    0  0.42031022434E+03  0.29394076666E+03 -0.23799332914E+03  0.56544210464E+03  0.46999998093E+01 0. -1.
       -5    1    3    3    0  502 -0.42031022434E+03 -0.29394076666E+03 -0.31619712893E+03  0.60254839916E+03  0.46999998093E+01 0.  1.
</event>
<event>
 5   0  0.1663497E-02  0.9069345E+03  0.7818609E-02  0.9416954E-01
       -2   -1    0    0    0  501  0.00000000000E+00  0.00000000000E+00  0.24748140643E+03  0.24748140645E+03  0.25500000920E-02 0. -1.
        2   -1    0    0  501    0  0.00000000000E+00  0.00000000000E+00 -0.83090100357E+03  0.83090100357E+03  0.25500000920E-02 0.  1.
    10030    2    1    2    0    0  0.00000000000E+00  0.00000000000E+00 -0.58341959713E+03  0.10783824100E+04  0.90693450476E+03 0.  0.
        1    1    3    3  502    0 -0.17981611289E+03 -0.20155302835E+03 -0.72481317319E+03  0.77350603989E+03  0.50400001928E-02 0.  1.
       -1    1    3    3    0  502  0.17981611289E+03  0.20155302835E+03  0.14139357605E+03  0.30487637013E+03  0.50400001928E-02 0. -1.
</event>
<event>
 5   0  0.6314750E-03  0.9826371E+03  0.7818609E-02  0.9327796E-01
       -4   -1    0    0    0  501  0.00000000000E+00  0.00000000000E+00  0.15844266512E+03  0.15844775489E+03  0.12699999809E+01 0.  1.
        4   -1    0    0  501    0  0.00000000000E+00  0.00000000000E+00 -0.15235113835E+04  0.15235119128E+04  0.12699999809E+01 0. -1.
    10030    2    1    2    0    0  0.00000000000E+00  0.00000000000E+00 -0.13650687183E+04  0.16819596677E+04  0.98263712425E+03 0.  0.
        4    1    3    3  502    0  0.23887485775E+03 -0.92909474589E+02  0.34941000721E+02  0.25868098996E+03  0.12699999809E+01 0.  1.
       -4    1    3    3    0  502 -0.23887485775E+03  0.92909474589E+02 -0.14000097191E+04  0.14232786777E+04  0.12699999809E+01 0. -1.
</event>
<event>
 5   0  0.1617721E-02  0.9890387E+03  0.7818609E-02  0.9320649E-01
       -2   -1    0    0    0  501  0.00000000000E+00  0.00000000000E+00  0.21528717059E+03  0.21528717060E+03  0.25500000920E-02 0.  1.
        2   -1    0    0  501    0  0.00000000000E+00  0.00000000000E+00 -0.11359217893E+04  0.11359217893E+04  0.25500000920E-02 0. -1.
    10030    2    1    2    0    0  0.00000000000E+00  0.00000000000E+00 -0.92063461869E+03  0.13512089599E+04  0.98903870103E+03 0.  0.
        5    1    3    3  502    0 -0.92327778808E+02 -0.92462352343E+02  0.19124451562E+03  0.23166842705E+03  0.46999998093E+01 0.  1.
       -5    1    3    3    0  502  0.92327778808E+02  0.92462352343E+02 -0.11118791343E+04  0.11195405328E+04  0.46999998093E+01 0. -1.
</event>
<event>
 5   0  0.9396660E-03  0.9729338E+03  0.7818609E-02  0.9338739E-01
        1   -1    0    0  501    0  0.00000000000E+00  0.00000000000E+00  0.25523798856E+04  0.25523798856E+04  0.50400001928E-02 0. -1.
       -1   -1    0    0    0  501  0.00000000000E+00  0.00000000000E+00 -0.92717400939E+02  0.92717401075E+02  0.50400001928E-02 0.  1.
    10030    2    1    2    0    0  0.00000000000E+00  0.00000000000E+00  0.24596624847E+04  0.26450972867E+04  0.97293376834E+03 0.  0.
        5    1    3    3  502    0  0.22696574031E+03 -0.36146541084E+03  0.59539757469E+03  0.73259200955E+03  0.46999998093E+01 0.  1.
       -5    1    3    3    0  502 -0.22696574031E+03  0.36146541084E+03  0.18642649100E+04  0.19125052772E+04  0.46999998093E+01 0. -1.
</event>
<event>
 5   0  0.6314750E-03  0.1029745E+04  0.7818609E-02  0.9276509E-01
       -3   -1    0    0    0  501  0.00000000000E+00  0.00000000000E+00  0.38107160365E+03  0.38107161703E+03  0.10100000352E+00 0. -1.
        3   -1    0    0  501    0  0.00000000000E+00  0.00000000000E+00 -0.69565320368E+03  0.69565321101E+03  0.10100000352E+00 0.  1.
    10030    2    1    2    0    0  0.00000000000E+00  0.00000000000E+00 -0.31458160003E+03  0.10767248280E+04  0.10297450035E+04 0.  0.
        1    1    3    3  502    0 -0.19989115539E+03 -0.11612734291E+03 -0.63833598606E+03  0.67890711065E+03  0.50400001928E-02 0.  1.
       -1    1    3    3    0  502  0.19989115539E+03  0.11612734291E+03  0.32375438603E+03  0.39781771739E+03  0.50400001928E-02 0. -1.
</event>
<event>
 5   0  0.9507815E-03  0.9892200E+03  0.7818609E-02  0.9320448E-01
       -1   -1    0    0    0  501  0.00000000000E+00  0.00000000000E+00  0.20160151482E+03  0.20160151488E+03  0.50400001928E-02 0. -1.
        1   -1    0    0  501    0  0.00000000000E+00  0.00000000000E+00 -0.12134782614E+04  0.12134782614E+04  0.50400001928E-02 0.  1.
    10030    2    1    2    0    0  0.00000000000E+00  0.00000000000E+00 -0.10118767466E+04  0.14150797763E+04  0.98922000738E+03 0.  0.
        1    1    3    3  502    0 -0.40834496207E+03  0.27692519916E+03 -0.55561366122E+03  0.74306104362E+03  0.50400001928E-02 0. -1.
       -1    1    3    3    0  502  0.40834496207E+03 -0.27692519916E+03 -0.45626308536E+03  0.67201873268E+03  0.50400001928E-02 0.  1.
</event>
<event>
 5   0  0.1000773E-02  0.1039532E+04  0.7818609E-02  0.9266218E-01
        1   -1    0    0  501    0  0.00000000000E+00  0.00000000000E+00  0.12592699882E+04  0.12592699882E+04  0.50400001928E-02 0. -1.
       -1   -1    0    0    0  501  0.00000000000E+00  0.00000000000E+00 -0.21453449395E+03  0.21453449401E+03  0.50400001928E-02 0.  1.
    10030    2    1    2    0    0  0.00000000000E+00  0.00000000000E+00  0.10447354943E+04  0.14738044822E+04  0.10395322982E+04 0.  0.
        3    1    3    3  502    0 -0.63417405428E+02  0.84632212129E+02 -0.19911953071E+03  0.22546169598E+03  0.10100000352E+00 0.  1.
       -3    1    3    3    0  502  0.63417405428E+02 -0.84632212129E+02  0.12438550250E+04  0.12483427863E+04  0.10100000352E+00 0. -1.
</event>
<event>
 5   0  0.1000773E-02  0.9995234E+03  0.7818609E-02  0.9309068E-01
       -1   -1    0    0    0  501  0.00000000000E+00  0.00000000000E+00  0.17987662354E+03  0.17987662362E+03  0.50400001928E-02 0. -1.
        1   -1    0    0  501    0  0.00000000000E+00  0.00000000000E+00 -0.13885169246E+04  0.13885169247E+04  0.50400001928E-02 0.  1.
    10030    2    1    2    0    0  0.00000000000E+00  0.00000000000E+00 -0.12086403011E+04  0.15683935483E+04  0.99952335881E+03 0.  0.
        3    1    3    3  502    0  0.19565149911E+03  0.50511056325E+02 -0.13215583056E+04  0.13369170660E+04  0.10100000352E+00 0.  1.
       -3    1    3    3    0  502 -0.19565149911E+03 -0.50511056325E+02  0.11291800452E+03  0.23147648231E+03  0.10100000352E+00 0. -1.
</event>
<event>
 5   0  0.1663497E-02  0.9932915E+03  0.7818609E-02  0.9315933E-01
        2   -1    0    0  501    0  0.00000000000E+00  0.00000000000E+00  0.72018534114E+03  0.72018534114E+03  0.25500000920E-02 0. -1.
       -2   -1    0    0    0  501  0.00000000000E+00  0.00000000000E+00 -0.34249097655E+03  0.34249097656E+03  0.25500000920E-02 0.  1.
    10030    2    1    2    0    0  0.00000000000E+00  0.00000000000E+00  0.37769436458E+03  0.10626763177E+04  0.99329145932E+03 0.  0.
        1    1    3    3  502    0  0.39225727085E+03 -0.24310455092E+03  0.38522108687E+03  0.60113299277E+03  0.50400001928E-02 0. -1.
       -1    1    3    3    0  502 -0.39225727085E+03  0.24310455092E+03 -0.75267222828E+01  0.46154332493E+03  0.50400001928E-02 0.  1.
</event>
<event>
 5   0  0.9471140E-03  0.8846794E+03  0.7818609E-02  0.9444938E-01
        1   -1    0    0  501    0  0.00000000000E+00  0.00000000000E+00  0.70405745020E+03  0.70405745021E+03  0.50400001928E-02 0.  1.
       -1   -1    0    0    0  501  0.00000000000E+00  0.00000000000E+00 -0.27790969473E+03  0.27790969478E+03  0.50400001928E-02 0. -1.
    10030    2    1    2    0    0  0.00000000000E+00  0.00000000000E+00  0.42614775546E+03  0.98196714499E+03  0.88467935681E+03 0.  0.
        4    1    3    3  502    0  0.51942836089E+02 -0.17026118600E+03 -0.23639642990E+03  0.29592535317E+03  0.12699999809E+01 0. -1.
       -4    1    3    3    0  502 -0.51942836089E+02  0.17026118600E+03  0.66254418536E+03  0.68604179183E+03  0.12699999809E+01 0.  1.
</event>
<event>
 5   0  0.9507815E-03  0.9917633E+03  0.7818609E-02  0.9317625E-01
       -1   -1    0    0    0  501  0.00000000000E+00  0.00000000000E+00  0.56582563984E+03  0.56582563986E+03  0.50400001928E-02 0. -1.
        1   -1    0    0  501    0  0.00000000000E+00  0.00000000000E+00 -0.43458373685E+03  0.43458373688E+03  0.50400001928E-02 0.  1.
    10030    2    1    2    0    0  0.00000000000E+00  0.00000000000E+00  0.13124190298E+03  0.10004093767E+04  0.99176332054E+03 0.  0.
        1    1    3    3  502    0 -0.12227771993E+03 -0.29246268873E+03 -0.31903314924E+03  0.44974261020E+03  0.50400001928E-02 0.  1.
       -1    1    3    3    0  502  0.12227771993E+03  0.29246268873E+03  0.45027505223E+03  0.55066676654E+03  0.50400001928E-02 0. -1.
</event>
<event>
 5   0  0.1571895E-02  0.9368357E+03  0.7818609E-02  0.9380671E-01
        2   -1    0    0  501    0  0.00000000000E+00  0.00000000000E+00  0.72997425695E+03  0.72997425695E+03  0.25500000920E-02 0. -1.
       -2   -1    0    0    0  501  0.00000000000E+00  0.00000000000E+00 -0.30057946082E+03  0.30057946083E+03  0.25500000920E-02 0.  1.
    10030    2    1    2    0    0  0.00000000000E+00  0.00000000000E+00  0.42939479612E+03  0.10305537178E+04  0.93683567092E+03 0.  0.
        2    1    3    3  502    0  0.37920379491E+03  0.41621638154E+02  0.51371198689E+03  0.63986552049E+03  0.25500000920E-02 0. -1.
       -2    1    3    3    0  502 -0.37920379491E+03 -0.41621638154E+02 -0.84317190765E+02  0.39068819729E+03  0.25500000920E-02 0.  1.
</event>
<event>
 5   0  0.1000773E-02  0.9970519E+03  0.7818609E-02  0.9311784E-01
        1   -1    0    0  501    0  0.00000000000E+00  0.00000000000E+00  0.13122809494E+04  0.13122809494E+04  0.50400001928E-02 0. -1.
       -1   -1    0    0    0  501  0.00000000000E+00  0.00000000000E+00 -0.18938636081E+03  0.18938636088E+03  0.50400001928E-02 0.  1.
    10030    2    1    2    0    0  0.00000000000E+00  0.00000000000E+00  0.11228945886E+04  0.15016673103E+04  0.99705188116E+03 0.  0.
        3    1    3    3  502    0  0.14499592922E+03  0.17422563969E+03  0.12301822748E+04  0.12508904158E+04  0.10100000352E+00 0. -1.
       -3    1    3    3    0  502 -0.14499592922E+03 -0.17422563969E+03 -0.10728768615E+03  0.25077689450E+03  0.10100000352E+00 0.  1.
</event>
<event>
 5   0  0.6314750E-03  0.1018293E+04  0.7818609E-02  0.9288706E-01
       -3   -1    0    0    0  501  0.00000000000E+00  0.00000000000E+00  0.48220636528E+03  0.48220637586E+03  0.10100000352E+00 0. -1.
        3   -1    0    0  501    0  0.00000000000E+00  0.00000000000E+00 -0.53759164068E+03  0.53759165016E+03  0.10100000352E+00 0.  1.
    10030    2    1    2    0    0  0.00000000000E+00  0.00000000000E+00 -0.55385275391E+02  0.10197980260E+04  0.10182929270E+04 0.  0.
        3    1    3    3  502    0  0.45179589733E+03 -0.22883173625E+02  0.20629117267E+03  0.49719134204E+03  0.10100000352E+00 0. -1.
       -3    1    3    3    0  502 -0.45179589733E+03  0.22883173625E+02 -0.26167644806E+03  0.52260668399E+03  0.10100000352E+00 0.  1.
</event>
<event>
 5   0  0.1598986E-02  0.9540179E+03  0.7818609E-02  0.9360467E-01
        2   -1    0    0  501    0  0.00000000000E+00  0.00000000000E+00  0.10192288089E+04  0.10192288089E+04  0.25500000920E-02 0. -1.
       -2   -1    0    0    0  501  0.00000000000E+00  0.00000000000E+00 -0.22324479417E+03  0.22324479418E+03  0.25500000920E-02 0.  1.
    10030    2    1    2    0    0  0.00000000000E+00  0.00000000000E+00  0.79598401476E+03  0.12424736031E+04  0.95401787336E+03 0.  0.
        3    1    3    3  502    0  0.25994315429E+03 -0.26262986047E+03  0.51356688934E+01  0.36955550648E+03  0.10100000352E+00 0.  1.
       -3    1    3    3    0  502 -0.25994315429E+03  0.26262986047E+03  0.79084834587E+03  0.87291809664E+03  0.10100000352E+00 0. -1.
</event>
<event>
 5   0  0.9507815E-03  0.9551935E+03  0.7818609E-02  0.9359101E-01
        1   -1    0    0  501    0  0.00000000000E+00  0.00000000000E+00  0.40378944901E+03  0.40378944904E+03  0.50400001928E-02 0. -1.
       -1   -1    0    0    0  501  0.00000000000E+00  0.00000000000E+00 -0.56489509460E+03  0.56489509462E+03  0.50400001928E-02 0.  1.
    10030    2    1    2    0    0  0.00000000000E+00  0.00000000000E+00 -0.16110564558E+03  0.96868454366E+03  0.95519354902E+03 0.  0.
        1    1    3    3  502    0 -0.40348603311E+03 -0.22930423409E+03  0.33810800543E+02  0.46532201855E+03  0.50400001928E-02 0.  1.
       -1    1    3    3    0  502  0.40348603311E+03  0.22930423409E+03 -0.19491644613E+03  0.50336252511E+03  0.50400001928E-02 0. -1.
</event>
<event>
 5   0  0.1571895E-02  0.1000608E+04  0.7818609E-02  0.9307878E-01
        2   -1    0    0  501    0  0.00000000000E+00  0.00000000000E+00  0.88008069586E+03  0.88008069586E+03  0.25500000920E-02 0. -1.
       -2   -1    0    0    0  501  0.00000000000E+00  0.00000000000E+00 -0.28441064997E+03  0.28441064998E+03  0.25500000920E-02 0.  1.
    10030    2    1    2    0    0  0.00000000000E+00  0.00000000000E+00  0.59567004589E+03  0.11644913458E+04  0.10006084604E+04 0.  0.
        2    1    3    3  502    0 -0.39179988302E+03  0.16618624901E+03  0.60393281162E+03  0.73882329325E+03  0.25500000920E-02 0.  1.
       -2    1    3    3    0  502  0.39179988302E+03 -0.16618624901E+03 -0.82627657320E+01  0.42566805259E+03  0.25500000920E-02 0. -1.
</event>
<event>
 5   0  0.9759443E-03  0.1093808E+04  0.7818609E-02  0.9211249E-01
        1   -1    0    0  501    0  0.00000000000E+00  0.00000000000E+00  0.66166163685E+03  0.66166163687E+03  0.50400001928E-02 0. -1.
       -1   -1    0    0    0  501  0.00000000000E+00  0.00000000000E+00 -0.45204935673E+03  0.45204935676E+03  0.50400001928E-02 0.  1.
    10030    2    1    2    0    0  0.00000000000E+00  0.00000000000E+00  0.20961228012E+03  0.11137109936E+04  0.10938075102E+04 0.  0.
        2    1    3    3  502    0  0.39648440697E+03  0.31507766651E+03 -0.10542098174E+03  0.51728851166E+03  0.25500000920E-02 0.  1.
       -2    1    3    3    0  502 -0.39648440697E+03 -0.31507766651E+03  0.31503326186E+03  0.59642248196E+03  0.25500000920E-02 0. -1.
</event>
<event>
 5   0  0.1598986E-02  0.9404026E+03  0.7818609E-02  0.9376439E-01
       -2   -1    0    0    0  501  0.00000000000E+00  0.00000000000E+00  0.77182797744E+03  0.77182797745E+03  0.25500000920E-02 0. -1.
        2   -1    0    0  501    0  0.00000000000E+00  0.00000000000E+00 -0.28644887457E+03  0.28644887458E+03  0.25500000920E-02 0.  1.
    10030    2    1    2    0    0  0.00000000000E+00  0.00000000000E+00  0.48537910287E+03  0.10582768520E+04  0.94040258508E+03 0.  0.
        3    1    3    3  502    0  0.11889456649E+03  0.33856876260E+03 -0.99245807337E+02  0.37230963649E+03  0.10100000352E+00 0.  1.
       -3    1    3    3    0  502 -0.11889456649E+03 -0.33856876260E+03  0.58462491021E+03  0.68596721553E+03  0.10100000352E+00 0. -1.
</event>
<event>
 5   0  0.1617721E-02  0.1006818E+04  0.7818609E-02  0.9301098E-01
        2   -1    0    0  501    0  0.00000000000E+00  0.00000000000E+00  0.15513423204E+04  0.15513423204E+04  0.25500000920E-02 0.  1.
       -2   -1    0    0    0  501  0.00000000000E+00  0.00000000000E+00 -0.16335584129E+03  0.16335584131E+03  0.25500000920E-02 0. -1.
    10030    2    1    2    0    0  0.00000000000E+00  0.00000000000E+00  0.13879864791E+04  0.17146981617E+04  0.10068184144E+04 0.  0.
        5    1    3    3  502    0 -0.32792038810E+03 -0.18968300984E+03  0.12585535102E+04  0.13143403110E+04  0.46999998093E+01 0.  1.
       -5    1    3    3    0  502  0.32792038810E+03  0.18968300984E+03  0.12943296890E+03  0.40035785067E+03  0.46999998093E+01 0. -1.
</event>
<event>
 5   0  0.9759443E-03  0.9750620E+03  0.7818609E-02  0.9336327E-01
       -1   -1    0    0    0  501  0.00000000000E+00  0.00000000000E+00  0.62646392054E+03  0.62646392056E+03  0.50400001928E-02 0.  1.
        1   -1    0    0  501    0  0.00000000000E+00  0.00000000000E+00 -0.37940968894E+03  0.37940968897E+03  0.50400001928E-02 0. -1.
    10030    2    1    2    0    0  0.00000000000E+00  0.00000000000E+00  0.24705423160E+03  0.10058736095E+04  0.97506201085E+03 0.  0.
        2    1    3    3  502    0  0.71904568801E+02  0.20542456844E+03 -0.32651164967E+03  0.39240206130E+03  0.25500000920E-02 0. -1.
       -2    1    3    3    0  502 -0.71904568801E+02 -0.20542456844E+03  0.57356588127E+03  0.61347154824E+03  0.25500000920E-02 0.  1.
</event>
<event>
 5   0  0.1598986E-02  0.1001150E+04  0.7818609E-02  0.9307285E-01
       -2   -1    0    0    0  501  0.00000000000E+00  0.00000000000E+00  0.23070241366E+03  0.23070241367E+03  0.25500000920E-02 0. -1.
        2   -1    0    0  501    0  0.00000000000E+00  0.00000000000E+00 -0.10861404385E+04  0.10861404385E+04  0.25500000920E-02 0.  1.
    10030    2    1    2    0    0  0.00000000000E+00  0.00000000000E+00 -0.85543802483E+03  0.13168428522E+04  0.10011497805E+04 0.  0.
        3    1    3    3  502    0  0.23830353386E+03 -0.35718676905E+03 -0.76615600228E+03  0.87827444018E+03  0.10100000352E+00 0. -1.
       -3    1    3    3    0  502 -0.23830353386E+03  0.35718676905E+03 -0.89282022543E+02  0.43856841198E+03  0.10100000352E+00 0.  1.
</event>
<event>
 5   0  0.1663497E-02  0.1006285E+04  0.7818609E-02  0.9301678E-01
        2   -1    0    0  501    0  0.00000000000E+00  0.00000000000E+00  0.94939286916E+03  0.94939286916E+03  0.25500000920E-02 0.  1.
       -2   -1    0    0    0  501  0.00000000000E+00  0.00000000000E+00 -0.26664670408E+03  0.26664670409E+03  0.25500000920E-02 0. -1.
    10030    2    1    2    0    0  0.00000000000E+00  0.00000000000E+00  0.68274616508E+03  0.12160395732E+04  0.10062852070E+04 0.  0.
        1    1    3    3  502    0 -0.84181300024E+02 -0.11150877801E+02  0.94067084700E+03  0.94449588446E+03  0.50400001928E-02 0.  1.
       -1    1    3    3    0  502  0.84181300024E+02  0.11150877801E+02 -0.25792468192E+03  0.27154368879E+03  0.50400001928E-02 0. -1.
</event>
<event>
 5   0  0.9396660E-03  0.1009684E+04  0.7818609E-02  0.9297987E-01
       -1   -1    0    0    0  501  0.00000000000E+00  0.00000000000E+00  0.30192892010E+03  0.30192892015E+03  0.50400001928E-02 0. -1.
        1   -1    0    0  501    0  0.00000000000E+00  0.00000000000E+00 -0.84412416984E+03  0.84412416986E+03  0.50400001928E-02 0.  1.
    10030    2    1    2    0    0  0.00000000000E+00  0.00000000000E+00 -0.54219524974E+03  0.11460530900E+04  0.10096841072E+04 0.  0.
        5    1    3    3  502    0  0.34103034306E+03 -0.23267546294E+03 -0.60085941112E+03  0.72903613619E+03  0.46999998093E+01 0.  1.
       -5    1    3    3    0  502 -0.34103034306E+03  0.23267546294E+03  0.58664161386E+02  0.41701695381E+03  0.46999998093E+01 0. -1.
</event>
<event>
 5   0  0.1598986E-02  0.1044051E+04  0.7818609E-02  0.9261507E-01
       -2   -1    0    0    0  501  0.00000000000E+00  0.00000000000E+00  0.60445236701E+03  0.60445236701E+03  0.25500000920E-02 0.  1.
        2   -1    0    0  501    0  0.00000000000E+00  0.00000000000E+00 -0.45083927022E+03  0.45083927022E+03  0.25500000920E-02 0. -1.
    10030    2    1    2    0    0  0.00000000000E+00  0.00000000000E+00  0.15361309679E+03  0.10552916372E+04  0.10440514624E+04 0.  0.
        3    1    3    3  502    0  0.12328052447E+03 -0.46650069871E+03 -0.12456142399E+03  0.49833377184E+03  0.10100000352E+00 0. -1.
       -3    1    3    3    0  502 -0.12328052447E+03  0.46650069871E+03  0.27817452078E+03  0.55695786539E+03  0.10100000352E+00 0.  1.
</event>
<event>
 5   0  0.9471140E-03  0.9834130E+03  0.7818609E-02  0.9326927E-01
        1   -1    0    0  501    0  0.00000000000E+00  0.00000000000E+00  0.87885158540E+03  0.87885158542E+03  0.50400001928E-02 0.  1.
       -1   -1    0    0    0  501  0.00000000000E+00  0.00000000000E+00 -0.27510366861E+03  0.27510366866E+03  0.50400001928E-02 0. -1.
    10030    2    1    2    0    0  0.00000000000E+00  0.00000000000E+00  0.60374791679E+03  0.11539552541E+04  0.98341302685E+03 0.  0.
        4    1    3    3  502    0  0.74432178915E+02 -0.27929844763E+01  0.87219134823E+03  0.87536695783E+03  0.12699999809E+01 0.  1.
       -4    1    3    3    0  502 -0.74432178915E+02  0.27929844763E+01 -0.26844343144E+03  0.27858829625E+03  0.12699999809E+01 0. -1.
</event>
<event>
 5   0  0.9507815E-03  0.9944070E+03  0.7818609E-02  0.9314700E-01
       -1   -1    0    0    0  501  0.00000000000E+00  0.00000000000E+00  0.10290792090E+04  0.10290792090E+04  0.50400001928E-02 0.  1.
        1   -1    0    0  501    0  0.00000000000E+00  0.00000000000E+00 -0.24022574785E+03  0.24022574790E+03  0.50400001928E-02 0. -1.
    10030    2    1    2    0    0  0.00000000000E+00  0.00000000000E+00  0.78885346113E+03  0.12693049569E+04  0.99440700443E+03 0.  0.
        1    1    3    3  502    0 -0.20640455288E+03  0.60717791151E+01  0.97175721505E+03  0.99345447353E+03  0.50400001928E-02 0.  1.
       -1    1    3    3    0  502  0.20640455288E+03 -0.60717791151E+01 -0.18290375392E+03  0.27585048337E+03  0.50400001928E-02 0. -1.
</event>
<event>
 5   0  0.1000773E-02  0.9377774E+03  0.7818609E-02  0.9379552E-01
       -1   -1    0    0    0  501  0.00000000000E+00  0.00000000000E+00  0.32784299949E+03  0.32784299953E+03  0.50400001928E-02 0.  1.
        1   -1    0    0  501    0  0.00000000000E+00  0.00000000000E+00 -0.67061556177E+03  0.67061556179E+03  0.50400001928E-02 0. -1.
    10030    2    1    2    0    0  0.00000000000E+00  0.00000000000E+00 -0.34277256228E+03  0.99845856131E+03  0.93777740920E+03 0.  0.
        3    1    3    3  502    0 -0.50599774559E+02 -0.16973719837E+03 -0.63362818497E+03  0.65791773094E+03  0.10100000352E+00 0. -1.
       -3    1    3    3    0  502  0.50599774559E+02  0.16973719837E+03  0.29085562269E+03  0.34054083037E+03  0.10100000352E+00 0.  1.
</event>
<event>
 5   0  0.1656859E-02  0.8477505E+03  0.7818609E-02  0.9493361E-01
       -2   -1    0    0    0  501  0.00000000000E+00  0.00000000000E+00  0.20231745630E+03  0.20231745631E+03  0.25500000920E-02 0.  1.
        2   -1    0    0  501    0  0.00000000000E+00  0.00000000000E+00 -0.88806092556E+03  0.88806092556E+03  0.25500000920E-02 0. -1.
    10030    2    1    2    0    0  0.00000000000E+00  0.00000000000E+00 -0.68574346926E+03  0.10903783819E+04  0.84775049987E+03 0.  0.
        4    1    3    3  502    0  0.24306316815E+03  0.19290179775E+03 -0.71426533234E+03  0.77876015895E+03  0.12699999809E+01 0.  1.
       -4    1    3    3    0  502 -0.24306316815E+03 -0.19290179775E+03  0.28521863081E+02  0.31161822293E+03  0.12699999809E+01 0. -1.
</event>
<event>
 5   0  0.1656859E-02  0.1018075E+04  0.7818609E-02  0.9288940E-01
       -2   -1    0    0    0  501  0.00000000000E+00  0.00000000000E+00  0.24894380733E+03  0.24894380734E+03  0.25500000920E-02 0. -1.
        2   -1    0    0  501    0  0.00000000000E+00  0.00000000000E+00 -0.10408734484E+04  0.10408734484E+04  0.25500000920E-02 0.  1.
    10030    2    1    2    0    0  0.00000000000E+00  0.00000000000E+00 -0.79192964105E+03  0.12898172557E+04  0.10180746519E+04 0.  0.
        4    1    3    3  502    0 -0.68404901206E+02  0.47391178195E+03 -0.17709291663E+03  0.51052435946E+03  0.12699999809E+01 0. -1.
       -4    1    3    3    0  502  0.68404901206E+02 -0.47391178195E+03 -0.61483672442E+03  0.77929289627E+03  0.12699999809E+01 0.  1.
</event>
<event>
 5   0  0.6314750E-03  0.9822304E+03  0.7818609E-02  0.9328252E-01
       -4   -1    0    0    0  501  0.00000000000E+00  0.00000000000E+00  0.62857658247E+03  0.62857786545E+03  0.12699999809E+01 0. -1.
        4   -1    0    0  501    0  0.00000000000E+00  0.00000000000E+00 -0.38371206841E+03  0.38371417011E+03  0.12699999809E+01 0.  1.
    10030    2    1    2    0    0  0.00000000000E+00  0.00000000000E+00  0.24486451406E+03  0.10122920356E+04  0.98223038794E+03 0.  0.
        1    1    3    3  502    0  0.24618818734E+03 -0.71114304327E+02 -0.30935118592E+03  0.40170141165E+03  0.50400001928E-02 0.  1.
       -1    1    3    3    0  502 -0.24618818734E+03  0.71114304327E+02  0.55421569998E+03  0.61059062390E+03  0.50400001928E-02 0. -1.
</event>
<event>
 5   0  0.1000773E-02  0.6094035E+03  0.7818609E-02  0.9886087E-01
       -1   -1    0    0    0  501  0.00000000000E+00  0.00000000000E+00  0.42872326282E+03  0.42872326285E+03  0.50400001928E-02 0.  1.
        1   -1    0    0  501    0  0.00000000000E+00  0.00000000000E+00 -0.21655729130E+03  0.21655729136E+03  0.50400001928E-02 0. -1.
    10030    2    1    2    0    0  0.00000000000E+00  0.00000000000E+00  0.21216597153E+03  0.64528055421E+03  0.60940347404E+03 0.  0.
        3    1    3    3  502    0 -0.19305310681E+03  0.23059118019E+02 -0.14233921977E+03  0.24095993165E+03  0.10100000352E+00 0. -1.
       -3    1    3    3    0  502  0.19305310681E+03 -0.23059118019E+02  0.35450519130E+03  0.40432062256E+03  0.10100000352E+00 0.  1.
</event>
<event>
 5   0  0.9396660E-03  0.9610869E+03  0.7818609E-02  0.9352285E-01
       -1   -1    0    0    0  501  0.00000000000E+00  0.00000000000E+00  0.27867554036E+03  0.27867554041E+03  0.50400001928E-02 0.  1.
        1   -1    0    0  501    0  0.00000000000E+00  0.00000000000E+00 -0.82864117367E+03  0.82864117368E+03  0.50400001928E-02 0. -1.
    10030    2    1    2    0    0  0.00000000000E+00  0.00000000000E+00 -0.54996563330E+03  0.11073167141E+04  0.96108694065E+03 0.  0.
        5    1    3    3  502    0 -0.10738182904E+03 -0.20134869119E+03  0.21223894415E+03  0.31167228312E+03  0.46999998093E+01 0.  1.
       -5    1    3    3    0  502  0.10738182904E+03  0.20134869119E+03 -0.76220457745E+03  0.79564443097E+03  0.46999998093E+01 0. -1.
</event>
<event>
 5   0  0.1571895E-02  0.1047539E+04  0.7818609E-02  0.9257889E-01
       -2   -1    0    0    0  501  0.00000000000E+00  0.00000000000E+00  0.11209758275E+04  0.11209758275E+04  0.25500000920E-02 0. -1.
        2   -1    0    0  501    0  0.00000000000E+00  0.00000000000E+00 -0.24472811259E+03  0.24472811261E+03  0.25500000920E-02 0.  1.
    10030    2    1    2    0    0  0.00000000000E+00  0.00000000000E+00  0.87624771488E+03  0.13657039401E+04  0.10475386361E+04 0.  0.
        2    1    3    3  502    0  0.41623430919E+03 -0.28096097603E+03  0.63213058395E+03  0.80732839995E+03  0.25500000920E-02 0.  1.
       -2    1    3    3    0  502 -0.41623430919E+03  0.28096097603E+03  0.24411713093E+03  0.55837554013E+03  0.25500000920E-02 0. -1.
</event>
<event>
 5   0  0.1598986E-02  0.1001956E+04  0.7818609E-02  0.9306403E-01
       -2   -1    0    0    0  501  0.00000000000E+00  0.00000000000E+00  0.75258930945E+03  0.75258930946E+03  0.25500000920E-02 0.  1.
        2   -1    0    0  501    0  0.00000000000E+00  0.00000000000E+00 -0.33348696278E+03  0.33348696279E+03  0.25500000920E-02 0. -1.
    10030    2    1    2    0    0  0.00000000000E+00  0.00000000000E+00  0.41910234668E+03  0.10860762722E+04  0.10019555340E+04 0.  0.
        3    1    3    3  502    0  0.41429695365E+03 -0.23752327418E+03  0.37365317947E+03  0.60636291139E+03  0.10100000352E+00 0.  1.
       -3    1    3    3    0  502 -0.41429695365E+03  0.23752327418E+03  0.45449167205E+02  0.47971336085E+03  0.10100000352E+00 0. -1.
</event>
<event>
 5   0  0.1663497E-02  0.9567078E+03  0.7818609E-02  0.9357344E-01
        2   -1    0    0  501    0  0.00000000000E+00  0.00000000000E+00  0.52377960410E+03  0.52377960411E+03  0.25500000920E-02 0.  1.
       -2   -1    0    0    0  501  0.00000000000E+00  0.00000000000E+00 -0.43686781944E+03  0.43686781945E+03  0.25500000920E-02 0. -1.
    10030    2    1    2    0    0  0.00000000000E+00  0.00000000000E+00  0.86911784662E+02  0.96064742356E+03  0.95670779974E+03 0.  0.
        1    1    3    3  502    0  0.33029753900E+03 -0.30416674321E+03  0.20908537998E+03  0.49530855847E+03  0.50400001928E-02 0.  1.
       -1    1    3    3    0  502 -0.33029753900E+03  0.30416674321E+03 -0.12217359532E+03  0.46533886509E+03  0.50400001928E-02 0. -1.
</event>
<event>
 5   0  0.1571895E-02  0.9819555E+03  0.7818609E-02  0.9328560E-01
        2   -1    0    0  501    0  0.00000000000E+00  0.00000000000E+00  0.72122450340E+03  0.72122450340E+03  0.25500000920E-02 0.  1.
       -2   -1    0    0    0  501  0.00000000000E+00  0.00000000000E+00 -0.33423597245E+03  0.33423597246E+03  0.25500000920E-02 0. -1.
    10030    2    1    2    0    0  0.00000000000E+00  0.00000000000E+00  0.38698853095E+03  0.10554604759E+04  0.98195554534E+03 0.  0.
        2    1    3    3  502    0 -0.21573680024E+03 -0.43278672091E+03  0.28477767877E+03  0.56119964282E+03  0.25500000920E-02 0. -1.
       -2    1    3    3    0  502  0.21573680024E+03  0.43278672091E+03  0.10221085218E+03  0.49426083304E+03  0.25500000920E-02 0.  1.
</event>
<event>
 5   0  0.1598986E-02  0.1009421E+04  0.7818609E-02  0.9298272E-01
       -2   -1    0    0    0  501  0.00000000000E+00  0.00000000000E+00  0.85606586220E+02  0.85606586258E+02  0.25500000920E-02 0. -1.
        2   -1    0    0  501    0  0.00000000000E+00  0.00000000000E+00 -0.29756207028E+04  0.29756207028E+04  0.25500000920E-02 0.  1.
    10030    2    1    2    0    0  0.00000000000E+00  0.00000000000E+00 -0.28900141165E+04  0.30612272890E+04  0.10094210822E+04 0.  0.
        3    1    3    3  502    0  0.78096836943E+02  0.42476518345E+03 -0.65297762983E+03  0.78288209347E+03  0.10100000352E+00 0. -1.
       -3    1    3    3    0  502 -0.78096836943E+02 -0.42476518345E+03 -0.22370364867E+04  0.22783451955E+04  0.10100000352E+00 0.  1.
</event>
<event>
 5   0  0.1000773E-02  0.1000109E+04  0.7818609E-02  0.9308425E-01
        1   -1    0    0  501    0  0.00000000000E+00  0.00000000000E+00  0.12424551671E+04  0.12424551671E+04  0.50400001928E-02 0.  1.
       -1   -1    0    0    0  501  0.00000000000E+00  0.00000000000E+00 -0.20125833748E+03  0.20125833754E+03  0.50400001928E-02 0. -1.
    10030    2    1    2    0    0  0.00000000000E+00  0.00000000000E+00  0.10411968296E+04  0.14437135046E+04  0.10001089168E+04 0.  0.
        3    1    3    3  502    0 -0.13661532797E+03 -0.23803296625E+03 -0.82820213906E+02  0.28667514523E+03  0.10100000352E+00 0. -1.
       -3    1    3    3    0  502  0.13661532797E+03  0.23803296625E+03  0.11240170435E+04  0.11570383594E+04  0.10100000352E+00 0.  1.
</event>
<event>
 5   0  0.1617721E-02  0.1025596E+04  0.7818609E-02  0.9280909E-01
        2   -1    0    0  501    0  0.00000000000E+00  0.00000000000E+00  0.11744933425E+04  0.11744933425E+04  0.25500000920E-02 0.  1.
       -2   -1    0    0    0  501  0.00000000000E+00  0.00000000000E+00 -0.22389371715E+03  0.22389371716E+03  0.25500000920E-02 0. -1.
    10030    2    1    2    0    0  0.00000000000E+00  0.00000000000E+00  0.95059962535E+03  0.13983870597E+04  0.10255957883E+04 0.  0.
        5    1    3    3  502    0 -0.21231065267E+02  0.21222120737E+03  0.11111164145E+04  0.11314107899E+04  0.46999998093E+01 0.  1.
       -5    1    3    3    0  502  0.21231065267E+02 -0.21222120737E+03 -0.16051678917E+03  0.26697626972E+03  0.46999998093E+01 0. -1.
</event>
<event>
 5   0  0.9396660E-03  0.9918074E+03  0.7818609E-02  0.9317576E-01
        1   -1    0    0  501    0  0.00000000000E+00  0.00000000000E+00  0.18704673470E+04  0.18704673470E+04  0.50400001928E-02 0. -1.
       -1   -1    0    0    0  501  0.00000000000E+00  0.00000000000E+00 -0.13147542718E+03  0.13147542727E+03  0.50400001928E-02 0.  1.
    10030    2    1    2    0    0  0.00000000000E+00  0.00000000000E+00  0.17389919198E+04  0.20019427743E+04  0.99180742802E+03 0.  0.
        5    1    3    3  502    0  0.46257226214E+03 -0.10677515188E+03  0.58032195503E+03  0.74977976250E+03  0.46999998093E+01 0.  1.
       -5    1    3    3    0  502 -0.46257226214E+03  0.10677515188E+03  0.11586699648E+04  0.12521630118E+04  0.46999998093E+01 0. -1.
</event>
<event>
 5   0  0.1000773E-02  0.7118880E+03  0.7818609E-02  0.9697115E-01
       -1   -1    0    0    0  501  0.00000000000E+00  0.00000000000E+00  0.40326071630E+03  0.40326071633E+03  0.50400001928E-02 0. -1.
        1   -1    0    0  501    0  0.00000000000E+00  0.00000000000E+00 -0.31417917627E+03  0.31417917631E+03  0.50400001928E-02 0.  1.
    10030    2    1    2    0    0  0.00000000000E+00  0.00000000000E+00  0.89081540024E+02  0.71743989264E+03  0.71188796785E+03 0.  0.
        3    1    3    3  502    0  0.87674142563E+02  0.15979411033E+03  0.35266231182E+03  0.39697812201E+03  0.10100000352E+00 0. -1.
       -3    1    3    3    0  502 -0.87674142563E+02 -0.15979411033E+03 -0.26358077180E+03  0.32046177063E+03  0.10100000352E+00 0.  1.
</event>
<event>
 5   0  0.1598986E-02  0.8886921E+03  0.7818609E-02  0.9439828E-01
       -2   -1    0    0    0  501  0.00000000000E+00  0.00000000000E+00  0.17861804000E+03  0.17861804002E+03  0.25500000920E-02 0. -1.
        2   -1    0    0  501    0  0.00000000000E+00  0.00000000000E+00 -0.11053946875E+04  0.11053946875E+04  0.25500000920E-02 0.  1.
    10030    2    1    2    0    0  0.00000000000E+00  0.00000000000E+00 -0.92677664749E+03  0.12840127275E+04  0.88869214584E+03 0.  0.
        3    1    3    3  502    0 -0.14185292418E+03  0.27081714905E+03  0.25101741521E+01  0.30572944165E+03  0.10100000352E+00 0. -1.
       -3    1    3    3    0  502  0.14185292418E+03 -0.27081714905E+03 -0.92928682164E+03  0.97828328586E+03  0.10100000352E+00 0.  1.
</event>
<event>
 5   0  0.9507815E-03  0.9887968E+03  0.7818609E-02  0.9320918E-01
        1   -1    0    0  501    0  0.00000000000E+00  0.00000000000E+00  0.18131519554E+03  0.18131519561E+03  0.50400001928E-02 0.  1.
       -1   -1    0    0    0  501  0.00000000000E+00  0.00000000000E+00 -0.13480931060E+04  0.13480931060E+04  0.50400001928E-02 0. -1.
    10030    2    1    2    0    0  0.00000000000E+00  0.00000000000E+00 -0.11667779105E+04  0.15294083016E+04  0.98879677424E+03 0.  0.
        1    1    3    3  502    0  0.14467325649E+03 -0.40797815572E+03 -0.21393820503E+03  0.48285202939E+03  0.50400001928E-02 0. -1.
       -1    1    3    3    0  502 -0.14467325649E+03  0.40797815572E+03 -0.95283970543E+03  0.10465562722E+04  0.50400001928E-02 0.  1.
</event>
<event>
 5   0  0.1000773E-02  0.1009915E+04  0.7818609E-02  0.9297736E-01
       -1   -1    0    0    0  501  0.00000000000E+00  0.00000000000E+00  0.55248990217E+03  0.55248990220E+03  0.50400001928E-02 0.  1.
        1   -1    0    0  501    0  0.00000000000E+00  0.00000000000E+00 -0.46151462913E+03  0.46151462916E+03  0.50400001928E-02 0. -1.
    10030    2    1    2    0    0  0.00000000000E+00  0.00000000000E+00  0.90975273043E+02  0.10140045314E+04  0.10099151892E+04 0.  0.
        3    1    3    3  502    0  0.35116060023E+03  0.25618139453E+03 -0.21253442495E+03  0.48385283511E+03  0.10100000352E+00 0. -1.
       -3    1    3    3    0  502 -0.35116060023E+03 -0.25618139453E+03  0.30350969799E+03  0.53015169624E+03  0.10100000352E+00 0.  1.
</event>
<event>
 5   0  0.9759443E-03  0.1032916E+04  0.7818609E-02  0.9273162E-01
       -1   -1    0    0    0  501  0.00000000000E+00  0.00000000000E+00  0.59857798924E+03  0.59857798926E+03  0.50400001928E-02 0.  1.
        1   -1    0    0  501    0  0.00000000000E+00  0.00000000000E+00 -0.44560456826E+03  0.44560456829E+03  0.50400001928E-02 0. -1.
    10030    2    1    2    0    0  0.00000000000E+00  0.00000000000E+00  0.15297342098E+03  0.10441825575E+04  0.10329164274E+04 0.  0.
        2    1    3    3  502    0  0.50473040606E+03 -0.72091876489E+02  0.15971982573E+03  0.53428498406E+03  0.25500000920E-02 0. -1.
       -2    1    3    3    0  502 -0.50473040606E+03  0.72091876489E+02 -0.67464047526E+01  0.50989757348E+03  0.25500000920E-02 0.  1.
</event>
<event>
 5   0  0.9396660E-03  0.1032665E+04  0.7818609E-02  0.9273427E-01
       -1   -1    0    0    0  501  0.00000000000E+00  0.00000000000E+00  0.16766162457E+03  0.16766162465E+03  0.50400001928E-02 0.  1.
        1   -1    0    0  501    0  0.00000000000E+00  0.00000000000E+00 -0.15901023676E+04  0.15901023676E+04  0.50400001928E-02 0. -1.
    10030    2    1    2    0    0  0.00000000000E+00  0.00000000000E+00 -0.14224407431E+04  0.17577639923E+04  0.10326647980E+04 0.  0.
        5    1    3    3  502    0  0.27575350907E+03  0.27719281698E+03 -0.13725761011E+03  0.41441235151E+03  0.46999998093E+01 0.  1.
       -5    1    3    3    0  502 -0.27575350907E+03 -0.27719281698E+03 -0.12851831330E+04  0.13433516408E+04  0.46999998093E+01 0. -1.
</event>
<event>
 5   0  0.1656859E-02  0.1038930E+04  0.7818609E-02  0.9266848E-01
       -2   -1    0    0    0  501  0.00000000000E+00  0.00000000000E+00  0.22078218210E+03  0.22078218211E+03  0.25500000920E-02 0. -1.
        2   -1    0    0  501    0  0.00000000000E+00  0.00000000000E+00 -0.12222185272E+04  0.12222185272E+04  0.25500000920E-02 0.  1.
    10030    2    1    2    0    0  0.00000000000E+00  0.00000000000E+00 -0.10014363451E+04  0.14430007093E+04  0.10389303604E+04 0.  0.
        4    1    3    3  502    0  0.78067503721E+02 -0.45306069404E+03 -0.16482715345E+03  0.48839341830E+03  0.12699999809E+01 0. -1.
       -4    1    3    3    0  502 -0.78067503721E+02  0.45306069404E+03 -0.83660919165E+03  0.95460729103E+03  0.12699999809E+01 0.  1.
</event>
<event>
 5   0  0.1663497E-02  0.9145896E+03  0.7818609E-02  0.9407525E-01
       -2   -1    0    0    0  501  0.00000000000E+00  0.00000000000E+00  0.10970010314E+03  0.10970010317E+03  0.25500000920E-02 0. -1.
        2   -1    0    0  501    0  0.00000000000E+00  0.00000000000E+00 -0.19062748158E+04  0.19062748158E+04  0.25500000920E-02 0.  1.
    10030    2    1    2    0    0  0.00000000000E+00  0.00000000000E+00 -0.17965747127E+04  0.20159749190E+04  0.91458962152E+03 0.  0.
        1    1    3    3  502    0  0.21011081523E+03  0.86861284862E+02 -0.23709227631E+02  0.22859038690E+03  0.50400001928E-02 0. -1.
       -1    1    3    3    0  502 -0.21011081523E+03 -0.86861284862E+02 -0.17728654850E+04  0.17873845321E+04  0.50400001928E-02 0.  1.
</event>
<event>
 5   0  0.9471140E-03  0.9912616E+03  0.7818609E-02  0.9318181E-01
       -1   -1    0    0    0  501  0.00000000000E+00  0.00000000000E+00  0.31501168861E+03  0.31501168865E+03  0.50400001928E-02 0.  1.
        1   -1    0    0  501    0  0.00000000000E+00  0.00000000000E+00 -0.77981196701E+03  0.77981196703E+03  0.50400001928E-02 0. -1.
    10030    2    1    2    0    0  0.00000000000E+00  0.00000000000E+00 -0.46480027840E+03  0.10948236557E+04  0.99126158920E+03 0.  0.
        4    1    3    3  502    0  0.22391023857E+03  0.44172216190E+03 -0.21047670240E+03  0.53810437501E+03  0.12699999809E+01 0. -1.
       -4    1    3    3    0  502 -0.22391023857E+03 -0.44172216190E+03 -0.25432357600E+03  0.55671928066E+03  0.12699999809E+01 0.  1.
</event>
<event>
 5   0  0.1571895E-02  0.1032409E+04  0.7818609E-02  0.9273696E-01
        2   -1    0    0  501    0  0.00000000000E+00  0.00000000000E+00  0.60561733310E+03  0.60561733310E+03  0.25500000920E-02 0.  1.
       -2   -1    0    0    0  501  0.00000000000E+00  0.00000000000E+00 -0.43999262537E+03  0.43999262538E+03  0.25500000920E-02 0. -1.
    10030    2    1    2    0    0  0.00000000000E+00  0.00000000000E+00  0.16562470773E+03  0.10456099585E+04  0.10324091444E+04 0.  0.
        2    1    3    3  502    0  0.50793987256E+03 -0.53926103139E+02  0.73191862425E+01  0.51084685497E+03  0.25500000920E-02 0.  1.
       -2    1    3    3    0  502 -0.50793987256E+03  0.53926103139E+02  0.15830552149E+03  0.53476310351E+03  0.25500000920E-02 0. -1.
</event>
<event>
 5   0  0.9396660E-03  0.1011946E+04  0.7818609E-02  0.9295539E-01
       -1   -1    0    0    0  501  0.00000000000E+00  0.00000000000E+00  0.26959469039E+03  0.26959469043E+03  0.50400001928E-02 0.  1.
        1   -1    0    0  501    0  0.00000000000E+00  0.00000000000E+00 -0.94960524017E+03  0.94960524019E+03  0.50400001928E-02 0. -1.
    10030    2    1    2    0    0  0.00000000000E+00  0.00000000000E+00 -0.68001054979E+03  0.12191999306E+04  0.10119457115E+04 0.  0.
        5    1    3    3  502    0 -0.10826483645E+03  0.22259687286E+03 -0.87164608316E+03  0.90612340600E+03  0.46999998093E+01 0. -1.
       -5    1    3    3    0  502  0.10826483645E+03 -0.22259687286E+03  0.19163553338E+03  0.31307652462E+03  0.46999998093E+01 0.  1.
</event>
<event>
 5   0  0.1571895E-02  0.1006761E+04  0.7818609E-02  0.9301160E-01
       -2   -1    0    0    0  501  0.00000000000E+00  0.00000000000E+00  0.11598119484E+04  0.11598119484E+04  0.25500000920E-02 0.  1.
        2   -1    0    0  501    0  0.00000000000E+00  0.00000000000E+00 -0.21847686330E+03  0.21847686332E+03  0.25500000920E-02 0. -1.
    10030    2    1    2    0    0  0.00000000000E+00  0.00000000000E+00  0.94133508511E+03  0.13782888117E+04  0.10067612955E+04 0.  0.
        2    1    3    3  502    0  0.93361450321E+02 -0.30580066333E+02  0.11465600562E+04  0.11507612538E+04  0.25500000920E-02 0.  1.
       -2    1    3    3    0  502 -0.93361450321E+02  0.30580066333E+02 -0.20522497106E+03  0.22752755792E+03  0.25500000920E-02 0. -1.
</event>
<event>
 5   0  0.9759443E-03  0.9310721E+03  0.7818609E-02  0.9387552E-01
        1   -1    0    0  501    0  0.00000000000E+00  0.00000000000E+00  0.89373731412E+03  0.89373731413E+03  0.50400001928E-02 0.  1.
       -1   -1    0    0    0  501  0.00000000000E+00  0.00000000000E+00 -0.24249164400E+03  0.24249164406E+03  0.50400001928E-02 0. -1.
    10030    2    1    2    0    0  0.00000000000E+00  0.00000000000E+00  0.65124567011E+03  0.11362289582E+04  0.93107213608E+03 0.  0.
        2    1    3    3  502    0  0.30116166429E+03  0.21480336168E+03 -0.19294593151E+02  0.37042018513E+03  0.25500000920E-02 0. -1.
       -2    1    3    3    0  502 -0.30116166429E+03 -0.21480336168E+03  0.67054026327E+03  0.76580877306E+03  0.25500000920E-02 0.  1.
</event>
<event>
 5   0  0.9759443E-03  0.1001979E+04  0.7818609E-02  0.9306377E-01
        1   -1    0    0  501    0  0.00000000000E+00  0.00000000000E+00  0.33709127942E+03  0.33709127946E+03  0.50400001928E-02 0. -1.
       -1   -1    0    0    0  501  0.00000000000E+00  0.00000000000E+00 -0.74457651585E+03  0.74457651586E+03  0.50400001928E-02 0.  1.
    10030    2    1    2    0    0  0.00000000000E+00  0.00000000000E+00 -0.40748523643E+03  0.10816677953E+04  0.10019785434E+04 0.  0.
        2    1    3    3  502    0  0.29679050375E+03  0.13836166562E+03  0.20557182817E+03  0.38663720744E+03  0.25500000920E-02 0. -1.
       -2    1    3    3    0  502 -0.29679050375E+03 -0.13836166562E+03 -0.61305706460E+03  0.69503058788E+03  0.25500000920E-02 0.  1.
</event>
<event>
 5   0  0.9759443E-03  0.1008057E+04  0.7818609E-02  0.9299752E-01
       -1   -1    0    0    0  501  0.00000000000E+00  0.00000000000E+00  0.40513397099E+03  0.40513397102E+03  0.50400001928E-02 0.  1.
        1   -1    0    0  501    0  0.00000000000E+00  0.00000000000E+00 -0.62706302890E+03  0.62706302892E+03  0.50400001928E-02 0. -1.
    10030    2    1    2    0    0  0.00000000000E+00  0.00000000000E+00 -0.22192905791E+03  0.10321969999E+04  0.10080566154E+04 0.  0.
        2    1    3    3  502    0  0.23108664541E+02 -0.44407566280E+03  0.13200965755E+03  0.46385747204E+03  0.25500000920E-02 0.  1.
       -2    1    3    3    0  502 -0.23108664541E+02  0.44407566280E+03 -0.35393871546E+03  0.56833952791E+03  0.25500000920E-02 0. -1.
</event>
<event>
 5   0  0.1571895E-02  0.1018751E+04  0.7818609E-02  0.9288214E-01
       -2   -1    0    0    0  501  0.00000000000E+00  0.00000000000E+00  0.25099003941E+03  0.25099003942E+03  0.25500000920E-02 0.  1.
        2   -1    0    0  501    0  0.00000000000E+00  0.00000000000E+00 -0.10337604385E+04  0.10337604385E+04  0.25500000920E-02 0. -1.
    10030    2    1    2    0    0  0.00000000000E+00  0.00000000000E+00 -0.78277039912E+03  0.12847504779E+04  0.10187513400E+04 0.  0.
        2    1    3    3  502    0  0.23056586672E+03  0.12735631478E+03  0.15843742068E+03  0.30738032808E+03  0.25500000920E-02 0.  1.
       -2    1    3    3    0  502 -0.23056586672E+03 -0.12735631478E+03 -0.94120781979E+03  0.97737014987E+03  0.25500000920E-02 0. -1.
</event>
<event>
 5   0  0.9396660E-03  0.1009262E+04  0.7818609E-02  0.9298444E-01
       -1   -1    0    0    0  501  0.00000000000E+00  0.00000000000E+00  0.12141387154E+03  0.12141387165E+03  0.50400001928E-02 0.  1.
        1   -1    0    0  501    0  0.00000000000E+00  0.00000000000E+00 -0.20973921957E+04  0.20973921958E+04  0.50400001928E-02 0. -1.
    10030    2    1    2    0    0  0.00000000000E+00  0.00000000000E+00 -0.19759783242E+04  0.22188060674E+04  0.10092621201E+04 0.  0.
        5    1    3    3  502    0  0.44306535653E+03 -0.16746785607E+03 -0.13705311709E+04  0.14500793680E+04  0.46999998093E+01 0. -1.
       -5    1    3    3    0  502 -0.44306535653E+03  0.16746785607E+03 -0.60544715326E+03  0.76872669939E+03  0.46999998093E+01 0.  1.
</event>
<event>
 5   0  0.1617721E-02  0.1008518E+04  0.7818609E-02  0.9299252E-01
        2   -1    0    0  501    0  0.00000000000E+00  0.00000000000E+00  0.83025730935E+03  0.83025730935E+03  0.25500000920E-02 0. -1.
       -2   -1    0    0    0  501  0.00000000000E+00  0.00000000000E+00 -0.30626288857E+03  0.30626288858E+03  0.25500000920E-02 0.  1.
    10030    2    1    2    0    0  0.00000000000E+00  0.00000000000E+00  0.52399442078E+03  0.11365201979E+04  0.10085177278E+04 0.  0.
        5    1    3    3  502    0 -0.49349885164E+03  0.35170157842E+02  0.15229238125E+03  0.51768051534E+03  0.46999998093E+01 0.  1.
       -5    1    3    3    0  502  0.49349885164E+03 -0.35170157842E+02  0.37170203952E+03  0.61883968260E+03  0.46999998093E+01 0. -1.
</event>
<event>
 5   0  0.1617721E-02  0.1055612E+04  0.7818609E-02  0.9249569E-01
        2   -1    0    0  501    0  0.00000000000E+00  0.00000000000E+00  0.16369438648E+04  0.16369438648E+04  0.25500000920E-02 0. -1.
       -2   -1    0    0    0  501  0.00000000000E+00  0.00000000000E+00 -0.17018243098E+03  0.17018243100E+03  0.25500000920E-02 0.  1.
    10030    2    1    2    0    0  0.00000000000E+00  0.00000000000E+00  0.14667614338E+04  0.18071262958E+04  0.10556118345E+04 0.  0.
        5    1    3    3  502    0 -0.24884511801E+03 -0.12621951652E+02  0.15298827987E+04  0.15500473135E+04  0.46999998093E+01 0. -1.
       -5    1    3    3    0  502  0.24884511801E+03  0.12621951652E+02 -0.63121364881E+02  0.25707898227E+03  0.46999998093E+01 0.  1.
</event>
<event>
 5   0  0.1656859E-02  0.9972029E+03  0.7818609E-02  0.9311618E-01
        2   -1    0    0  501    0  0.00000000000E+00  0.00000000000E+00  0.13668315810E+04  0.13668315810E+04  0.25500000920E-02 0.  1.
       -2   -1    0    0    0  501  0.00000000000E+00  0.00000000000E+00 -0.18188298709E+03  0.18188298711E+03  0.25500000920E-02 0. -1.
    10030    2    1    2    0    0  0.00000000000E+00  0.00000000000E+00  0.11849485939E+04  0.15487145681E+04  0.99720290979E+03 0.  0.
        4    1    3    3  502    0 -0.34190727447E+03  0.21077455200E+03  0.10512849849E+04  0.11254013633E+04  0.12699999809E+01 0.  1.
       -4    1    3    3    0  502  0.34190727447E+03 -0.21077455200E+03  0.13366360902E+03  0.42331320483E+03  0.12699999809E+01 0. -1.
</event>
<event>
 5   0  0.9471140E-03  0.9982966E+03  0.7818609E-02  0.9310415E-01
       -1   -1    0    0    0  501  0.00000000000E+00  0.00000000000E+00  0.71429770872E+03  0.71429770874E+03  0.50400001928E-02 0.  1.
        1   -1    0    0  501    0  0.00000000000E+00  0.00000000000E+00 -0.34880274980E+03  0.34880274983E+03  0.50400001928E-02 0. -1.
    10030    2    1    2    0    0  0.00000000000E+00  0.00000000000E+00  0.36549495893E+03  0.10631004586E+04  0.99829655916E+03 0.  0.
        4    1    3    3  502    0  0.29824365372E+03  0.70052919074E+02  0.60239770434E+03  0.67582637974E+03  0.12699999809E+01 0.  1.
       -4    1    3    3    0  502 -0.29824365372E+03 -0.70052919074E+02 -0.23690274541E+03  0.38727407884E+03  0.12699999809E+01 0. -1.
</event>
<event>
 5   0  0.9759443E-03  0.1038347E+04  0.7818609E-02  0.9267459E-01
       -1   -1    0    0    0  501  0.00000000000E+00  0.00000000000E+00  0.52358444131E+03  0.52358444133E+03  0.50400001928E-02 0.  1.
        1   -1    0    0  501    0  0.00000000000E+00  0.00000000000E+00 -0.51479926717E+03  0.51479926720E+03  0.50400001928E-02 0. -1.
    10030    2    1    2    0    0  0.00000000000E+00  0.00000000000E+00  0.87851741375E+01  0.10383837085E+04  0.10383465447E+04 0.  0.
        2    1    3    3  502    0 -0.22563935679E+03  0.15193942738E+02 -0.46295369269E+03  0.51523790312E+03  0.25500000920E-02 0. -1.
       -2    1    3    3    0  502  0.22563935679E+03 -0.15193942738E+02  0.47173886683E+03  0.52314580541E+03  0.25500000920E-02 0.  1.
</event>
<event>
 5   0  0.6314750E-03  0.9916312E+03  0.7818609E-02  0.9317771E-01
       -3   -1    0    0    0  501  0.00000000000E+00  0.00000000000E+00  0.63021432686E+03  0.63021433495E+03  0.10100000352E+00 0.  1.
        3   -1    0    0  501    0  0.00000000000E+00  0.00000000000E+00 -0.39007856627E+03  0.39007857934E+03  0.10100000352E+00 0. -1.
    10030    2    1    2    0    0  0.00000000000E+00  0.00000000000E+00  0.24013576059E+03  0.10202929143E+04  0.99163120536E+03 0.  0.
        5    1    3    3  502    0  0.14660079024E+03  0.84040493039E+02 -0.35951205052E+03  0.39727270311E+03  0.46999998093E+01 0. -1.
       -5    1    3    3    0  502 -0.14660079024E+03 -0.84040493039E+02  0.59964781112E+03  0.62302021118E+03  0.46999998093E+01 0.  1.
</event>
<event>
 5   0  0.1571895E-02  0.1203779E+04  0.7818609E-02  0.9109556E-01
        2   -1    0    0  501    0  0.00000000000E+00  0.00000000000E+00  0.24891600669E+04  0.24891600669E+04  0.25500000920E-02 0. -1.
       -2   -1    0    0    0  501  0.00000000000E+00  0.00000000000E+00 -0.14553933149E+03  0.14553933151E+03  0.25500000920E-02 0.  1.
    10030    2    1    2    0    0  0.00000000000E+00  0.00000000000E+00  0.23436207354E+04  0.26346993984E+04  0.12037785380E+04 0.  0.
        2    1    3    3  502    0  0.33785713741E+02 -0.53830624468E+03  0.58715691149E+03  0.79728810742E+03  0.25500000920E-02 0.  1.
       -2    1    3    3    0  502 -0.33785713741E+02  0.53830624468E+03  0.17564638239E+04  0.18374112910E+04  0.25500000920E-02 0. -1.
</event>
<event>
 5   0  0.9759443E-03  0.9980052E+03  0.7818609E-02  0.9310735E-01
        1   -1    0    0  501    0  0.00000000000E+00  0.00000000000E+00  0.10848782966E+04  0.10848782966E+04  0.50400001928E-02 0. -1.
       -1   -1    0    0    0  501  0.00000000000E+00  0.00000000000E+00 -0.22952212856E+03  0.22952212861E+03  0.50400001928E-02 0.  1.
    10030    2    1    2    0    0  0.00000000000E+00  0.00000000000E+00  0.85535616800E+03  0.13144004252E+04  0.99800516210E+03 0.  0.
        2    1    3    3  502    0  0.38645992746E+03 -0.24255678919E+03  0.16159121265E+03  0.48404213818E+03  0.25500000920E-02 0.  1.
       -2    1    3    3    0  502 -0.38645992746E+03  0.24255678919E+03  0.69376495535E+03  0.83035828700E+03  0.25500000920E-02 0. -1.
</event>
<event>
 5   0  0.1598986E-02  0.9971810E+03  0.7818609E-02  0.9311642E-01
       -2   -1    0    0    0  501  0.00000000000E+00  0.00000000000E+00  0.39023071416E+03  0.39023071417E+03  0.25500000920E-02 0. -1.
        2   -1    0    0  501    0  0.00000000000E+00  0.00000000000E+00 -0.63703978279E+03  0.63703978280E+03  0.25500000920E-02 0.  1.
    10030    2    1    2    0    0  0.00000000000E+00  0.00000000000E+00 -0.24680906863E+03  0.10272704970E+04  0.99718100542E+03 0.  0.
        3    1    3    3  502    0  0.19118804349E+03  0.31143630818E+03  0.22601609167E+03  0.42968444924E+03  0.10100000352E+00 0. -1.
       -3    1    3    3    0  502 -0.19118804349E+03 -0.31143630818E+03 -0.47282516030E+03  0.59758604773E+03  0.10100000352E+00 0.  1.
</event>
<event>
 5   0  0.1617721E-02  0.9169466E+03  0.7818609E-02  0.9404642E-01
       -2   -1    0    0    0  501  0.00000000000E+00  0.00000000000E+00  0.42056887040E+03  0.42056887041E+03  0.25500000920E-02 0.  1.
        2   -1    0    0  501    0  0.00000000000E+00  0.00000000000E+00 -0.49979392891E+03  0.49979392892E+03  0.25500000920E-02 0. -1.
    10030    2    1    2    0    0  0.00000000000E+00  0.00000000000E+00 -0.79225058511E+02  0.92036279933E+03  0.91694660286E+03 0.  0.
        5    1    3    3  502    0 -0.34748025517E+02  0.11052834155E+03 -0.48483215456E+03  0.49850601567E+03  0.46999998093E+01 0. -1.
       -5    1    3    3    0  502  0.34748025517E+02 -0.11052834155E+03  0.40560709605E+03  0.42185678367E+03  0.46999998093E+01 0.  1.
</event>
<event>
 5   0  0.9396660E-03  0.6568838E+03  0.7818609E-02  0.9793947E-01
       -1   -1    0    0    0  501  0.00000000000E+00  0.00000000000E+00  0.10173012474E+03  0.10173012487E+03  0.50400001928E-02 0.  1.
        1   -1    0    0  501    0  0.00000000000E+00  0.00000000000E+00 -0.10603946070E+04  0.10603946070E+04  0.50400001928E-02 0. -1.
    10030    2    1    2    0    0  0.00000000000E+00  0.00000000000E+00 -0.95866448228E+03  0.11621247319E+04  0.65688378190E+03 0.  0.
        5    1    3    3  502    0  0.23289598122E+03 -0.16440948857E+03 -0.19089615201E+03  0.34312453840E+03  0.46999998093E+01 0.  1.
       -5    1    3    3    0  502 -0.23289598122E+03  0.16440948857E+03 -0.76776833027E+03  0.81900019351E+03  0.46999998093E+01 0. -1.
</event>
<event>
 5   0  0.1000773E-02  0.1436275E+04  0.7818609E-02  0.8927972E-01
        1   -1    0    0  501    0  0.00000000000E+00  0.00000000000E+00  0.97122358282E+03  0.97122358284E+03  0.50400001928E-02 0. -1.
       -1   -1    0    0    0  501  0.00000000000E+00  0.00000000000E+00 -0.53100161090E+03  0.53100161093E+03  0.50400001928E-02 0.  1.
    10030    2    1    2    0    0  0.00000000000E+00  0.00000000000E+00  0.44022197192E+03  0.15022251938E+04  0.14362747468E+04 0.  0.
        3    1    3    3  502    0 -0.63806401263E+03 -0.32811508313E+03  0.18811060649E+03  0.74173499477E+03  0.10100000352E+00 0. -1.
       -3    1    3    3    0  502  0.63806401263E+03  0.32811508313E+03  0.25211136543E+03  0.76049019900E+03  0.10100000352E+00 0.  1.
</event>
<event>
 5   0  0.1598986E-02  0.9950241E+03  0.7818609E-02  0.9314019E-01
        2   -1    0    0  501    0  0.00000000000E+00  0.00000000000E+00  0.12578431932E+04  0.12578431932E+04  0.25500000920E-02 0. -1.
       -2   -1    0    0    0  501  0.00000000000E+00  0.00000000000E+00 -0.19677990049E+03  0.19677990051E+03  0.25500000920E-02 0.  1.
    10030    2    1    2    0    0  0.00000000000E+00  0.00000000000E+00  0.10610632927E+04  0.14546230937E+04  0.99502413720E+03 0.  0.
        3    1    3    3  502    0  0.38395895522E+03 -0.18121646678E+03  0.90965198865E+03  0.10038578773E+04  0.10100000352E+00 0. -1.
       -3    1    3    3    0  502 -0.38395895522E+03  0.18121646678E+03  0.15141130403E+03  0.45076521640E+03  0.10100000352E+00 0.  1.
</event>
<event>
 5   0  0.1663497E-02  0.9951405E+03  0.7818609E-02  0.9313891E-01
       -2   -1    0    0    0  501  0.00000000000E+00  0.00000000000E+00  0.10071270569E+04  0.10071270569E+04  0.25500000920E-02 0.  1.
        2   -1    0    0  501    0  0.00000000000E+00  0.00000000000E+00 -0.24582413212E+03  0.24582413213E+03  0.25500000920E-02 0. -1.
    10030    2    1    2    0    0  0.00000000000E+00  0.00000000000E+00  0.76130292474E+03  0.12529511890E+04  0.99514046183E+03 0.  0.
        1    1    3    3  502    0 -0.45915381967E+03 -0.13113201125E+03  0.20456931680E+03  0.51948670810E+03  0.50400001928E-02 0. -1.
       -1    1    3    3    0  502  0.45915381967E+03  0.13113201125E+03  0.55673360795E+03  0.73346448089E+03  0.50400001928E-02 0.  1.
</event>
<event>
 5   0  0.1663497E-02  0.9941931E+03  0.7818609E-02  0.9314937E-01
        2   -1    0    0  501    0  0.00000000000E+00  0.00000000000E+00  0.22847368551E+03  0.22847368552E+03  0.25500000920E-02 0. -1.
       -2   -1    0    0    0  501  0.00000000000E+00  0.00000000000E+00 -0.10815468890E+04  0.10815468890E+04  0.25500000920E-02 0.  1.
    10030    2    1    2    0    0  0.00000000000E+00  0.00000000000E+00 -0.85307320345E+03  0.13100205745E+04  0.99419314780E+03 0.  0.
        1    1    3    3  502    0 -0.37600325512E+03 -0.11711044360E+03 -0.26841452072E+02  0.39473252645E+03  0.50400001928E-02 0. -1.
       -1    1    3    3    0  502  0.37600325512E+03  0.11711044360E+03 -0.82623175138E+03  0.91528804804E+03  0.50400001928E-02 0.  1.
</event>
<event>
 5   0  0.1571895E-02  0.9413302E+03  0.7818609E-02  0.9375342E-01
       -2   -1    0    0    0  501  0.00000000000E+00  0.00000000000E+00  0.97420944406E+02  0.97420944439E+02  0.25500000920E-02 0. -1.
        2   -1    0    0  501    0  0.00000000000E+00  0.00000000000E+00 -0.22739013603E+04  0.22739013603E+04  0.25500000920E-02 0.  1.
    10030    2    1    2    0    0  0.00000000000E+00  0.00000000000E+00 -0.21764804159E+04  0.23713223048E+04  0.94133016111E+03 0.  0.
        2    1    3    3  502    0  0.13353915179E+03  0.27943836205E+03 -0.19543702035E+03  0.36621596385E+03  0.25500000920E-02 0. -1.
       -2    1    3    3    0  502 -0.13353915179E+03 -0.27943836205E+03 -0.19810433956E+04  0.20051063409E+04  0.25500000920E-02 0.  1.
</event>
<event>
 5   0  0.9507815E-03  0.9969700E+03  0.7818609E-02  0.9311874E-01
       -1   -1    0    0    0  501  0.00000000000E+00  0.00000000000E+00  0.17961099152E+03  0.17961099159E+03  0.50400001928E-02 0. -1.
        1   -1    0    0  501    0  0.00000000000E+00  0.00000000000E+00 -0.13834747445E+04  0.13834747445E+04  0.50400001928E-02 0.  1.
    10030    2    1    2    0    0  0.00000000000E+00  0.00000000000E+00 -0.12038637530E+04  0.15630857361E+04  0.99696995073E+03 0.  0.
        1    1    3    3  502    0  0.34065991121E+03  0.31056995403E+02 -0.33445658525E+02  0.34370383206E+03  0.50400001928E-02 0. -1.
       -1    1    3    3    0  502 -0.34065991121E+03 -0.31056995403E+02 -0.11704180944E+04  0.12193819040E+04  0.50400001928E-02 0.  1.
</event>
<event>
 5   0  0.1663497E-02  0.9917363E+03  0.7818609E-02  0.9317655E-01
        2   -1    0    0  501    0  0.00000000000E+00  0.00000000000E+00  0.70849921428E+03  0.70849921428E+03  0.25500000920E-02 0. -1.
       -2   -1    0    0    0  501  0.00000000000E+00  0.00000000000E+00 -0.34705078723E+03  0.34705078724E+03  0.25500000920E-02 0.  1.
    10030    2    1    2    0    0  0.00000000000E+00  0.00000000000E+00  0.36144842704E+03  0.10555500015E+04  0.99173627558E+03 0.  0.
        1    1    3    3  502    0  0.26770800890E+03 -0.41726254921E+03  0.16958172881E+03  0.52395951730E+03  0.50400001928E-02 0.  1.
       -1    1    3    3    0  502 -0.26770800890E+03  0.41726254921E+03  0.19186669824E+03  0.53159048422E+03  0.50400001928E-02 0. -1.
</event>
<event>
 5   0  0.1656859E-02  0.1013584E+04  0.7818609E-02  0.9293770E-01
        2   -1    0    0  501    0  0.00000000000E+00  0.00000000000E+00  0.22615251841E+04  0.22615251841E+04  0.25500000920E-02 0.  1.
       -2   -1    0    0    0  501  0.00000000000E+00  0.00000000000E+00 -0.11356859286E+03  0.11356859289E+03  0.25500000920E-02 0. -1.
    10030    2    1    2    0    0  0.00000000000E+00  0.00000000000E+00  0.21479565912E+04  0.23750937770E+04  0.10135842006E+04 0.  0.
        4    1    3    3  502    0 -0.37636206658E+03  0.32923352360E+03  0.88084027471E+03  0.10128792231E+04  0.12699999809E+01 0. -1.
       -4    1    3    3    0  502  0.37636206658E+03 -0.32923352360E+03  0.12671163165E+04  0.13622145538E+04  0.12699999809E+01 0.  1.
</event>
<event>
 5   0  0.1598986E-02  0.9808663E+03  0.7818609E-02  0.9329783E-01
        2   -1    0    0  501    0  0.00000000000E+00  0.00000000000E+00  0.30137563818E+03  0.30137563819E+03  0.25500000920E-02 0. -1.
       -2   -1    0    0    0  501  0.00000000000E+00  0.00000000000E+00 -0.79808934368E+03  0.79808934368E+03  0.25500000920E-02 0.  1.
    10030    2    1    2    0    0  0.00000000000E+00  0.00000000000E+00 -0.49671370550E+03  0.10994649819E+04  0.98086632174E+03 0.  0.
        3    1    3    3  502    0  0.32073623992E+03  0.20134542201E+02  0.16690674511E+03  0.36212567867E+03  0.10100000352E+00 0. -1.
       -3    1    3    3    0  502 -0.32073623992E+03 -0.20134542201E+02 -0.66362045061E+03  0.73733930321E+03  0.10100000352E+00 0.  1.
</event>
<event>
 5   0  0.9396660E-03  0.9799359E+03  0.7818609E-02  0.9330829E-01
        1   -1    0    0  501    0  0.00000000000E+00  0.00000000000E+00  0.94705746106E+03  0.94705746108E+03  0.50400001928E-02 0.  1.
       -1   -1    0    0    0  501  0.00000000000E+00  0.00000000000E+00 -0.25348894595E+03  0.25348894600E+03  0.50400001928E-02 0. -1.
    10030    2    1    2    0    0  0.00000000000E+00  0.00000000000E+00  0.69356851511E+03  0.12005464071E+04  0.97993591136E+03 0.  0.
        5    1    3    3  502    0 -0.31327591048E+03  0.31429366898E+03  0.92369786352E+02  0.45329523919E+03  0.46999998093E+01 0. -1.
       -5    1    3    3    0  502  0.31327591048E+03 -0.31429366898E+03  0.60119872876E+03  0.74725116788E+03  0.46999998093E+01 0.  1.
</event>
<event>
 5   0  0.6314750E-03  0.9854496E+03  0.7818609E-02  0.9324649E-01
        4   -1    0    0  501    0  0.00000000000E+00  0.00000000000E+00  0.46670426925E+03  0.46670599721E+03  0.12699999809E+01 0. -1.
       -4   -1    0    0    0  501  0.00000000000E+00  0.00000000000E+00 -0.52019261076E+03  0.52019416105E+03  0.12699999809E+01 0.  1.
    10030    2    1    2    0    0  0.00000000000E+00  0.00000000000E+00 -0.53488341511E+02  0.98690015826E+03  0.98544960282E+03 0.  0.
        3    1    3    3  502    0  0.13917389993E+03  0.38784323690E+03  0.24381265104E+03  0.47878635093E+03  0.10100000352E+00 0. -1.
       -3    1    3    3    0  502 -0.13917389993E+03 -0.38784323690E+03 -0.29730099255E+03  0.50811380733E+03  0.10100000352E+00 0.  1.
</event>
<event>
 5   0  0.1663497E-02  0.1064491E+04  0.7818609E-02  0.9240509E-01
        2   -1    0    0  501    0  0.00000000000E+00  0.00000000000E+00  0.26877721510E+03  0.26877721511E+03  0.25500000920E-02 0.  1.
       -2   -1    0    0    0  501  0.00000000000E+00  0.00000000000E+00 -0.10539788559E+04  0.10539788559E+04  0.25500000920E-02 0. -1.
    10030    2    1    2    0    0  0.00000000000E+00  0.00000000000E+00 -0.78520164075E+03  0.13227560710E+04  0.10644914310E+04 0.  0.
        1    1    3    3  502    0  0.19045169844E+03 -0.83835179157E+02 -0.10013381396E+04  0.10227307840E+04  0.50400001928E-02 0. -1.
       -1    1    3    3    0  502 -0.19045169844E+03  0.83835179157E+02  0.21613649880E+03  0.30002528701E+03  0.50400001928E-02 0.  1.
</event>
<event>
 5   0  0.1656859E-02  0.6050694E+03  0.7818609E-02  0.9894944E-01
       -2   -1    0    0    0  501  0.00000000000E+00  0.00000000000E+00  0.45477148634E+03  0.45477148635E+03  0.25500000920E-02 0. -1.
        2   -1    0    0  501    0  0.00000000000E+00  0.00000000000E+00 -0.20125987441E+03  0.20125987443E+03  0.25500000920E-02 0.  1.
    10030    2    1    2    0    0  0.00000000000E+00  0.00000000000E+00  0.25351161193E+03  0.65603136077E+03  0.60506942489E+03 0.  0.
        4    1    3    3  502    0 -0.18924289695E+03 -0.79942118032E+00 -0.12915832046E+03  0.22912223324E+03  0.12699999809E+01 0.  1.
       -4    1    3    3    0  502  0.18924289695E+03  0.79942118032E+00  0.38266993238E+03  0.42690912753E+03  0.12699999809E+01 0. -1.
</event>
<event>
 5   0  0.1598986E-02  0.9580295E+03  0.7818609E-02  0.9355814E-01
       -2   -1    0    0    0  501  0.00000000000E+00  0.00000000000E+00  0.55081058108E+03  0.55081058108E+03  0.25500000920E-02 0.  1.
        2   -1    0    0  501    0  0.00000000000E+00  0.00000000000E+00 -0.41657718225E+03  0.41657718226E+03  0.25500000920E-02 0. -1.
    10030    2    1    2    0    0  0.00000000000E+00  0.00000000000E+00  0.13423339883E+03  0.96738776334E+03  0.95802947726E+03 0.  0.
        3    1    3    3  502    0  0.26039911977E+03 -0.39689395697E+03  0.13195133171E+03  0.49269024630E+03  0.10100000352E+00 0. -1.
       -3    1    3    3    0  502 -0.26039911977E+03  0.39689395697E+03  0.22820671198E+01  0.47469751704E+03  0.10100000352E+00 0.  1.
</event>
<event>
 5   0  0.9507815E-03  0.1003035E+04  0.7818609E-02  0.9305223E-01
        1   -1    0    0  501    0  0.00000000000E+00  0.00000000000E+00  0.28072773045E+03  0.28072773049E+03  0.50400001928E-02 0. -1.
       -1   -1    0    0    0  501  0.00000000000E+00  0.00000000000E+00 -0.89595579908E+03  0.89595579910E+03  0.50400001928E-02 0.  1.
    10030    2    1    2    0    0  0.00000000000E+00  0.00000000000E+00 -0.61522806864E+03  0.11766835296E+04  0.10030346716E+04 0.  0.
        1    1    3    3  502    0 -0.35111110735E+03 -0.22669625953E+03 -0.63282416547E+03  0.75837762903E+03  0.50400001928E-02 0.  1.
       -1    1    3    3    0  502  0.35111110735E+03  0.22669625953E+03  0.17596096829E+02  0.41830590056E+03  0.50400001928E-02 0. -1.
</event>
<event>
 5   0  0.1571895E-02  0.1001863E+04  0.7818609E-02  0.9306504E-01
        2   -1    0    0  501    0  0.00000000000E+00  0.00000000000E+00  0.23026813023E+04  0.23026813023E+04  0.25500000920E-02 0.  1.
       -2   -1    0    0    0  501  0.00000000000E+00  0.00000000000E+00 -0.10897391946E+03  0.10897391949E+03  0.25500000920E-02 0. -1.
    10030    2    1    2    0    0  0.00000000000E+00  0.00000000000E+00  0.21937073829E+04  0.24116552218E+04  0.10018626789E+04 0.  0.
        2    1    3    3  502    0 -0.92936398479E+00 -0.19073917714E+03  0.22118442472E+04  0.22200534388E+04  0.25500000920E-02 0.  1.
       -2    1    3    3    0  502  0.92936398479E+00  0.19073917714E+03 -0.18136864275E+02  0.19160178304E+03  0.25500000920E-02 0. -1.
</event>
<event>
 5   0  0.9507815E-03  0.9288931E+03  0.7818609E-02  0.9390167E-01
       -1   -1    0    0    0  501  0.00000000000E+00  0.00000000000E+00  0.64839866521E+03  0.64839866523E+03  0.50400001928E-02 0. -1.
        1   -1    0    0  501    0  0.00000000000E+00  0.00000000000E+00 -0.33268202648E+03  0.33268202652E+03  0.50400001928E-02 0.  1.
    10030    2    1    2    0    0  0.00000000000E+00  0.00000000000E+00  0.31571663873E+03  0.98108069174E+03  0.92889306583E+03 0.  0.
        1    1    3    3  502    0 -0.48664452729E+02  0.29632431584E+03  0.53207240338E+03  0.61096429649E+03  0.50400001928E-02 0. -1.
       -1    1    3    3    0  502  0.48664452729E+02 -0.29632431584E+03 -0.21635576465E+03  0.37011639526E+03  0.50400001928E-02 0.  1.
</event>
<event>
 5   0  0.9759443E-03  0.7747688E+03  0.7818609E-02  0.9597274E-01
        1   -1    0    0  501    0  0.00000000000E+00  0.00000000000E+00  0.37183954479E+03  0.37183954482E+03  0.50400001928E-02 0. -1.
       -1   -1    0    0    0  501  0.00000000000E+00  0.00000000000E+00 -0.40357916353E+03  0.40357916356E+03  0.50400001928E-02 0.  1.
    10030    2    1    2    0    0  0.00000000000E+00  0.00000000000E+00 -0.31739618744E+02  0.77541870838E+03  0.77476884934E+03 0.  0.
        2    1    3    3  502    0 -0.22852349436E+02 -0.32254058306E+03  0.19764463014E+03  0.37896973154E+03  0.25500000920E-02 0. -1.
       -2    1    3    3    0  502  0.22852349436E+02  0.32254058306E+03 -0.22938424888E+03  0.39644897684E+03  0.25500000920E-02 0.  1.
</event>
<event>
 5   0  0.1617721E-02  0.9844104E+03  0.7818609E-02  0.9325810E-01
        2   -1    0    0  501    0  0.00000000000E+00  0.00000000000E+00  0.81634063827E+03  0.81634063828E+03  0.25500000920E-02 0.  1.
       -2   -1    0    0    0  501  0.00000000000E+00  0.00000000000E+00 -0.29677069746E+03  0.29677069747E+03  0.25500000920E-02 0. -1.
    10030    2    1    2    0    0  0.00000000000E+00  0.00000000000E+00  0.51956994081E+03  0.11131113357E+04  0.98441044406E+03 0.  0.
        5    1    3    3  502    0 -0.67142673917E+01  0.36572728606E+03 -0.11257404732E+03  0.38274865811E+03  0.46999998093E+01 0. -1.
       -5    1    3    3    0  502  0.67142673917E+01 -0.36572728606E+03  0.63214398813E+03  0.73036267764E+03  0.46999998093E+01 0.  1.
</event>
<event>
 5   0  0.9507815E-03  0.1003514E+04  0.7818609E-02  0.9304700E-01
        1   -1    0    0  501    0  0.00000000000E+00  0.00000000000E+00  0.18722727067E+04  0.18722727067E+04  0.50400001928E-02 0. -1.
       -1   -1    0    0    0  501  0.00000000000E+00  0.00000000000E+00 -0.13446750817E+03  0.13446750826E+03  0.50400001928E-02 0.  1.
    10030    2    1    2    0    0  0.00000000000E+00  0.00000000000E+00  0.17378051985E+04  0.20067402149E+04  0.10035135187E+04 0.  0.
        1    1    3    3  502    0  0.39233322591E+03  0.23290168238E+02  0.14926469302E+04  0.15435228052E+04  0.50400001928E-02 0. -1.
       -1    1    3    3    0  502 -0.39233322591E+03 -0.23290168238E+02  0.24515826832E+03  0.46321740969E+03  0.50400001928E-02 0.  1.
</event>
<event>
 5   0  0.1656859E-02  0.1029008E+04  0.7818609E-02  0.9277290E-01
        2   -1    0    0  501    0  0.00000000000E+00  0.00000000000E+00  0.27184604198E+03  0.27184604200E+03  0.25500000920E-02 0.  1.
       -2   -1    0    0    0  501  0.00000000000E+00  0.00000000000E+00 -0.97376516245E+03  0.97376516246E+03  0.25500000920E-02 0. -1.
    10030    2    1    2    0    0  0.00000000000E+00  0.00000000000E+00 -0.70191912047E+03  0.12456112045E+04  0.10290076875E+04 0.  0.
        4    1    3    3  502    0 -0.33891536773E+03  0.37945920307E+03 -0.44362137511E+03  0.67502181493E+03  0.12699999809E+01 0. -1.
       -4    1    3    3    0  502  0.33891536773E+03 -0.37945920307E+03 -0.25829774536E+03  0.57058938952E+03  0.12699999809E+01 0.  1.
</event>
<event>
 5   0  0.9396660E-03  0.1014800E+04  0.7818609E-02  0.9292459E-01
        1   -1    0    0  501    0  0.00000000000E+00  0.00000000000E+00  0.56847430258E+03  0.56847430260E+03  0.50400001928E-02 0.  1.
       -1   -1    0    0    0  501  0.00000000000E+00  0.00000000000E+00 -0.45288757550E+03  0.45288757553E+03  0.50400001928E-02 0. -1.
    10030    2    1    2    0    0  0.00000000000E+00  0.00000000000E+00  0.11558672708E+03  0.10213618781E+04  0.10148003718E+04 0.  0.
        5    1    3    3  502    0 -0.20302967611E+03  0.32116670422E+02  0.52466803082E+03  0.56351678100E+03  0.46999998093E+01 0.  1.
       -5    1    3    3    0  502  0.20302967611E+03 -0.32116670422E+02 -0.40908130374E+03  0.45784509714E+03  0.46999998093E+01 0. -1.
</event>
<event>
 5   0  0.1598986E-02  0.9775186E+03  0.7818609E-02  0.9333552E-01
        2   -1    0    0  501    0  0.00000000000E+00  0.00000000000E+00  0.19744764432E+04  0.19744764432E+04  0.25500000920E-02 0.  1.
       -2   -1    0    0    0  501  0.00000000000E+00  0.00000000000E+00 -0.12098682675E+03  0.12098682678E+03  0.25500000920E-02 0. -1.
    10030    2    1    2    0    0  0.00000000000E+00  0.00000000000E+00  0.18534896165E+04  0.20954632700E+04  0.97751857145E+03 0.  0.
        3    1    3    3  502    0 -0.40728389383E+03  0.24787551505E+03  0.11572569627E+04  0.12516253949E+04  0.10100000352E+00 0.  1.
       -3    1    3    3    0  502  0.40728389383E+03 -0.24787551505E+03  0.69623265375E+03  0.84383787512E+03  0.10100000352E+00 0. -1.
</event>
<event>
 5   0  0.1598986E-02  0.1095134E+04  0.7818609E-02  0.9209947E-01
        2   -1    0    0  501    0  0.00000000000E+00  0.00000000000E+00  0.71418659634E+03  0.71418659634E+03  0.25500000920E-02 0. -1.
       -2   -1    0    0    0  501  0.00000000000E+00  0.00000000000E+00 -0.41981988201E+03  0.41981988202E+03  0.25500000920E-02 0.  1.
    10030    2    1    2    0    0  0.00000000000E+00  0.00000000000E+00  0.29436671432E+03  0.11340064784E+04  0.10951342066E+04 0.  0.
        3    1    3    3  502    0 -0.36018349821E+03  0.41231715914E+03  0.15712251212E+03  0.56958325653E+03  0.10100000352E+00 0. -1.
       -3    1    3    3    0  502  0.36018349821E+03 -0.41231715914E+03  0.13724420221E+03  0.56442322183E+03  0.10100000352E+00 0.  1.
</event>
<event>
 5   0  0.1000773E-02  0.9876898E+03  0.7818609E-02  0.9322150E-01
       -1   -1    0    0    0  501  0.00000000000E+00  0.00000000000E+00  0.29142038432E+03  0.29142038436E+03  0.50400001928E-02 0.  1.
        1   -1    0    0  501    0  0.00000000000E+00  0.00000000000E+00 -0.83687619602E+03  0.83687619603E+03  0.50400001928E-02 0. -1.
    10030    2    1    2    0    0  0.00000000000E+00  0.00000000000E+00 -0.54545581170E+03  0.11282965804E+04  0.98768979483E+03 0.  0.
        3    1    3    3  502    0  0.43932502118E+03  0.43369877348E+02 -0.19867898353E+02  0.44190741574E+03  0.10100000352E+00 0.  1.
       -3    1    3    3    0  502 -0.43932502118E+03 -0.43369877348E+02 -0.52558791335E+03  0.68638916466E+03  0.10100000352E+00 0. -1.
</event>
<event>
 5   0  0.1571895E-02  0.9998384E+03  0.7818609E-02  0.9308722E-01
       -2   -1    0    0    0  501  0.00000000000E+00  0.00000000000E+00  0.14133513996E+03  0.14133513998E+03  0.25500000920E-02 0. -1.
        2   -1    0    0  501    0  0.00000000000E+00  0.00000000000E+00 -0.17682738393E+04  0.17682738393E+04  0.25500000920E-02 0.  1.
    10030    2    1    2    0    0  0.00000000000E+00  0.00000000000E+00 -0.16269386994E+04  0.19096089793E+04  0.99983844814E+03 0.  0.
        2    1    3    3  502    0  0.33593051091E+03 -0.30897734949E+03 -0.42390740842E+03  0.62290753855E+03  0.25500000920E-02 0. -1.
       -2    1    3    3    0  502 -0.33593051091E+03  0.30897734949E+03 -0.12030312910E+04  0.12867014408E+04  0.25500000920E-02 0.  1.
</event>
<event>
 5   0  0.1656859E-02  0.9502595E+03  0.7818609E-02  0.9364847E-01
        2   -1    0    0  501    0  0.00000000000E+00  0.00000000000E+00  0.81501720151E+03  0.81501720152E+03  0.25500000920E-02 0. -1.
       -2   -1    0    0    0  501  0.00000000000E+00  0.00000000000E+00 -0.27698589197E+03  0.27698589198E+03  0.25500000920E-02 0.  1.
    10030    2    1    2    0    0  0.00000000000E+00  0.00000000000E+00  0.53803130954E+03  0.10920030935E+04  0.95025947307E+03 0.  0.
        4    1    3    3  502    0 -0.14776904335E+03 -0.25349574786E+03  0.69845663219E+03  0.75758766113E+03  0.12699999809E+01 0. -1.
       -4    1    3    3    0  502  0.14776904335E+03  0.25349574786E+03 -0.16042532265E+03  0.33441543236E+03  0.12699999809E+01 0.  1.
</event>
<event>
 5   0  0.1656859E-02  0.1002668E+04  0.7818609E-02  0.9305624E-01
       -2   -1    0    0    0  501  0.00000000000E+00  0.00000000000E+00  0.24578829564E+03  0.24578829566E+03  0.25500000920E-02 0.  1.
        2   -1    0    0  501    0  0.00000000000E+00  0.00000000000E+00 -0.10225692692E+04  0.10225692692E+04  0.25500000920E-02 0. -1.
    10030    2    1    2    0    0  0.00000000000E+00  0.00000000000E+00 -0.77678097352E+03  0.12683575648E+04  0.10026675578E+04 0.  0.
        4    1    3    3  502    0 -0.36001981269E+03 -0.89157579329E+02 -0.81506801938E+03  0.89548915605E+03  0.12699999809E+01 0. -1.
       -4    1    3    3    0  502  0.36001981269E+03  0.89157579329E+02  0.38287045866E+02  0.37286840877E+03  0.12699999809E+01 0.  1.
</event>
<event>
 5   0  0.9471140E-03  0.1007572E+04  0.7818609E-02  0.9300278E-01
       -1   -1    0    0    0  501  0.00000000000E+00  0.00000000000E+00  0.16861905139E+03  0.16861905147E+03  0.50400001928E-02 0.  1.
        1   -1    0    0  501    0  0.00000000000E+00  0.00000000000E+00 -0.15051707534E+04  0.15051707534E+04  0.50400001928E-02 0. -1.
    10030    2    1    2    0    0  0.00000000000E+00  0.00000000000E+00 -0.13365517020E+04  0.16737898049E+04  0.10075722598E+04 0.  0.
        4    1    3    3  502    0 -0.15441414594E+03 -0.15974920202E+03  0.82832649098E+02  0.23712105910E+03  0.12699999809E+01 0.  1.
       -4    1    3    3    0  502  0.15441414594E+03  0.15974920202E+03 -0.14193843511E+04  0.14366687458E+04  0.12699999809E+01 0. -1.
</event>
<event>
 5   0  0.1000773E-02  0.9893744E+03  0.7818609E-02  0.9320276E-01
        1   -1    0    0  501    0  0.00000000000E+00  0.00000000000E+00  0.16815952914E+04  0.16815952914E+04  0.50400001928E-02 0.  1.
       -1   -1    0    0    0  501  0.00000000000E+00  0.00000000000E+00 -0.14552574185E+03  0.14552574193E+03  0.50400001928E-02 0. -1.
    10030    2    1    2    0    0  0.00000000000E+00  0.00000000000E+00  0.15360695496E+04  0.18271210333E+04  0.98937435252E+03 0.  0.
        3    1    3    3  502    0  0.39683146742E+03 -0.66092401933E+02  0.23640351615E+03  0.46661552887E+03  0.10100000352E+00 0. -1.
       -3    1    3    3    0  502 -0.39683146742E+03  0.66092401933E+02  0.12996660334E+04  0.13605055045E+04  0.10100000352E+00 0.  1.
</event>
<event>
 5   0  0.9507815E-03  0.1135470E+04  0.7818609E-02  0.9171294E-01
        1   -1    0    0  501    0  0.00000000000E+00  0.00000000000E+00  0.57169894101E+03  0.57169894103E+03  0.50400001928E-02 0. -1.
       -1   -1    0    0    0  501  0.00000000000E+00  0.00000000000E+00 -0.56379854301E+03  0.56379854304E+03  0.50400001928E-02 0.  1.
    10030    2    1    2    0    0  0.00000000000E+00  0.00000000000E+00  0.79003979960E+01  0.11354974841E+04  0.11354699996E+04 0.  0.
        1    1    3    3  502    0 -0.28262355884E+03  0.17985989776E+03  0.46232509167E+03  0.57093795569E+03  0.50400001928E-02 0. -1.
       -1    1    3    3    0  502  0.28262355884E+03 -0.17985989776E+03 -0.45442469368E+03  0.56455952838E+03  0.50400001928E-02 0.  1.
</event>
<event>
 5   0  0.9759443E-03  0.1003501E+04  0.7818609E-02  0.9304713E-01
       -1   -1    0    0    0  501  0.00000000000E+00  0.00000000000E+00  0.73805621463E+03  0.73805621465E+03  0.50400001928E-02 0. -1.
        1   -1    0    0  501    0  0.00000000000E+00  0.00000000000E+00 -0.34110345402E+03  0.34110345406E+03  0.50400001928E-02 0.  1.
    10030    2    1    2    0    0  0.00000000000E+00  0.00000000000E+00  0.39695276061E+03  0.10791596687E+04  0.10035009200E+04 0.  0.
        2    1    3    3  502    0  0.37919513899E+02 -0.38246678862E+03  0.54533878367E+03  0.66716798702E+03  0.25500000920E-02 0. -1.
       -2    1    3    3    0  502 -0.37919513899E+02  0.38246678862E+03 -0.14838602305E+03  0.41199168168E+03  0.25500000920E-02 0.  1.
</event>
<event>
 5   0  0.9507815E-03  0.1001086E+04  0.7818609E-02  0.9307354E-01
        1   -1    0    0  501    0  0.00000000000E+00  0.00000000000E+00  0.89415409527E+03  0.89415409528E+03  0.50400001928E-02 0. -1.
       -1   -1    0    0    0  501  0.00000000000E+00  0.00000000000E+00 -0.28020160567E+03  0.28020160572E+03  0.50400001928E-02 0.  1.
    10030    2    1    2    0    0  0.00000000000E+00  0.00000000000E+00  0.61395248960E+03  0.11743557010E+04  0.10010862365E+04 0.  0.
        1    1    3    3  502    0 -0.11182532170E+03  0.27256036977E+03  0.78167486523E+03  0.83535001808E+03  0.50400001928E-02 0. -1.
       -1    1    3    3    0  502  0.11182532170E+03 -0.27256036977E+03 -0.16772237563E+03  0.33900568293E+03  0.50400001928E-02 0.  1.
</event>
<event>
 5   0  0.1571895E-02  0.1005213E+04  0.7818609E-02  0.9302845E-01
       -2   -1    0    0    0  501  0.00000000000E+00  0.00000000000E+00  0.16815408910E+03  0.16815408912E+03  0.25500000920E-02 0. -1.
        2   -1    0    0  501    0  0.00000000000E+00  0.00000000000E+00 -0.15022734978E+04  0.15022734978E+04  0.25500000920E-02 0.  1.
    10030    2    1    2    0    0  0.00000000000E+00  0.00000000000E+00 -0.13341194087E+04  0.16704275869E+04  0.10052132741E+04 0.  0.
        2    1    3    3  502    0  0.93259357378E+02  0.48024667977E+03 -0.85855416675E+03  0.98815456201E+03  0.25500000920E-02 0.  1.
       -2    1    3    3    0  502 -0.93259357378E+02 -0.48024667977E+03 -0.47556524196E+03  0.68227302492E+03  0.25500000920E-02 0. -1.
</event>
<event>
 5   0  0.9471140E-03  0.1019546E+04  0.7818609E-02  0.9287364E-01
        1   -1    0    0  501    0  0.00000000000E+00  0.00000000000E+00  0.12861062983E+04  0.12861062984E+04  0.50400001928E-02 0. -1.
       -1   -1    0    0    0  501  0.00000000000E+00  0.00000000000E+00 -0.20205814859E+03  0.20205814865E+03  0.50400001928E-02 0.  1.
    10030    2    1    2    0    0  0.00000000000E+00  0.00000000000E+00  0.10840481498E+04  0.14881644470E+04  0.10195455019E+04 0.  0.
        4    1    3    3  502    0  0.38217069501E+03 -0.19418598322E+03  0.13935518445E+03  0.45075948857E+03  0.12699999809E+01 0.  1.
       -4    1    3    3    0  502 -0.38217069501E+03  0.19418598322E+03  0.94469296530E+03  0.10374049584E+04  0.12699999809E+01 0. -1.
</event>
<event>
 5   0  0.1571895E-02  0.7986310E+03  0.7818609E-02  0.9562001E-01
       -2   -1    0    0    0  501  0.00000000000E+00  0.00000000000E+00  0.94134389528E+02  0.94134389562E+02  0.25500000920E-02 0. -1.
        2   -1    0    0  501    0  0.00000000000E+00  0.00000000000E+00 -0.16938855886E+04  0.16938855886E+04  0.25500000920E-02 0.  1.
    10030    2    1    2    0    0  0.00000000000E+00  0.00000000000E+00 -0.15997511991E+04  0.17880199782E+04  0.79863104334E+03 0.  0.
        2    1    3    3  502    0 -0.31249378631E+03 -0.10963550250E+03 -0.12993993452E+04  0.13409366012E+04  0.25500000920E-02 0.  1.
       -2    1    3    3    0  502  0.31249378631E+03  0.10963550250E+03 -0.30035185382E+03  0.44708337700E+03  0.25500000920E-02 0. -1.
</event>
<event>
 5   0  0.9507815E-03  0.1017422E+04  0.7818609E-02  0.9289640E-01
       -1   -1    0    0    0  501  0.00000000000E+00  0.00000000000E+00  0.26666002944E+03  0.26666002949E+03  0.50400001928E-02 0.  1.
        1   -1    0    0  501    0  0.00000000000E+00  0.00000000000E+00 -0.97047527424E+03  0.97047527426E+03  0.50400001928E-02 0. -1.
    10030    2    1    2    0    0  0.00000000000E+00  0.00000000000E+00 -0.70381524480E+03  0.12371353037E+04  0.10174221646E+04 0.  0.
        1    1    3    3  502    0 -0.31181669973E+03 -0.40095691354E+03 -0.31771227369E+03  0.59911367004E+03  0.50400001928E-02 0. -1.
       -1    1    3    3    0  502  0.31181669973E+03  0.40095691354E+03 -0.38610297111E+03  0.63802163370E+03  0.50400001928E-02 0.  1.
</event>
<event>
 5   0  0.1000773E-02  0.1002014E+04  0.7818609E-02  0.9306339E-01
        1   -1    0    0  501    0  0.00000000000E+00  0.00000000000E+00  0.85276885914E+03  0.85276885916E+03  0.50400001928E-02 0.  1.
       -1   -1    0    0    0  501  0.00000000000E+00  0.00000000000E+00 -0.29434472231E+03  0.29434472235E+03  0.50400001928E-02 0. -1.
    10030    2    1    2    0    0  0.00000000000E+00  0.00000000000E+00  0.55842413683E+03  0.11471135815E+04  0.10020139981E+04 0.  0.
        3    1    3    3  502    0 -0.29383213240E+03  0.93462484569E+02 -0.17285727291E+03  0.35348579187E+03  0.10100000352E+00 0. -1.
       -3    1    3    3    0  502  0.29383213240E+03 -0.93462484569E+02  0.73128140975E+03  0.79362778964E+03  0.10100000352E+00 0.  1.
</event>
<event>
 5   0  0.1571895E-02  0.1001248E+04  0.7818609E-02  0.9307177E-01
        2   -1    0    0  501    0  0.00000000000E+00  0.00000000000E+00  0.49894483902E+03  0.49894483903E+03  0.25500000920E-02 0. -1.
       -2   -1    0    0    0  501  0.00000000000E+00  0.00000000000E+00 -0.50230916347E+03  0.50230916348E+03  0.25500000920E-02 0.  1.
    10030    2    1    2    0    0  0.00000000000E+00  0.00000000000E+00 -0.33643244513E+01  0.10012540025E+04  0.10012483502E+04 0.  0.
        2    1    3    3  502    0 -0.23500251430E+03  0.75639342899E+01  0.44029450614E+03  0.49914191065E+03  0.25500000920E-02 0. -1.
       -2    1    3    3    0  502  0.23500251430E+03 -0.75639342899E+01 -0.44365883059E+03  0.50211209186E+03  0.25500000920E-02 0.  1.
</event>
<event>
 5   0  0.1663497E-02  0.1002099E+04  0.7818609E-02  0.9306246E-01
        2   -1    0    0  501    0  0.00000000000E+00  0.00000000000E+00  0.86366001222E+03  0.86366001223E+03  0.25500000920E-02 0.  1.
       -2   -1    0    0    0  501  0.00000000000E+00  0.00000000000E+00 -0.29068216234E+03  0.29068216235E+03  0.25500000920E-02 0. -1.
    10030    2    1    2    0    0  0.00000000000E+00  0.00000000000E+00  0.57297784989E+03  0.11543421746E+04  0.10020989170E+04 0.  0.
        1    1    3    3  502    0 -0.20652358956E+03 -0.61662677559E+02  0.80753105183E+03  0.83579942483E+03  0.50400001928E-02 0.  1.
       -1    1    3    3    0  502  0.20652358956E+03  0.61662677559E+02 -0.23455320194E+03  0.31854274975E+03  0.50400001928E-02 0. -1.
</event>
<event>
 5   0  0.1617721E-02  0.7257299E+03  0.7818609E-02  0.9674215E-01
        2   -1    0    0  501    0  0.00000000000E+00  0.00000000000E+00  0.19501484600E+03  0.19501484602E+03  0.25500000920E-02 0. -1.
       -2   -1    0    0    0  501  0.00000000000E+00  0.00000000000E+00 -0.67518440918E+03  0.67518440919E+03  0.25500000920E-02 0.  1.
    10030    2    1    2    0    0  0.00000000000E+00  0.00000000000E+00 -0.48016956318E+03  0.87019925520E+03  0.72572993210E+03 0.  0.
        5    1    3    3  502    0  0.15002033539E+03 -0.24562497859E+03  0.24828203883E+02  0.28892258624E+03  0.46999998093E+01 0. -1.
       -5    1    3    3    0  502 -0.15002033539E+03  0.24562497859E+03 -0.50499776707E+03  0.58127666896E+03  0.46999998093E+01 0.  1.
</event>
<event>
 5   0  0.9471140E-03  0.9962819E+03  0.7818609E-02  0.9312632E-01
       -1   -1    0    0    0  501  0.00000000000E+00  0.00000000000E+00  0.21519388432E+03  0.21519388438E+03  0.50400001928E-02 0.  1.
        1   -1    0    0  501    0  0.00000000000E+00  0.00000000000E+00 -0.11531201019E+04  0.11531201020E+04  0.50400001928E-02 0. -1.
    10030    2    1    2    0    0  0.00000000000E+00  0.00000000000E+00 -0.93792621762E+03  0.13683139863E+04  0.99628187552E+03 0.  0.
        4    1    3    3  502    0 -0.47368967179E+03  0.95571143999E+02 -0.63506770356E+03  0.79801525657E+03  0.12699999809E+01 0. -1.
       -4    1    3    3    0  502  0.47368967179E+03 -0.95571143999E+02 -0.30285851406E+03  0.57029872976E+03  0.12699999809E+01 0.  1.
</event>
<event>
 5   0  0.9507815E-03  0.1053356E+04  0.7818609E-02  0.9251886E-01
        1   -1    0    0  501    0  0.00000000000E+00  0.00000000000E+00  0.67811005289E+03  0.67811005291E+03  0.50400001928E-02 0.  1.
       -1   -1    0    0    0  501  0.00000000000E+00  0.00000000000E+00 -0.40906329144E+03  0.40906329147E+03  0.50400001928E-02 0. -1.
    10030    2    1    2    0    0  0.00000000000E+00  0.00000000000E+00  0.26904676145E+03  0.10871733444E+04  0.10533564073E+04 0.  0.
        1    1    3    3  502    0 -0.52438817095E+03  0.13500180838E+02  0.85842180379E+02  0.53153935759E+03  0.50400001928E-02 0. -1.
       -1    1    3    3    0  502  0.52438817095E+03 -0.13500180838E+02  0.18320458107E+03  0.55563398678E+03  0.50400001928E-02 0.  1.
</event>
<event>
 5   0  0.1000773E-02  0.1011025E+04  0.7818609E-02  0.9296535E-01
       -1   -1    0    0    0  501  0.00000000000E+00  0.00000000000E+00  0.18415467241E+03  0.18415467248E+03  0.50400001928E-02 0.  1.
        1   -1    0    0  501    0  0.00000000000E+00  0.00000000000E+00 -0.13876541269E+04  0.13876541269E+04  0.50400001928E-02 0. -1.
    10030    2    1    2    0    0  0.00000000000E+00  0.00000000000E+00 -0.12034994545E+04  0.15718087994E+04  0.10110252049E+04 0.  0.
        3    1    3    3  502    0  0.10982953007E+03 -0.17772285556E+03 -0.13173955333E+04  0.13338586659E+04  0.10100000352E+00 0. -1.
       -3    1    3    3    0  502 -0.10982953007E+03  0.17772285556E+03  0.11389607884E+03  0.23795013352E+03  0.10100000352E+00 0.  1.
</event>
<event>
 5   0  0.1598986E-02  0.1013413E+04  0.7818609E-02  0.9293954E-01
       -2   -1    0    0    0  501  0.00000000000E+00  0.00000000000E+00  0.12695196338E+03  0.12695196340E+03  0.25500000920E-02 0. -1.
        2   -1    0    0  501    0  0.00000000000E+00  0.00000000000E+00 -0.20224319667E+04  0.20224319667E+04  0.25500000920E-02 0.  1.
    10030    2    1    2    0    0  0.00000000000E+00  0.00000000000E+00 -0.18954800033E+04  0.21493839301E+04  0.10134134576E+04 0.  0.
        3    1    3    3  502    0  0.16096394266E+03  0.20017291641E+03 -0.21366952082E+02  0.25775015838E+03  0.10100000352E+00 0. -1.
       -3    1    3    3    0  502 -0.16096394266E+03 -0.20017291641E+03 -0.18741130512E+04  0.18916337717E+04  0.10100000352E+00 0.  1.
</event>
<event>
 5   0  0.1571895E-02  0.7465838E+03  0.7818609E-02  0.9640725E-01
        2   -1    0    0  501    0  0.00000000000E+00  0.00000000000E+00  0.61118238693E+03  0.61118238694E+03  0.25500000920E-02 0.  1.
       -2   -1    0    0    0  501  0.00000000000E+00  0.00000000000E+00 -0.22799553037E+03  0.22799553039E+03  0.25500000920E-02 0. -1.
    10030    2    1    2    0    0  0.00000000000E+00  0.00000000000E+00  0.38318685656E+03  0.83917791733E+03  0.74658382643E+03 0.  0.
        2    1    3    3  502    0  0.70999485223E+02  0.16235185579E+03 -0.17770917450E+03  0.25095737225E+03  0.25500000920E-02 0. -1.
       -2    1    3    3    0  502 -0.70999485223E+02 -0.16235185579E+03  0.56089603106E+03  0.58822054507E+03  0.25500000920E-02 0.  1.
</event>
<event>
 5   0  0.6314750E-03  0.1011815E+04  0.7818609E-02  0.9295681E-01
        4   -1    0    0  501    0  0.00000000000E+00  0.00000000000E+00  0.65913085172E+03  0.65913207523E+03  0.12699999809E+01 0. -1.
       -4   -1    0    0    0  501  0.00000000000E+00  0.00000000000E+00 -0.38830012933E+03  0.38830220620E+03  0.12699999809E+01 0.  1.
    10030    2    1    2    0    0  0.00000000000E+00  0.00000000000E+00  0.27083072239E+03  0.10474342814E+04  0.10118148515E+04 0.  0.
        3    1    3    3  502    0  0.15134134044E+02 -0.35761729081E+03  0.50552507422E+03  0.61941486869E+03  0.10100000352E+00 0. -1.
       -3    1    3    3    0  502 -0.15134134044E+02  0.35761729081E+03 -0.23469435182E+03  0.42801941273E+03  0.10100000352E+00 0.  1.
</event>
<event>
 5   0  0.9759443E-03  0.8519647E+03  0.7818609E-02  0.9487704E-01
       -1   -1    0    0    0  501  0.00000000000E+00  0.00000000000E+00  0.16775885913E+03  0.16775885921E+03  0.50400001928E-02 0. -1.
        1   -1    0    0  501    0  0.00000000000E+00  0.00000000000E+00 -0.10816774967E+04  0.10816774967E+04  0.50400001928E-02 0.  1.
    10030    2    1    2    0    0  0.00000000000E+00  0.00000000000E+00 -0.91391863757E+03  0.12494363559E+04  0.85196474775E+03 0.  0.
        2    1    3    3  502    0 -0.17653148888E+03  0.14505648014E+03  0.70292713746E+02  0.23905190777E+03  0.25500000920E-02 0. -1.
       -2    1    3    3    0  502  0.17653148888E+03 -0.14505648014E+03 -0.98421135132E+03  0.10103844481E+04  0.25500000920E-02 0.  1.
</event>
<event>
 5   0  0.1656859E-02  0.8381018E+03  0.7818609E-02  0.9506447E-01
        2   -1    0    0  501    0  0.00000000000E+00  0.00000000000E+00  0.12474495815E+04  0.12474495815E+04  0.25500000920E-02 0. -1.
       -2   -1    0    0    0  501  0.00000000000E+00  0.00000000000E+00 -0.14077014544E+03  0.14077014547E+03  0.25500000920E-02 0.  1.
    10030    2    1    2    0    0  0.00000000000E+00  0.00000000000E+00  0.11066794361E+04  0.13882197270E+04  0.83810180538E+03 0.  0.
        4    1    3    3  502    0 -0.18342031337E+03  0.19615486570E+02 -0.69897810895E+02  0.19726909423E+03  0.12699999809E+01 0.  1.
       -4    1    3    3    0  502  0.18342031337E+03 -0.19615486570E+02  0.11765772470E+04  0.11909506328E+04  0.12699999809E+01 0. -1.
</event>
<event>
 5   0  0.1000773E-02  0.9459516E+03  0.7818609E-02  0.9369895E-01
       -1   -1    0    0    0  501  0.00000000000E+00  0.00000000000E+00  0.28779728528E+03  0.28779728532E+03  0.50400001928E-02 0.  1.
        1   -1    0    0  501    0  0.00000000000E+00  0.00000000000E+00 -0.77730448294E+03  0.77730448296E+03  0.50400001928E-02 0. -1.
    10030    2    1    2    0    0  0.00000000000E+00  0.00000000000E+00 -0.48950719767E+03  0.10651017683E+04  0.94595162679E+03 0.  0.
        3    1    3    3  502    0 -0.30103312389E+03 -0.34462840227E+03 -0.11003126963E+03  0.47063421872E+03  0.10100000352E+00 0.  1.
       -3    1    3    3    0  502  0.30103312389E+03  0.34462840227E+03 -0.37947592803E+03  0.59446754956E+03  0.10100000352E+00 0. -1.
</event>
<event>
 5   0  0.1663497E-02  0.1022594E+04  0.7818609E-02  0.9284105E-01
        2   -1    0    0  501    0  0.00000000000E+00  0.00000000000E+00  0.52284193172E+03  0.52284193173E+03  0.25500000920E-02 0. -1.
       -2   -1    0    0    0  501  0.00000000000E+00  0.00000000000E+00 -0.50000710945E+03  0.50000710946E+03  0.25500000920E-02 0.  1.
    10030    2    1    2    0    0  0.00000000000E+00  0.00000000000E+00  0.22834822269E+02  0.10228490412E+04  0.10225941189E+04 0.  0.
        1    1    3    3  502    0  0.67211432057E+02  0.49210480835E+03  0.13285675411E+03  0.51413562037E+03  0.50400001928E-02 0. -1.
       -1    1    3    3    0  502 -0.67211432057E+02 -0.49210480835E+03 -0.11002193184E+03  0.50871342081E+03  0.50400001928E-02 0.  1.
</event>
<event>
 5   0  0.6314750E-03  0.8484332E+03  0.7818609E-02  0.9492442E-01
        4   -1    0    0  501    0  0.00000000000E+00  0.00000000000E+00  0.15393857520E+04  0.15393862758E+04  0.12699999809E+01 0.  1.
       -4   -1    0    0    0  501  0.00000000000E+00  0.00000000000E+00 -0.11689959707E+03  0.11690649552E+03  0.12699999809E+01 0. -1.
    10030    2    1    2    0    0  0.00000000000E+00  0.00000000000E+00  0.14224861549E+04  0.16562927714E+04  0.84843319337E+03 0.  0.
        5    1    3    3  502    0 -0.30064706321E+03 -0.22014340337E+03  0.11069426913E+04  0.11679880078E+04  0.46999998093E+01 0.  1.
       -5    1    3    3    0  502  0.30064706321E+03  0.22014340337E+03  0.31554346362E+03  0.48830476354E+03  0.46999998093E+01 0. -1.
</event>
<event>
 5   0  0.9471140E-03  0.1002546E+04  0.7818609E-02  0.9305757E-01
       -1   -1    0    0    0  501  0.00000000000E+00  0.00000000000E+00  0.87595828586E+03  0.87595828588E+03  0.50400001928E-02 0. -1.
        1   -1    0    0  501    0  0.00000000000E+00  0.00000000000E+00 -0.28685686671E+03  0.28685686676E+03  0.50400001928E-02 0.  1.
    10030    2    1    2    0    0  0.00000000000E+00  0.00000000000E+00  0.58910141915E+03  0.11628151526E+04  0.10025460574E+04 0.  0.
        4    1    3    3  502    0  0.76096660641E+02  0.77569608786E+02  0.86213143075E+03  0.86895337203E+03  0.12699999809E+01 0. -1.
       -4    1    3    3    0  502 -0.76096660641E+02 -0.77569608786E+02 -0.27303001160E+03  0.29386178061E+03  0.12699999809E+01 0.  1.
</event>
<event>
 5   0  0.1656859E-02  0.9932936E+03  0.7818609E-02  0.9315931E-01
        2   -1    0    0  501    0  0.00000000000E+00  0.00000000000E+00  0.59328043371E+03  0.59328043371E+03  0.25500000920E-02 0.  1.
       -2   -1    0    0    0  501  0.00000000000E+00  0.00000000000E+00 -0.41575286981E+03  0.41575286982E+03  0.25500000920E-02 0. -1.
    10030    2    1    2    0    0  0.00000000000E+00  0.00000000000E+00  0.17752756389E+03  0.10090333035E+04  0.99329359793E+03 0.  0.
        4    1    3    3  502    0  0.18464488586E+03 -0.33297084858E+03 -0.23518296946E+03  0.44752202393E+03  0.12699999809E+01 0. -1.
       -4    1    3    3    0  502 -0.18464488586E+03  0.33297084858E+03  0.41271053336E+03  0.56151127960E+03  0.12699999809E+01 0.  1.
</event>
<event>
 5   0  0.1571895E-02  0.1009442E+04  0.7818609E-02  0.9298249E-01
        2   -1    0    0  501    0  0.00000000000E+00  0.00000000000E+00  0.17826737015E+04  0.17826737015E+04  0.25500000920E-02 0.  1.
       -2   -1    0    0    0  501  0.00000000000E+00  0.00000000000E+00 -0.14289967450E+03  0.14289967453E+03  0.25500000920E-02 0. -1.
    10030    2    1    2    0    0  0.00000000000E+00  0.00000000000E+00  0.16397740269E+04  0.19255733760E+04  0.10094424039E+04 0.  0.
        2    1    3    3  502    0  0.27671926828E+03  0.34655842478E+03  0.12795546814E+04  0.13542291084E+04  0.25500000920E-02 0. -1.
       -2    1    3    3    0  502 -0.27671926828E+03 -0.34655842478E+03  0.36021934553E+03  0.57134426761E+03  0.25500000920E-02 0.  1.
</event>
<event>
 5   0  0.9396660E-03  0.9650873E+03  0.7818609E-02  0.9347688E-01
        1   -1    0    0  501    0  0.00000000000E+00  0.00000000000E+00  0.10635139722E+04  0.10635139723E+04  0.50400001928E-02 0. -1.
       -1   -1    0    0    0  501  0.00000000000E+00  0.00000000000E+00 -0.21894248200E+03  0.21894248206E+03  0.50400001928E-02 0.  1.
    10030    2    1    2    0    0  0.00000000000E+00  0.00000000000E+00  0.84457149024E+03  0.12824564543E+04  0.96508733029E+03 0.  0.
        5    1    3    3  502    0 -0.44781529317E+03 -0.53458943533E+01  0.66095841873E+03  0.79840793876E+03  0.46999998093E+01 0. -1.
       -5    1    3    3    0  502  0.44781529317E+03  0.53458943533E+01  0.18361307150E+03  0.48404851555E+03  0.46999998093E+01 0.  1.
</event>
<event>
 5   0  0.1617721E-02  0.9961819E+03  0.7818609E-02  0.9312742E-01
       -2   -1    0    0    0  501  0.00000000000E+00  0.00000000000E+00  0.17276125086E+03  0.17276125088E+03  0.25500000920E-02 0.  1.
        2   -1    0    0  501    0  0.00000000000E+00  0.00000000000E+00 -0.14360544992E+04  0.14360544992E+04  0.25500000920E-02 0. -1.
    10030    2    1    2    0    0  0.00000000000E+00  0.00000000000E+00 -0.12632932483E+04  0.16088157501E+04  0.99618185410E+03 0.  0.
        5    1    3    3  502    0  0.27485359711E+03 -0.21693071819E+03 -0.12036992446E+04  0.12536017701E+04  0.46999998093E+01 0. -1.
       -5    1    3    3    0  502 -0.27485359711E+03  0.21693071819E+03 -0.59594003701E+02  0.35521398004E+03  0.46999998093E+01 0.  1.
</event>
<event>
 5   0  0.1571895E-02  0.9833010E+03  0.7818609E-02  0.9327052E-01
       -2   -1    0    0    0  501  0.00000000000E+00  0.00000000000E+00  0.53550626898E+03  0.53550626898E+03  0.25500000920E-02 0. -1.
        2   -1    0    0  501    0  0.00000000000E+00  0.00000000000E+00 -0.45138635603E+03  0.45138635604E+03  0.25500000920E-02 0.  1.
    10030    2    1    2    0    0  0.00000000000E+00  0.00000000000E+00  0.84119912945E+02  0.98689262502E+03  0.98330101880E+03 0.  0.
        2    1    3    3  502    0 -0.53858228179E+02  0.98402605405E+02  0.52249037483E+03  0.53439683128E+03  0.25500000920E-02 0. -1.
       -2    1    3    3    0  502  0.53858228179E+02 -0.98402605405E+02 -0.43837046188E+03  0.45249579374E+03  0.25500000920E-02 0.  1.
</event>
<event>
 5   0  0.6314750E-03  0.5331759E+03  0.7818609E-02  0.1005465E+00
       -4   -1    0    0    0  501  0.00000000000E+00  0.00000000000E+00  0.20656592553E+03  0.20656982958E+03  0.12699999809E+01 0. -1.
        4   -1    0    0  501    0  0.00000000000E+00  0.00000000000E+00 -0.34404235114E+03  0.34404469518E+03  0.12699999809E+01 0.  1.
    10030    2    1    2    0    0  0.00000000000E+00  0.00000000000E+00 -0.13747642561E+03  0.55061452475E+03  0.53317594401E+03 0.  0.
        2    1    3    3  502    0 -0.15527581446E+03  0.45526902509E+02 -0.28753046445E+03  0.32993491086E+03  0.25500000920E-02 0.  1.
       -2    1    3    3    0  502  0.15527581446E+03 -0.45526902509E+02  0.15005403884E+03  0.22067961389E+03  0.25500000920E-02 0. -1.
</event>
<event>
 5   0  0.1000773E-02  0.1008406E+04  0.7818609E-02  0.9299373E-01
        1   -1    0    0  501    0  0.00000000000E+00  0.00000000000E+00  0.37797170888E+03  0.37797170891E+03  0.50400001928E-02 0. -1.
       -1   -1    0    0    0  501  0.00000000000E+00  0.00000000000E+00 -0.67259164003E+03  0.67259164005E+03  0.50400001928E-02 0.  1.
    10030    2    1    2    0    0  0.00000000000E+00  0.00000000000E+00 -0.29461993115E+03  0.10505633490E+04  0.10084058937E+04 0.  0.
        3    1    3    3  502    0 -0.47042586888E+03  0.18121371502E+03 -0.15672623068E+03  0.52792237138E+03  0.10100000352E+00 0. -1.
       -3    1    3    3    0  502  0.47042586888E+03 -0.18121371502E+03 -0.13789370047E+03  0.52264097758E+03  0.10100000352E+00 0.  1.
</event>
<event>
 5   0  0.1663497E-02  0.1014161E+04  0.7818609E-02  0.9293148E-01
        2   -1    0    0  501    0  0.00000000000E+00  0.00000000000E+00  0.37912394246E+03  0.37912394247E+03  0.25500000920E-02 0.  1.
       -2   -1    0    0    0  501  0.00000000000E+00  0.00000000000E+00 -0.67822308493E+03  0.67822308493E+03  0.25500000920E-02 0. -1.
    10030    2    1    2    0    0  0.00000000000E+00  0.00000000000E+00 -0.29909914246E+03  0.10573470274E+04  0.10141609534E+04 0.  0.
        1    1    3    3  502    0  0.25895673016E+03 -0.98719442631E+02  0.29318193796E+03  0.40343495785E+03  0.50400001928E-02 0.  1.
       -1    1    3    3    0  502 -0.25895673016E+03  0.98719442631E+02 -0.59228108042E+03  0.65391206955E+03  0.50400001928E-02 0. -1.
</event>
<event>
 5   0  0.1000773E-02  0.1015489E+04  0.7818609E-02  0.9291718E-01
        1   -1    0    0  501    0  0.00000000000E+00  0.00000000000E+00  0.16795932700E+03  0.16795932708E+03  0.50400001928E-02 0.  1.
       -1   -1    0    0    0  501  0.00000000000E+00  0.00000000000E+00 -0.15349228373E+04  0.15349228373E+04  0.50400001928E-02 0. -1.
    10030    2    1    2    0    0  0.00000000000E+00  0.00000000000E+00 -0.13669635103E+04  0.17028821644E+04  0.10154892552E+04 0.  0.
        3    1    3    3  502    0 -0.38242291078E+03 -0.27697340381E+03 -0.37046518320E+03  0.60017165151E+03  0.10100000352E+00 0.  1.
       -3    1    3    3    0  502  0.38242291078E+03  0.27697340381E+03 -0.99649832714E+03  0.11027105129E+04  0.10100000352E+00 0. -1.
</event>
<event>
 5   0  0.1571895E-02  0.9680585E+03  0.7818609E-02  0.9344289E-01
        2   -1    0    0  501    0  0.00000000000E+00  0.00000000000E+00  0.79302334061E+03  0.79302334061E+03  0.25500000920E-02 0. -1.
       -2   -1    0    0    0  501  0.00000000000E+00  0.00000000000E+00 -0.29543177623E+03  0.29543177624E+03  0.25500000920E-02 0.  1.
    10030    2    1    2    0    0  0.00000000000E+00  0.00000000000E+00  0.49759156438E+03  0.10884551169E+04  0.96805845715E+03 0.  0.
        2    1    3    3  502    0 -0.20165676118E+03  0.41828744141E+03  0.40236362936E+03  0.61443170752E+03  0.25500000920E-02 0. -1.
       -2    1    3    3    0  502  0.20165676118E+03 -0.41828744141E+03  0.95227935023E+02  0.47402340933E+03  0.25500000920E-02 0.  1.
</event>
<event>
 5   0  0.1598986E-02  0.5355408E+03  0.7818609E-02  0.1004897E+00
        2   -1    0    0  501    0  0.00000000000E+00  0.00000000000E+00  0.19954163842E+03  0.19954163843E+03  0.25500000920E-02 0.  1.
       -2   -1    0    0    0  501  0.00000000000E+00  0.00000000000E+00 -0.35932846656E+03  0.35932846657E+03  0.25500000920E-02 0. -1.
    10030    2    1    2    0    0  0.00000000000E+00  0.00000000000E+00 -0.15978682814E+03  0.55887010500E+03  0.53554081433E+03 0.  0.
        3    1    3    3  502    0  0.26591427398E+03  0.28538617736E+02 -0.66044006206E+02  0.27547536145E+03  0.10100000352E+00 0.  1.
       -3    1    3    3    0  502 -0.26591427398E+03 -0.28538617736E+02 -0.93742821933E+02  0.28339474355E+03  0.10100000352E+00 0. -1.
</event>
<event>
 5   0  0.1663497E-02  0.6690704E+03  0.7818609E-02  0.9771639E-01
       -2   -1    0    0    0  501  0.00000000000E+00  0.00000000000E+00  0.12419236782E+03  0.12419236785E+03  0.25500000920E-02 0. -1.
        2   -1    0    0  501    0  0.00000000000E+00  0.00000000000E+00 -0.90113275697E+03  0.90113275697E+03  0.25500000920E-02 0.  1.
    10030    2    1    2    0    0  0.00000000000E+00  0.00000000000E+00 -0.77694038915E+03  0.10253251248E+04  0.66907043224E+03 0.  0.
        1    1    3    3  502    0  0.28835047161E+02  0.22494486092E+03 -0.76535047080E+03  0.79824369310E+03  0.50400001928E-02 0.  1.
       -1    1    3    3    0  502 -0.28835047161E+02 -0.22494486092E+03 -0.11589918350E+02  0.22708143172E+03  0.50400001928E-02 0. -1.
</event>
<event>
 5   0  0.1617721E-02  0.1000930E+04  0.7818609E-02  0.9307525E-01
       -2   -1    0    0    0  501  0.00000000000E+00  0.00000000000E+00  0.11304735575E+03  0.11304735578E+03  0.25500000920E-02 0.  1.
        2   -1    0    0  501    0  0.00000000000E+00  0.00000000000E+00 -0.22155774223E+04  0.22155774223E+04  0.25500000920E-02 0. -1.
    10030    2    1    2    0    0  0.00000000000E+00  0.00000000000E+00 -0.21025300666E+04  0.23286247781E+04  0.10009299058E+04 0.  0.
        5    1    3    3  502    0  0.39301449145E+03 -0.76495865530E+02 -0.17497114848E+04  0.17949441155E+04  0.46999998093E+01 0. -1.
       -5    1    3    3    0  502 -0.39301449145E+03  0.76495865530E+02 -0.35281858179E+03  0.53368066255E+03  0.46999998093E+01 0.  1.
</event>
<event>
 5   0  0.9471140E-03  0.9843893E+03  0.7818609E-02  0.9325834E-01
       -1   -1    0    0    0  501  0.00000000000E+00  0.00000000000E+00  0.16498828164E+03  0.16498828172E+03  0.50400001928E-02 0. -1.
        1   -1    0    0  501    0  0.00000000000E+00  0.00000000000E+00 -0.14683198873E+04  0.14683198873E+04  0.50400001928E-02 0.  1.
    10030    2    1    2    0    0  0.00000000000E+00  0.00000000000E+00 -0.13033316056E+04  0.16333081690E+04  0.98438930341E+03 0.  0.
        4    1    3    3  502    0  0.22165696179E+03  0.39875958328E+03 -0.34521492034E+03  0.57211534509E+03  0.12699999809E+01 0. -1.
       -4    1    3    3    0  502 -0.22165696179E+03 -0.39875958328E+03 -0.95811668529E+03  0.10611928239E+04  0.12699999809E+01 0.  1.
</event>
<event>
 5   0  0.9396660E-03  0.1190927E+04  0.7818609E-02  0.9120835E-01
        1   -1    0    0  501    0  0.00000000000E+00  0.00000000000E+00  0.65423578852E+03  0.65423578854E+03  0.50400001928E-02 0. -1.
       -1   -1    0    0    0  501  0.00000000000E+00  0.00000000000E+00 -0.54197092417E+03  0.54197092419E+03  0.50400001928E-02 0.  1.
    10030    2    1    2    0    0  0.00000000000E+00  0.00000000000E+00  0.11226486435E+03  0.11962067127E+04  0.11909269918E+04 0.  0.
        5    1    3    3  502    0  0.84779511139E+02 -0.23966479502E+03 -0.48470420752E+03  0.54734544693E+03  0.46999998093E+01 0.  1.
       -5    1    3    3    0  502 -0.84779511139E+02  0.23966479502E+03  0.59696907188E+03  0.64886126580E+03  0.46999998093E+01 0. -1.
</event>
<event>
 5   0  0.6314750E-03  0.9923445E+03  0.7818609E-02  0.9316981E-01
       -3   -1    0    0    0  501  0.00000000000E+00  0.00000000000E+00  0.38955843150E+03  0.38955844459E+03  0.10100000352E+00 0.  1.
        3   -1    0    0  501    0  0.00000000000E+00  0.00000000000E+00 -0.63196391803E+03  0.63196392610E+03  0.10100000352E+00 0. -1.
    10030    2    1    2    0    0  0.00000000000E+00  0.00000000000E+00 -0.24240548653E+03  0.10215223707E+04  0.99234446334E+03 0.  0.
        3    1    3    3  502    0  0.42693391270E+03  0.12442171709E+03  0.10534438126E+03  0.45700194569E+03  0.10100000352E+00 0.  1.
       -3    1    3    3    0  502 -0.42693391270E+03 -0.12442171709E+03 -0.34774986779E+03  0.56452042500E+03  0.10100000352E+00 0. -1.
</event>
<event>
 5   0  0.1656859E-02  0.9996274E+03  0.7818609E-02  0.9308954E-01
        2   -1    0    0  501    0  0.00000000000E+00  0.00000000000E+00  0.14313084520E+04  0.14313084520E+04  0.25500000920E-02 0.  1.
       -2   -1    0    0    0  501  0.00000000000E+00  0.00000000000E+00 -0.17453522347E+03  0.17453522349E+03  0.25500000920E-02 0. -1.
    10030    2    1    2    0    0  0.00000000000E+00  0.00000000000E+00  0.12567732286E+04  0.16058436755E+04  0.99962741168E+03 0.  0.
        4    1    3    3  502    0 -0.81702461476E+02  0.41077432580E+03  0.10665694260E+04  0.11458546122E+04  0.12699999809E+01 0.  1.
       -4    1    3    3    0  502  0.81702461476E+02 -0.41077432580E+03  0.19020380254E+03  0.45998906329E+03  0.12699999809E+01 0. -1.
</event>
<event>
 5   0  0.9471140E-03  0.9964097E+03  0.7818609E-02  0.9312491E-01
        1   -1    0    0  501    0  0.00000000000E+00  0.00000000000E+00  0.45080244054E+03  0.45080244057E+03  0.50400001928E-02 0. -1.
       -1   -1    0    0    0  501  0.00000000000E+00  0.00000000000E+00 -0.55059169702E+03  0.55059169704E+03  0.50400001928E-02 0.  1.
    10030    2    1    2    0    0  0.00000000000E+00  0.00000000000E+00 -0.99789256477E+02  0.10013941376E+04  0.99640971650E+03 0.  0.
        4    1    3    3  502    0 -0.47689020876E+03  0.13756854032E+03 -0.93204207306E+02  0.50501288266E+03  0.12699999809E+01 0.  1.
       -4    1    3    3    0  502  0.47689020876E+03 -0.13756854032E+03 -0.65850491705E+01  0.49638125495E+03  0.12699999809E+01 0. -1.
</event>
<event>
 5   0  0.6314750E-03  0.1010427E+04  0.7818609E-02  0.9297182E-01
        3   -1    0    0  501    0  0.00000000000E+00  0.00000000000E+00  0.25380305283E+03  0.25380307292E+03  0.10100000352E+00 0. -1.
       -3   -1    0    0    0  501  0.00000000000E+00  0.00000000000E+00 -0.10056645064E+04  0.10056645115E+04  0.10100000352E+00 0.  1.
    10030    2    1    2    0    0  0.00000000000E+00  0.00000000000E+00 -0.75186145356E+03  0.12594675844E+04  0.10104271130E+04 0.  0.
        5    1    3    3  502    0  0.23859426237E+02 -0.74622755901E+02 -0.99801918849E+03  0.10011005037E+04  0.46999998093E+01 0.  1.
       -5    1    3    3    0  502 -0.23859426237E+02  0.74622755901E+02  0.24615773493E+03  0.25836708068E+03  0.46999998093E+01 0. -1.
</event>
<event>
 5   0  0.9507815E-03  0.6931670E+03  0.7818609E-02  0.9728989E-01
        1   -1    0    0  501    0  0.00000000000E+00  0.00000000000E+00  0.11947471658E+04  0.11947471658E+04  0.50400001928E-02 0. -1.
       -1   -1    0    0    0  501  0.00000000000E+00  0.00000000000E+00 -0.10054021506E+03  0.10054021519E+03  0.50400001928E-02 0.  1.
    10030    2    1    2    0    0  0.00000000000E+00  0.00000000000E+00  0.10942069507E+04  0.12952873810E+04  0.69316704214E+03 0.  0.
        1    1    3    3  502    0  0.10093227439E+03  0.73125293794E+02 -0.57212363467E+02  0.13714185052E+03  0.50400001928E-02 0.  1.
       -1    1    3    3    0  502 -0.10093227439E+03 -0.73125293794E+02  0.11514193142E+04  0.11581455304E+04  0.50400001928E-02 0. -1.
</event>
<event>
 5   0  0.1663497E-02  0.9699071E+03  0.7818609E-02  0.9342180E-01
        2   -1    0    0  501    0  0.00000000000E+00  0.00000000000E+00  0.16879947414E+04  0.16879947414E+04  0.25500000920E-02 0.  1.
       -2   -1    0    0    0  501  0.00000000000E+00  0.00000000000E+00 -0.13932503437E+03  0.13932503440E+03  0.25500000920E-02 0. -1.
    10030    2    1    2    0    0  0.00000000000E+00  0.00000000000E+00  0.15486697070E+04  0.18273197758E+04  0.96990705820E+03 0.  0.
        1    1    3    3  502    0  0.34613145465E+03  0.24523899700E+03  0.12171016103E+04  0.12889086389E+04  0.50400001928E-02 0.  1.
       -1    1    3    3    0  502 -0.34613145465E+03 -0.24523899700E+03  0.33156809665E+03  0.53841113685E+03  0.50400001928E-02 0. -1.
</event>
<event>
 5   0  0.9396660E-03  0.1003247E+04  0.7818609E-02  0.9304991E-01
       -1   -1    0    0    0  501  0.00000000000E+00  0.00000000000E+00  0.52985096961E+03  0.52985096963E+03  0.50400001928E-02 0. -1.
        1   -1    0    0  501    0  0.00000000000E+00  0.00000000000E+00 -0.47489946435E+03  0.47489946438E+03  0.50400001928E-02 0.  1.
    10030    2    1    2    0    0  0.00000000000E+00  0.00000000000E+00  0.54951505251E+02  0.10047504340E+04  0.10032466131E+04 0.  0.
        5    1    3    3  502    0 -0.67421294393E+02  0.29885424928E+03  0.42524153302E+03  0.52412970213E+03  0.46999998093E+01 0. -1.
       -5    1    3    3    0  502  0.67421294393E+02 -0.29885424928E+03 -0.37029002777E+03  0.48062073188E+03  0.46999998093E+01 0.  1.
</event>
<event>
 5   0  0.1656859E-02  0.8644147E+03  0.7818609E-02  0.9471192E-01
        2   -1    0    0  501    0  0.00000000000E+00  0.00000000000E+00  0.10129922575E+04  0.10129922575E+04  0.25500000920E-02 0. -1.
       -2   -1    0    0    0  501  0.00000000000E+00  0.00000000000E+00 -0.18440730745E+03  0.18440730747E+03  0.25500000920E-02 0.  1.
    10030    2    1    2    0    0  0.00000000000E+00  0.00000000000E+00  0.82858495004E+03  0.11973995650E+04  0.86441465671E+03 0.  0.
        4    1    3    3  502    0 -0.21509417742E+03  0.13191870721E+03 -0.71784563344E+02  0.26234078392E+03  0.12699999809E+01 0.  1.
       -4    1    3    3    0  502  0.21509417742E+03 -0.13191870721E+03  0.90036951338E+03  0.93505878104E+03  0.12699999809E+01 0. -1.
</event>
<event>
 5   0  0.1663497E-02  0.5203454E+03  0.7818609E-02  0.1008601E+00
        2   -1    0    0  501    0  0.00000000000E+00  0.00000000000E+00  0.66051061154E+03  0.66051061155E+03  0.25500000920E-02 0. -1.
       -2   -1    0    0    0  501  0.00000000000E+00  0.00000000000E+00 -0.10248108472E+03  0.10248108475E+03  0.25500000920E-02 0.  1.
    10030    2    1    2    0    0  0.00000000000E+00  0.00000000000E+00  0.55802952682E+03  0.76299169630E+03  0.52034543893E+03 0.  0.
        1    1    3    3  502    0  0.18441690587E+03  0.14198226153E+03  0.10850978597E+03  0.25679355801E+03  0.50400001928E-02 0.  1.
       -1    1    3    3    0  502 -0.18441690587E+03 -0.14198226153E+03  0.44951974085E+03  0.50619813828E+03  0.50400001928E-02 0. -1.
</event>
<event>
 5   0  0.1598986E-02  0.1014483E+04  0.7818609E-02  0.9292801E-01
        2   -1    0    0  501    0  0.00000000000E+00  0.00000000000E+00  0.23226544705E+04  0.23226544705E+04  0.25500000920E-02 0.  1.
       -2   -1    0    0    0  501  0.00000000000E+00  0.00000000000E+00 -0.11077587118E+03  0.11077587121E+03  0.25500000920E-02 0. -1.
    10030    2    1    2    0    0  0.00000000000E+00  0.00000000000E+00  0.22118785993E+04  0.24334303417E+04  0.10144832625E+04 0.  0.
        3    1    3    3  502    0 -0.51728012882E+02  0.44354111847E+03  0.52880867009E+03  0.69212941770E+03  0.10100000352E+00 0. -1.
       -3    1    3    3    0  502  0.51728012882E+02 -0.44354111847E+03  0.16830699293E+04  0.17413009240E+04  0.10100000352E+00 0.  1.
</event>
<event>
 5   0  0.1571895E-02  0.1005640E+04  0.7818609E-02  0.9302381E-01
        2   -1    0    0  501    0  0.00000000000E+00  0.00000000000E+00  0.13493327142E+04  0.13493327142E+04  0.25500000920E-02 0. -1.
       -2   -1    0    0    0  501  0.00000000000E+00  0.00000000000E+00 -0.18737253896E+03  0.18737253898E+03  0.25500000920E-02 0.  1.
    10030    2    1    2    0    0  0.00000000000E+00  0.00000000000E+00  0.11619601753E+04  0.15367052532E+04  0.10056398890E+04 0.  0.
        2    1    3    3  502    0  0.15180443564E+03  0.40275264774E+03  0.18375500883E+03  0.46799592436E+03  0.25500000920E-02 0.  1.
       -2    1    3    3    0  502 -0.15180443564E+03 -0.40275264774E+03  0.97820516645E+03  0.10687093289E+04  0.25500000920E-02 0. -1.
</event>
<event>
 5   0  0.1663497E-02  0.9880511E+03  0.7818609E-02  0.9321748E-01
       -2   -1    0    0    0  501  0.00000000000E+00  0.00000000000E+00  0.32338174415E+03  0.32338174416E+03  0.25500000920E-02 0. -1.
        2   -1    0    0  501    0  0.00000000000E+00  0.00000000000E+00 -0.75471552267E+03  0.75471552268E+03  0.25500000920E-02 0.  1.
    10030    2    1    2    0    0  0.00000000000E+00  0.00000000000E+00 -0.43133377852E+03  0.10780972668E+04  0.98805105550E+03 0.  0.
        1    1    3    3  502    0 -0.39437937011E+03  0.10296182570E+03  0.88924032718E+02  0.41718546085E+03  0.50400001928E-02 0. -1.
       -1    1    3    3    0  502  0.39437937011E+03 -0.10296182570E+03 -0.52025781124E+03  0.66091180599E+03  0.50400001928E-02 0.  1.
</event>
<event>
 5   0  0.1617721E-02  0.9863527E+03  0.7818609E-02  0.9323641E-01
        2   -1    0    0  501    0  0.00000000000E+00  0.00000000000E+00  0.90900998269E+03  0.90900998269E+03  0.25500000920E-02 0.  1.
       -2   -1    0    0    0  501  0.00000000000E+00  0.00000000000E+00 -0.26756901380E+03  0.26756901381E+03  0.25500000920E-02 0. -1.
    10030    2    1    2    0    0  0.00000000000E+00  0.00000000000E+00  0.64144096889E+03  0.11765789965E+04  0.98635268461E+03 0.  0.
        5    1    3    3  502    0  0.18358266159E+03 -0.30833848458E+03 -0.82785945267E+02  0.36830804694E+03  0.46999998093E+01 0. -1.
       -5    1    3    3    0  502 -0.18358266159E+03  0.30833848458E+03  0.72422691416E+03  0.80827094956E+03  0.46999998093E+01 0.  1.
</event>
<event>
 5   0  0.1571895E-02  0.9542588E+03  0.7818609E-02  0.9360186E-01
        2   -1    0    0  501    0  0.00000000000E+00  0.00000000000E+00  0.87222921603E+03  0.87222921604E+03  0.25500000920E-02 0.  1.
       -2   -1    0    0    0  501  0.00000000000E+00  0.00000000000E+00 -0.26100073418E+03  0.26100073419E+03  0.25500000920E-02 0. -1.
    10030    2    1    2    0    0  0.00000000000E+00  0.00000000000E+00  0.61122848186E+03  0.11332299502E+04  0.95425880297E+03 0.  0.
        2    1    3    3  502    0  0.19191184024E+03  0.41482250879E+03  0.14302570173E+03  0.47891984672E+03  0.25500000920E-02 0. -1.
       -2    1    3    3    0  502 -0.19191184024E+03 -0.41482250879E+03  0.46820278013E+03  0.65431010350E+03  0.25500000920E-02 0.  1.
</event>
<event>
 5   0  0.1000773E-02  0.9987365E+03  0.7818609E-02  0.9309932E-01
        1   -1    0    0  501    0  0.00000000000E+00  0.00000000000E+00  0.69180964637E+03  0.69180964639E+03  0.50400001928E-02 0.  1.
       -1   -1    0    0    0  501  0.00000000000E+00  0.00000000000E+00 -0.36045850086E+03  0.36045850090E+03  0.50400001928E-02 0. -1.
    10030    2    1    2    0    0  0.00000000000E+00  0.00000000000E+00  0.33135114551E+03  0.10522681473E+04  0.99873653791E+03 0.  0.
        3    1    3    3  502    0 -0.14727040631E+03  0.43288415242E+03 -0.45810436654E+02  0.45953875603E+03  0.10100000352E+00 0.  1.
       -3    1    3    3    0  502  0.14727040631E+03 -0.43288415242E+03  0.37716158216E+03  0.59272939125E+03  0.10100000352E+00 0. -1.
</event>
<event>
 5   0  0.9507815E-03  0.1010151E+04  0.7818609E-02  0.9297481E-01
        1   -1    0    0  501    0  0.00000000000E+00  0.00000000000E+00  0.27203300267E+03  0.27203300271E+03  0.50400001928E-02 0.  1.
       -1   -1    0    0    0  501  0.00000000000E+00  0.00000000000E+00 -0.93775918790E+03  0.93775918791E+03  0.50400001928E-02 0. -1.
    10030    2    1    2    0    0  0.00000000000E+00  0.00000000000E+00 -0.66572618523E+03  0.12097921906E+04  0.10101513702E+04 0.  0.
        1    1    3    3  502    0 -0.30550752838E+03  0.40137336623E+03 -0.30195533360E+03  0.58788812926E+03  0.50400001928E-02 0. -1.
       -1    1    3    3    0  502  0.30550752838E+03 -0.40137336623E+03 -0.36377085164E+03  0.62190406136E+03  0.50400001928E-02 0.  1.
</event>
<event>
 5   0  0.1571895E-02  0.9481572E+03  0.7818609E-02  0.9367307E-01
        2   -1    0    0  501    0  0.00000000000E+00  0.00000000000E+00  0.88281859662E+03  0.88281859662E+03  0.25500000920E-02 0. -1.
       -2   -1    0    0    0  501  0.00000000000E+00  0.00000000000E+00 -0.25458289108E+03  0.25458289109E+03  0.25500000920E-02 0.  1.
    10030    2    1    2    0    0  0.00000000000E+00  0.00000000000E+00  0.62823570554E+03  0.11374014877E+04  0.94815718240E+03 0.  0.
        2    1    3    3  502    0 -0.20540104490E+03  0.36081476108E+03  0.58864783936E+03  0.72033544953E+03  0.25500000920E-02 0. -1.
       -2    1    3    3    0  502  0.20540104490E+03 -0.36081476108E+03  0.39587866179E+02  0.41706603819E+03  0.25500000920E-02 0.  1.
</event>
<event>
 5   0  0.1617721E-02  0.1056914E+04  0.7818609E-02  0.9248235E-01
       -2   -1    0    0    0  501  0.00000000000E+00  0.00000000000E+00  0.29619891901E+03  0.29619891902E+03  0.25500000920E-02 0. -1.
        2   -1    0    0  501    0  0.00000000000E+00  0.00000000000E+00 -0.94283553933E+03  0.94283553933E+03  0.25500000920E-02 0.  1.
    10030    2    1    2    0    0  0.00000000000E+00  0.00000000000E+00 -0.64663662032E+03  0.12390344583E+04  0.10569141262E+04 0.  0.
        5    1    3    3  502    0 -0.14226163291E+03  0.47088632999E+03 -0.54964603962E+03  0.73763484655E+03  0.46999998093E+01 0.  1.
       -5    1    3    3    0  502  0.14226163291E+03 -0.47088632999E+03 -0.96990580699E+02  0.50139961180E+03  0.46999998093E+01 0. -1.
</event>
<event>
 5   0  0.1617721E-02  0.1012651E+04  0.7818609E-02  0.9294777E-01
        2   -1    0    0  501    0  0.00000000000E+00  0.00000000000E+00  0.37377901982E+03  0.37377901983E+03  0.25500000920E-02 0.  1.
       -2   -1    0    0    0  501  0.00000000000E+00  0.00000000000E+00 -0.68587463568E+03  0.68587463568E+03  0.25500000920E-02 0. -1.
    10030    2    1    2    0    0  0.00000000000E+00  0.00000000000E+00 -0.31209561586E+03  0.10596536555E+04  0.10126510733E+04 0.  0.
        5    1    3    3  502    0  0.48325946798E+03 -0.43410126978E+02 -0.46994354131E+01  0.48525078795E+03  0.46999998093E+01 0.  1.
       -5    1    3    3    0  502 -0.48325946798E+03  0.43410126978E+02 -0.30739618044E+03  0.57440286756E+03  0.46999998093E+01 0. -1.
</event>
<event>
 5   0  0.9471140E-03  0.9719402E+03  0.7818609E-02  0.9339867E-01
       -1   -1    0    0    0  501  0.00000000000E+00  0.00000000000E+00  0.51658626571E+03  0.51658626573E+03  0.50400001928E-02 0.  1.
        1   -1    0    0  501    0  0.00000000000E+00  0.00000000000E+00 -0.45716848354E+03  0.45716848357E+03  0.50400001928E-02 0. -1.
    10030    2    1    2    0    0  0.00000000000E+00  0.00000000000E+00  0.59417782168E+02  0.97375474930E+03  0.97194024453E+03 0.  0.
        4    1    3    3  502    0 -0.19253866599E+03 -0.21487336618E+03 -0.36207569441E+03  0.46297097401E+03  0.12699999809E+01 0. -1.
       -4    1    3    3    0  502  0.19253866599E+03  0.21487336618E+03  0.42149347658E+03  0.51078377528E+03  0.12699999809E+01 0.  1.
</event>
<event>
 5   0  0.9396660E-03  0.8744337E+03  0.7818609E-02  0.9458117E-01
        1   -1    0    0  501    0  0.00000000000E+00  0.00000000000E+00  0.16366705312E+04  0.16366705312E+04  0.50400001928E-02 0. -1.
       -1   -1    0    0    0  501  0.00000000000E+00  0.00000000000E+00 -0.11679721067E+03  0.11679721078E+03  0.50400001928E-02 0.  1.
    10030    2    1    2    0    0  0.00000000000E+00  0.00000000000E+00  0.15198733206E+04  0.17534677420E+04  0.87443365199E+03 0.  0.
        5    1    3    3  502    0  0.25504560345E+03 -0.17725929738E+03  0.13769165600E+04  0.14115206061E+04  0.46999998093E+01 0. -1.
       -5    1    3    3    0  502 -0.25504560345E+03  0.17725929738E+03  0.14295676056E+03  0.34194713588E+03  0.46999998093E+01 0.  1.
</event>
<event>
 5   0  0.1663497E-02  0.9868662E+03  0.7818609E-02  0.9323068E-01
       -2   -1    0    0    0  501  0.00000000000E+00  0.00000000000E+00  0.27306303816E+03  0.27306303818E+03  0.25500000920E-02 0. -1.
        2   -1    0    0  501    0  0.00000000000E+00  0.00000000000E+00 -0.89164837785E+03  0.89164837786E+03  0.25500000920E-02 0.  1.
    10030    2    1    2    0    0  0.00000000000E+00  0.00000000000E+00 -0.61858533969E+03  0.11647114160E+04  0.98686618149E+03 0.  0.
        1    1    3    3  502    0  0.21045648118E+03  0.54551445990E+02  0.21348724145E+03  0.30470410732E+03  0.50400001928E-02 0. -1.
       -1    1    3    3    0  502 -0.21045648118E+03 -0.54551445990E+02 -0.83207258114E+03  0.86000730871E+03  0.50400001928E-02 0.  1.
</event>
<event>
 5   0  0.1656859E-02  0.1033620E+04  0.7818609E-02  0.9272421E-01
        2   -1    0    0  501    0  0.00000000000E+00  0.00000000000E+00  0.10903601253E+04  0.10903601253E+04  0.25500000920E-02 0. -1.
       -2   -1    0    0    0  501  0.00000000000E+00  0.00000000000E+00 -0.24495816110E+03  0.24495816112E+03  0.25500000920E-02 0.  1.
    10030    2    1    2    0    0  0.00000000000E+00  0.00000000000E+00  0.84540196420E+03  0.13353182864E+04  0.10336200680E+04 0.  0.
        4    1    3    3  502    0 -0.18683271645E+02  0.35146701323E+02  0.10883749287E+04  0.10891032795E+04  0.12699999809E+01 0. -1.
       -4    1    3    3    0  502  0.18683271645E+02 -0.35146701323E+02 -0.24297296447E+03  0.24621500688E+03  0.12699999809E+01 0.  1.
</event>
<event>
 5   0  0.1571895E-02  0.9893046E+03  0.7818609E-02  0.9320354E-01
        2   -1    0    0  501    0  0.00000000000E+00  0.00000000000E+00  0.46635544351E+03  0.46635544352E+03  0.25500000920E-02 0. -1.
       -2   -1    0    0    0  501  0.00000000000E+00  0.00000000000E+00 -0.52466609826E+03  0.52466609826E+03  0.25500000920E-02 0.  1.
    10030    2    1    2    0    0  0.00000000000E+00  0.00000000000E+00 -0.58310654745E+02  0.99102154178E+03  0.98930458597E+03 0.  0.
        2    1    3    3  502    0  0.98229166196E+02 -0.38064302421E+03  0.27160366319E+03  0.47781443138E+03  0.25500000920E-02 0. -1.
       -2    1    3    3    0  502 -0.98229166196E+02  0.38064302421E+03 -0.32991431793E+03  0.51320711039E+03  0.25500000920E-02 0.  1.
</event>
<event>
 5   0  0.1571895E-02  0.9879176E+03  0.7818609E-02  0.9321897E-01
        2   -1    0    0  501    0  0.00000000000E+00  0.00000000000E+00  0.92929339597E+03  0.92929339597E+03  0.25500000920E-02 0.  1.
       -2   -1    0    0    0  501  0.00000000000E+00  0.00000000000E+00 -0.26256002651E+03  0.26256002652E+03  0.25500000920E-02 0. -1.
    10030    2    1    2    0    0  0.00000000000E+00  0.00000000000E+00  0.66673336946E+03  0.11918534225E+04  0.98791760524E+03 0.  0.
        2    1    3    3  502    0  0.17245977940E+03 -0.44101098110E+03  0.50296447231E+03  0.69080121698E+03  0.25500000920E-02 0.  1.
       -2    1    3    3    0  502 -0.17245977940E+03  0.44101098110E+03  0.16376889715E+03  0.50105220551E+03  0.25500000920E-02 0. -1.
</event>
<event>
 5   0  0.6314750E-03  0.9823548E+03  0.7818609E-02  0.9328112E-01
       -4   -1    0    0    0  501  0.00000000000E+00  0.00000000000E+00  0.18480677399E+03  0.18481113769E+03  0.12699999809E+01 0. -1.
        4   -1    0    0  501    0  0.00000000000E+00  0.00000000000E+00 -0.13054256790E+04  0.13054262968E+04  0.12699999809E+01 0.  1.
    10030    2    1    2    0    0  0.00000000000E+00  0.00000000000E+00 -0.11206189050E+04  0.14902374344E+04  0.98235476320E+03 0.  0.
        1    1    3    3  502    0 -0.23257381960E+03  0.20195114059E+03 -0.11407109732E+04  0.11815652200E+04  0.50400001928E-02 0.  1.
       -1    1    3    3    0  502  0.23257381960E+03 -0.20195114059E+03  0.20092068167E+02  0.30867221446E+03  0.50400001928E-02 0. -1.
</event>
<event>
 5   0  0.1000773E-02  0.8701546E+03  0.7818609E-02  0.9463678E-01
        1   -1    0    0  501    0  0.00000000000E+00  0.00000000000E+00  0.52676940498E+03  0.52676940500E+03  0.50400001928E-02 0.  1.
       -1   -1    0    0    0  501  0.00000000000E+00  0.00000000000E+00 -0.35934559049E+03  0.35934559052E+03  0.50400001928E-02 0. -1.
    10030    2    1    2    0    0  0.00000000000E+00  0.00000000000E+00  0.16742381449E+03  0.88611499553E+03  0.87015461364E+03 0.  0.
        3    1    3    3  502    0 -0.26963939140E+03  0.90530857517E+02 -0.25155470090E+03  0.37971175292E+03  0.10100000352E+00 0. -1.
       -3    1    3    3    0  502  0.26963939140E+03 -0.90530857517E+02  0.41897851539E+03  0.50640324261E+03  0.10100000352E+00 0.  1.
</event>
<event>
 5   0  0.1617721E-02  0.8898047E+03  0.7818609E-02  0.9438417E-01
       -2   -1    0    0    0  501  0.00000000000E+00  0.00000000000E+00  0.39313178767E+03  0.39313178768E+03  0.25500000920E-02 0.  1.
        2   -1    0    0  501    0  0.00000000000E+00  0.00000000000E+00 -0.50349047380E+03  0.50349047380E+03  0.25500000920E-02 0. -1.
    10030    2    1    2    0    0  0.00000000000E+00  0.00000000000E+00 -0.11035868613E+03  0.89662226148E+03  0.88980472025E+03 0.  0.
        5    1    3    3  502    0  0.38755389884E+01 -0.34570728569E+02  0.39173414969E+03  0.39330381273E+03  0.46999998093E+01 0.  1.
       -5    1    3    3    0  502 -0.38755389884E+01  0.34570728569E+02 -0.50209283582E+03  0.50331844875E+03  0.46999998093E+01 0. -1.
</event>
<event>
 5   0  0.1663497E-02  0.9113444E+03  0.7818609E-02  0.9411510E-01
       -2   -1    0    0    0  501  0.00000000000E+00  0.00000000000E+00  0.68860512974E+02  0.68860513021E+02  0.25500000920E-02 0.  1.
        2   -1    0    0  501    0  0.00000000000E+00  0.00000000000E+00 -0.30153294364E+04  0.30153294364E+04  0.25500000920E-02 0. -1.
    10030    2    1    2    0    0  0.00000000000E+00  0.00000000000E+00 -0.29464689235E+04  0.30841899495E+04  0.91134435172E+03 0.  0.
        1    1    3    3  502    0  0.33278087605E+03  0.25772994399E+03 -0.20639655455E+04  0.21064476278E+04  0.50400001928E-02 0. -1.
       -1    1    3    3    0  502 -0.33278087605E+03 -0.25772994399E+03 -0.88250337798E+03  0.97774232171E+03  0.50400001928E-02 0.  1.
</event>
<event>
 5   0  0.9471140E-03  0.9886739E+03  0.7818609E-02  0.9321055E-01
       -1   -1    0    0    0  501  0.00000000000E+00  0.00000000000E+00  0.19855701178E+03  0.19855701184E+03  0.50400001928E-02 0.  1.
        1   -1    0    0  501    0  0.00000000000E+00  0.00000000000E+00 -0.12307246590E+04  0.12307246590E+04  0.50400001928E-02 0. -1.
    10030    2    1    2    0    0  0.00000000000E+00  0.00000000000E+00 -0.10321676472E+04  0.14292816708E+04  0.98867388084E+03 0.  0.
        4    1    3    3  502    0  0.43547618853E+02 -0.47899528527E+03 -0.35103506057E+03  0.59544949834E+03  0.12699999809E+01 0.  1.
       -4    1    3    3    0  502 -0.43547618853E+02  0.47899528527E+03 -0.68113258663E+03  0.83383217249E+03  0.12699999809E+01 0. -1.
</event>
<event>
 5   0  0.1000773E-02  0.9575006E+03  0.7818609E-02  0.9356426E-01
       -1   -1    0    0    0  501  0.00000000000E+00  0.00000000000E+00  0.66965026937E+03  0.66965026939E+03  0.50400001928E-02 0. -1.
        1   -1    0    0  501    0  0.00000000000E+00  0.00000000000E+00 -0.34227096038E+03  0.34227096042E+03  0.50400001928E-02 0.  1.
    10030    2    1    2    0    0  0.00000000000E+00  0.00000000000E+00  0.32737930899E+03  0.10119212298E+04  0.95750058141E+03 0.  0.
        3    1    3    3  502    0  0.19930644175E+03  0.26481272970E+02 -0.29549016564E+03  0.35740560115E+03  0.10100000352E+00 0.  1.
       -3    1    3    3    0  502 -0.19930644175E+03 -0.26481272970E+02  0.62286947463E+03  0.65451562867E+03  0.10100000352E+00 0. -1.
</event>
<event>
 5   0  0.1617721E-02  0.1013962E+04  0.7818609E-02  0.9293362E-01
       -2   -1    0    0    0  501  0.00000000000E+00  0.00000000000E+00  0.19076862884E+03  0.19076862886E+03  0.25500000920E-02 0. -1.
        2   -1    0    0  501    0  0.00000000000E+00  0.00000000000E+00 -0.13473384908E+04  0.13473384908E+04  0.25500000920E-02 0.  1.
    10030    2    1    2    0    0  0.00000000000E+00  0.00000000000E+00 -0.11565698619E+04  0.15381071196E+04  0.10139623592E+04 0.  0.
        5    1    3    3  502    0  0.27458997567E+03  0.41794821341E+03 -0.45202898337E+03  0.67411620336E+03  0.46999998093E+01 0. -1.
       -5    1    3    3    0  502 -0.27458997567E+03 -0.41794821341E+03 -0.70454087857E+03  0.86399091627E+03  0.46999998093E+01 0.  1.
</event>
<event>
 5   0  0.1617721E-02  0.1025510E+04  0.7818609E-02  0.9281000E-01
       -2   -1    0    0    0  501  0.00000000000E+00  0.00000000000E+00  0.27651127267E+03  0.27651127268E+03  0.25500000920E-02 0. -1.
        2   -1    0    0  501    0  0.00000000000E+00  0.00000000000E+00 -0.95083857544E+03  0.95083857544E+03  0.25500000920E-02 0.  1.
    10030    2    1    2    0    0  0.00000000000E+00  0.00000000000E+00 -0.67432730277E+03  0.12273498481E+04  0.10255097944E+04 0.  0.
        5    1    3    3  502    0  0.74463969306E+02 -0.43943840906E+03 -0.64051541601E+03  0.78034164712E+03  0.46999998093E+01 0.  1.
       -5    1    3    3    0  502 -0.74463969306E+02  0.43943840906E+03 -0.33811886768E+02  0.44700820101E+03  0.46999998093E+01 0. -1.
</event>
<event>
 5   0  0.1571895E-02  0.9713551E+03  0.7818609E-02  0.9340532E-01
       -2   -1    0    0    0  501  0.00000000000E+00  0.00000000000E+00  0.51607730568E+03  0.51607730569E+03  0.25500000920E-02 0. -1.
        2   -1    0    0  501    0  0.00000000000E+00  0.00000000000E+00 -0.45706848979E+03  0.45706848980E+03  0.25500000920E-02 0.  1.
    10030    2    1    2    0    0  0.00000000000E+00  0.00000000000E+00  0.59008815888E+02  0.97314579549E+03  0.97135508385E+03 0.  0.
        2    1    3    3  502    0 -0.98380970131E+02 -0.41067453050E+03  0.26984307553E+03  0.50114635657E+03  0.25500000920E-02 0. -1.
       -2    1    3    3    0  502  0.98380970131E+02  0.41067453050E+03 -0.21083425964E+03  0.47199943891E+03  0.25500000920E-02 0.  1.
</event>
<event>
 5   0  0.1656859E-02  0.1009979E+04  0.7818609E-02  0.9297667E-01
        2   -1    0    0  501    0  0.00000000000E+00  0.00000000000E+00  0.16415858134E+04  0.16415858134E+04  0.25500000920E-02 0.  1.
       -2   -1    0    0    0  501  0.00000000000E+00  0.00000000000E+00 -0.15534646073E+03  0.15534646075E+03  0.25500000920E-02 0. -1.
    10030    2    1    2    0    0  0.00000000000E+00  0.00000000000E+00  0.14862393527E+04  0.17969322742E+04  0.10099792990E+04 0.  0.
        4    1    3    3  502    0 -0.31093827291E+02  0.50154937319E+03  0.65426168624E+03  0.82497185820E+03  0.12699999809E+01 0. -1.
       -4    1    3    3    0  502  0.31093827291E+02 -0.50154937319E+03  0.83197766642E+03  0.97196041595E+03  0.12699999809E+01 0.  1.
</event>
<event>
 5   0  0.9507815E-03  0.1019110E+04  0.7818609E-02  0.9287831E-01
        1   -1    0    0  501    0  0.00000000000E+00  0.00000000000E+00  0.10818864277E+04  0.10818864277E+04  0.50400001928E-02 0. -1.
       -1   -1    0    0    0  501  0.00000000000E+00  0.00000000000E+00 -0.23999381498E+03  0.23999381503E+03  0.50400001928E-02 0.  1.
    10030    2    1    2    0    0  0.00000000000E+00  0.00000000000E+00  0.84189261276E+03  0.13218802428E+04  0.10191095156E+04 0.  0.
        1    1    3    3  502    0 -0.22993014868E+03 -0.22619855897E+03  0.93262029650E+03  0.98682028699E+03  0.50400001928E-02 0. -1.
       -1    1    3    3    0  502  0.22993014868E+03  0.22619855897E+03 -0.90727683737E+02  0.33505995579E+03  0.50400001928E-02 0.  1.
</event>
<event>
 5   0  0.9507815E-03  0.1002953E+04  0.7818609E-02  0.9305311E-01
        1   -1    0    0  501    0  0.00000000000E+00  0.00000000000E+00  0.12345478634E+04  0.12345478634E+04  0.50400001928E-02 0.  1.
       -1   -1    0    0    0  501  0.00000000000E+00  0.00000000000E+00 -0.20370123231E+03  0.20370123237E+03  0.50400001928E-02 0. -1.
    10030    2    1    2    0    0  0.00000000000E+00  0.00000000000E+00  0.10308466311E+04  0.14382490958E+04  0.10029534808E+04 0.  0.
        1    1    3    3  502    0  0.14331692263E+03 -0.46319115647E+03  0.33181839912E+03  0.58752807402E+03  0.50400001928E-02 0. -1.
       -1    1    3    3    0  502 -0.14331692263E+03  0.46319115647E+03  0.69902823198E+03  0.85072102177E+03  0.50400001928E-02 0.  1.
</event>
<event>
 5   0  0.1000773E-02  0.1015944E+04  0.7818609E-02  0.9291229E-01
       -1   -1    0    0    0  501  0.00000000000E+00  0.00000000000E+00  0.47045425880E+03  0.47045425883E+03  0.50400001928E-02 0. -1.
        1   -1    0    0  501    0  0.00000000000E+00  0.00000000000E+00 -0.54848118678E+03  0.54848118681E+03  0.50400001928E-02 0.  1.
    10030    2    1    2    0    0  0.00000000000E+00  0.00000000000E+00 -0.78026927984E+02  0.10189354456E+04  0.10159435225E+04 0.  0.
        3    1    3    3  502    0 -0.30492510144E+03 -0.33182658416E+03 -0.27411176735E+03  0.52747082445E+03  0.10100000352E+00 0.  1.
       -3    1    3    3    0  502  0.30492510144E+03  0.33182658416E+03  0.19608483937E+03  0.49146462118E+03  0.10100000352E+00 0. -1.
</event>
<event>
 5   0  0.1663497E-02  0.5108292E+03  0.7818609E-02  0.1010990E+00
       -2   -1    0    0    0  501  0.00000000000E+00  0.00000000000E+00  0.12500873769E+03  0.12500873772E+03  0.25500000920E-02 0. -1.
        2   -1    0    0  501    0  0.00000000000E+00  0.00000000000E+00 -0.52185639875E+03  0.52185639876E+03  0.25500000920E-02 0.  1.
    10030    2    1    2    0    0  0.00000000000E+00  0.00000000000E+00 -0.39684766106E+03  0.64686513648E+03  0.51082916783E+03 0.  0.
        1    1    3    3  502    0  0.94923139798E+02  0.25301620521E+01  0.10182596972E+03  0.13923121893E+03  0.50400001928E-02 0. -1.
       -1    1    3    3    0  502 -0.94923139798E+02 -0.25301620521E+01 -0.49867363078E+03  0.50763391755E+03  0.50400001928E-02 0.  1.
</event>
<event>
 5   0  0.6314750E-03  0.9431828E+03  0.7818609E-02  0.9373155E-01
       -3   -1    0    0    0  501  0.00000000000E+00  0.00000000000E+00  0.45390367155E+03  0.45390368279E+03  0.10100000352E+00 0. -1.
        3   -1    0    0  501    0  0.00000000000E+00  0.00000000000E+00 -0.48996835990E+03  0.48996837031E+03  0.10100000352E+00 0.  1.
    10030    2    1    2    0    0  0.00000000000E+00  0.00000000000E+00 -0.36064688355E+02  0.94387205310E+03  0.94318279823E+03 0.  0.
        1    1    3    3  502    0 -0.19351082529E+03  0.42991354914E+03 -0.29281041311E+02  0.47236583137E+03  0.50400001928E-02 0. -1.
       -1    1    3    3    0  502  0.19351082529E+03 -0.42991354914E+03 -0.67836470446E+01  0.47150622173E+03  0.50400001928E-02 0.  1.
</event>
<event>
 5   0  0.1571895E-02  0.9943377E+03  0.7818609E-02  0.9314777E-01
       -2   -1    0    0    0  501  0.00000000000E+00  0.00000000000E+00  0.18352732441E+03  0.18352732443E+03  0.25500000920E-02 0. -1.
        2   -1    0    0  501    0  0.00000000000E+00  0.00000000000E+00 -0.13468122272E+04  0.13468122272E+04  0.25500000920E-02 0.  1.
    10030    2    1    2    0    0  0.00000000000E+00  0.00000000000E+00 -0.11632849028E+04  0.15303395517E+04  0.99433765806E+03 0.  0.
        2    1    3    3  502    0  0.26940042095E+03  0.33294926807E+03 -0.97021948019E+03  0.10605459168E+04  0.25500000920E-02 0.  1.
       -2    1    3    3    0  502 -0.26940042095E+03 -0.33294926807E+03 -0.19306542263E+03  0.46979363485E+03  0.25500000920E-02 0. -1.
</event>
<event>
 5   0  0.9471140E-03  0.9992062E+03  0.7818609E-02  0.9309416E-01
       -1   -1    0    0    0  501  0.00000000000E+00  0.00000000000E+00  0.29647149260E+03  0.29647149265E+03  0.50400001928E-02 0. -1.
        1   -1    0    0  501    0  0.00000000000E+00  0.00000000000E+00 -0.84191320072E+03  0.84191320074E+03  0.50400001928E-02 0.  1.
    10030    2    1    2    0    0  0.00000000000E+00  0.00000000000E+00 -0.54544170812E+03  0.11383846934E+04  0.99920621154E+03 0.  0.
        4    1    3    3  502    0 -0.20863984037E+03  0.76399185794E+02 -0.78252467420E+03  0.81345798737E+03  0.12699999809E+01 0.  1.
       -4    1    3    3    0  502  0.20863984037E+03 -0.76399185794E+02  0.23708296608E+03  0.32492670602E+03  0.12699999809E+01 0. -1.
</event>
<event>
 5   0  0.9396660E-03  0.1017958E+04  0.7818609E-02  0.9289065E-01
       -1   -1    0    0    0  501  0.00000000000E+00  0.00000000000E+00  0.22753569537E+03  0.22753569543E+03  0.50400001928E-02 0.  1.
        1   -1    0    0  501    0  0.00000000000E+00  0.00000000000E+00 -0.11385446851E+04  0.11385446851E+04  0.50400001928E-02 0. -1.
    10030    2    1    2    0    0  0.00000000000E+00  0.00000000000E+00 -0.91100898975E+03  0.13660803806E+04  0.10179578708E+04 0.  0.
        5    1    3    3  502    0  0.49634309686E+03 -0.56844837446E+02 -0.32505134446E+03  0.59604385063E+03  0.46999998093E+01 0.  1.
       -5    1    3    3    0  502 -0.49634309686E+03  0.56844837446E+02 -0.58595764529E+03  0.77003652992E+03  0.46999998093E+01 0. -1.
</event>
<event>
 5   0  0.1663497E-02  0.9969005E+03  0.7818609E-02  0.9311951E-01
       -2   -1    0    0    0  501  0.00000000000E+00  0.00000000000E+00  0.57618127655E+03  0.57618127655E+03  0.25500000920E-02 0. -1.
        2   -1    0    0  501    0  0.00000000000E+00  0.00000000000E+00 -0.43120568531E+03  0.43120568532E+03  0.25500000920E-02 0.  1.
    10030    2    1    2    0    0  0.00000000000E+00  0.00000000000E+00  0.14497559123E+03  0.10073869619E+04  0.99690048094E+03 0.  0.
        1    1    3    3  502    0 -0.35761173139E+03 -0.74133856478E+02 -0.27030116567E+03  0.45436185941E+03  0.50400001928E-02 0.  1.
       -1    1    3    3    0  502  0.35761173139E+03  0.74133856478E+02  0.41527675691E+03  0.55302510246E+03  0.50400001928E-02 0. -1.
</event>
<event>
 5   0  0.1000773E-02  0.1003587E+04  0.7818609E-02  0.9304619E-01
       -1   -1    0    0    0  501  0.00000000000E+00  0.00000000000E+00  0.46563388934E+03  0.46563388936E+03  0.50400001928E-02 0. -1.
        1   -1    0    0  501    0  0.00000000000E+00  0.00000000000E+00 -0.54076145086E+03  0.54076145088E+03  0.50400001928E-02 0.  1.
    10030    2    1    2    0    0  0.00000000000E+00  0.00000000000E+00 -0.75127561526E+02  0.10063953402E+04  0.10035872809E+04 0.  0.
        3    1    3    3  502    0  0.31735703318E+03 -0.19539014290E+03 -0.37451593303E+03  0.52835119830E+03  0.10100000352E+00 0.  1.
       -3    1    3    3    0  502 -0.31735703318E+03  0.19539014290E+03  0.29938837151E+03  0.47804414194E+03  0.10100000352E+00 0. -1.
</event>
<event>
 5   0  0.1571895E-02  0.9981451E+03  0.7818609E-02  0.9310582E-01
       -2   -1    0    0    0  501  0.00000000000E+00  0.00000000000E+00  0.10247871934E+04  0.10247871934E+04  0.25500000920E-02 0. -1.
        2   -1    0    0  501    0  0.00000000000E+00  0.00000000000E+00 -0.24304892517E+03  0.24304892518E+03  0.25500000920E-02 0.  1.
    10030    2    1    2    0    0  0.00000000000E+00  0.00000000000E+00  0.78173826818E+03  0.12678361185E+04  0.99814513150E+03 0.  0.
        2    1    3    3  502    0  0.35551851985E+03 -0.34290793850E+03  0.30021127760E+03  0.57801910301E+03  0.25500000920E-02 0.  1.
       -2    1    3    3    0  502 -0.35551851985E+03  0.34290793850E+03  0.48152699058E+03  0.68981701553E+03  0.25500000920E-02 0. -1.
</event>
<event>
 5   0  0.1571895E-02  0.1041894E+04  0.7818609E-02  0.9263753E-01
       -2   -1    0    0    0  501  0.00000000000E+00  0.00000000000E+00  0.31891995375E+03  0.31891995376E+03  0.25500000920E-02 0.  1.
        2   -1    0    0  501    0  0.00000000000E+00  0.00000000000E+00 -0.85095299178E+03  0.85095299178E+03  0.25500000920E-02 0. -1.
    10030    2    1    2    0    0  0.00000000000E+00  0.00000000000E+00 -0.53203303803E+03  0.11698729455E+04  0.10418942150E+04 0.  0.
        2    1    3    3  502    0  0.16483515879E+03 -0.44922523537E+03 -0.34778533854E+02  0.47977441375E+03  0.25500000920E-02 0.  1.
       -2    1    3    3    0  502 -0.16483515879E+03  0.44922523537E+03 -0.49725450417E+03  0.69009853180E+03  0.25500000920E-02 0. -1.
</event>
<event>
 5   0  0.1571895E-02  0.1001255E+04  0.7818609E-02  0.9307169E-01
       -2   -1    0    0    0  501  0.00000000000E+00  0.00000000000E+00  0.63153513237E+03  0.63153513237E+03  0.25500000920E-02 0.  1.
        2   -1    0    0  501    0  0.00000000000E+00  0.00000000000E+00 -0.39685517128E+03  0.39685517129E+03  0.25500000920E-02 0. -1.
    10030    2    1    2    0    0  0.00000000000E+00  0.00000000000E+00  0.23467996109E+03  0.10283903037E+04  0.10012551785E+04 0.  0.
        2    1    3    3  502    0 -0.28296408139E+03 -0.40209927930E+03  0.21410294297E+03  0.53627658159E+03  0.25500000920E-02 0.  1.
       -2    1    3    3    0  502  0.28296408139E+03  0.40209927930E+03  0.20577018120E+02  0.49211372207E+03  0.25500000920E-02 0. -1.
</event>
<event>
 5   0  0.1598986E-02  0.9644324E+03  0.7818609E-02  0.9348439E-01
        2   -1    0    0  501    0  0.00000000000E+00  0.00000000000E+00  0.17756059428E+04  0.17756059428E+04  0.25500000920E-02 0.  1.
       -2   -1    0    0    0  501  0.00000000000E+00  0.00000000000E+00 -0.13095949577E+03  0.13095949580E+03  0.25500000920E-02 0. -1.
    10030    2    1    2    0    0  0.00000000000E+00  0.00000000000E+00  0.16446464470E+04  0.19065654386E+04  0.96443239054E+03 0.  0.
        3    1    3    3  502    0 -0.16382806444E+03 -0.13448465452E+03 -0.33933689720E+02  0.21465614946E+03  0.10100000352E+00 0. -1.
       -3    1    3    3    0  502  0.16382806444E+03  0.13448465452E+03  0.16785801367E+04  0.16919092891E+04  0.10100000352E+00 0.  1.
</event>
<event>
 5   0  0.1663497E-02  0.9850899E+03  0.7818609E-02  0.9325051E-01
       -2   -1    0    0    0  501  0.00000000000E+00  0.00000000000E+00  0.12088226700E+04  0.12088226700E+04  0.25500000920E-02 0. -1.
        2   -1    0    0  501    0  0.00000000000E+00  0.00000000000E+00 -0.20069159140E+03  0.20069159142E+03  0.25500000920E-02 0.  1.
    10030    2    1    2    0    0  0.00000000000E+00  0.00000000000E+00  0.10081310786E+04  0.14095142615E+04  0.98508993576E+03 0.  0.
        1    1    3    3  502    0 -0.10594939371E+03  0.46744269323E+03  0.66640598258E+03  0.82086836894E+03  0.50400001928E-02 0. -1.
       -1    1    3    3    0  502  0.10594939371E+03 -0.46744269323E+03  0.34172509606E+03  0.58864589252E+03  0.50400001928E-02 0.  1.
</event>
<event>
 5   0  0.1617721E-02  0.1001774E+04  0.7818609E-02  0.9306601E-01
       -2   -1    0    0    0  501  0.00000000000E+00  0.00000000000E+00  0.41462733062E+03  0.41462733063E+03  0.25500000920E-02 0. -1.
        2   -1    0    0  501    0  0.00000000000E+00  0.00000000000E+00 -0.60509242598E+03  0.60509242598E+03  0.25500000920E-02 0.  1.
    10030    2    1    2    0    0  0.00000000000E+00  0.00000000000E+00 -0.19046509535E+03  0.10197197566E+04  0.10017741410E+04 0.  0.
        5    1    3    3  502    0  0.23801695136E+03 -0.58604916308E+02  0.34937464589E+03  0.42681534478E+03  0.46999998093E+01 0. -1.
       -5    1    3    3    0  502 -0.23801695136E+03  0.58604916308E+02 -0.53983974124E+03  0.59290441184E+03  0.46999998093E+01 0.  1.
</event>
<event>
 5   0  0.9471140E-03  0.1008683E+04  0.7818609E-02  0.9299073E-01
        1   -1    0    0  501    0  0.00000000000E+00  0.00000000000E+00  0.16003463879E+04  0.16003463879E+04  0.50400001928E-02 0. -1.
       -1   -1    0    0    0  501  0.00000000000E+00  0.00000000000E+00 -0.15894074199E+03  0.15894074207E+03  0.50400001928E-02 0.  1.
    10030    2    1    2    0    0  0.00000000000E+00  0.00000000000E+00  0.14414056459E+04  0.17592871299E+04  0.10086827894E+04 0.  0.
        4    1    3    3  502    0  0.43655486963E+02  0.17766126934E+03 -0.99024584034E+02  0.20803078933E+03  0.12699999809E+01 0.  1.
       -4    1    3    3    0  502 -0.43655486963E+02 -0.17766126934E+03  0.15404302299E+04  0.15512563406E+04  0.12699999809E+01 0. -1.
</event>
<event>
 5   0  0.9396660E-03  0.9882188E+03  0.7818609E-02  0.9321561E-01
       -1   -1    0    0    0  501  0.00000000000E+00  0.00000000000E+00  0.27152296662E+03  0.27152296667E+03  0.50400001928E-02 0. -1.
        1   -1    0    0  501    0  0.00000000000E+00  0.00000000000E+00 -0.89916561720E+03  0.89916561721E+03  0.50400001928E-02 0.  1.
    10030    2    1    2    0    0  0.00000000000E+00  0.00000000000E+00 -0.62764265058E+03  0.11706885839E+04  0.98821883386E+03 0.  0.
        5    1    3    3  502    0 -0.16107642205E+03 -0.38141848145E+03 -0.63322843003E+03  0.75658839955E+03  0.46999998093E+01 0.  1.
       -5    1    3    3    0  502  0.16107642205E+03  0.38141848145E+03  0.55857794545E+01  0.41410018433E+03  0.46999998093E+01 0. -1.
</event>
<event>
 5   0  0.1656859E-02  0.9734038E+03  0.7818609E-02  0.9338206E-01
       -2   -1    0    0    0  501  0.00000000000E+00  0.00000000000E+00  0.82364836004E+03  0.82364836005E+03  0.25500000920E-02 0. -1.
        2   -1    0    0  501    0  0.00000000000E+00  0.00000000000E+00 -0.28759693561E+03  0.28759693562E+03  0.25500000920E-02 0.  1.
    10030    2    1    2    0    0  0.00000000000E+00  0.00000000000E+00  0.53605142443E+03  0.11112452957E+04  0.97340381009E+03 0.  0.
        4    1    3    3  502    0 -0.27857423322E+03 -0.95206907601E+02  0.71047665094E+03  0.76905568271E+03  0.12699999809E+01 0. -1.
       -4    1    3    3    0  502  0.27857423322E+03  0.95206907601E+02 -0.17442522651E+03  0.34218961296E+03  0.12699999809E+01 0.  1.
</event>
<event>
 5   0  0.1571895E-02  0.1011424E+04  0.7818609E-02  0.9296103E-01
        2   -1    0    0  501    0  0.00000000000E+00  0.00000000000E+00  0.94946262744E+03  0.94946262745E+03  0.25500000920E-02 0.  1.
       -2   -1    0    0    0  501  0.00000000000E+00  0.00000000000E+00 -0.26935740822E+03  0.26935740823E+03  0.25500000920E-02 0. -1.
    10030    2    1    2    0    0  0.00000000000E+00  0.00000000000E+00  0.68010521923E+03  0.12188200357E+04  0.10114243274E+04 0.  0.
        2    1    3    3  502    0 -0.84274992613E+02  0.85520165248E+02  0.93203772024E+03  0.93973947720E+03  0.25500000920E-02 0.  1.
       -2    1    3    3    0  502  0.84274992613E+02 -0.85520165248E+02 -0.25193250102E+03  0.27908055848E+03  0.25500000920E-02 0. -1.
</event>
<event>
 5   0  0.9396660E-03  0.9958409E+03  0.7818609E-02  0.9313118E-01
        1   -1    0    0  501    0  0.00000000000E+00  0.00000000000E+00  0.19020960457E+04  0.19020960457E+04  0.50400001928E-02 0. -1.
       -1   -1    0    0    0  501  0.00000000000E+00  0.00000000000E+00 -0.13034293041E+03  0.13034293051E+03  0.50400001928E-02 0.  1.
    10030    2    1    2    0    0  0.00000000000E+00  0.00000000000E+00  0.17717531153E+04  0.20324389762E+04  0.99584089618E+03 0.  0.
        5    1    3    3  502    0 -0.55481818233E+02 -0.20248563473E+03 -0.35538355113E+02  0.21298762666E+03  0.46999998093E+01 0.  1.
       -5    1    3    3    0  502  0.55481818233E+02  0.20248563473E+03  0.18072914704E+04  0.18194513496E+04  0.46999998093E+01 0. -1.
</event>
<event>
 5   0  0.9759443E-03  0.9966448E+03  0.7818609E-02  0.9312232E-01
        1   -1    0    0  501    0  0.00000000000E+00  0.00000000000E+00  0.50009006747E+03  0.50009006750E+03  0.50400001928E-02 0.  1.
       -1   -1    0    0    0  501  0.00000000000E+00  0.00000000000E+00 -0.49656098396E+03  0.49656098399E+03  0.50400001928E-02 0. -1.
    10030    2    1    2    0    0  0.00000000000E+00  0.00000000000E+00  0.35290835072E+01  0.99665105149E+03  0.99664480333E+03 0.  0.
        2    1    3    3  502    0  0.22905744551E+03 -0.11086550789E+03  0.43021412274E+03  0.49984264083E+03  0.25500000920E-02 0.  1.
       -2    1    3    3    0  502 -0.22905744551E+03  0.11086550789E+03 -0.42668503924E+03  0.49680841065E+03  0.25500000920E-02 0. -1.
</event>
<event>
 5   0  0.1617721E-02  0.1016692E+04  0.7818609E-02  0.9290425E-01
        2   -1    0    0  501    0  0.00000000000E+00  0.00000000000E+00  0.26770376491E+03  0.26770376492E+03  0.25500000920E-02 0.  1.
       -2   -1    0    0    0  501  0.00000000000E+00  0.00000000000E+00 -0.96530417118E+03  0.96530417119E+03  0.25500000920E-02 0. -1.
    10030    2    1    2    0    0  0.00000000000E+00  0.00000000000E+00 -0.69760040628E+03  0.12330079361E+04  0.10166918135E+04 0.  0.
        5    1    3    3  502    0  0.17090677700E+03  0.42219712558E+02  0.22952688266E+03  0.28930314623E+03  0.46999998093E+01 0.  1.
       -5    1    3    3    0  502 -0.17090677700E+03 -0.42219712558E+02 -0.92712728894E+03  0.94370478988E+03  0.46999998093E+01 0. -1.
</event>
<event>
 5   0  0.9759443E-03  0.9960845E+03  0.7818609E-02  0.9312850E-01
       -1   -1    0    0    0  501  0.00000000000E+00  0.00000000000E+00  0.15525019365E+03  0.15525019373E+03  0.50400001928E-02 0.  1.
        1   -1    0    0  501    0  0.00000000000E+00  0.00000000000E+00 -0.15977183092E+04  0.15977183092E+04  0.50400001928E-02 0. -1.
    10030    2    1    2    0    0  0.00000000000E+00  0.00000000000E+00 -0.14424681156E+04  0.17529685029E+04  0.99608448833E+03 0.  0.
        2    1    3    3  502    0 -0.16317476492E+03  0.47044654657E+03 -0.73884319594E+03  0.89097431236E+03  0.25500000920E-02 0. -1.
       -2    1    3    3    0  502  0.16317476492E+03 -0.47044654657E+03 -0.70362491963E+03  0.86199419059E+03  0.25500000920E-02 0.  1.
</event>
<event>
 5   0  0.1000773E-02  0.9992556E+03  0.7818609E-02  0.9309362E-01
       -1   -1    0    0    0  501  0.00000000000E+00  0.00000000000E+00  0.46391518618E+03  0.46391518621E+03  0.50400001928E-02 0.  1.
        1   -1    0    0  501    0  0.00000000000E+00  0.00000000000E+00 -0.53808957930E+03  0.53808957933E+03  0.50400001928E-02 0. -1.
    10030    2    1    2    0    0  0.00000000000E+00  0.00000000000E+00 -0.74174393123E+02  0.10020047655E+04  0.99925557769E+03 0.  0.
        3    1    3    3  502    0  0.44140481352E+03  0.16510097767E+03 -0.20346950923E+03  0.51331899791E+03  0.10100000352E+00 0. -1.
       -3    1    3    3    0  502 -0.44140481352E+03 -0.16510097767E+03  0.12929511611E+03  0.48868576762E+03  0.10100000352E+00 0.  1.
</event>
<event>
 5   0  0.9507815E-03  0.1004373E+04  0.7818609E-02  0.9303761E-01
        1   -1    0    0  501    0  0.00000000000E+00  0.00000000000E+00  0.58343772185E+03  0.58343772187E+03  0.50400001928E-02 0. -1.
       -1   -1    0    0    0  501  0.00000000000E+00  0.00000000000E+00 -0.43225093346E+03  0.43225093349E+03  0.50400001928E-02 0.  1.
    10030    2    1    2    0    0  0.00000000000E+00  0.00000000000E+00  0.15118678838E+03  0.10156886554E+04  0.10043734363E+04 0.  0.
        1    1    3    3  502    0  0.16483861706E+03 -0.10620004678E+03 -0.39193671714E+03  0.43825176540E+03  0.50400001928E-02 0.  1.
       -1    1    3    3    0  502 -0.16483861706E+03  0.10620004678E+03  0.54312350552E+03  0.57743688996E+03  0.50400001928E-02 0. -1.
</event>
<event>
 5   0  0.1663497E-02  0.9563107E+03  0.7818609E-02  0.9357805E-01
       -2   -1    0    0    0  501  0.00000000000E+00  0.00000000000E+00  0.28410036328E+03  0.28410036329E+03  0.25500000920E-02 0. -1.
        2   -1    0    0  501    0  0.00000000000E+00  0.00000000000E+00 -0.80475968880E+03  0.80475968880E+03  0.25500000920E-02 0.  1.
    10030    2    1    2    0    0  0.00000000000E+00  0.00000000000E+00 -0.52065932552E+03  0.10888600521E+04  0.95631066071E+03 0.  0.
        1    1    3    3  502    0 -0.36812919445E+03  0.21078163647E+03 -0.91013948152E+01  0.42430040949E+03  0.50400001928E-02 0. -1.
       -1    1    3    3    0  502  0.36812919445E+03 -0.21078163647E+03 -0.51155793070E+03  0.66455964260E+03  0.50400001928E-02 0.  1.
</event>
<event>
 5   0  0.6314750E-03  0.1003556E+04  0.7818609E-02  0.9304653E-01
       -3   -1    0    0    0  501  0.00000000000E+00  0.00000000000E+00  0.12875496597E+03  0.12875500559E+03  0.10100000352E+00 0.  1.
        3   -1    0    0  501    0  0.00000000000E+00  0.00000000000E+00 -0.19555054440E+04  0.19555054466E+04  0.10100000352E+00 0. -1.
    10030    2    1    2    0    0  0.00000000000E+00  0.00000000000E+00 -0.18267504780E+04  0.20842604522E+04  0.10035558398E+04 0.  0.
        1    1    3    3  502    0 -0.50599331462E+02  0.45516759953E+03 -0.48752336844E+03  0.66889227145E+03  0.50400001928E-02 0.  1.
       -1    1    3    3    0  502  0.50599331462E+02 -0.45516759953E+03 -0.13392271096E+04  0.14153681808E+04  0.50400001928E-02 0. -1.
</event>
<event>
 5   0  0.1598986E-02  0.9682584E+03  0.7818609E-02  0.9344060E-01
       -2   -1    0    0    0  501  0.00000000000E+00  0.00000000000E+00  0.49685404224E+03  0.49685404224E+03  0.25500000920E-02 0.  1.
        2   -1    0    0  501    0  0.00000000000E+00  0.00000000000E+00 -0.47173025273E+03  0.47173025273E+03  0.25500000920E-02 0. -1.
    10030    2    1    2    0    0  0.00000000000E+00  0.00000000000E+00  0.25123789512E+02  0.96858429498E+03  0.96825840129E+03 0.  0.
        3    1    3    3  502    0 -0.10392923128E+03 -0.40720198749E+03 -0.22786526925E+03  0.47805578634E+03  0.10100000352E+00 0. -1.
       -3    1    3    3    0  502  0.10392923128E+03  0.40720198749E+03  0.25298905876E+03  0.49052850863E+03  0.10100000352E+00 0.  1.
</event>
<event>
 5   0  0.1617721E-02  0.1032751E+04  0.7818609E-02  0.9273336E-01
        2   -1    0    0  501    0  0.00000000000E+00  0.00000000000E+00  0.11584686354E+04  0.11584686354E+04  0.25500000920E-02 0. -1.
       -2   -1    0    0    0  501  0.00000000000E+00  0.00000000000E+00 -0.23016917788E+03  0.23016917789E+03  0.25500000920E-02 0.  1.
    10030    2    1    2    0    0  0.00000000000E+00  0.00000000000E+00  0.92829945753E+03  0.13886378133E+04  0.10327512255E+04 0.  0.
        5    1    3    3  502    0 -0.45807230014E+03 -0.69533264009E+02  0.77063776855E+03  0.89920507520E+03  0.46999998093E+01 0. -1.
       -5    1    3    3    0  502  0.45807230014E+03  0.69533264009E+02  0.15766168898E+03  0.48943273811E+03  0.46999998093E+01 0.  1.
</event>
<event>
 5   0  0.1656859E-02  0.1039480E+04  0.7818609E-02  0.9266273E-01
        2   -1    0    0  501    0  0.00000000000E+00  0.00000000000E+00  0.53864923531E+03  0.53864923532E+03  0.25500000920E-02 0.  1.
       -2   -1    0    0    0  501  0.00000000000E+00  0.00000000000E+00 -0.50149498459E+03  0.50149498460E+03  0.25500000920E-02 0. -1.
    10030    2    1    2    0    0  0.00000000000E+00  0.00000000000E+00  0.37154250721E+02  0.10401442199E+04  0.10394804279E+04 0.  0.
        4    1    3    3  502    0  0.21879100089E+03 -0.67400114162E+02 -0.44832130774E+03  0.50339436363E+03  0.12699999809E+01 0. -1.
       -4    1    3    3    0  502 -0.21879100089E+03  0.67400114162E+02  0.48547555846E+03  0.53674985629E+03  0.12699999809E+01 0.  1.
</event>
<event>
 5   0  0.1663497E-02  0.9133805E+03  0.7818609E-02  0.9409008E-01
        2   -1    0    0  501    0  0.00000000000E+00  0.00000000000E+00  0.62497862960E+03  0.62497862961E+03  0.25500000920E-02 0. -1.
       -2   -1    0    0    0  501  0.00000000000E+00  0.00000000000E+00 -0.33371697110E+03  0.33371697111E+03  0.25500000920E-02 0.  1.
    10030    2    1    2    0    0  0.00000000000E+00  0.00000000000E+00  0.29126165850E+03  0.95869560072E+03  0.91338047993E+03 0.  0.
        1    1    3    3  502    0  0.15792494966E+03  0.13217511166E+03  0.57347564292E+03  0.60933148853E+03  0.50400001928E-02 0. -1.
       -1    1    3    3    0  502 -0.15792494966E+03 -0.13217511166E+03 -0.28221398441E+03  0.34936411219E+03  0.50400001928E-02 0.  1.
</event>
<event>
 5   0  0.9759443E-03  0.1098520E+04  0.7818609E-02  0.9206636E-01
       -1   -1    0    0    0  501  0.00000000000E+00  0.00000000000E+00  0.11444866102E+04  0.11444866102E+04  0.50400001928E-02 0.  1.
        1   -1    0    0  501    0  0.00000000000E+00  0.00000000000E+00 -0.26359973465E+03  0.26359973469E+03  0.50400001928E-02 0. -1.
    10030    2    1    2    0    0  0.00000000000E+00  0.00000000000E+00  0.88088687551E+03  0.14080863449E+04  0.10985196708E+04 0.  0.
        2    1    3    3  502    0  0.17666388738E+02  0.25362013146E+03  0.10645265506E+04  0.10944642751E+04  0.25500000920E-02 0.  1.
       -2    1    3    3    0  502 -0.17666388738E+02 -0.25362013146E+03 -0.18363967513E+03  0.31362206979E+03  0.25500000920E-02 0. -1.
</event>
<event>
 5   0  0.1000773E-02  0.9933969E+03  0.7818609E-02  0.9315817E-01
        1   -1    0    0  501    0  0.00000000000E+00  0.00000000000E+00  0.48269151126E+03  0.48269151128E+03  0.50400001928E-02 0.  1.
       -1   -1    0    0    0  501  0.00000000000E+00  0.00000000000E+00 -0.51111187839E+03  0.51111187841E+03  0.50400001928E-02 0. -1.
    10030    2    1    2    0    0  0.00000000000E+00  0.00000000000E+00 -0.28420367130E+02  0.99380338969E+03  0.99339692978E+03 0.  0.
        3    1    3    3  502    0 -0.41787654454E+02  0.48348262239E+02  0.47856175058E+03  0.48280961242E+03  0.10100000352E+00 0.  1.
       -3    1    3    3    0  502  0.41787654454E+02 -0.48348262239E+02 -0.50698211771E+03  0.51099377727E+03  0.10100000352E+00 0. -1.
</event>
<event>
 5   0  0.6314750E-03  0.9853194E+03  0.7818609E-02  0.9324794E-01
       -3   -1    0    0    0  501  0.00000000000E+00  0.00000000000E+00  0.70329511501E+03  0.70329512227E+03  0.10100000352E+00 0.  1.
        3   -1    0    0  501    0  0.00000000000E+00  0.00000000000E+00 -0.34510915427E+03  0.34510916905E+03  0.10100000352E+00 0. -1.
    10030    2    1    2    0    0  0.00000000000E+00  0.00000000000E+00  0.35818596075E+03  0.10484042913E+04  0.98531942819E+03 0.  0.
        5    1    3    3  502    0 -0.40164175848E+03  0.11788005030E+03  0.45549314719E+03  0.61863390268E+03  0.46999998093E+01 0.  1.
       -5    1    3    3    0  502  0.40164175848E+03 -0.11788005030E+03 -0.97307186448E+02  0.42977038863E+03  0.46999998093E+01 0. -1.
</event>
<event>
 5   0  0.1598986E-02  0.1019047E+04  0.7818609E-02  0.9287898E-01
        2   -1    0    0  501    0  0.00000000000E+00  0.00000000000E+00  0.77312716947E+03  0.77312716948E+03  0.25500000920E-02 0. -1.
       -2   -1    0    0    0  501  0.00000000000E+00  0.00000000000E+00 -0.33579750032E+03  0.33579750033E+03  0.25500000920E-02 0.  1.
    10030    2    1    2    0    0  0.00000000000E+00  0.00000000000E+00  0.43732966915E+03  0.11089246698E+04  0.10190469488E+04 0.  0.
        3    1    3    3  502    0  0.33027937648E+03 -0.21705029226E+03 -0.13128656559E+03  0.41645103962E+03  0.10100000352E+00 0.  1.
       -3    1    3    3    0  502 -0.33027937648E+03  0.21705029226E+03  0.56861623474E+03  0.69247363019E+03  0.10100000352E+00 0. -1.
</event>
<event>
 5   0  0.1598986E-02  0.1010474E+04  0.7818609E-02  0.9297132E-01
       -2   -1    0    0    0  501  0.00000000000E+00  0.00000000000E+00  0.37453669655E+03  0.37453669655E+03  0.25500000920E-02 0. -1.
        2   -1    0    0  501    0  0.00000000000E+00  0.00000000000E+00 -0.68154671260E+03  0.68154671260E+03  0.25500000920E-02 0.  1.
    10030    2    1    2    0    0  0.00000000000E+00  0.00000000000E+00 -0.30701001605E+03  0.10560834092E+04  0.10104736598E+04 0.  0.
        3    1    3    3  502    0 -0.38749905612E+03  0.31295731450E+03 -0.65029084311E+02  0.50232120322E+03  0.10100000352E+00 0. -1.
       -3    1    3    3    0  502  0.38749905612E+03 -0.31295731450E+03 -0.24198093174E+03  0.55376220594E+03  0.10100000352E+00 0.  1.
</event>
<event>
 5   0  0.9759443E-03  0.9917419E+03  0.7818609E-02  0.9317649E-01
       -1   -1    0    0    0  501  0.00000000000E+00  0.00000000000E+00  0.36521936746E+03  0.36521936749E+03  0.50400001928E-02 0.  1.
        1   -1    0    0  501    0  0.00000000000E+00  0.00000000000E+00 -0.67326107249E+03  0.67326107251E+03  0.50400001928E-02 0. -1.
    10030    2    1    2    0    0  0.00000000000E+00  0.00000000000E+00 -0.30804170503E+03  0.10384804400E+04  0.99174186774E+03 0.  0.
        2    1    3    3  502    0  0.46345841063E+03  0.75007485685E+02 -0.32112932628E+03  0.56880916439E+03  0.25500000920E-02 0. -1.
       -2    1    3    3    0  502 -0.46345841063E+03 -0.75007485685E+02  0.13087621251E+02  0.46967127561E+03  0.25500000920E-02 0.  1.
</event>
<event>
 5   0  0.9507815E-03  0.9543924E+03  0.7818609E-02  0.9360031E-01
        1   -1    0    0  501    0  0.00000000000E+00  0.00000000000E+00  0.77697170996E+03  0.77697170997E+03  0.50400001928E-02 0. -1.
       -1   -1    0    0    0  501  0.00000000000E+00  0.00000000000E+00 -0.29308170107E+03  0.29308170111E+03  0.50400001928E-02 0.  1.
    10030    2    1    2    0    0  0.00000000000E+00  0.00000000000E+00  0.48389000889E+03  0.10700534111E+04  0.95439235216E+03 0.  0.
        1    1    3    3  502    0 -0.90978500551E+02 -0.18823218605E+03 -0.23900126365E+03  0.31753747413E+03  0.50400001928E-02 0.  1.
       -1    1    3    3    0  502  0.90978500551E+02  0.18823218605E+03  0.72289127254E+03  0.75251593695E+03  0.50400001928E-02 0. -1.
</event>
<event>
 5   0  0.1617721E-02  0.1009030E+04  0.7818609E-02  0.9298696E-01
       -2   -1    0    0    0  501  0.00000000000E+00  0.00000000000E+00  0.16059682294E+03  0.16059682296E+03  0.25500000920E-02 0.  1.
        2   -1    0    0  501    0  0.00000000000E+00  0.00000000000E+00 -0.15849345730E+04  0.15849345730E+04  0.25500000920E-02 0. -1.
    10030    2    1    2    0    0  0.00000000000E+00  0.00000000000E+00 -0.14243377500E+04  0.17455313959E+04  0.10090301423E+04 0.  0.
        5    1    3    3  502    0  0.50348498036E+03 -0.25963134327E+02 -0.68016987738E+03  0.84665480681E+03  0.46999998093E+01 0. -1.
       -5    1    3    3    0  502 -0.50348498036E+03  0.25963134327E+02 -0.74416787265E+03  0.89887658913E+03  0.46999998093E+01 0.  1.
</event>
<event>
 5   0  0.9471140E-03  0.9694814E+03  0.7818609E-02  0.9342665E-01
        1   -1    0    0  501    0  0.00000000000E+00  0.00000000000E+00  0.17530969554E+04  0.17530969554E+04  0.50400001928E-02 0. -1.
       -1   -1    0    0    0  501  0.00000000000E+00  0.00000000000E+00 -0.13403339772E+03  0.13403339781E+03  0.50400001928E-02 0.  1.
    10030    2    1    2    0    0  0.00000000000E+00  0.00000000000E+00  0.16190635577E+04  0.18871303533E+04  0.96948139036E+03 0.  0.
        4    1    3    3  502    0 -0.11058768066E+03  0.34986264665E+03  0.19294237592E+03  0.41456227513E+03  0.12699999809E+01 0.  1.
       -4    1    3    3    0  502  0.11058768066E+03 -0.34986264665E+03  0.14261211818E+04  0.14725680781E+04  0.12699999809E+01 0. -1.
</event>
<event>
 5   0  0.9507815E-03  0.9892972E+03  0.7818609E-02  0.9320362E-01
        1   -1    0    0  501    0  0.00000000000E+00  0.00000000000E+00  0.27348911161E+03  0.27348911165E+03  0.50400001928E-02 0.  1.
       -1   -1    0    0    0  501  0.00000000000E+00  0.00000000000E+00 -0.89465080902E+03  0.89465080904E+03  0.50400001928E-02 0. -1.
    10030    2    1    2    0    0  0.00000000000E+00  0.00000000000E+00 -0.62116169741E+03  0.11681399207E+04  0.98929723540E+03 0.  0.
        1    1    3    3  502    0  0.12634603498E+03 -0.13062711316E+03 -0.85380330064E+03  0.87293003125E+03  0.50400001928E-02 0. -1.
       -1    1    3    3    0  502 -0.12634603498E+03  0.13062711316E+03  0.23264160322E+03  0.29520988944E+03  0.50400001928E-02 0.  1.
</event>
<event>
 5   0  0.1656859E-02  0.1036475E+04  0.7818609E-02  0.9269420E-01
       -2   -1    0    0    0  501  0.00000000000E+00  0.00000000000E+00  0.28466678359E+03  0.28466678360E+03  0.25500000920E-02 0.  1.
        2   -1    0    0  501    0  0.00000000000E+00  0.00000000000E+00 -0.94345391769E+03  0.94345391770E+03  0.25500000920E-02 0. -1.
    10030    2    1    2    0    0  0.00000000000E+00  0.00000000000E+00 -0.65878713411E+03  0.12281207013E+04  0.10364747797E+04 0.  0.
        4    1    3    3  502    0 -0.48947206810E+03  0.35952110806E+02 -0.52657530284E+03  0.71983235700E+03  0.12699999809E+01 0. -1.
       -4    1    3    3    0  502  0.48947206810E+03 -0.35952110806E+02 -0.13221183126E+03  0.50828834429E+03  0.12699999809E+01 0.  1.
</event>
<event>
 5   0  0.9507815E-03  0.1021939E+04  0.7818609E-02  0.9284805E-01
        1   -1    0    0  501    0  0.00000000000E+00  0.00000000000E+00  0.87194771882E+03  0.87194771883E+03  0.50400001928E-02 0.  1.
       -1   -1    0    0    0  501  0.00000000000E+00  0.00000000000E+00 -0.29943285193E+03  0.29943285197E+03  0.50400001928E-02 0. -1.
    10030    2    1    2    0    0  0.00000000000E+00  0.00000000000E+00  0.57251486688E+03  0.11713805708E+04  0.10219389262E+04 0.  0.
        1    1    3    3  502    0  0.50581070787E+03 -0.64735994289E+02  0.24903446581E+03  0.56749747694E+03  0.50400001928E-02 0. -1.
       -1    1    3    3    0  502 -0.50581070787E+03  0.64735994289E+02  0.32348040107E+03  0.60388309386E+03  0.50400001928E-02 0.  1.
</event>
<event>
 5   0  0.9507815E-03  0.9978844E+03  0.7818609E-02  0.9310868E-01
        1   -1    0    0  501    0  0.00000000000E+00  0.00000000000E+00  0.49085276512E+03  0.49085276514E+03  0.50400001928E-02 0.  1.
       -1   -1    0    0    0  501  0.00000000000E+00  0.00000000000E+00 -0.50716493907E+03  0.50716493909E+03  0.50400001928E-02 0. -1.
    10030    2    1    2    0    0  0.00000000000E+00  0.00000000000E+00 -0.16312173948E+02  0.99801770424E+03  0.99788438757E+03 0.  0.
        1    1    3    3  502    0 -0.13703888715E+03  0.47914762490E+03  0.15955424462E+02  0.49861475974E+03  0.50400001928E-02 0. -1.
       -1    1    3    3    0  502  0.13703888715E+03 -0.47914762490E+03 -0.32267598410E+02  0.49940294449E+03  0.50400001928E-02 0.  1.
</event>
<event>
 5   0  0.9507815E-03  0.8880021E+03  0.7818609E-02  0.9440705E-01
        1   -1    0    0  501    0  0.00000000000E+00  0.00000000000E+00  0.20418319106E+03  0.20418319112E+03  0.50400001928E-02 0. -1.
       -1   -1    0    0    0  501  0.00000000000E+00  0.00000000000E+00 -0.96549055842E+03  0.96549055844E+03  0.50400001928E-02 0.  1.
    10030    2    1    2    0    0  0.00000000000E+00  0.00000000000E+00 -0.76130736736E+03  0.11696737496E+04  0.88800212433E+03 0.  0.
        1    1    3    3  502    0 -0.25729484984E+03 -0.34437506497E+03 -0.23431956825E+03  0.48959216213E+03  0.50400001928E-02 0. -1.
       -1    1    3    3    0  502  0.25729484984E+03  0.34437506497E+03 -0.52698779911E+03  0.68008158743E+03  0.50400001928E-02 0.  1.
</event>
<event>
 5   0  0.9396660E-03  0.7940469E+03  0.7818609E-02  0.9568674E-01
        1   -1    0    0  501    0  0.00000000000E+00  0.00000000000E+00  0.93303772800E+03  0.93303772802E+03  0.50400001928E-02 0. -1.
       -1   -1    0    0    0  501  0.00000000000E+00  0.00000000000E+00 -0.16894024366E+03  0.16894024374E+03  0.50400001928E-02 0.  1.
    10030    2    1    2    0    0  0.00000000000E+00  0.00000000000E+00  0.76409748434E+03  0.11019779718E+04  0.79404690331E+03 0.  0.
        5    1    3    3  502    0  0.27481117693E+02  0.47278734560E+02 -0.16364958967E+03  0.17260871580E+03  0.46999998093E+01 0.  1.
       -5    1    3    3    0  502 -0.27481117693E+02 -0.47278734560E+02  0.92774707401E+03  0.92936925595E+03  0.46999998093E+01 0. -1.
</event>
<event>
 5   0  0.9396660E-03  0.6842487E+03  0.7818609E-02  0.9744555E-01
       -1   -1    0    0    0  501  0.00000000000E+00  0.00000000000E+00  0.21755889848E+03  0.21755889854E+03  0.50400001928E-02 0. -1.
        1   -1    0    0  501    0  0.00000000000E+00  0.00000000000E+00 -0.53801096579E+03  0.53801096582E+03  0.50400001928E-02 0.  1.
    10030    2    1    2    0    0  0.00000000000E+00  0.00000000000E+00 -0.32045206731E+03  0.75556986436E+03  0.68424870660E+03 0.  0.
        5    1    3    3  502    0 -0.26008896784E+03  0.65835510214E+02 -0.39458991147E+03  0.47718327069E+03  0.46999998093E+01 0.  1.
       -5    1    3    3    0  502  0.26008896784E+03 -0.65835510214E+02  0.74137844156E+02  0.27838659366E+03  0.46999998093E+01 0. -1.
</event>
<event>
 5   0  0.9759443E-03  0.5547779E+03  0.7818609E-02  0.1000394E+00
       -1   -1    0    0    0  501  0.00000000000E+00  0.00000000000E+00  0.57148277928E+03  0.57148277930E+03  0.50400001928E-02 0.  1.
        1   -1    0    0  501    0  0.00000000000E+00  0.00000000000E+00 -0.13464030759E+03  0.13464030768E+03  0.50400001928E-02 0. -1.
    10030    2    1    2    0    0  0.00000000000E+00  0.00000000000E+00  0.43684247169E+03  0.70612308698E+03  0.55477785545E+03 0.  0.
        2    1    3    3  502    0 -0.76743564494E+02  0.17044050506E+02  0.55700735260E+03  0.56252756839E+03  0.25500000920E-02 0.  1.
       -2    1    3    3    0  502  0.76743564494E+02 -0.17044050506E+02 -0.12016488091E+03  0.14359551859E+03  0.25500000920E-02 0. -1.
</event>
<event>
 5   0  0.9759443E-03  0.8188345E+03  0.7818609E-02  0.9533148E-01
       -1   -1    0    0    0  501  0.00000000000E+00  0.00000000000E+00  0.75870133233E+03  0.75870133235E+03  0.50400001928E-02 0. -1.
        1   -1    0    0  501    0  0.00000000000E+00  0.00000000000E+00 -0.22093344063E+03  0.22093344069E+03  0.50400001928E-02 0.  1.
    10030    2    1    2    0    0  0.00000000000E+00  0.00000000000E+00  0.53776789170E+03  0.97963477304E+03  0.81883452736E+03 0.  0.
        2    1    3    3  502    0  0.10058328871E+03 -0.27349646788E+03  0.61294411669E+03  0.67868829819E+03  0.25500000920E-02 0. -1.
       -2    1    3    3    0  502 -0.10058328871E+03  0.27349646788E+03 -0.75176224985E+02  0.30094647485E+03  0.25500000920E-02 0.  1.
</event>
<event>
 5   0  0.9759443E-03  0.1021876E+04  0.7818609E-02  0.9284872E-01
       -1   -1    0    0    0  501  0.00000000000E+00  0.00000000000E+00  0.45697419043E+03  0.45697419046E+03  0.50400001928E-02 0. -1.
        1   -1    0    0  501    0  0.00000000000E+00  0.00000000000E+00 -0.57127382783E+03  0.57127382785E+03  0.50400001928E-02 0.  1.
    10030    2    1    2    0    0  0.00000000000E+00  0.00000000000E+00 -0.11429963740E+03  0.10282480183E+04  0.10218755208E+04 0.  0.
        2    1    3    3  502    0  0.31642341002E+03  0.36070860507E+03  0.11950959915E+03  0.49448661911E+03  0.25500000920E-02 0.  1.
       -2    1    3    3    0  502 -0.31642341002E+03 -0.36070860507E+03 -0.23380923654E+03  0.53376139920E+03  0.25500000920E-02 0. -1.
</event>
<event>
 5   0  0.1617721E-02  0.9975719E+03  0.7818609E-02  0.9311212E-01
       -2   -1    0    0    0  501  0.00000000000E+00  0.00000000000E+00  0.14317371166E+03  0.14317371168E+03  0.25500000920E-02 0. -1.
        2   -1    0    0  501    0  0.00000000000E+00  0.00000000000E+00 -0.17376613611E+04  0.17376613611E+04  0.25500000920E-02 0.  1.
    10030    2    1    2    0    0  0.00000000000E+00  0.00000000000E+00 -0.15944876495E+04  0.18808350728E+04  0.99757190560E+03 0.  0.
        5    1    3    3  502    0 -0.16661449086E+03  0.14857506985E+03 -0.16381684675E+04  0.16533157466E+04  0.46999998093E+01 0.  1.
       -5    1    3    3    0  502  0.16661449086E+03 -0.14857506985E+03  0.43680818043E+02  0.22751932624E+03  0.46999998093E+01 0. -1.
</event>
<event>
 5   0  0.9507815E-03  0.9943451E+03  0.7818609E-02  0.9314769E-01
       -1   -1    0    0    0  501  0.00000000000E+00  0.00000000000E+00  0.55138290078E+03  0.55138290080E+03  0.50400001928E-02 0.  1.
        1   -1    0    0  501    0  0.00000000000E+00  0.00000000000E+00 -0.44829199039E+03  0.44829199042E+03  0.50400001928E-02 0. -1.
    10030    2    1    2    0    0  0.00000000000E+00  0.00000000000E+00  0.10309091039E+03  0.99967489122E+03  0.99434508715E+03 0.  0.
        1    1    3    3  502    0 -0.39588835523E+03 -0.28766758521E+03  0.13976721551E+03  0.50893526498E+03  0.50400001928E-02 0.  1.
       -1    1    3    3    0  502  0.39588835523E+03  0.28766758521E+03 -0.36676305115E+02  0.49073962624E+03  0.50400001928E-02 0. -1.
</event>
<event>
 5   0  0.6314750E-03  0.1003566E+04  0.7818609E-02  0.9304642E-01
       -3   -1    0    0    0  501  0.00000000000E+00  0.00000000000E+00  0.67532915847E+03  0.67532916602E+03  0.10100000352E+00 0.  1.
        3   -1    0    0  501    0  0.00000000000E+00  0.00000000000E+00 -0.37283491379E+03  0.37283492747E+03  0.10100000352E+00 0. -1.
    10030    2    1    2    0    0  0.00000000000E+00  0.00000000000E+00  0.30249424468E+03  0.10481640935E+04  0.10035662404E+04 0.  0.
        2    1    3    3  502    0 -0.12345044452E+03  0.28486883130E+03 -0.26047405260E+03  0.40526163818E+03  0.25500000920E-02 0. -1.
       -2    1    3    3    0  502  0.12345044452E+03 -0.28486883130E+03  0.56296829728E+03  0.64290245531E+03  0.25500000920E-02 0.  1.
</event>
<event>
 5   0  0.1598986E-02  0.9907685E+03  0.7818609E-02  0.9318728E-01
       -2   -1    0    0    0  501  0.00000000000E+00  0.00000000000E+00  0.42981144306E+03  0.42981144307E+03  0.25500000920E-02 0.  1.
        2   -1    0    0  501    0  0.00000000000E+00  0.00000000000E+00 -0.57096099739E+03  0.57096099739E+03  0.25500000920E-02 0. -1.
    10030    2    1    2    0    0  0.00000000000E+00  0.00000000000E+00 -0.14114955433E+03  0.10007724405E+04  0.99076853043E+03 0.  0.
        3    1    3    3  502    0  0.31969933960E+02  0.24512600999E+03 -0.50420739205E+03  0.56154602825E+03  0.10100000352E+00 0. -1.
       -3    1    3    3    0  502 -0.31969933960E+02 -0.24512600999E+03  0.36305783772E+03  0.43922641221E+03  0.10100000352E+00 0.  1.
</event>
<event>
 5   0  0.9471140E-03  0.9973761E+03  0.7818609E-02  0.9311427E-01
       -1   -1    0    0    0  501  0.00000000000E+00  0.00000000000E+00  0.63839448950E+03  0.63839448952E+03  0.50400001928E-02 0.  1.
        1   -1    0    0  501    0  0.00000000000E+00  0.00000000000E+00 -0.38955498364E+03  0.38955498368E+03  0.50400001928E-02 0. -1.
    10030    2    1    2    0    0  0.00000000000E+00  0.00000000000E+00  0.24883950586E+03  0.10279494732E+04  0.99737606738E+03 0.  0.
        4    1    3    3  502    0  0.10358146922E+03  0.20522782010E+02  0.62673831162E+03  0.63557283572E+03  0.12699999809E+01 0.  1.
       -4    1    3    3    0  502 -0.10358146922E+03 -0.20522782010E+02 -0.37789880576E+03  0.39237663748E+03  0.12699999809E+01 0. -1.
</event>
<event>
 5   0  0.1656859E-02  0.9787053E+03  0.7818609E-02  0.9332214E-01
        2   -1    0    0  501    0  0.00000000000E+00  0.00000000000E+00  0.92100483276E+03  0.92100483276E+03  0.25500000920E-02 0. -1.
       -2   -1    0    0    0  501  0.00000000000E+00  0.00000000000E+00 -0.26000515523E+03  0.26000515524E+03  0.25500000920E-02 0.  1.
    10030    2    1    2    0    0  0.00000000000E+00  0.00000000000E+00  0.66099967753E+03  0.11810099880E+04  0.97870527640E+03 0.  0.
        4    1    3    3  502    0  0.20266517166E+03  0.24502487142E+03  0.77934603720E+03  0.84171979780E+03  0.12699999809E+01 0. -1.
       -4    1    3    3    0  502 -0.20266517166E+03 -0.24502487142E+03 -0.11834635967E+03  0.33929019020E+03  0.12699999809E+01 0.  1.
</event>
<event>
 5   0  0.1663497E-02  0.9836152E+03  0.7818609E-02  0.9326700E-01
       -2   -1    0    0    0  501  0.00000000000E+00  0.00000000000E+00  0.24580303242E+03  0.24580303243E+03  0.25500000920E-02 0.  1.
        2   -1    0    0  501    0  0.00000000000E+00  0.00000000000E+00 -0.98401846369E+03  0.98401846370E+03  0.25500000920E-02 0. -1.
    10030    2    1    2    0    0  0.00000000000E+00  0.00000000000E+00 -0.73821543128E+03  0.12298214961E+04  0.98361521408E+03 0.  0.
        1    1    3    3  502    0  0.29860901310E+03 -0.55324362039E+02 -0.85277895254E+03  0.90524033807E+03  0.50400001928E-02 0. -1.
       -1    1    3    3    0  502 -0.29860901310E+03  0.55324362039E+02  0.11456352126E+03  0.32458115806E+03  0.50400001928E-02 0.  1.
</event>
<event>
 5   0  0.1000773E-02  0.1004216E+04  0.7818609E-02  0.9303933E-01
        1   -1    0    0  501    0  0.00000000000E+00  0.00000000000E+00  0.64115933225E+03  0.64115933227E+03  0.50400001928E-02 0. -1.
       -1   -1    0    0    0  501  0.00000000000E+00  0.00000000000E+00 -0.39321303229E+03  0.39321303232E+03  0.50400001928E-02 0.  1.
    10030    2    1    2    0    0  0.00000000000E+00  0.00000000000E+00  0.24794629997E+03  0.10343723646E+04  0.10042155252E+04 0.  0.
        3    1    3    3  502    0 -0.31715899346E+03  0.24522577192E+03  0.43535367629E+03  0.59182627519E+03  0.10100000352E+00 0. -1.
       -3    1    3    3    0  502  0.31715899346E+03 -0.24522577192E+03 -0.18740737632E+03  0.44254608940E+03  0.10100000352E+00 0.  1.
</event>
<event>
 5   0  0.1598986E-02  0.1097311E+04  0.7818609E-02  0.9207817E-01
       -2   -1    0    0    0  501  0.00000000000E+00  0.00000000000E+00  0.28055388508E+03  0.28055388510E+03  0.25500000920E-02 0.  1.
        2   -1    0    0  501    0  0.00000000000E+00  0.00000000000E+00 -0.10729585937E+04  0.10729585937E+04  0.25500000920E-02 0. -1.
    10030    2    1    2    0    0  0.00000000000E+00  0.00000000000E+00 -0.79240470861E+03  0.13535124788E+04  0.10973107163E+04 0.  0.
        3    1    3    3  502    0  0.20555731219E+03  0.35012641209E+03 -0.85138941956E+03  0.94324242217E+03  0.10100000352E+00 0. -1.
       -3    1    3    3    0  502 -0.20555731219E+03 -0.35012641209E+03  0.58984710951E+02  0.41027005663E+03  0.10100000352E+00 0.  1.
</event>
<event>
 5   0  0.9471140E-03  0.9990523E+03  0.7818609E-02  0.9309585E-01
       -1   -1    0    0    0  501  0.00000000000E+00  0.00000000000E+00  0.22944829843E+03  0.22944829848E+03  0.50400001928E-02 0.  1.
        1   -1    0    0  501    0  0.00000000000E+00  0.00000000000E+00 -0.10875059733E+04  0.10875059733E+04  0.50400001928E-02 0. -1.
    10030    2    1    2    0    0  0.00000000000E+00  0.00000000000E+00 -0.85805767485E+03  0.13169542718E+04  0.99905234126E+03 0.  0.
        4    1    3    3  502    0 -0.47267379912E+03 -0.88230000282E+02 -0.25060947834E+03  0.54222852825E+03  0.12699999809E+01 0.  1.
       -4    1    3    3    0  502  0.47267379912E+03  0.88230000282E+02 -0.60744819651E+03  0.77472574352E+03  0.12699999809E+01 0. -1.
</event>
<event>
 5   0  0.1571895E-02  0.1002100E+04  0.7818609E-02  0.9306244E-01
       -2   -1    0    0    0  501  0.00000000000E+00  0.00000000000E+00  0.29871249652E+03  0.29871249653E+03  0.25500000920E-02 0.  1.
        2   -1    0    0  501    0  0.00000000000E+00  0.00000000000E+00 -0.84044456573E+03  0.84044456573E+03  0.25500000920E-02 0. -1.
    10030    2    1    2    0    0  0.00000000000E+00  0.00000000000E+00 -0.54173206921E+03  0.11391570623E+04  0.10021003830E+04 0.  0.
        2    1    3    3  502    0 -0.19312991396E+03 -0.34224357592E+03  0.82487295797E+02  0.40153951599E+03  0.25500000920E-02 0.  1.
       -2    1    3    3    0  502  0.19312991396E+03  0.34224357592E+03 -0.62421936500E+03  0.73761754628E+03  0.25500000920E-02 0. -1.
</event>
<event>
 5   0  0.9471140E-03  0.1007495E+04  0.7818609E-02  0.9300363E-01
        1   -1    0    0  501    0  0.00000000000E+00  0.00000000000E+00  0.84456192141E+03  0.84456192143E+03  0.50400001928E-02 0. -1.
       -1   -1    0    0    0  501  0.00000000000E+00  0.00000000000E+00 -0.30046509082E+03  0.30046509086E+03  0.50400001928E-02 0.  1.
    10030    2    1    2    0    0  0.00000000000E+00  0.00000000000E+00  0.54409683059E+03  0.11450270123E+04  0.10074946639E+04 0.  0.
        4    1    3    3  502    0 -0.61296155857E+02 -0.23124488846E+03  0.77588021562E+03  0.81192557483E+03  0.12699999809E+01 0. -1.
       -4    1    3    3    0  502  0.61296155857E+02  0.23124488846E+03 -0.23178338503E+03  0.33310143746E+03  0.12699999809E+01 0.  1.
</event>
<event>
 5   0  0.9471140E-03  0.1037610E+04  0.7818609E-02  0.9268231E-01
        1   -1    0    0  501    0  0.00000000000E+00  0.00000000000E+00  0.98930673756E+03  0.98930673757E+03  0.50400001928E-02 0.  1.
       -1   -1    0    0    0  501  0.00000000000E+00  0.00000000000E+00 -0.27206768273E+03  0.27206768278E+03  0.50400001928E-02 0. -1.
    10030    2    1    2    0    0  0.00000000000E+00  0.00000000000E+00  0.71723905483E+03  0.12613744203E+04  0.10376095444E+04 0.  0.
        4    1    3    3  502    0 -0.43222181870E+03 -0.21322037572E+03  0.12516912748E+03  0.49794332264E+03  0.12699999809E+01 0. -1.
       -4    1    3    3    0  502  0.43222181870E+03  0.21322037572E+03  0.59206992735E+03  0.76343109771E+03  0.12699999809E+01 0.  1.
</event>
<event>
 5   0  0.9759443E-03  0.9963718E+03  0.7818609E-02  0.9312533E-01
        1   -1    0    0  501    0  0.00000000000E+00  0.00000000000E+00  0.51712397479E+03  0.51712397481E+03  0.50400001928E-02 0.  1.
       -1   -1    0    0    0  501  0.00000000000E+00  0.00000000000E+00 -0.47994134603E+03  0.47994134606E+03  0.50400001928E-02 0. -1.
    10030    2    1    2    0    0  0.00000000000E+00  0.00000000000E+00  0.37182628755E+02  0.99706532088E+03  0.99637177108E+03 0.  0.
        2    1    3    3  502    0  0.16789993500E+03 -0.46892070779E+03  0.79934668284E+01  0.49813744478E+03  0.25500000920E-02 0. -1.
       -2    1    3    3    0  502 -0.16789993500E+03  0.46892070779E+03  0.29189161927E+02  0.49892787610E+03  0.25500000920E-02 0.  1.
</event>
<event>
 5   0  0.1571895E-02  0.1012177E+04  0.7818609E-02  0.9295289E-01
       -2   -1    0    0    0  501  0.00000000000E+00  0.00000000000E+00  0.18710112796E+03  0.18710112798E+03  0.25500000920E-02 0. -1.
        2   -1    0    0  501    0  0.00000000000E+00  0.00000000000E+00 -0.13689156353E+04  0.13689156353E+04  0.25500000920E-02 0.  1.
    10030    2    1    2    0    0  0.00000000000E+00  0.00000000000E+00 -0.11818145073E+04  0.15560167633E+04  0.10121771771E+04 0.  0.
        2    1    3    3  502    0  0.47807689923E+03 -0.85389580867E+02 -0.37200159754E+03  0.61174675371E+03  0.25500000920E-02 0. -1.
       -2    1    3    3    0  502 -0.47807689923E+03  0.85389580867E+02 -0.80981290981E+03  0.94427000958E+03  0.25500000920E-02 0.  1.
</event>
<event>
 5   0  0.1663497E-02  0.1020952E+04  0.7818609E-02  0.9285859E-01
        2   -1    0    0  501    0  0.00000000000E+00  0.00000000000E+00  0.12393934922E+04  0.12393934923E+04  0.25500000920E-02 0. -1.
       -2   -1    0    0    0  501  0.00000000000E+00  0.00000000000E+00 -0.21025245735E+03  0.21025245737E+03  0.25500000920E-02 0.  1.
    10030    2    1    2    0    0  0.00000000000E+00  0.00000000000E+00  0.10291410349E+04  0.14496459496E+04  0.10209515706E+04 0.  0.
        1    1    3    3  502    0 -0.30874861943E+03 -0.25628242194E+03  0.96263548057E+03  0.10429158443E+04  0.50400001928E-02 0. -1.
       -1    1    3    3    0  502  0.30874861943E+03  0.25628242194E+03  0.66505554324E+02  0.40673010533E+03  0.50400001928E-02 0.  1.
</event>
<event>
 5   0  0.6314750E-03  0.1008415E+04  0.7818609E-02  0.9299363E-01
        4   -1    0    0  501    0  0.00000000000E+00  0.00000000000E+00  0.50770571116E+03  0.50770729958E+03  0.12699999809E+01 0.  1.
       -4   -1    0    0    0  501  0.00000000000E+00  0.00000000000E+00 -0.50073028697E+03  0.50073189751E+03  0.12699999809E+01 0. -1.
    10030    2    1    2    0    0  0.00000000000E+00  0.00000000000E+00  0.69754241946E+01  0.10084391971E+04  0.10084150721E+04 0.  0.
        2    1    3    3  502    0 -0.32623899732E+03 -0.18257365854E+03 -0.33484007560E+03  0.50187936837E+03  0.25500000920E-02 0. -1.
       -2    1    3    3    0  502  0.32623899732E+03  0.18257365854E+03  0.34181549980E+03  0.50655982872E+03  0.25500000920E-02 0.  1.
</event>
<event>
 5   0  0.1663497E-02  0.9933332E+03  0.7818609E-02  0.9315887E-01
        2   -1    0    0  501    0  0.00000000000E+00  0.00000000000E+00  0.70895920795E+03  0.70895920795E+03  0.25500000920E-02 0.  1.
       -2   -1    0    0    0  501  0.00000000000E+00  0.00000000000E+00 -0.34794342594E+03  0.34794342595E+03  0.25500000920E-02 0. -1.
    10030    2    1    2    0    0  0.00000000000E+00  0.00000000000E+00  0.36101578201E+03  0.10569026339E+04  0.99333316803E+03 0.  0.
        1    1    3    3  502    0  0.40795314668E+02  0.41991513165E+02 -0.34425921242E+03  0.34920187605E+03  0.50400001928E-02 0. -1.
       -1    1    3    3    0  502 -0.40795314668E+02 -0.41991513165E+02  0.70527499443E+03  0.70770075785E+03  0.50400001928E-02 0.  1.
</event>
<event>
 5   0  0.9507815E-03  0.1028971E+04  0.7818609E-02  0.9277329E-01
        1   -1    0    0  501    0  0.00000000000E+00  0.00000000000E+00  0.44264160352E+03  0.44264160355E+03  0.50400001928E-02 0. -1.
       -1   -1    0    0    0  501  0.00000000000E+00  0.00000000000E+00 -0.59798987246E+03  0.59798987248E+03  0.50400001928E-02 0.  1.
    10030    2    1    2    0    0  0.00000000000E+00  0.00000000000E+00 -0.15534826893E+03  0.10406314760E+04  0.10289707402E+04 0.  0.
        1    1    3    3  502    0 -0.46570248066E+03  0.22737330848E+02 -0.29762303286E+03  0.55315030184E+03  0.50400001928E-02 0. -1.
       -1    1    3    3    0  502  0.46570248066E+03 -0.22737330848E+02  0.14227476393E+03  0.48748117419E+03  0.50400001928E-02 0.  1.
</event>
<event>
 5   0  0.1617721E-02  0.9252420E+03  0.7818609E-02  0.9394566E-01
       -2   -1    0    0    0  501  0.00000000000E+00  0.00000000000E+00  0.52560974323E+03  0.52560974323E+03  0.25500000920E-02 0.  1.
        2   -1    0    0  501    0  0.00000000000E+00  0.00000000000E+00 -0.40718077259E+03  0.40718077260E+03  0.25500000920E-02 0. -1.
    10030    2    1    2    0    0  0.00000000000E+00  0.00000000000E+00  0.11842897064E+03  0.93279051583E+03  0.92524198204E+03 0.  0.
        5    1    3    3  502    0 -0.18947495657E+03  0.25794503432E+03 -0.27751600572E+03  0.42364327367E+03  0.46999998093E+01 0. -1.
       -5    1    3    3    0  502  0.18947495657E+03 -0.25794503432E+03  0.39594497636E+03  0.50914724216E+03  0.46999998093E+01 0.  1.
</event>
<event>
 5   0  0.6314750E-03  0.9719632E+03  0.7818609E-02  0.9339841E-01
        3   -1    0    0  501    0  0.00000000000E+00  0.00000000000E+00  0.10371597329E+04  0.10371597378E+04  0.10100000352E+00 0.  1.
       -3   -1    0    0    0  501  0.00000000000E+00  0.00000000000E+00 -0.22771622833E+03  0.22771625073E+03  0.10100000352E+00 0. -1.
    10030    2    1    2    0    0  0.00000000000E+00  0.00000000000E+00  0.80944350457E+03  0.12648759886E+04  0.97196320883E+03 0.  0.
        4    1    3    3  502    0  0.39278935594E+03 -0.12966563392E+03  0.73670899936E+03  0.84488958888E+03  0.12699999809E+01 0.  1.
       -4    1    3    3    0  502 -0.39278935594E+03  0.12966563392E+03  0.72734505215E+02  0.41998639967E+03  0.12699999809E+01 0. -1.
</event>
<event>
 5   0  0.1656859E-02  0.1022153E+04  0.7818609E-02  0.9284576E-01
        2   -1    0    0  501    0  0.00000000000E+00  0.00000000000E+00  0.15946333477E+04  0.15946333477E+04  0.25500000920E-02 0.  1.
       -2   -1    0    0    0  501  0.00000000000E+00  0.00000000000E+00 -0.16379899754E+03  0.16379899756E+03  0.25500000920E-02 0. -1.
    10030    2    1    2    0    0  0.00000000000E+00  0.00000000000E+00  0.14308343502E+04  0.17584323453E+04  0.10221533032E+04 0.  0.
        4    1    3    3  502    0 -0.45529058882E+03  0.12109432261E+03  0.37461815327E+03  0.60190840574E+03  0.12699999809E+01 0.  1.
       -4    1    3    3    0  502  0.45529058882E+03 -0.12109432261E+03  0.10562161969E+04  0.11565239395E+04  0.12699999809E+01 0. -1.
</event>
<event>
 5   0  0.1656859E-02  0.9691499E+03  0.7818609E-02  0.9343043E-01
        2   -1    0    0  501    0  0.00000000000E+00  0.00000000000E+00  0.98188287923E+03  0.98188287924E+03  0.25500000920E-02 0.  1.
       -2   -1    0    0    0  501  0.00000000000E+00  0.00000000000E+00 -0.23914550608E+03  0.23914550610E+03  0.25500000920E-02 0. -1.
    10030    2    1    2    0    0  0.00000000000E+00  0.00000000000E+00  0.74273737315E+03  0.12210283853E+04  0.96914989156E+03 0.  0.
        4    1    3    3  502    0 -0.75836010187E+02  0.45801548871E+03  0.54631733314E+03  0.71693342071E+03  0.12699999809E+01 0. -1.
       -4    1    3    3    0  502  0.75836010187E+02 -0.45801548871E+03  0.19642004002E+03  0.50409496463E+03  0.12699999809E+01 0.  1.
</event>
<event>
 5   0  0.9759443E-03  0.1020841E+04  0.7818609E-02  0.9285978E-01
        1   -1    0    0  501    0  0.00000000000E+00  0.00000000000E+00  0.40564280138E+03  0.40564280142E+03  0.50400001928E-02 0.  1.
       -1   -1    0    0    0  501  0.00000000000E+00  0.00000000000E+00 -0.64226230426E+03  0.64226230428E+03  0.50400001928E-02 0. -1.
    10030    2    1    2    0    0  0.00000000000E+00  0.00000000000E+00 -0.23661950288E+03  0.10479051057E+04  0.10208409873E+04 0.  0.
        2    1    3    3  502    0  0.11908695494E+03  0.49161406063E+03 -0.48213267465E+02  0.50812459753E+03  0.25500000920E-02 0.  1.
       -2    1    3    3    0  502 -0.11908695494E+03 -0.49161406063E+03 -0.18840623541E+03  0.53978050817E+03  0.25500000920E-02 0. -1.
</event>
<event>
 5   0  0.9507815E-03  0.9867215E+03  0.7818609E-02  0.9323230E-01
       -1   -1    0    0    0  501  0.00000000000E+00  0.00000000000E+00  0.96064435345E+03  0.96064435346E+03  0.50400001928E-02 0.  1.
        1   -1    0    0  501    0  0.00000000000E+00  0.00000000000E+00 -0.25337660968E+03  0.25337660973E+03  0.50400001928E-02 0. -1.
    10030    2    1    2    0    0  0.00000000000E+00  0.00000000000E+00  0.70726774377E+03  0.12140209632E+04  0.98672145902E+03 0.  0.
        1    1    3    3  502    0 -0.39661651498E+03  0.21956759560E+03  0.11413957358E+03  0.46748522038E+03  0.50400001928E-02 0. -1.
       -1    1    3    3    0  502  0.39661651498E+03 -0.21956759560E+03  0.59312817019E+03  0.74653574281E+03  0.50400001928E-02 0.  1.
</event>
<event>
 5   0  0.9396660E-03  0.9263541E+03  0.7818609E-02  0.9393224E-01
        1   -1    0    0  501    0  0.00000000000E+00  0.00000000000E+00  0.96262447182E+03  0.96262447183E+03  0.50400001928E-02 0. -1.
       -1   -1    0    0    0  501  0.00000000000E+00  0.00000000000E+00 -0.22286259550E+03  0.22286259556E+03  0.50400001928E-02 0.  1.
    10030    2    1    2    0    0  0.00000000000E+00  0.00000000000E+00  0.73976187632E+03  0.11854870674E+04  0.92635411874E+03 0.  0.
        5    1    3    3  502    0  0.41794501395E+03  0.19891077583E+03  0.34895554620E+03  0.57968577234E+03  0.46999998093E+01 0. -1.
       -5    1    3    3    0  502 -0.41794501395E+03 -0.19891077583E+03  0.39080633012E+03  0.60580129505E+03  0.46999998093E+01 0.  1.
</event>
<event>
 5   0  0.1656859E-02  0.1017118E+04  0.7818609E-02  0.9289967E-01
       -2   -1    0    0    0  501  0.00000000000E+00  0.00000000000E+00  0.23558684355E+03  0.23558684357E+03  0.25500000920E-02 0.  1.
        2   -1    0    0  501    0  0.00000000000E+00  0.00000000000E+00 -0.10978214712E+04  0.10978214712E+04  0.25500000920E-02 0. -1.
    10030    2    1    2    0    0  0.00000000000E+00  0.00000000000E+00 -0.86223462769E+03  0.13334083148E+04  0.10171180761E+04 0.  0.
        4    1    3    3  502    0  0.23669851724E+03 -0.41902587648E+03 -0.64661816853E+03  0.80605554523E+03  0.12699999809E+01 0.  1.
       -4    1    3    3    0  502 -0.23669851724E+03  0.41902587648E+03 -0.21561645917E+03  0.52735276959E+03  0.12699999809E+01 0. -1.
</event>
<event>
 5   0  0.1617721E-02  0.9704883E+03  0.7818609E-02  0.9341518E-01
       -2   -1    0    0    0  501  0.00000000000E+00  0.00000000000E+00  0.26181029815E+03  0.26181029817E+03  0.25500000920E-02 0. -1.
        2   -1    0    0  501    0  0.00000000000E+00  0.00000000000E+00 -0.89936058782E+03  0.89936058782E+03  0.25500000920E-02 0.  1.
    10030    2    1    2    0    0  0.00000000000E+00  0.00000000000E+00 -0.63755028966E+03  0.11611708860E+04  0.97048825578E+03 0.  0.
        5    1    3    3  502    0  0.23868466117E+03 -0.19753770464E+03  0.12802407495E+03  0.33526670875E+03  0.46999998093E+01 0. -1.
       -5    1    3    3    0  502 -0.23868466117E+03  0.19753770464E+03 -0.76557436461E+03  0.82590417724E+03  0.46999998093E+01 0.  1.
</event>
<event>
 5   0  0.1663497E-02  0.1009864E+04  0.7818609E-02  0.9297792E-01
        2   -1    0    0  501    0  0.00000000000E+00  0.00000000000E+00  0.85640917099E+03  0.85640917100E+03  0.25500000920E-02 0.  1.
       -2   -1    0    0    0  501  0.00000000000E+00  0.00000000000E+00 -0.29770394341E+03  0.29770394342E+03  0.25500000920E-02 0. -1.
    10030    2    1    2    0    0  0.00000000000E+00  0.00000000000E+00  0.55870522758E+03  0.11541131144E+04  0.10098641243E+04 0.  0.
        1    1    3    3  502    0  0.24542147109E+03 -0.20045726439E+03 -0.16991808769E+03  0.35956497308E+03  0.50400001928E-02 0. -1.
       -1    1    3    3    0  502 -0.24542147109E+03  0.20045726439E+03  0.72862331528E+03  0.79454814134E+03  0.50400001928E-02 0.  1.
</event>
<event>
 5   0  0.1663497E-02  0.1018093E+04  0.7818609E-02  0.9288920E-01
       -2   -1    0    0    0  501  0.00000000000E+00  0.00000000000E+00  0.31694624235E+03  0.31694624236E+03  0.25500000920E-02 0. -1.
        2   -1    0    0  501    0  0.00000000000E+00  0.00000000000E+00 -0.81757809244E+03  0.81757809244E+03  0.25500000920E-02 0.  1.
    10030    2    1    2    0    0  0.00000000000E+00  0.00000000000E+00 -0.50063185009E+03  0.11345243348E+04  0.10180929314E+04 0.  0.
        1    1    3    3  502    0  0.11980936894E+03 -0.26264642804E+03  0.21690744234E+03  0.36109038982E+03  0.50400001928E-02 0. -1.
       -1    1    3    3    0  502 -0.11980936894E+03  0.26264642804E+03 -0.71753929242E+03  0.77343394498E+03  0.50400001928E-02 0.  1.
</event>
<event>
 5   0  0.9396660E-03  0.8467164E+03  0.7818609E-02  0.9494755E-01
        1   -1    0    0  501    0  0.00000000000E+00  0.00000000000E+00  0.34150545925E+03  0.34150545929E+03  0.50400001928E-02 0.  1.
       -1   -1    0    0    0  501  0.00000000000E+00  0.00000000000E+00 -0.52482959231E+03  0.52482959234E+03  0.50400001928E-02 0. -1.
    10030    2    1    2    0    0  0.00000000000E+00  0.00000000000E+00 -0.18332413306E+03  0.86633505162E+03  0.84671641292E+03 0.  0.
        5    1    3    3  502    0  0.18734668131E+02  0.41124530169E+03  0.92973892210E+01  0.41180361509E+03  0.46999998093E+01 0. -1.
       -5    1    3    3    0  502 -0.18734668131E+02 -0.41124530169E+03 -0.19262152229E+03  0.45453143654E+03  0.46999998093E+01 0.  1.
</event>
<event>
 5   0  0.9396660E-03  0.1000610E+04  0.7818609E-02  0.9307876E-01
       -1   -1    0    0    0  501  0.00000000000E+00  0.00000000000E+00  0.17098960769E+03  0.17098960777E+03  0.50400001928E-02 0. -1.
        1   -1    0    0  501    0  0.00000000000E+00  0.00000000000E+00 -0.14638623501E+04  0.14638623501E+04  0.50400001928E-02 0.  1.
    10030    2    1    2    0    0  0.00000000000E+00  0.00000000000E+00 -0.12928727424E+04  0.16348519579E+04  0.10006103118E+04 0.  0.
        5    1    3    3  502    0  0.43076957945E+03  0.69792995328E+02 -0.24672700591E+03  0.50132803455E+03  0.46999998093E+01 0. -1.
       -5    1    3    3    0  502 -0.43076957945E+03 -0.69792995328E+02 -0.10461457365E+04  0.11335239233E+04  0.46999998093E+01 0.  1.
</event>
<event>
 5   0  0.1656859E-02  0.9750484E+03  0.7818609E-02  0.9336343E-01
        2   -1    0    0  501    0  0.00000000000E+00  0.00000000000E+00  0.77566414578E+03  0.77566414579E+03  0.25500000920E-02 0. -1.
       -2   -1    0    0    0  501  0.00000000000E+00  0.00000000000E+00 -0.30642109243E+03  0.30642109244E+03  0.25500000920E-02 0.  1.
    10030    2    1    2    0    0  0.00000000000E+00  0.00000000000E+00  0.46924305335E+03  0.10820852382E+04  0.97504841914E+03 0.  0.
        4    1    3    3  502    0  0.31704173290E+03  0.46967894627E+02 -0.17307092767E+03  0.36424799578E+03  0.12699999809E+01 0.  1.
       -4    1    3    3    0  502 -0.31704173290E+03 -0.46967894627E+02  0.64231398102E+03  0.71783724245E+03  0.12699999809E+01 0. -1.
</event>
<event>
 5   0  0.9471140E-03  0.1012874E+04  0.7818609E-02  0.9294537E-01
        1   -1    0    0  501    0  0.00000000000E+00  0.00000000000E+00  0.50698963317E+03  0.50698963320E+03  0.50400001928E-02 0.  1.
       -1   -1    0    0    0  501  0.00000000000E+00  0.00000000000E+00 -0.50588480317E+03  0.50588480320E+03  0.50400001928E-02 0. -1.
    10030    2    1    2    0    0  0.00000000000E+00  0.00000000000E+00  0.11048300008E+01  0.10128744364E+04  0.10128738338E+04 0.  0.
        4    1    3    3  502    0  0.14969805424E+03  0.40710944999E+03  0.26195097563E+03  0.50672234828E+03  0.12699999809E+01 0.  1.
       -4    1    3    3    0  502 -0.14969805424E+03 -0.40710944999E+03 -0.26084614563E+03  0.50615208812E+03  0.12699999809E+01 0. -1.
</event>
<event>
 5   0  0.1656859E-02  0.1005820E+04  0.7818609E-02  0.9302184E-01
        2   -1    0    0  501    0  0.00000000000E+00  0.00000000000E+00  0.27581485237E+04  0.27581485237E+04  0.25500000920E-02 0.  1.
       -2   -1    0    0    0  501  0.00000000000E+00  0.00000000000E+00 -0.91698663234E+02  0.91698663269E+02  0.25500000920E-02 0. -1.
    10030    2    1    2    0    0  0.00000000000E+00  0.00000000000E+00  0.26664498604E+04  0.28498471870E+04  0.10058201284E+04 0.  0.
        4    1    3    3  502    0 -0.11143608385E+03 -0.13504999912E+03  0.26689968599E+04  0.26747340716E+04  0.12699999809E+01 0.  1.
       -4    1    3    3    0  502  0.11143608385E+03  0.13504999912E+03 -0.25469994385E+01  0.17511311531E+03  0.12699999809E+01 0. -1.
</event>
<event>
 5   0  0.1000773E-02  0.9872164E+03  0.7818609E-02  0.9322678E-01
        1   -1    0    0  501    0  0.00000000000E+00  0.00000000000E+00  0.39347201350E+03  0.39347201353E+03  0.50400001928E-02 0.  1.
       -1   -1    0    0    0  501  0.00000000000E+00  0.00000000000E+00 -0.61922840138E+03  0.61922840140E+03  0.50400001928E-02 0. -1.
    10030    2    1    2    0    0  0.00000000000E+00  0.00000000000E+00 -0.22575638788E+03  0.10127004149E+04  0.98721638142E+03 0.  0.
        3    1    3    3  502    0 -0.41091671916E+03  0.26002736499E+03 -0.19981407261E+03  0.52573040091E+03  0.10100000352E+00 0. -1.
       -3    1    3    3    0  502  0.41091671916E+03 -0.26002736499E+03 -0.25942315273E+02  0.48697001402E+03  0.10100000352E+00 0.  1.
</event>
<event>
 5   0  0.9471140E-03  0.1038226E+04  0.7818609E-02  0.9267585E-01
        1   -1    0    0  501    0  0.00000000000E+00  0.00000000000E+00  0.10128511170E+04  0.10128511170E+04  0.50400001928E-02 0. -1.
       -1   -1    0    0    0  501  0.00000000000E+00  0.00000000000E+00 -0.26605929155E+03  0.26605929160E+03  0.50400001928E-02 0.  1.
    10030    2    1    2    0    0  0.00000000000E+00  0.00000000000E+00  0.74679182546E+03  0.12789104086E+04  0.10382262772E+04 0.  0.
        4    1    3    3  502    0  0.50919797261E+03  0.33793440831E+02  0.25619614400E+03  0.57101895683E+03  0.12699999809E+01 0.  1.
       -4    1    3    3    0  502 -0.50919797261E+03 -0.33793440831E+02  0.49059568146E+03  0.70789145179E+03  0.12699999809E+01 0. -1.
</event>
<event>
 5   0  0.9759443E-03  0.9956142E+03  0.7818609E-02  0.9313368E-01
        1   -1    0    0  501    0  0.00000000000E+00  0.00000000000E+00  0.41919603132E+03  0.41919603136E+03  0.50400001928E-02 0.  1.
       -1   -1    0    0    0  501  0.00000000000E+00  0.00000000000E+00 -0.59115990512E+03  0.59115990515E+03  0.50400001928E-02 0. -1.
    10030    2    1    2    0    0  0.00000000000E+00  0.00000000000E+00 -0.17196387380E+03  0.10103559365E+04  0.99561415445E+03 0.  0.
        2    1    3    3  502    0 -0.26120804892E+03  0.24687409052E+03 -0.43551682467E+03  0.56466925361E+03  0.25500000920E-02 0. -1.
       -2    1    3    3    0  502  0.26120804892E+03 -0.24687409052E+03  0.26355295087E+03  0.44568668289E+03  0.25500000920E-02 0.  1.
</event>
<event>
 5   0  0.1663497E-02  0.1021970E+04  0.7818609E-02  0.9284771E-01
        2   -1    0    0  501    0  0.00000000000E+00  0.00000000000E+00  0.96019401911E+03  0.96019401911E+03  0.25500000920E-02 0.  1.
       -2   -1    0    0    0  501  0.00000000000E+00  0.00000000000E+00 -0.27193022880E+03  0.27193022881E+03  0.25500000920E-02 0. -1.
    10030    2    1    2    0    0  0.00000000000E+00  0.00000000000E+00  0.68826379031E+03  0.12321242479E+04  0.10219702135E+04 0.  0.
        1    1    3    3  502    0  0.18211985538E+03 -0.52943634814E+02  0.91618701923E+03  0.93561173808E+03  0.50400001928E-02 0.  1.
       -1    1    3    3    0  502 -0.18211985538E+03  0.52943634814E+02 -0.22792322892E+03  0.29651250985E+03  0.50400001928E-02 0. -1.
</event>
<event>
 5   0  0.9507815E-03  0.7422260E+03  0.7818609E-02  0.9647626E-01
       -1   -1    0    0    0  501  0.00000000000E+00  0.00000000000E+00  0.15211208804E+03  0.15211208813E+03  0.50400001928E-02 0. -1.
        1   -1    0    0  501    0  0.00000000000E+00  0.00000000000E+00 -0.90541685044E+03  0.90541685045E+03  0.50400001928E-02 0.  1.
    10030    2    1    2    0    0  0.00000000000E+00  0.00000000000E+00 -0.75330476239E+03  0.10575289386E+04  0.74222597023E+03 0.  0.
        1    1    3    3  502    0  0.24222529974E+03  0.19706574903E+03 -0.66238518251E+03  0.73229921160E+03  0.50400001928E-02 0.  1.
       -1    1    3    3    0  502 -0.24222529974E+03 -0.19706574903E+03 -0.90919579882E+02  0.32522972698E+03  0.50400001928E-02 0. -1.
</event>
<event>
 5   0  0.1663497E-02  0.1236592E+04  0.7818609E-02  0.9081417E-01
       -2   -1    0    0    0  501  0.00000000000E+00  0.00000000000E+00  0.75483048187E+03  0.75483048187E+03  0.25500000920E-02 0. -1.
        2   -1    0    0  501    0  0.00000000000E+00  0.00000000000E+00 -0.50645827976E+03  0.50645827977E+03  0.25500000920E-02 0.  1.
    10030    2    1    2    0    0  0.00000000000E+00  0.00000000000E+00  0.24837220211E+03  0.12612887616E+04  0.12365923295E+04 0.  0.
        1    1    3    3  502    0  0.22881034897E+03 -0.34895368611E+03 -0.34117944738E+03  0.53900488512E+03  0.50400001928E-02 0.  1.
       -1    1    3    3    0  502 -0.22881034897E+03  0.34895368611E+03  0.58955164949E+03  0.72228387652E+03  0.50400001928E-02 0. -1.
</event>
<event>
 5   0  0.1571895E-02  0.7730522E+03  0.7818609E-02  0.9599863E-01
       -2   -1    0    0    0  501  0.00000000000E+00  0.00000000000E+00  0.11159970817E+03  0.11159970819E+03  0.25500000920E-02 0.  1.
        2   -1    0    0  501    0  0.00000000000E+00  0.00000000000E+00 -0.13387347715E+04  0.13387347715E+04  0.25500000920E-02 0. -1.
    10030    2    1    2    0    0  0.00000000000E+00  0.00000000000E+00 -0.12271350633E+04  0.14503344797E+04  0.77305215822E+03 0.  0.
        2    1    3    3  502    0 -0.33290095560E+03 -0.56719403806E+02 -0.26076681387E+03  0.42666083513E+03  0.25500000920E-02 0.  1.
       -2    1    3    3    0  502  0.33290095560E+03  0.56719403806E+02 -0.96636824946E+03  0.10236736446E+04  0.25500000920E-02 0. -1.
</event>
<event>
 5   0  0.1656859E-02  0.6757507E+03  0.7818609E-02  0.9759625E-01
       -2   -1    0    0    0  501  0.00000000000E+00  0.00000000000E+00  0.66027467938E+02  0.66027467987E+02  0.25500000920E-02 0.  1.
        2   -1    0    0  501    0  0.00000000000E+00  0.00000000000E+00 -0.17289734701E+04  0.17289734701E+04  0.25500000920E-02 0. -1.
    10030    2    1    2    0    0  0.00000000000E+00  0.00000000000E+00 -0.16629460022E+04  0.17950009381E+04  0.67575066529E+03 0.  0.
        4    1    3    3  502    0  0.11205856916E+03 -0.30556376646E+03 -0.59046840850E+03  0.67422614354E+03  0.12699999809E+01 0.  1.
       -4    1    3    3    0  502 -0.11205856916E+03  0.30556376646E+03 -0.10724775937E+04  0.11207747946E+04  0.12699999809E+01 0. -1.
</event>
<event>
 5   0  0.9759443E-03  0.9808612E+03  0.7818609E-02  0.9329789E-01
       -1   -1    0    0    0  501  0.00000000000E+00  0.00000000000E+00  0.23644226698E+03  0.23644226703E+03  0.50400001928E-02 0. -1.
        1   -1    0    0  501    0  0.00000000000E+00  0.00000000000E+00 -0.10172554409E+04  0.10172554410E+04  0.50400001928E-02 0.  1.
    10030    2    1    2    0    0  0.00000000000E+00  0.00000000000E+00 -0.78081317397E+03  0.12536977080E+04  0.98086121872E+03 0.  0.
        2    1    3    3  502    0 -0.30416103976E+02 -0.47468869040E+03 -0.23773363365E+03  0.53176289148E+03  0.25500000920E-02 0. -1.
       -2    1    3    3    0  502  0.30416103976E+02  0.47468869040E+03 -0.54307954031E+03  0.72193481651E+03  0.25500000920E-02 0.  1.
</event>
<event>
 5   0  0.9507815E-03  0.1005023E+04  0.7818609E-02  0.9303053E-01
        1   -1    0    0  501    0  0.00000000000E+00  0.00000000000E+00  0.61565540295E+03  0.61565540297E+03  0.50400001928E-02 0. -1.
       -1   -1    0    0    0  501  0.00000000000E+00  0.00000000000E+00 -0.41016098500E+03  0.41016098503E+03  0.50400001928E-02 0.  1.
    10030    2    1    2    0    0  0.00000000000E+00  0.00000000000E+00  0.20549441795E+03  0.10258163880E+04  0.10050230376E+04 0.  0.
        1    1    3    3  502    0 -0.32505927593E+03 -0.30595463047E+00  0.49389132526E+03  0.59126328118E+03  0.50400001928E-02 0. -1.
       -1    1    3    3    0  502  0.32505927593E+03  0.30595463047E+00 -0.28839690732E+03  0.43455310682E+03  0.50400001928E-02 0.  1.
</event>
<event>
 5   0  0.1656859E-02  0.1001283E+04  0.7818609E-02  0.9307138E-01
       -2   -1    0    0    0  501  0.00000000000E+00  0.00000000000E+00  0.19764477717E+03  0.19764477719E+03  0.25500000920E-02 0. -1.
        2   -1    0    0  501    0  0.00000000000E+00  0.00000000000E+00 -0.12681443672E+04  0.12681443672E+04  0.25500000920E-02 0.  1.
    10030    2    1    2    0    0  0.00000000000E+00  0.00000000000E+00 -0.10704995900E+04  0.14657891444E+04  0.10012833982E+04 0.  0.
        4    1    3    3  502    0 -0.40504822275E+03  0.26613232552E+03 -0.35153038251E+03  0.59872005158E+03  0.12699999809E+01 0. -1.
       -4    1    3    3    0  502  0.40504822275E+03 -0.26613232552E+03 -0.71896920751E+03  0.86706909280E+03  0.12699999809E+01 0.  1.
</event>
<event>
 5   0  0.1617721E-02  0.1067393E+04  0.7818609E-02  0.9237569E-01
       -2   -1    0    0    0  501  0.00000000000E+00  0.00000000000E+00  0.13337996471E+03  0.13337996474E+03  0.25500000920E-02 0. -1.
        2   -1    0    0  501    0  0.00000000000E+00  0.00000000000E+00 -0.21354937752E+04  0.21354937752E+04  0.25500000920E-02 0.  1.
    10030    2    1    2    0    0  0.00000000000E+00  0.00000000000E+00 -0.20021138105E+04  0.22688737400E+04  0.10673932442E+04 0.  0.
        5    1    3    3  502    0 -0.95901662078E+02 -0.19479264431E+03  0.35210567446E+02  0.22000722062E+03  0.46999998093E+01 0. -1.
       -5    1    3    3    0  502  0.95901662078E+02  0.19479264431E+03 -0.20373243780E+04  0.20488665194E+04  0.46999998093E+01 0.  1.
</event>
<event>
 5   0  0.9759443E-03  0.1004383E+04  0.7818609E-02  0.9303751E-01
       -1   -1    0    0    0  501  0.00000000000E+00  0.00000000000E+00  0.18704240995E+03  0.18704241002E+03  0.50400001928E-02 0.  1.
        1   -1    0    0  501    0  0.00000000000E+00  0.00000000000E+00 -0.13483377228E+04  0.13483377228E+04  0.50400001928E-02 0. -1.
    10030    2    1    2    0    0  0.00000000000E+00  0.00000000000E+00 -0.11612953128E+04  0.15353801328E+04  0.10043830687E+04 0.  0.
        2    1    3    3  502    0 -0.19510745025E+03  0.35348951296E+03 -0.12415154723E+03  0.42241609771E+03  0.25500000920E-02 0.  1.
       -2    1    3    3    0  502  0.19510745025E+03 -0.35348951296E+03 -0.10371437656E+04  0.11129640351E+04  0.25500000920E-02 0. -1.
</event>
<event>
 5   0  0.6314750E-03  0.1022817E+04  0.7818609E-02  0.9283867E-01
        3   -1    0    0  501    0  0.00000000000E+00  0.00000000000E+00  0.33734676744E+03  0.33734678256E+03  0.10100000352E+00 0. -1.
       -3   -1    0    0    0  501  0.00000000000E+00  0.00000000000E+00 -0.77528159271E+03  0.77528159928E+03  0.10100000352E+00 0.  1.
    10030    2    1    2    0    0  0.00000000000E+00  0.00000000000E+00 -0.43793482527E+03  0.11126283818E+04  0.10228171904E+04 0.  0.
        1    1    3    3  502    0  0.30722789183E+03  0.30220300402E+03  0.80571283783E+02  0.43841460395E+03  0.50400001928E-02 0. -1.
       -1    1    3    3    0  502 -0.30722789183E+03 -0.30220300402E+03 -0.51850610905E+03  0.67421377790E+03  0.50400001928E-02 0.  1.
</event>
<event>
 5   0  0.1000773E-02  0.1030766E+04  0.7818609E-02  0.9275430E-01
       -1   -1    0    0    0  501  0.00000000000E+00  0.00000000000E+00  0.91003151339E+03  0.91003151340E+03  0.50400001928E-02 0. -1.
        1   -1    0    0  501    0  0.00000000000E+00  0.00000000000E+00 -0.29187968131E+03  0.29187968136E+03  0.50400001928E-02 0.  1.
    10030    2    1    2    0    0  0.00000000000E+00  0.00000000000E+00  0.61815183208E+03  0.12019111948E+04  0.10307661387E+04 0.  0.
        3    1    3    3  502    0  0.11440416187E+03  0.25587035942E+03 -0.19524238397E+03  0.34158095934E+03  0.10100000352E+00 0.  1.
       -3    1    3    3    0  502 -0.11440416187E+03 -0.25587035942E+03  0.81339421604E+03  0.86033023542E+03  0.10100000352E+00 0. -1.
</event>
<event>
 5   0  0.1571895E-02  0.9767394E+03  0.7818609E-02  0.9334431E-01
        2   -1    0    0  501    0  0.00000000000E+00  0.00000000000E+00  0.53764737502E+03  0.53764737503E+03  0.25500000920E-02 0.  1.
       -2   -1    0    0    0  501  0.00000000000E+00  0.00000000000E+00 -0.44360856087E+03  0.44360856088E+03  0.25500000920E-02 0. -1.
    10030    2    1    2    0    0  0.00000000000E+00  0.00000000000E+00  0.94038814155E+02  0.98125593590E+03  0.97673942952E+03 0.  0.
        2    1    3    3  502    0 -0.43826925232E+02  0.15198372466E+03  0.51120043770E+03  0.53511282871E+03  0.25500000920E-02 0.  1.
       -2    1    3    3    0  502  0.43826925232E+02 -0.15198372466E+03 -0.41716162354E+03  0.44614310720E+03  0.25500000920E-02 0. -1.
</event>
<event>
 5   0  0.1656859E-02  0.9895663E+03  0.7818609E-02  0.9320063E-01
       -2   -1    0    0    0  501  0.00000000000E+00  0.00000000000E+00  0.32085533349E+03  0.32085533350E+03  0.25500000920E-02 0. -1.
        2   -1    0    0  501    0  0.00000000000E+00  0.00000000000E+00 -0.76299295506E+03  0.76299295506E+03  0.25500000920E-02 0.  1.
    10030    2    1    2    0    0  0.00000000000E+00  0.00000000000E+00 -0.44213762157E+03  0.10838482886E+04  0.98956628692E+03 0.  0.
        4    1    3    3  502    0 -0.24435890438E+03  0.25851011460E+03  0.15560106601E+03  0.38826802359E+03  0.12699999809E+01 0. -1.
       -4    1    3    3    0  502  0.24435890438E+03 -0.25851011460E+03 -0.59773868758E+03  0.69558026497E+03  0.12699999809E+01 0.  1.
</event>
<event>
 5   0  0.9507815E-03  0.9931175E+03  0.7818609E-02  0.9316126E-01
       -1   -1    0    0    0  501  0.00000000000E+00  0.00000000000E+00  0.58484478556E+03  0.58484478558E+03  0.50400001928E-02 0. -1.
        1   -1    0    0  501    0  0.00000000000E+00  0.00000000000E+00 -0.42160003857E+03  0.42160003860E+03  0.50400001928E-02 0.  1.
    10030    2    1    2    0    0  0.00000000000E+00  0.00000000000E+00  0.16324474698E+03  0.10064448242E+04  0.99311748384E+03 0.  0.
        1    1    3    3  502    0 -0.39474295923E+03  0.86828000192E+02 -0.21070921305E+03  0.45580640405E+03  0.50400001928E-02 0.  1.
       -1    1    3    3    0  502  0.39474295923E+03 -0.86828000192E+02  0.37395396003E+03  0.55063842014E+03  0.50400001928E-02 0. -1.
</event>
<event>
 5   0  0.9507815E-03  0.1029461E+04  0.7818609E-02  0.9276810E-01
       -1   -1    0    0    0  501  0.00000000000E+00  0.00000000000E+00  0.25757405053E+03  0.25757405058E+03  0.50400001928E-02 0. -1.
        1   -1    0    0  501    0  0.00000000000E+00  0.00000000000E+00 -0.10286262390E+04  0.10286262390E+04  0.50400001928E-02 0.  1.
    10030    2    1    2    0    0  0.00000000000E+00  0.00000000000E+00 -0.77105218850E+03  0.12862002896E+04  0.10294608820E+04 0.  0.
        1    1    3    3  502    0 -0.15818454255E+03  0.87690114605E+02 -0.98761840086E+03  0.10040428335E+04  0.50400001928E-02 0.  1.
       -1    1    3    3    0  502  0.15818454255E+03 -0.87690114605E+02  0.21656621236E+03  0.28215745615E+03  0.50400001928E-02 0. -1.
</event>
<event>
 5   0  0.1598986E-02  0.1009909E+04  0.7818609E-02  0.9297743E-01
       -2   -1    0    0    0  501  0.00000000000E+00  0.00000000000E+00  0.50252252035E+03  0.50252252035E+03  0.25500000920E-02 0.  1.
        2   -1    0    0  501    0  0.00000000000E+00  0.00000000000E+00 -0.50739804588E+03  0.50739804588E+03  0.25500000920E-02 0. -1.
    10030    2    1    2    0    0  0.00000000000E+00  0.00000000000E+00 -0.48755255303E+01  0.10099205662E+04  0.10099087975E+04 0.  0.
        3    1    3    3  502    0 -0.27471368783E+03 -0.12318874265E+02 -0.42595133983E+03  0.50700485110E+03  0.10100000352E+00 0. -1.
       -3    1    3    3    0  502  0.27471368783E+03  0.12318874265E+02  0.42107581429E+03  0.50291571513E+03  0.10100000352E+00 0.  1.
</event>
<event>
 5   0  0.9471140E-03  0.9671575E+03  0.7818609E-02  0.9345318E-01
        1   -1    0    0  501    0  0.00000000000E+00  0.00000000000E+00  0.98989521046E+03  0.98989521047E+03  0.50400001928E-02 0.  1.
       -1   -1    0    0    0  501  0.00000000000E+00  0.00000000000E+00 -0.23623550584E+03  0.23623550590E+03  0.50400001928E-02 0. -1.
    10030    2    1    2    0    0  0.00000000000E+00  0.00000000000E+00  0.75365970461E+03  0.12261307164E+04  0.96715747594E+03 0.  0.
        4    1    3    3  502    0  0.82970672394E+02 -0.31659659566E+02  0.97946667709E+03  0.98348515543E+03  0.12699999809E+01 0.  1.
       -4    1    3    3    0  502 -0.82970672394E+02  0.31659659566E+02 -0.22580697248E+03  0.24264556093E+03  0.12699999809E+01 0. -1.
</event>
<event>
 5   0  0.9507815E-03  0.1018439E+04  0.7818609E-02  0.9288549E-01
        1   -1    0    0  501    0  0.00000000000E+00  0.00000000000E+00  0.51485146773E+03  0.51485146775E+03  0.50400001928E-02 0. -1.
       -1   -1    0    0    0  501  0.00000000000E+00  0.00000000000E+00 -0.50364921800E+03  0.50364921802E+03  0.50400001928E-02 0.  1.
    10030    2    1    2    0    0  0.00000000000E+00  0.00000000000E+00  0.11202249733E+02  0.10185006858E+04  0.10184390785E+04 0.  0.
        1    1    3    3  502    0 -0.35795765688E+03  0.26948752468E+03  0.24758131521E+03  0.51191182615E+03  0.50400001928E-02 0.  1.
       -1    1    3    3    0  502  0.35795765688E+03 -0.26948752468E+03 -0.23637906548E+03  0.50658885963E+03  0.50400001928E-02 0. -1.
</event>
<event>
 5   0  0.6314750E-03  0.1009972E+04  0.7818609E-02  0.9297675E-01
        3   -1    0    0  501    0  0.00000000000E+00  0.00000000000E+00  0.54880426012E+03  0.54880426941E+03  0.10100000352E+00 0. -1.
       -3   -1    0    0    0  501  0.00000000000E+00  0.00000000000E+00 -0.46466634482E+03  0.46466635579E+03  0.10100000352E+00 0.  1.
    10030    2    1    2    0    0  0.00000000000E+00  0.00000000000E+00  0.84137915299E+02  0.10134706252E+04  0.10099720389E+04 0.  0.
        3    1    3    3  502    0 -0.19796844236E+02 -0.22344511806E+03 -0.41192642601E+03  0.46904480220E+03  0.10100000352E+00 0.  1.
       -3    1    3    3    0  502  0.19796844236E+02  0.22344511806E+03  0.49606434131E+03  0.54442582300E+03  0.10100000352E+00 0. -1.
</event>
<event>
 5   0  0.9507815E-03  0.1036515E+04  0.7818609E-02  0.9269378E-01
       -1   -1    0    0    0  501  0.00000000000E+00  0.00000000000E+00  0.37686726447E+03  0.37686726450E+03  0.50400001928E-02 0. -1.
        1   -1    0    0  501    0  0.00000000000E+00  0.00000000000E+00 -0.71269342673E+03  0.71269342675E+03  0.50400001928E-02 0.  1.
    10030    2    1    2    0    0  0.00000000000E+00  0.00000000000E+00 -0.33582616226E+03  0.10895606912E+04  0.10365149727E+04 0.  0.
        1    1    3    3  502    0  0.22606803672E+03  0.13407694550E+03 -0.63743448165E+03  0.68949699271E+03  0.50400001928E-02 0.  1.
       -1    1    3    3    0  502 -0.22606803672E+03 -0.13407694550E+03  0.30160831939E+03  0.40006369854E+03  0.50400001928E-02 0. -1.
</event>
<event>
 5   0  0.1000773E-02  0.9935926E+03  0.7818609E-02  0.9315600E-01
        1   -1    0    0  501    0  0.00000000000E+00  0.00000000000E+00  0.28556045186E+03  0.28556045191E+03  0.50400001928E-02 0. -1.
       -1   -1    0    0    0  501  0.00000000000E+00  0.00000000000E+00 -0.86428828916E+03  0.86428828918E+03  0.50400001928E-02 0.  1.
    10030    2    1    2    0    0  0.00000000000E+00  0.00000000000E+00 -0.57872783730E+03  0.11498487411E+04  0.99359258135E+03 0.  0.
        3    1    3    3  502    0  0.54878500030E+02 -0.89053642679E+02 -0.85139912314E+03  0.85780107141E+03  0.10100000352E+00 0.  1.
       -3    1    3    3    0  502 -0.54878500030E+02  0.89053642679E+02  0.27267128584E+03  0.29204766967E+03  0.10100000352E+00 0. -1.
</event>
<event>
 5   0  0.1617721E-02  0.8799381E+03  0.7818609E-02  0.9451013E-01
       -2   -1    0    0    0  501  0.00000000000E+00  0.00000000000E+00  0.22848751875E+03  0.22848751876E+03  0.25500000920E-02 0. -1.
        2   -1    0    0  501    0  0.00000000000E+00  0.00000000000E+00 -0.84719180926E+03  0.84719180926E+03  0.25500000920E-02 0.  1.
    10030    2    1    2    0    0  0.00000000000E+00  0.00000000000E+00 -0.61870429051E+03  0.10756793280E+04  0.87993807603E+03 0.  0.
        5    1    3    3  502    0 -0.43909778385E+03  0.23173345368E+02 -0.32693148282E+03  0.54795086657E+03  0.46999998093E+01 0. -1.
       -5    1    3    3    0  502  0.43909778385E+03 -0.23173345368E+02 -0.29177280769E+03  0.52772846145E+03  0.46999998093E+01 0.  1.
</event>
<event>
 5   0  0.9471140E-03  0.7838115E+03  0.7818609E-02  0.9583749E-01
        1   -1    0    0  501    0  0.00000000000E+00  0.00000000000E+00  0.33755158278E+03  0.33755158282E+03  0.50400001928E-02 0.  1.
       -1   -1    0    0    0  501  0.00000000000E+00  0.00000000000E+00 -0.45501233111E+03  0.45501233114E+03  0.50400001928E-02 0. -1.
    10030    2    1    2    0    0  0.00000000000E+00  0.00000000000E+00 -0.11746074833E+03  0.79256391395E+03  0.78381154004E+03 0.  0.
        4    1    3    3  502    0 -0.22734803474E+03  0.22659000024E+03 -0.28609303406E+03  0.42997789960E+03  0.12699999809E+01 0. -1.
       -4    1    3    3    0  502  0.22734803474E+03 -0.22659000024E+03  0.16863228574E+03  0.36258601435E+03  0.12699999809E+01 0.  1.
</event>
<event>
 5   0  0.9507815E-03  0.1044018E+04  0.7818609E-02  0.9261542E-01
       -1   -1    0    0    0  501  0.00000000000E+00  0.00000000000E+00  0.28989571047E+03  0.28989571052E+03  0.50400001928E-02 0. -1.
        1   -1    0    0  501    0  0.00000000000E+00  0.00000000000E+00 -0.93997063282E+03  0.93997063283E+03  0.50400001928E-02 0.  1.
    10030    2    1    2    0    0  0.00000000000E+00  0.00000000000E+00 -0.65007492235E+03  0.12298663434E+04  0.10440181118E+04 0.  0.
        1    1    3    3  502    0 -0.27707044901E+03 -0.21237101475E+03 -0.78222768254E+03  0.85659186838E+03  0.50400001928E-02 0.  1.
       -1    1    3    3    0  502  0.27707044901E+03  0.21237101475E+03  0.13215276019E+03  0.37327447498E+03  0.50400001928E-02 0. -1.
</event>
<event>
 5   0  0.9507815E-03  0.1008553E+04  0.7818609E-02  0.9299213E-01
       -1   -1    0    0    0  501  0.00000000000E+00  0.00000000000E+00  0.14284753472E+03  0.14284753481E+03  0.50400001928E-02 0. -1.
        1   -1    0    0  501    0  0.00000000000E+00  0.00000000000E+00 -0.17801846790E+04  0.17801846790E+04  0.50400001928E-02 0.  1.
    10030    2    1    2    0    0  0.00000000000E+00  0.00000000000E+00 -0.16373371443E+04  0.19230322138E+04  0.10085534053E+04 0.  0.
        1    1    3    3  502    0 -0.33689143910E+03 -0.36818568541E+03 -0.68066537454E+03  0.84401533919E+03  0.50400001928E-02 0. -1.
       -1    1    3    3    0  502  0.33689143910E+03  0.36818568541E+03 -0.95667176976E+03  0.10790168746E+04  0.50400001928E-02 0.  1.
</event>
<event>
 5   0  0.1617721E-02  0.9786708E+03  0.7818609E-02  0.9332253E-01
        2   -1    0    0  501    0  0.00000000000E+00  0.00000000000E+00  0.93139231125E+03  0.93139231126E+03  0.25500000920E-02 0.  1.
       -2   -1    0    0    0  501  0.00000000000E+00  0.00000000000E+00 -0.25708727336E+03  0.25708727337E+03  0.25500000920E-02 0. -1.
    10030    2    1    2    0    0  0.00000000000E+00  0.00000000000E+00  0.67430503789E+03  0.11884795846E+04  0.97867075104E+03 0.  0.
        5    1    3    3  502    0  0.60947002429E+02 -0.45911403648E+03  0.52888171153E+03  0.70302076099E+03  0.46999998093E+01 0.  1.
       -5    1    3    3    0  502 -0.60947002429E+02  0.45911403648E+03  0.14542332636E+03  0.48545882363E+03  0.46999998093E+01 0. -1.
</event>
<event>
 5   0  0.1656859E-02  0.9577163E+03  0.7818609E-02  0.9356177E-01
       -2   -1    0    0    0  501  0.00000000000E+00  0.00000000000E+00  0.42076814326E+03  0.42076814326E+03  0.25500000920E-02 0. -1.
        2   -1    0    0  501    0  0.00000000000E+00  0.00000000000E+00 -0.54496788753E+03  0.54496788754E+03  0.25500000920E-02 0.  1.
    10030    2    1    2    0    0  0.00000000000E+00  0.00000000000E+00 -0.12419974428E+03  0.96573603080E+03  0.95771629657E+03 0.  0.
        4    1    3    3  502    0 -0.36802856990E+03  0.19162060620E+03  0.17894160659E+03  0.45186856103E+03  0.12699999809E+01 0.  1.
       -4    1    3    3    0  502  0.36802856990E+03 -0.19162060620E+03 -0.30314135086E+03  0.51386746977E+03  0.12699999809E+01 0. -1.
</event>
<event>
 5   0  0.9396660E-03  0.1045268E+04  0.7818609E-02  0.9260243E-01
        1   -1    0    0  501    0  0.00000000000E+00  0.00000000000E+00  0.81247844047E+03  0.81247844049E+03  0.50400001928E-02 0. -1.
       -1   -1    0    0    0  501  0.00000000000E+00  0.00000000000E+00 -0.33618911477E+03  0.33618911480E+03  0.50400001928E-02 0.  1.
    10030    2    1    2    0    0  0.00000000000E+00  0.00000000000E+00  0.47628932570E+03  0.11486675553E+04  0.10452682100E+04 0.  0.
        5    1    3    3  502    0 -0.44881941347E+03  0.26004368067E+03  0.16809986120E+03  0.54529004676E+03  0.46999998093E+01 0.  1.
       -5    1    3    3    0  502  0.44881941347E+03 -0.26004368067E+03  0.30818946451E+03  0.60337750853E+03  0.46999998093E+01 0. -1.
</event>
<event>
 5   0  0.1656859E-02  0.9926590E+03  0.7818609E-02  0.9316633E-01
        2   -1    0    0  501    0  0.00000000000E+00  0.00000000000E+00  0.83829239359E+03  0.83829239359E+03  0.25500000920E-02 0. -1.
       -2   -1    0    0    0  501  0.00000000000E+00  0.00000000000E+00 -0.29386284006E+03  0.29386284007E+03  0.25500000920E-02 0.  1.
    10030    2    1    2    0    0  0.00000000000E+00  0.00000000000E+00  0.54442955353E+03  0.11321552337E+04  0.99265902220E+03 0.  0.
        4    1    3    3  502    0 -0.85625766840E+02  0.38436091904E+03 -0.72361089477E+02  0.40037835631E+03  0.12699999809E+01 0.  1.
       -4    1    3    3    0  502  0.85625766840E+02 -0.38436091904E+03  0.61679064301E+03  0.73177687736E+03  0.12699999809E+01 0. -1.
</event>
<event>
 5   0  0.1000773E-02  0.9712230E+03  0.7818609E-02  0.9340682E-01
        1   -1    0    0  501    0  0.00000000000E+00  0.00000000000E+00  0.77612063593E+03  0.77612063595E+03  0.50400001928E-02 0. -1.
       -1   -1    0    0    0  501  0.00000000000E+00  0.00000000000E+00 -0.30384261683E+03  0.30384261687E+03  0.50400001928E-02 0.  1.
    10030    2    1    2    0    0  0.00000000000E+00  0.00000000000E+00  0.47227801911E+03  0.10799632528E+04  0.97122299196E+03 0.  0.
        3    1    3    3  502    0 -0.24735177129E+03 -0.34807910925E+02 -0.22692886694E+03  0.33747771819E+03  0.10100000352E+00 0.  1.
       -3    1    3    3    0  502  0.24735177129E+03  0.34807910925E+02  0.69920688605E+03  0.74248553462E+03  0.10100000352E+00 0. -1.
</event>
<event>
 5   0  0.1571895E-02  0.9770007E+03  0.7818609E-02  0.9334136E-01
        2   -1    0    0  501    0  0.00000000000E+00  0.00000000000E+00  0.39650139077E+03  0.39650139077E+03  0.25500000920E-02 0.  1.
       -2   -1    0    0    0  501  0.00000000000E+00  0.00000000000E+00 -0.60184558946E+03  0.60184558946E+03  0.25500000920E-02 0. -1.
    10030    2    1    2    0    0  0.00000000000E+00  0.00000000000E+00 -0.20534419869E+03  0.99834698024E+03  0.97700074361E+03 0.  0.
        2    1    3    3  502    0 -0.27332454808E+03 -0.45931395876E+02 -0.51372542452E+03  0.58372066394E+03  0.25500000920E-02 0. -1.
       -2    1    3    3    0  502  0.27332454808E+03  0.45931395876E+02  0.30838122583E+03  0.41462631629E+03  0.25500000920E-02 0.  1.
</event>
<event>
 5   0  0.1663497E-02  0.9361734E+03  0.7818609E-02  0.9381459E-01
        2   -1    0    0  501    0  0.00000000000E+00  0.00000000000E+00  0.89137875548E+03  0.89137875548E+03  0.25500000920E-02 0. -1.
       -2   -1    0    0    0  501  0.00000000000E+00  0.00000000000E+00 -0.24580476500E+03  0.24580476502E+03  0.25500000920E-02 0.  1.
    10030    2    1    2    0    0  0.00000000000E+00  0.00000000000E+00  0.64557399047E+03  0.11371835205E+04  0.93617337182E+03 0.  0.
        1    1    3    3  502    0 -0.43699233128E+03  0.75219562464E+02  0.14064108734E+03  0.46518834427E+03  0.50400001928E-02 0.  1.
       -1    1    3    3    0  502  0.43699233128E+03 -0.75219562464E+02  0.50493290313E+03  0.67199517622E+03  0.50400001928E-02 0. -1.
</event>
<event>
 5   0  0.9471140E-03  0.7514313E+03  0.7818609E-02  0.9633108E-01
        1   -1    0    0  501    0  0.00000000000E+00  0.00000000000E+00  0.11899216270E+04  0.11899216270E+04  0.50400001928E-02 0. -1.
       -1   -1    0    0    0  501  0.00000000000E+00  0.00000000000E+00 -0.11863155131E+03  0.11863155142E+03  0.50400001928E-02 0.  1.
    10030    2    1    2    0    0  0.00000000000E+00  0.00000000000E+00  0.10712900757E+04  0.13085531785E+04  0.75143129727E+03 0.  0.
        4    1    3    3  502    0  0.28325704944E+03 -0.25219365566E+02  0.10805757105E+03  0.30421805341E+03  0.12699999809E+01 0.  1.
       -4    1    3    3    0  502 -0.28325704944E+03  0.25219365566E+02  0.96323250468E+03  0.10043351251E+04  0.12699999809E+01 0. -1.
</event>
<event>
 5   0  0.1663497E-02  0.9407022E+03  0.7818609E-02  0.9376085E-01
        2   -1    0    0  501    0  0.00000000000E+00  0.00000000000E+00  0.66411237836E+03  0.66411237836E+03  0.25500000920E-02 0.  1.
       -2   -1    0    0    0  501  0.00000000000E+00  0.00000000000E+00 -0.33312158550E+03  0.33312158551E+03  0.25500000920E-02 0. -1.
    10030    2    1    2    0    0  0.00000000000E+00  0.00000000000E+00  0.33099079285E+03  0.99723396388E+03  0.94070222374E+03 0.  0.
        1    1    3    3  502    0 -0.17188996345E+03  0.34597603481E+03 -0.11892757223E+03  0.40421447730E+03  0.50400001928E-02 0. -1.
       -1    1    3    3    0  502  0.17188996345E+03 -0.34597603481E+03  0.44991836508E+03  0.59301948658E+03  0.50400001928E-02 0.  1.
</event>
<event>
 5   0  0.6314750E-03  0.9957216E+03  0.7818609E-02  0.9313250E-01
        4   -1    0    0  501    0  0.00000000000E+00  0.00000000000E+00  0.41273017680E+03  0.41273213074E+03  0.12699999809E+01 0.  1.
       -4   -1    0    0    0  501  0.00000000000E+00  0.00000000000E+00 -0.60054666337E+03  0.60054800623E+03  0.12699999809E+01 0. -1.
    10030    2    1    2    0    0  0.00000000000E+00  0.00000000000E+00 -0.18781648657E+03  0.10132801370E+04  0.99572164953E+03 0.  0.
        3    1    3    3  502    0 -0.40072365900E+02  0.49382212068E+03 -0.14375474607E+03  0.51587936439E+03  0.10100000352E+00 0. -1.
       -3    1    3    3    0  502  0.40072365900E+02 -0.49382212068E+03 -0.44061740500E+02  0.49740077258E+03  0.10100000352E+00 0.  1.
</event>
<event>
 5   0  0.1656859E-02  0.9517180E+03  0.7818609E-02  0.9363145E-01
       -2   -1    0    0    0  501  0.00000000000E+00  0.00000000000E+00  0.30535615832E+03  0.30535615833E+03  0.25500000920E-02 0. -1.
        2   -1    0    0  501    0  0.00000000000E+00  0.00000000000E+00 -0.74156617143E+03  0.74156617144E+03  0.25500000920E-02 0.  1.
    10030    2    1    2    0    0  0.00000000000E+00  0.00000000000E+00 -0.43621001312E+03  0.10469223298E+04  0.95171801969E+03 0.  0.
        4    1    3    3  502    0  0.14107313724E+03  0.44668593662E+03 -0.31020768336E+03  0.56183660947E+03  0.12699999809E+01 0.  1.
       -4    1    3    3    0  502 -0.14107313724E+03 -0.44668593662E+03 -0.12600232976E+03  0.48508572029E+03  0.12699999809E+01 0. -1.
</event>
<event>
 5   0  0.1598986E-02  0.1024688E+04  0.7818609E-02  0.9281874E-01
       -2   -1    0    0    0  501  0.00000000000E+00  0.00000000000E+00  0.17023921014E+03  0.17023921016E+03  0.25500000920E-02 0.  1.
        2   -1    0    0  501    0  0.00000000000E+00  0.00000000000E+00 -0.15419271172E+04  0.15419271172E+04  0.25500000920E-02 0. -1.
    10030    2    1    2    0    0  0.00000000000E+00  0.00000000000E+00 -0.13716879070E+04  0.17121663273E+04  0.10246881566E+04 0.  0.
        3    1    3    3  502    0 -0.45824612163E+03  0.21446933546E+03 -0.82065932380E+03  0.96408938371E+03  0.10100000352E+00 0. -1.
       -3    1    3    3    0  502  0.45824612163E+03 -0.21446933546E+03 -0.55102858321E+03  0.74807694361E+03  0.10100000352E+00 0.  1.
</event>
<event>
 5   0  0.9759443E-03  0.9748834E+03  0.7818609E-02  0.9336529E-01
       -1   -1    0    0    0  501  0.00000000000E+00  0.00000000000E+00  0.43680227975E+03  0.43680227978E+03  0.50400001928E-02 0.  1.
        1   -1    0    0  501    0  0.00000000000E+00  0.00000000000E+00 -0.54395188148E+03  0.54395188151E+03  0.50400001928E-02 0. -1.
    10030    2    1    2    0    0  0.00000000000E+00  0.00000000000E+00 -0.10714960173E+03  0.98075416129E+03  0.97488342263E+03 0.  0.
        2    1    3    3  502    0  0.27156329071E+02  0.30746609723E+03  0.32595898479E+03  0.44891215948E+03  0.25500000920E-02 0.  1.
       -2    1    3    3    0  502 -0.27156329071E+02 -0.30746609723E+03 -0.43310858652E+03  0.53184200180E+03  0.25500000920E-02 0. -1.
</event>
<event>
 5   0  0.9471140E-03  0.9771814E+03  0.7818609E-02  0.9333932E-01
        1   -1    0    0  501    0  0.00000000000E+00  0.00000000000E+00  0.90731794878E+03  0.90731794880E+03  0.50400001928E-02 0. -1.
       -1   -1    0    0    0  501  0.00000000000E+00  0.00000000000E+00 -0.26310609868E+03  0.26310609873E+03  0.50400001928E-02 0.  1.
    10030    2    1    2    0    0  0.00000000000E+00  0.00000000000E+00  0.64421185011E+03  0.11704240475E+04  0.97718142799E+03 0.  0.
        4    1    3    3  502    0  0.67480289078E+02  0.48817092507E+02 -0.25453893272E+03  0.26782154339E+03  0.12699999809E+01 0.  1.
       -4    1    3    3    0  502 -0.67480289078E+02 -0.48817092507E+02  0.89875078283E+03  0.90260250413E+03  0.12699999809E+01 0. -1.
</event>
<event>
 5   0  0.1000773E-02  0.7818113E+03  0.7818609E-02  0.9586724E-01
        1   -1    0    0  501    0  0.00000000000E+00  0.00000000000E+00  0.43590799774E+03  0.43590799777E+03  0.50400001928E-02 0.  1.
       -1   -1    0    0    0  501  0.00000000000E+00  0.00000000000E+00 -0.35054924506E+03  0.35054924510E+03  0.50400001928E-02 0. -1.
    10030    2    1    2    0    0  0.00000000000E+00  0.00000000000E+00  0.85358752676E+02  0.78645724287E+03  0.78181128043E+03 0.  0.
        3    1    3    3  502    0  0.26821967658E+03  0.16447240674E+02  0.32825883875E+03  0.42422421200E+03  0.10100000352E+00 0.  1.
       -3    1    3    3    0  502 -0.26821967658E+03 -0.16447240674E+02 -0.24290008607E+03  0.36223303086E+03  0.10100000352E+00 0. -1.
</event>
<event>
 5   0  0.1000773E-02  0.9935592E+03  0.7818609E-02  0.9315637E-01
       -1   -1    0    0    0  501  0.00000000000E+00  0.00000000000E+00  0.18748241886E+03  0.18748241892E+03  0.50400001928E-02 0.  1.
        1   -1    0    0  501    0  0.00000000000E+00  0.00000000000E+00 -0.13163365567E+04  0.13163365567E+04  0.50400001928E-02 0. -1.
    10030    2    1    2    0    0  0.00000000000E+00  0.00000000000E+00 -0.11288541379E+04  0.15038189757E+04  0.99355918142E+03 0.  0.
        3    1    3    3  502    0  0.12800571128E+03  0.18330498967E+03  0.10703042712E+03  0.24787437118E+03  0.10100000352E+00 0.  1.
       -3    1    3    3    0  502 -0.12800571128E+03 -0.18330498967E+03 -0.12358845650E+04  0.12559446045E+04  0.10100000352E+00 0. -1.
</event>
<event>
 5   0  0.1663497E-02  0.9734687E+03  0.7818609E-02  0.9338132E-01
        2   -1    0    0  501    0  0.00000000000E+00  0.00000000000E+00  0.13016906936E+04  0.13016906936E+04  0.25500000920E-02 0.  1.
       -2   -1    0    0    0  501  0.00000000000E+00  0.00000000000E+00 -0.18200200020E+03  0.18200200022E+03  0.25500000920E-02 0. -1.
    10030    2    1    2    0    0  0.00000000000E+00  0.00000000000E+00  0.11196886934E+04  0.14836926938E+04  0.97346866387E+03 0.  0.
        1    1    3    3  502    0  0.40839237895E+03  0.86901440496E+02  0.17858601985E+03  0.45412461072E+03  0.50400001928E-02 0. -1.
       -1    1    3    3    0  502 -0.40839237895E+03 -0.86901440496E+02  0.94110267352E+03  0.10295680831E+04  0.50400001928E-02 0.  1.
</event>
<event>
 5   0  0.1617721E-02  0.1169555E+04  0.7818609E-02  0.9139930E-01
       -2   -1    0    0    0  501  0.00000000000E+00  0.00000000000E+00  0.26441155075E+03  0.26441155076E+03  0.25500000920E-02 0. -1.
        2   -1    0    0  501    0  0.00000000000E+00  0.00000000000E+00 -0.12933050512E+04  0.12933050512E+04  0.25500000920E-02 0.  1.
    10030    2    1    2    0    0  0.00000000000E+00  0.00000000000E+00 -0.10288935004E+04  0.15577166019E+04  0.11695551191E+04 0.  0.
        5    1    3    3  502    0 -0.45663883778E+02 -0.30068662597E+03  0.15075780444E+03  0.33948143236E+03  0.46999998093E+01 0. -1.
       -5    1    3    3    0  502  0.45663883778E+02  0.30068662597E+03 -0.11796513049E+04  0.12182351696E+04  0.46999998093E+01 0.  1.
</event>
<event>
 5   0  0.1571895E-02  0.1006493E+04  0.7818609E-02  0.9301452E-01
       -2   -1    0    0    0  501  0.00000000000E+00  0.00000000000E+00  0.23332993341E+03  0.23332993343E+03  0.25500000920E-02 0.  1.
        2   -1    0    0  501    0  0.00000000000E+00  0.00000000000E+00 -0.10854033120E+04  0.10854033120E+04  0.25500000920E-02 0. -1.
    10030    2    1    2    0    0  0.00000000000E+00  0.00000000000E+00 -0.85207337861E+03  0.13187332454E+04  0.10064930850E+04 0.  0.
        2    1    3    3  502    0  0.18045277934E+03 -0.18462229921E+03 -0.99203072062E+03  0.10250724607E+04  0.25500000920E-02 0. -1.
       -2    1    3    3    0  502 -0.18045277934E+03  0.18462229921E+03  0.13995734201E+03  0.29366078479E+03  0.25500000920E-02 0.  1.
</event>
<event>
 5   0  0.9507815E-03  0.9844043E+03  0.7818609E-02  0.9325817E-01
       -1   -1    0    0    0  501  0.00000000000E+00  0.00000000000E+00  0.70657123294E+03  0.70657123296E+03  0.50400001928E-02 0.  1.
        1   -1    0    0  501    0  0.00000000000E+00  0.00000000000E+00 -0.34287125669E+03  0.34287125673E+03  0.50400001928E-02 0. -1.
    10030    2    1    2    0    0  0.00000000000E+00  0.00000000000E+00  0.36369997625E+03  0.10494424897E+04  0.98440432061E+03 0.  0.
        1    1    3    3  502    0  0.17044587334E+03  0.13041332027E+03  0.65406365085E+03  0.68837394578E+03  0.50400001928E-02 0.  1.
       -1    1    3    3    0  502 -0.17044587334E+03 -0.13041332027E+03 -0.29036367460E+03  0.36106854390E+03  0.50400001928E-02 0. -1.
</event>
<event>
 5   0  0.1571895E-02  0.9481714E+03  0.7818609E-02  0.9367291E-01
        2   -1    0    0  501    0  0.00000000000E+00  0.00000000000E+00  0.11163827470E+04  0.11163827470E+04  0.25500000920E-02 0.  1.
       -2   -1    0    0    0  501  0.00000000000E+00  0.00000000000E+00 -0.20132631954E+03  0.20132631956E+03  0.25500000920E-02 0. -1.
    10030    2    1    2    0    0  0.00000000000E+00  0.00000000000E+00  0.91505642744E+03  0.13177090665E+04  0.94817135511E+03 0.  0.
        2    1    3    3  502    0  0.15366122465E+03  0.22974315088E+03  0.99282705125E+03  0.10305819914E+04  0.25500000920E-02 0.  1.
       -2    1    3    3    0  502 -0.15366122465E+03 -0.22974315088E+03 -0.77770623805E+02  0.28712707513E+03  0.25500000920E-02 0. -1.
</event>
<event>
 5   0  0.9507815E-03  0.1012857E+04  0.7818609E-02  0.9294555E-01
        1   -1    0    0  501    0  0.00000000000E+00  0.00000000000E+00  0.46006415266E+03  0.46006415269E+03  0.50400001928E-02 0. -1.
       -1   -1    0    0    0  501  0.00000000000E+00  0.00000000000E+00 -0.55746510878E+03  0.55746510881E+03  0.50400001928E-02 0.  1.
    10030    2    1    2    0    0  0.00000000000E+00  0.00000000000E+00 -0.97400956124E+02  0.10175292615E+04  0.10128567775E+04 0.  0.
        1    1    3    3  502    0 -0.15081326700E+03 -0.35238852731E+03  0.28380583891E+03  0.47693612771E+03  0.50400001928E-02 0. -1.
       -1    1    3    3    0  502  0.15081326700E+03  0.35238852731E+03 -0.38120679504E+03  0.54059313378E+03  0.50400001928E-02 0.  1.
</event>
<event>
 5   0  0.9396660E-03  0.1007804E+04  0.7818609E-02  0.9300027E-01
       -1   -1    0    0    0  501  0.00000000000E+00  0.00000000000E+00  0.35691405835E+03  0.35691405838E+03  0.50400001928E-02 0.  1.
        1   -1    0    0  501    0  0.00000000000E+00  0.00000000000E+00 -0.71142413701E+03  0.71142413703E+03  0.50400001928E-02 0. -1.
    10030    2    1    2    0    0  0.00000000000E+00  0.00000000000E+00 -0.35451007866E+03  0.10683381954E+04  0.10078041000E+04 0.  0.
        5    1    3    3  502    0 -0.11683485625E+02  0.44136887072E+03 -0.43463969424E+03  0.61957787056E+03  0.46999998093E+01 0. -1.
       -5    1    3    3    0  502  0.11683485625E+02 -0.44136887072E+03  0.80129615577E+02  0.44876032486E+03  0.46999998093E+01 0.  1.
</event>
<event>
 5   0  0.1656859E-02  0.9871113E+03  0.7818609E-02  0.9322795E-01
       -2   -1    0    0    0  501  0.00000000000E+00  0.00000000000E+00  0.11791531274E+03  0.11791531277E+03  0.25500000920E-02 0.  1.
        2   -1    0    0  501    0  0.00000000000E+00  0.00000000000E+00 -0.20658655445E+04  0.20658655445E+04  0.25500000920E-02 0. -1.
    10030    2    1    2    0    0  0.00000000000E+00  0.00000000000E+00 -0.19479502317E+04  0.21837808572E+04  0.98711130433E+03 0.  0.
        4    1    3    3  502    0 -0.28565859285E+03  0.19507836499E+02 -0.84604732969E+02  0.29856483566E+03  0.12699999809E+01 0.  1.
       -4    1    3    3    0  502  0.28565859285E+03 -0.19507836499E+02 -0.18633454988E+04  0.18852160216E+04  0.12699999809E+01 0. -1.
</event>
<event>
 5   0  0.9507815E-03  0.9588621E+03  0.7818609E-02  0.9354852E-01
        1   -1    0    0  501    0  0.00000000000E+00  0.00000000000E+00  0.33302035074E+03  0.33302035078E+03  0.50400001928E-02 0. -1.
       -1   -1    0    0    0  501  0.00000000000E+00  0.00000000000E+00 -0.69021048693E+03  0.69021048695E+03  0.50400001928E-02 0.  1.
    10030    2    1    2    0    0  0.00000000000E+00  0.00000000000E+00 -0.35719013619E+03  0.10232308377E+04  0.95886211411E+03 0.  0.
        1    1    3    3  502    0  0.25275929021E+03  0.19702469303E+03  0.20192054713E+03  0.37878476187E+03  0.50400001928E-02 0. -1.
       -1    1    3    3    0  502 -0.25275929021E+03 -0.19702469303E+03 -0.55911068332E+03  0.64444607585E+03  0.50400001928E-02 0.  1.
</event>
<event>
 5   0  0.6314750E-03  0.1003762E+04  0.7818609E-02  0.9304428E-01
       -3   -1    0    0    0  501  0.00000000000E+00  0.00000000000E+00  0.11171362177E+04  0.11171362223E+04  0.10100000352E+00 0. -1.
        3   -1    0    0  501    0  0.00000000000E+00  0.00000000000E+00 -0.22547339630E+03  0.22547341892E+03  0.10100000352E+00 0.  1.
    10030    2    1    2    0    0  0.00000000000E+00  0.00000000000E+00  0.89166282143E+03  0.13426096412E+04  0.10037619546E+04 0.  0.
        2    1    3    3  502    0  0.27935287621E+03 -0.41645953446E+03  0.41881558206E+03  0.65336288927E+03  0.25500000920E-02 0. -1.
       -2    1    3    3    0  502 -0.27935287621E+03  0.41645953446E+03  0.47284723937E+03  0.68924675195E+03  0.25500000920E-02 0.  1.
</event>
<event>
 5   0  0.9507815E-03  0.9026174E+03  0.7818609E-02  0.9422315E-01
        1   -1    0    0  501    0  0.00000000000E+00  0.00000000000E+00  0.60644560515E+03  0.60644560518E+03  0.50400001928E-02 0.  1.
       -1   -1    0    0    0  501  0.00000000000E+00  0.00000000000E+00 -0.33585790303E+03  0.33585790307E+03  0.50400001928E-02 0. -1.
    10030    2    1    2    0    0  0.00000000000E+00  0.00000000000E+00  0.27058770212E+03  0.94230350825E+03  0.90261741459E+03 0.  0.
        1    1    3    3  502    0 -0.10290788346E+03  0.29515760824E+03  0.47513944748E+03  0.56874031047E+03  0.50400001928E-02 0.  1.
       -1    1    3    3    0  502  0.10290788346E+03 -0.29515760824E+03 -0.20455174536E+03  0.37356319778E+03  0.50400001928E-02 0. -1.
</event>
<event>
 5   0  0.9759443E-03  0.1020259E+04  0.7818609E-02  0.9286600E-01
        1   -1    0    0  501    0  0.00000000000E+00  0.00000000000E+00  0.74975026805E+03  0.74975026807E+03  0.50400001928E-02 0. -1.
       -1   -1    0    0    0  501  0.00000000000E+00  0.00000000000E+00 -0.34709145924E+03  0.34709145927E+03  0.50400001928E-02 0.  1.
    10030    2    1    2    0    0  0.00000000000E+00  0.00000000000E+00  0.40265880882E+03  0.10968417273E+04  0.10202586234E+04 0.  0.
        2    1    3    3  502    0  0.36856392926E+02  0.39003571874E+03  0.55257331301E+03  0.67736513185E+03  0.25500000920E-02 0. -1.
       -2    1    3    3    0  502 -0.36856392926E+02 -0.39003571874E+03 -0.14991450420E+03  0.41947659549E+03  0.25500000920E-02 0.  1.
</event>
<event>
 5   0  0.9471140E-03  0.9931635E+03  0.7818609E-02  0.9316075E-01
        1   -1    0    0  501    0  0.00000000000E+00  0.00000000000E+00  0.47133158115E+03  0.47133158118E+03  0.50400001928E-02 0. -1.
       -1   -1    0    0    0  501  0.00000000000E+00  0.00000000000E+00 -0.52318461317E+03  0.52318461319E+03  0.50400001928E-02 0.  1.
    10030    2    1    2    0    0  0.00000000000E+00  0.00000000000E+00 -0.51853032012E+02  0.99451619437E+03  0.99316349305E+03 0.  0.
        4    1    3    3  502    0  0.22863945849E+02 -0.37856056180E+03  0.29507359803E+03  0.48052148768E+03  0.12699999809E+01 0. -1.
       -4    1    3    3    0  502 -0.22863945849E+02  0.37856056180E+03 -0.34692663004E+03  0.51399470669E+03  0.12699999809E+01 0.  1.
</event>
<event>
 5   0  0.9396660E-03  0.9817863E+03  0.7818609E-02  0.9328750E-01
        1   -1    0    0  501    0  0.00000000000E+00  0.00000000000E+00  0.35115527928E+03  0.35115527931E+03  0.50400001928E-02 0. -1.
       -1   -1    0    0    0  501  0.00000000000E+00  0.00000000000E+00 -0.68623792938E+03  0.68623792940E+03  0.50400001928E-02 0.  1.
    10030    2    1    2    0    0  0.00000000000E+00  0.00000000000E+00 -0.33508265011E+03  0.10373932087E+04  0.98178627363E+03 0.  0.
        5    1    3    3  502    0  0.63221590317E+02  0.48123837103E+03 -0.90134763001E+02  0.49369393832E+03  0.46999998093E+01 0. -1.
       -5    1    3    3    0  502 -0.63221590317E+02 -0.48123837103E+03 -0.24494788711E+03  0.54369927039E+03  0.46999998093E+01 0.  1.
</event>
<event>
 5   0  0.1663497E-02  0.9901693E+03  0.7818609E-02  0.9319393E-01
        2   -1    0    0  501    0  0.00000000000E+00  0.00000000000E+00  0.17063660397E+04  0.17063660397E+04  0.25500000920E-02 0. -1.
       -2   -1    0    0    0  501  0.00000000000E+00  0.00000000000E+00 -0.14364375273E+03  0.14364375275E+03  0.25500000920E-02 0.  1.
    10030    2    1    2    0    0  0.00000000000E+00  0.00000000000E+00  0.15627222869E+04  0.18500097924E+04  0.99016932186E+03 0.  0.
        1    1    3    3  502    0  0.40788372317E+03  0.24908534748E+03  0.53994121700E+03  0.72107500289E+03  0.50400001928E-02 0. -1.
       -1    1    3    3    0  502 -0.40788372317E+03 -0.24908534748E+03  0.10227810699E+04  0.11289347895E+04  0.50400001928E-02 0.  1.
</event>
<event>
 5   0  0.9759443E-03  0.1046912E+04  0.7818609E-02  0.9258538E-01
        1   -1    0    0  501    0  0.00000000000E+00  0.00000000000E+00  0.12880028733E+04  0.12880028733E+04  0.50400001928E-02 0. -1.
       -1   -1    0    0    0  501  0.00000000000E+00  0.00000000000E+00 -0.21273718387E+03  0.21273718393E+03  0.50400001928E-02 0.  1.
    10030    2    1    2    0    0  0.00000000000E+00  0.00000000000E+00  0.10752656895E+04  0.15007400573E+04  0.10469118476E+04 0.  0.
        2    1    3    3  502    0  0.49911180351E+03  0.24688394623E+02  0.31424711475E+03  0.59031632060E+03  0.25500000920E-02 0. -1.
       -2    1    3    3    0  502 -0.49911180351E+03 -0.24688394623E+02  0.76101857471E+03  0.91042373667E+03  0.25500000920E-02 0.  1.
</event>
<event>
 5   0  0.1598986E-02  0.1005811E+04  0.7818609E-02  0.9302194E-01
        2   -1    0    0  501    0  0.00000000000E+00  0.00000000000E+00  0.12910387195E+04  0.12910387195E+04  0.25500000920E-02 0.  1.
       -2   -1    0    0    0  501  0.00000000000E+00  0.00000000000E+00 -0.19589951882E+03  0.19589951884E+03  0.25500000920E-02 0. -1.
    10030    2    1    2    0    0  0.00000000000E+00  0.00000000000E+00  0.10951392006E+04  0.14869382383E+04  0.10058108449E+04 0.  0.
        3    1    3    3  502    0 -0.13788592674E+03  0.32057214252E+03  0.12222273053E+02  0.34918250459E+03  0.10100000352E+00 0. -1.
       -3    1    3    3    0  502  0.13788592674E+03 -0.32057214252E+03  0.10829169276E+04  0.11377557337E+04  0.10100000352E+00 0.  1.
</event>
<event>
 5   0  0.9471140E-03  0.9871858E+03  0.7818609E-02  0.9322712E-01
       -1   -1    0    0    0  501  0.00000000000E+00  0.00000000000E+00  0.25127213222E+03  0.25127213227E+03  0.50400001928E-02 0.  1.
        1   -1    0    0  501    0  0.00000000000E+00  0.00000000000E+00 -0.96960194522E+03  0.96960194523E+03  0.50400001928E-02 0. -1.
    10030    2    1    2    0    0  0.00000000000E+00  0.00000000000E+00 -0.71832981300E+03  0.12208740775E+04  0.98718579451E+03 0.  0.
        4    1    3    3  502    0  0.37403409442E+01 -0.48959703797E+03 -0.43652761180E+03  0.65595519550E+03  0.12699999809E+01 0. -1.
       -4    1    3    3    0  502 -0.37403409442E+01  0.48959703797E+03 -0.28180220120E+03  0.56491888200E+03  0.12699999809E+01 0.  1.
</event>
<event>
 5   0  0.1663497E-02  0.9968560E+03  0.7818609E-02  0.9312000E-01
       -2   -1    0    0    0  501  0.00000000000E+00  0.00000000000E+00  0.13105551368E+03  0.13105551370E+03  0.25500000920E-02 0.  1.
        2   -1    0    0  501    0  0.00000000000E+00  0.00000000000E+00 -0.18956126979E+04  0.18956126979E+04  0.25500000920E-02 0. -1.
    10030    2    1    2    0    0  0.00000000000E+00  0.00000000000E+00 -0.17645571842E+04  0.20266682116E+04  0.99685604954E+03 0.  0.
        1    1    3    3  502    0 -0.23657749348E+02 -0.44253150806E+03 -0.13460510568E+04  0.14171264136E+04  0.50400001928E-02 0. -1.
       -1    1    3    3    0  502  0.23657749348E+02  0.44253150806E+03 -0.41850612741E+03  0.60954179794E+03  0.50400001928E-02 0.  1.
</event>
<event>
 5   0  0.1000773E-02  0.6553877E+03  0.7818609E-02  0.9796722E-01
       -1   -1    0    0    0  501  0.00000000000E+00  0.00000000000E+00  0.11481681778E+03  0.11481681790E+03  0.50400001928E-02 0. -1.
        1   -1    0    0  501    0  0.00000000000E+00  0.00000000000E+00 -0.93525717353E+03  0.93525717354E+03  0.50400001928E-02 0.  1.
    10030    2    1    2    0    0  0.00000000000E+00  0.00000000000E+00 -0.82044035574E+03  0.10500739914E+04  0.65538767929E+03 0.  0.
        3    1    3    3  502    0  0.41820446338E+02 -0.14363403083E+03  0.56912426557E+02  0.16005848632E+03  0.10100000352E+00 0. -1.
       -3    1    3    3    0  502 -0.41820446338E+02  0.14363403083E+03 -0.87735278230E+03  0.89001550512E+03  0.10100000352E+00 0.  1.
</event>
<event>
 5   0  0.1656859E-02  0.1007333E+04  0.7818609E-02  0.9300538E-01
       -2   -1    0    0    0  501  0.00000000000E+00  0.00000000000E+00  0.93690910194E+03  0.93690910195E+03  0.25500000920E-02 0. -1.
        2   -1    0    0  501    0  0.00000000000E+00  0.00000000000E+00 -0.27076261308E+03  0.27076261309E+03  0.25500000920E-02 0.  1.
    10030    2    1    2    0    0  0.00000000000E+00  0.00000000000E+00  0.66614648887E+03  0.12076717150E+04  0.10073330267E+04 0.  0.
        4    1    3    3  502    0  0.49821250419E+03 -0.22033344187E+02  0.41765317586E+03  0.65048978146E+03  0.12699999809E+01 0. -1.
       -4    1    3    3    0  502 -0.49821250419E+03  0.22033344187E+02  0.24849331301E+03  0.55718193357E+03  0.12699999809E+01 0.  1.
</event>
<event>
 5   0  0.6314750E-03  0.9426095E+03  0.7818609E-02  0.9373831E-01
       -3   -1    0    0    0  501  0.00000000000E+00  0.00000000000E+00  0.54249733141E+03  0.54249734082E+03  0.10100000352E+00 0.  1.
        3   -1    0    0  501    0  0.00000000000E+00  0.00000000000E+00 -0.40945487122E+03  0.40945488368E+03  0.10100000352E+00 0. -1.
    10030    2    1    2    0    0  0.00000000000E+00  0.00000000000E+00  0.13304246019E+03  0.95195222449E+03  0.94260953820E+03 0.  0.
        1    1    3    3  502    0  0.64548343533E+02 -0.45691195415E+03  0.16335253841E+03  0.48950901353E+03  0.50400001928E-02 0.  1.
       -1    1    3    3    0  502 -0.64548343533E+02  0.45691195415E+03 -0.30310078218E+02  0.46244321096E+03  0.50400001928E-02 0. -1.
</event>
<event>
 5   0  0.1571895E-02  0.9920136E+03  0.7818609E-02  0.9317348E-01
        2   -1    0    0  501    0  0.00000000000E+00  0.00000000000E+00  0.62367668014E+03  0.62367668015E+03  0.25500000920E-02 0.  1.
       -2   -1    0    0    0  501  0.00000000000E+00  0.00000000000E+00 -0.39447159895E+03  0.39447159896E+03  0.25500000920E-02 0. -1.
    10030    2    1    2    0    0  0.00000000000E+00  0.00000000000E+00  0.22920508119E+03  0.10181482791E+04  0.99201358307E+03 0.  0.
        2    1    3    3  502    0  0.16383270911E+03  0.45232843783E+03 -0.93286407071E+01  0.48117480793E+03  0.25500000920E-02 0. -1.
       -2    1    3    3    0  502 -0.16383270911E+03 -0.45232843783E+03  0.23853372190E+03  0.53697347117E+03  0.25500000920E-02 0.  1.
</event>
<event>
 5   0  0.1617721E-02  0.1101411E+04  0.7818609E-02  0.9203818E-01
        2   -1    0    0  501    0  0.00000000000E+00  0.00000000000E+00  0.13817442518E+04  0.13817442518E+04  0.25500000920E-02 0. -1.
       -2   -1    0    0    0  501  0.00000000000E+00  0.00000000000E+00 -0.21948800496E+03  0.21948800497E+03  0.25500000920E-02 0.  1.
    10030    2    1    2    0    0  0.00000000000E+00  0.00000000000E+00  0.11622562468E+04  0.16012322568E+04  0.11014105305E+04 0.  0.
        5    1    3    3  502    0 -0.51567868609E+03 -0.57691980228E+01  0.86189030678E+03  0.10044076771E+04  0.46999998093E+01 0. -1.
       -5    1    3    3    0  502  0.51567868609E+03  0.57691980228E+01  0.30036594005E+03  0.59682457965E+03  0.46999998093E+01 0.  1.
</event>
<event>
 5   0  0.1571895E-02  0.9828937E+03  0.7818609E-02  0.9327508E-01
       -2   -1    0    0    0  501  0.00000000000E+00  0.00000000000E+00  0.40757072487E+03  0.40757072488E+03  0.25500000920E-02 0. -1.
        2   -1    0    0  501    0  0.00000000000E+00  0.00000000000E+00 -0.59258425380E+03  0.59258425380E+03  0.25500000920E-02 0.  1.
    10030    2    1    2    0    0  0.00000000000E+00  0.00000000000E+00 -0.18501352893E+03  0.10001549787E+04  0.98289367456E+03 0.  0.
        2    1    3    3  502    0  0.17517481927E+02  0.53008749151E+02 -0.58934705272E+03  0.59198542061E+03  0.25500000920E-02 0.  1.
       -2    1    3    3    0  502 -0.17517481927E+02 -0.53008749151E+02  0.40433352379E+03  0.40816955806E+03  0.25500000920E-02 0. -1.
</event>
<event>
 5   0  0.1598986E-02  0.1022196E+04  0.7818609E-02  0.9284530E-01
        2   -1    0    0  501    0  0.00000000000E+00  0.00000000000E+00  0.10107259041E+04  0.10107259041E+04  0.25500000920E-02 0. -1.
       -2   -1    0    0    0  501  0.00000000000E+00  0.00000000000E+00 -0.25844903759E+03  0.25844903760E+03  0.25500000920E-02 0.  1.
    10030    2    1    2    0    0  0.00000000000E+00  0.00000000000E+00  0.75227686656E+03  0.12691749417E+04  0.10221959444E+04 0.  0.
        3    1    3    3  502    0  0.30145266145E+03  0.19657003620E+03  0.82674012782E+03  0.90167218842E+03  0.10100000352E+00 0. -1.
       -3    1    3    3    0  502 -0.30145266145E+03 -0.19657003620E+03 -0.74463261260E+02  0.36750275333E+03  0.10100000352E+00 0.  1.
</event>
<event>
 5   0  0.1598986E-02  0.9992581E+03  0.7818609E-02  0.9309359E-01
       -2   -1    0    0    0  501  0.00000000000E+00  0.00000000000E+00  0.23153636105E+03  0.23153636106E+03  0.25500000920E-02 0.  1.
        2   -1    0    0  501    0  0.00000000000E+00  0.00000000000E+00 -0.10781425534E+04  0.10781425534E+04  0.25500000920E-02 0. -1.
    10030    2    1    2    0    0  0.00000000000E+00  0.00000000000E+00 -0.84660619234E+03  0.13096789145E+04  0.99925813184E+03 0.  0.
        3    1    3    3  502    0  0.42464361143E+03  0.35816336353E+02 -0.81466289212E+02  0.43386838230E+03  0.10100000352E+00 0.  1.
       -3    1    3    3    0  502 -0.42464361143E+03 -0.35816336353E+02 -0.76513990313E+03  0.87581053216E+03  0.10100000352E+00 0. -1.
</event>
<event>
 5   0  0.1571895E-02  0.1008869E+04  0.7818609E-02  0.9298870E-01
        2   -1    0    0  501    0  0.00000000000E+00  0.00000000000E+00  0.12168056879E+04  0.12168056879E+04  0.25500000920E-02 0.  1.
       -2   -1    0    0    0  501  0.00000000000E+00  0.00000000000E+00 -0.20911671835E+03  0.20911671837E+03  0.25500000920E-02 0. -1.
    10030    2    1    2    0    0  0.00000000000E+00  0.00000000000E+00  0.10076889696E+04  0.14259224063E+04  0.10088694908E+04 0.  0.
        2    1    3    3  502    0 -0.34252066094E+03  0.20920373711E+03  0.93572089262E+03  0.10181651122E+04  0.25500000920E-02 0.  1.
       -2    1    3    3    0  502  0.34252066094E+03 -0.20920373711E+03  0.71968076958E+02  0.40775729411E+03  0.25500000920E-02 0. -1.
</event>
<event>
 5   0  0.6314750E-03  0.1009739E+04  0.7818609E-02  0.9297927E-01
       -3   -1    0    0    0  501  0.00000000000E+00  0.00000000000E+00  0.15040312812E+04  0.15040312846E+04  0.10100000352E+00 0. -1.
        3   -1    0    0  501    0  0.00000000000E+00  0.00000000000E+00 -0.16947343271E+03  0.16947346281E+03  0.10100000352E+00 0.  1.
    10030    2    1    2    0    0  0.00000000000E+00  0.00000000000E+00  0.13345578485E+04  0.16735047474E+04  0.10097393172E+04 0.  0.
        4    1    3    3  502    0  0.28224069215E+03  0.41711960274E+03  0.72571567777E+03  0.88335351312E+03  0.12699999809E+01 0. -1.
       -4    1    3    3    0  502 -0.28224069215E+03 -0.41711960274E+03  0.60884217076E+03  0.79015123432E+03  0.12699999809E+01 0.  1.
</event>
<event>
 5   0  0.6314750E-03  0.9862520E+03  0.7818609E-02  0.9323753E-01
       -4   -1    0    0    0  501  0.00000000000E+00  0.00000000000E+00  0.46996373505E+03  0.46996545103E+03  0.12699999809E+01 0.  1.
        4   -1    0    0  501    0  0.00000000000E+00  0.00000000000E+00 -0.51742633178E+03  0.51742789036E+03  0.12699999809E+01 0. -1.
    10030    2    1    2    0    0  0.00000000000E+00  0.00000000000E+00 -0.47462596731E+02  0.98739334139E+03  0.98625195185E+03 0.  0.
        2    1    3    3  502    0  0.24927826316E+03  0.25128582860E+03 -0.36747834463E+03  0.51022010341E+03  0.25500000920E-02 0. -1.
       -2    1    3    3    0  502 -0.24927826316E+03 -0.25128582860E+03  0.32001574790E+03  0.47717323799E+03  0.25500000920E-02 0.  1.
</event>
<event>
 5   0  0.1598986E-02  0.1024095E+04  0.7818609E-02  0.9282506E-01
        2   -1    0    0  501    0  0.00000000000E+00  0.00000000000E+00  0.58829528483E+03  0.58829528483E+03  0.25500000920E-02 0. -1.
       -2   -1    0    0    0  501  0.00000000000E+00  0.00000000000E+00 -0.44568204022E+03  0.44568204023E+03  0.25500000920E-02 0.  1.
    10030    2    1    2    0    0  0.00000000000E+00  0.00000000000E+00  0.14261324461E+03  0.10339773251E+04  0.10240950011E+04 0.  0.
        3    1    3    3  502    0  0.20102937253E+02  0.49639462736E+03 -0.53909813749E+02  0.49971795282E+03  0.10100000352E+00 0.  1.
       -3    1    3    3    0  502 -0.20102937253E+02 -0.49639462736E+03  0.19652305836E+03  0.53425937224E+03  0.10100000352E+00 0. -1.
</event>
<event>
 5   0  0.9471140E-03  0.9851912E+03  0.7818609E-02  0.9324938E-01
        1   -1    0    0  501    0  0.00000000000E+00  0.00000000000E+00  0.82507493214E+03  0.82507493215E+03  0.50400001928E-02 0.  1.
       -1   -1    0    0    0  501  0.00000000000E+00  0.00000000000E+00 -0.29409500094E+03  0.29409500098E+03  0.50400001928E-02 0. -1.
    10030    2    1    2    0    0  0.00000000000E+00  0.00000000000E+00  0.53097993120E+03  0.11191699331E+04  0.98519117530E+03 0.  0.
        4    1    3    3  502    0 -0.23123416239E+03  0.38425783568E+02 -0.22667551818E+03  0.32608155750E+03  0.12699999809E+01 0. -1.
       -4    1    3    3    0  502  0.23123416239E+03 -0.38425783568E+02  0.75765544938E+03  0.79308837564E+03  0.12699999809E+01 0.  1.
</event>
<event>
 5   0  0.1663497E-02  0.9695230E+03  0.7818609E-02  0.9342618E-01
        2   -1    0    0  501    0  0.00000000000E+00  0.00000000000E+00  0.45916539207E+03  0.45916539208E+03  0.25500000920E-02 0. -1.
       -2   -1    0    0    0  501  0.00000000000E+00  0.00000000000E+00 -0.51178445545E+03  0.51178445545E+03  0.25500000920E-02 0.  1.
    10030    2    1    2    0    0  0.00000000000E+00  0.00000000000E+00 -0.52619063371E+02  0.97094984753E+03  0.96952299642E+03 0.  0.
        1    1    3    3  502    0 -0.28005232106E+03 -0.24680473021E+03 -0.33604099978E+03  0.50226032189E+03  0.50400001928E-02 0.  1.
       -1    1    3    3    0  502  0.28005232106E+03  0.24680473021E+03  0.28342193641E+03  0.46868952564E+03  0.50400001928E-02 0. -1.
</event>
<event>
 5   0  0.1571895E-02  0.9751449E+03  0.7818609E-02  0.9336233E-01
       -2   -1    0    0    0  501  0.00000000000E+00  0.00000000000E+00  0.77235544994E+03  0.77235544995E+03  0.25500000920E-02 0.  1.
        2   -1    0    0  501    0  0.00000000000E+00  0.00000000000E+00 -0.30779468010E+03  0.30779468011E+03  0.25500000920E-02 0. -1.
    10030    2    1    2    0    0  0.00000000000E+00  0.00000000000E+00  0.46456076985E+03  0.10801501301E+04  0.97514490953E+03 0.  0.
        2    1    3    3  502    0 -0.43088305670E+02 -0.41175771161E+03 -0.52989867297E+02  0.41738344624E+03  0.25500000920E-02 0. -1.
       -2    1    3    3    0  502  0.43088305670E+02  0.41175771161E+03  0.51755063715E+03  0.66276668381E+03  0.25500000920E-02 0.  1.
</event>
<event>
 5   0  0.9759443E-03  0.9958053E+03  0.7818609E-02  0.9313158E-01
       -1   -1    0    0    0  501  0.00000000000E+00  0.00000000000E+00  0.17379825031E+04  0.17379825031E+04  0.50400001928E-02 0. -1.
        1   -1    0    0  501    0  0.00000000000E+00  0.00000000000E+00 -0.14264069437E+03  0.14264069446E+03  0.50400001928E-02 0.  1.
    10030    2    1    2    0    0  0.00000000000E+00  0.00000000000E+00  0.15953418087E+04  0.18806231975E+04  0.99580526436E+03 0.  0.
        2    1    3    3  502    0 -0.10046223714E+03 -0.12658542977E+02  0.17183325588E+04  0.17213133597E+04  0.25500000920E-02 0. -1.
       -2    1    3    3    0  502  0.10046223714E+03  0.12658542977E+02 -0.12299075010E+03  0.15930983779E+03  0.25500000920E-02 0.  1.
</event>
<event>
 5   0  0.1617721E-02  0.1145374E+04  0.7818609E-02  0.9162062E-01
        2   -1    0    0  501    0  0.00000000000E+00  0.00000000000E+00  0.44995832251E+03  0.44995832252E+03  0.25500000920E-02 0. -1.
       -2   -1    0    0    0  501  0.00000000000E+00  0.00000000000E+00 -0.72889101025E+03  0.72889101026E+03  0.25500000920E-02 0.  1.
    10030    2    1    2    0    0  0.00000000000E+00  0.00000000000E+00 -0.27893268774E+03  0.11788493328E+04  0.11453743079E+04 0.  0.
        5    1    3    3  502    0  0.47975716175E+03 -0.24532491556E+03  0.60100704780E+02  0.54220423565E+03  0.46999998093E+01 0. -1.
       -5    1    3    3    0  502 -0.47975716175E+03  0.24532491556E+03 -0.33903339252E+03  0.63664509712E+03  0.46999998093E+01 0.  1.
</event>
<event>
 5   0  0.1000773E-02  0.1036723E+04  0.7818609E-02  0.9269160E-01
        1   -1    0    0  501    0  0.00000000000E+00  0.00000000000E+00  0.66010806249E+03  0.66010806251E+03  0.50400001928E-02 0. -1.
       -1   -1    0    0    0  501  0.00000000000E+00  0.00000000000E+00 -0.40705288933E+03  0.40705288936E+03  0.50400001928E-02 0.  1.
    10030    2    1    2    0    0  0.00000000000E+00  0.00000000000E+00  0.25305517316E+03  0.10671609519E+04  0.10367234812E+04 0.  0.
        3    1    3    3  502    0  0.43003492267E+03 -0.22138398002E+03  0.31843611328E+03  0.57908761838E+03  0.10100000352E+00 0. -1.
       -3    1    3    3    0  502 -0.43003492267E+03  0.22138398002E+03 -0.65380940111E+02  0.48807333348E+03  0.10100000352E+00 0.  1.
</event>
<event>
 5   0  0.1000773E-02  0.9878948E+03  0.7818609E-02  0.9321922E-01
       -1   -1    0    0    0  501  0.00000000000E+00  0.00000000000E+00  0.33679877518E+03  0.33679877521E+03  0.50400001928E-02 0. -1.
        1   -1    0    0  501    0  0.00000000000E+00  0.00000000000E+00 -0.72442082164E+03  0.72442082165E+03  0.50400001928E-02 0.  1.
    10030    2    1    2    0    0  0.00000000000E+00  0.00000000000E+00 -0.38762204646E+03  0.10612195969E+04  0.98789482329E+03 0.  0.
        3    1    3    3  502    0  0.19150153886E+03 -0.27242248079E+03  0.19809234073E+03  0.38746281509E+03  0.10100000352E+00 0. -1.
       -3    1    3    3    0  502 -0.19150153886E+03  0.27242248079E+03 -0.58571438719E+03  0.67375678177E+03  0.10100000352E+00 0.  1.
</event>
<event>
 5   0  0.9471140E-03  0.9954582E+03  0.7818609E-02  0.9313540E-01
        1   -1    0    0  501    0  0.00000000000E+00  0.00000000000E+00  0.79446345099E+03  0.79446345101E+03  0.50400001928E-02 0.  1.
       -1   -1    0    0    0  501  0.00000000000E+00  0.00000000000E+00 -0.31182586124E+03  0.31182586128E+03  0.50400001928E-02 0. -1.
    10030    2    1    2    0    0  0.00000000000E+00  0.00000000000E+00  0.48263758975E+03  0.11062893123E+04  0.99545818568E+03 0.  0.
        4    1    3    3  502    0  0.47814046280E+03  0.12315496879E+03  0.31114036735E+03  0.58360550854E+03  0.12699999809E+01 0.  1.
       -4    1    3    3    0  502 -0.47814046280E+03 -0.12315496879E+03  0.17149722240E+03  0.52268380375E+03  0.12699999809E+01 0. -1.
</event>
<event>
 5   0  0.1656859E-02  0.9656559E+03  0.7818609E-02  0.9347036E-01
        2   -1    0    0  501    0  0.00000000000E+00  0.00000000000E+00  0.10396046801E+04  0.10396046801E+04  0.25500000920E-02 0. -1.
       -2   -1    0    0    0  501  0.00000000000E+00  0.00000000000E+00 -0.22424182219E+03  0.22424182220E+03  0.25500000920E-02 0.  1.
    10030    2    1    2    0    0  0.00000000000E+00  0.00000000000E+00  0.81536285789E+03  0.12638465023E+04  0.96565593837E+03 0.  0.
        4    1    3    3  502    0 -0.22682776051E+02 -0.33454974478E+03  0.86235039787E+03  0.92525016167E+03  0.12699999809E+01 0.  1.
       -4    1    3    3    0  502  0.22682776051E+02  0.33454974478E+03 -0.46987539981E+02  0.33859634061E+03  0.12699999809E+01 0. -1.
</event>
<event>
 5   0  0.1571895E-02  0.1005080E+04  0.7818609E-02  0.9302991E-01
        2   -1    0    0  501    0  0.00000000000E+00  0.00000000000E+00  0.15000908640E+04  0.15000908640E+04  0.25500000920E-02 0. -1.
       -2   -1    0    0    0  501  0.00000000000E+00  0.00000000000E+00 -0.16835405779E+03  0.16835405781E+03  0.25500000920E-02 0.  1.
    10030    2    1    2    0    0  0.00000000000E+00  0.00000000000E+00  0.13317368062E+04  0.16684449218E+04  0.10050798655E+04 0.  0.
        2    1    3    3  502    0  0.68216705053E+02  0.37878523946E+03  0.12946449708E+03  0.40606998473E+03  0.25500000920E-02 0.  1.
       -2    1    3    3    0  502 -0.68216705053E+02 -0.37878523946E+03  0.12022723091E+04  0.12623749371E+04  0.25500000920E-02 0. -1.
</event>
<event>
 5   0  0.1656859E-02  0.1009839E+04  0.7818609E-02  0.9297819E-01
        2   -1    0    0  501    0  0.00000000000E+00  0.00000000000E+00  0.64241481910E+03  0.64241481910E+03  0.25500000920E-02 0. -1.
       -2   -1    0    0    0  501  0.00000000000E+00  0.00000000000E+00 -0.39685224411E+03  0.39685224412E+03  0.25500000920E-02 0.  1.
    10030    2    1    2    0    0  0.00000000000E+00  0.00000000000E+00  0.24556257499E+03  0.10392670632E+04  0.10098391211E+04 0.  0.
        4    1    3    3  502    0  0.87975634042E+01 -0.29828276847E+03 -0.29638648111E+03  0.42059073476E+03  0.12699999809E+01 0.  1.
       -4    1    3    3    0  502 -0.87975634042E+01  0.29828276847E+03  0.54194905610E+03  0.61867632845E+03  0.12699999809E+01 0. -1.
</event>
<event>
 5   0  0.1663497E-02  0.1000820E+04  0.7818609E-02  0.9307646E-01
       -2   -1    0    0    0  501  0.00000000000E+00  0.00000000000E+00  0.72428679825E+03  0.72428679826E+03  0.25500000920E-02 0. -1.
        2   -1    0    0  501    0  0.00000000000E+00  0.00000000000E+00 -0.34573345623E+03  0.34573345624E+03  0.25500000920E-02 0.  1.
    10030    2    1    2    0    0  0.00000000000E+00  0.00000000000E+00  0.37855334202E+03  0.10700202545E+04  0.10008200199E+04 0.  0.
        1    1    3    3  502    0  0.25902273742E+03 -0.36179194248E+03  0.43407082946E+03  0.62161376526E+03  0.50400001928E-02 0. -1.
       -1    1    3    3    0  502 -0.25902273742E+03  0.36179194248E+03 -0.55517487437E+02  0.44840648923E+03  0.50400001928E-02 0.  1.
</event>
<event>
 5   0  0.1598986E-02  0.9869122E+03  0.7818609E-02  0.9323017E-01
        2   -1    0    0  501    0  0.00000000000E+00  0.00000000000E+00  0.87041903446E+03  0.87041903446E+03  0.25500000920E-02 0.  1.
       -2   -1    0    0    0  501  0.00000000000E+00  0.00000000000E+00 -0.27974908240E+03  0.27974908241E+03  0.25500000920E-02 0. -1.
    10030    2    1    2    0    0  0.00000000000E+00  0.00000000000E+00  0.59066995206E+03  0.11501681169E+04  0.98691220724E+03 0.  0.
        3    1    3    3  502    0  0.93452867146E+02  0.20293194997E+03  0.80809911811E+03  0.83841458097E+03  0.10100000352E+00 0.  1.
       -3    1    3    3    0  502 -0.93452867146E+02 -0.20293194997E+03 -0.21742916605E+03  0.31175353590E+03  0.10100000352E+00 0. -1.
</event>
<event>
 5   0  0.9507815E-03  0.9905216E+03  0.7818609E-02  0.9319002E-01
        1   -1    0    0  501    0  0.00000000000E+00  0.00000000000E+00  0.81496958099E+03  0.81496958101E+03  0.50400001928E-02 0. -1.
       -1   -1    0    0    0  501  0.00000000000E+00  0.00000000000E+00 -0.30097230602E+03  0.30097230606E+03  0.50400001928E-02 0.  1.
    10030    2    1    2    0    0  0.00000000000E+00  0.00000000000E+00  0.51399727497E+03  0.11159418871E+04  0.99052162856E+03 0.  0.
        1    1    3    3  502    0  0.62149729327E+02 -0.42521228083E+03  0.53437432572E+03  0.68572880400E+03  0.50400001928E-02 0. -1.
       -1    1    3    3    0  502 -0.62149729327E+02  0.42521228083E+03 -0.20377050750E+02  0.43021308307E+03  0.50400001928E-02 0.  1.
</event>
<event>
 5   0  0.1571895E-02  0.7627353E+03  0.7818609E-02  0.9615580E-01
        2   -1    0    0  501    0  0.00000000000E+00  0.00000000000E+00  0.54780409854E+03  0.54780409854E+03  0.25500000920E-02 0.  1.
       -2   -1    0    0    0  501  0.00000000000E+00  0.00000000000E+00 -0.26549869549E+03  0.26549869550E+03  0.25500000920E-02 0. -1.
    10030    2    1    2    0    0  0.00000000000E+00  0.00000000000E+00  0.28230540305E+03  0.81330279405E+03  0.76273527139E+03 0.  0.
        2    1    3    3  502    0  0.68605852899E+02 -0.32144234148E+03 -0.65085165573E+02  0.33506420389E+03  0.25500000920E-02 0. -1.
       -2    1    3    3    0  502 -0.68605852899E+02  0.32144234148E+03  0.34739056862E+03  0.47823859016E+03  0.25500000920E-02 0.  1.
</event>
<event>
 5   0  0.9759443E-03  0.1006484E+04  0.7818609E-02  0.9301462E-01
        1   -1    0    0  501    0  0.00000000000E+00  0.00000000000E+00  0.81054414475E+03  0.81054414477E+03  0.50400001928E-02 0. -1.
       -1   -1    0    0    0  501  0.00000000000E+00  0.00000000000E+00 -0.31244749849E+03  0.31244749853E+03  0.50400001928E-02 0.  1.
    10030    2    1    2    0    0  0.00000000000E+00  0.00000000000E+00  0.49809664626E+03  0.11229916433E+04  0.10064839601E+04 0.  0.
        2    1    3    3  502    0  0.15948490012E+03 -0.27955226088E+03  0.68070011684E+03  0.75295255428E+03  0.25500000920E-02 0. -1.
       -2    1    3    3    0  502 -0.15948490012E+03  0.27955226088E+03 -0.18260347058E+03  0.37003908902E+03  0.25500000920E-02 0.  1.
</event>
<event>
 5   0  0.1571895E-02  0.9788622E+03  0.7818609E-02  0.9332037E-01
       -2   -1    0    0    0  501  0.00000000000E+00  0.00000000000E+00  0.14809339191E+03  0.14809339193E+03  0.25500000920E-02 0.  1.
        2   -1    0    0  501    0  0.00000000000E+00  0.00000000000E+00 -0.16175117805E+04  0.16175117805E+04  0.25500000920E-02 0. -1.
    10030    2    1    2    0    0  0.00000000000E+00  0.00000000000E+00 -0.14694183886E+04  0.17656051724E+04  0.97886220899E+03 0.  0.
        2    1    3    3  502    0 -0.18297052388E+03  0.64100877953E+01  0.84001409464E+02  0.20143370779E+03  0.25500000920E-02 0.  1.
       -2    1    3    3    0  502  0.18297052388E+03 -0.64100877953E+01 -0.15534197980E+04  0.15641714646E+04  0.25500000920E-02 0. -1.
</event>
<event>
 5   0  0.1656859E-02  0.1022387E+04  0.7818609E-02  0.9284327E-01
        2   -1    0    0  501    0  0.00000000000E+00  0.00000000000E+00  0.97608245801E+03  0.97608245802E+03  0.25500000920E-02 0.  1.
       -2   -1    0    0    0  501  0.00000000000E+00  0.00000000000E+00 -0.26772180448E+03  0.26772180449E+03  0.25500000920E-02 0. -1.
    10030    2    1    2    0    0  0.00000000000E+00  0.00000000000E+00  0.70836065354E+03  0.12438042625E+04  0.10223865355E+04 0.  0.
        4    1    3    3  502    0 -0.62405820118E+02  0.14374520038E+02 -0.26282052956E+03  0.27051313622E+03  0.12699999809E+01 0. -1.
       -4    1    3    3    0  502  0.62405820118E+02 -0.14374520038E+02  0.97118118310E+03  0.97329112629E+03  0.12699999809E+01 0.  1.
</event>
<event>
 5   0  0.9507815E-03  0.1162773E+04  0.7818609E-02  0.9146080E-01
       -1   -1    0    0    0  501  0.00000000000E+00  0.00000000000E+00  0.11647348245E+04  0.11647348245E+04  0.50400001928E-02 0.  1.
        1   -1    0    0  501    0  0.00000000000E+00  0.00000000000E+00 -0.29020351947E+03  0.29020351952E+03  0.50400001928E-02 0. -1.
    10030    2    1    2    0    0  0.00000000000E+00  0.00000000000E+00  0.87453130505E+03  0.14549383441E+04  0.11627727987E+04 0.  0.
        1    1    3    3  502    0 -0.35829801705E+03 -0.18752343601E+03 -0.85379787798E+02  0.41331854092E+03  0.50400001928E-02 0. -1.
       -1    1    3    3    0  502  0.35829801705E+03  0.18752343601E+03  0.95991109285E+03  0.10416198031E+04  0.50400001928E-02 0.  1.
</event>
<event>
 5   0  0.1000773E-02  0.8678470E+03  0.7818609E-02  0.9466691E-01
       -1   -1    0    0    0  501  0.00000000000E+00  0.00000000000E+00  0.14883239913E+03  0.14883239921E+03  0.50400001928E-02 0. -1.
        1   -1    0    0  501    0  0.00000000000E+00  0.00000000000E+00 -0.12651117321E+04  0.12651117321E+04  0.50400001928E-02 0.  1.
    10030    2    1    2    0    0  0.00000000000E+00  0.00000000000E+00 -0.11162793330E+04  0.14139441313E+04  0.86784702413E+03 0.  0.
        3    1    3    3  502    0  0.28914665927E+03  0.11315930040E+03 -0.64287804144E+02  0.31708634439E+03  0.10100000352E+00 0. -1.
       -3    1    3    3    0  502 -0.28914665927E+03 -0.11315930040E+03 -0.10519915288E+04  0.10968577870E+04  0.10100000352E+00 0.  1.
</event>
<event>
 5   0  0.1598986E-02  0.9999693E+03  0.7818609E-02  0.9308578E-01
        2   -1    0    0  501    0  0.00000000000E+00  0.00000000000E+00  0.10436401461E+04  0.10436401461E+04  0.25500000920E-02 0.  1.
       -2   -1    0    0    0  501  0.00000000000E+00  0.00000000000E+00 -0.23953145234E+03  0.23953145235E+03  0.25500000920E-02 0. -1.
    10030    2    1    2    0    0  0.00000000000E+00  0.00000000000E+00  0.80410869373E+03  0.12831715984E+04  0.99996927936E+03 0.  0.
        3    1    3    3  502    0  0.48774801258E+03 -0.10583059355E+03  0.44025852389E+03  0.66552672101E+03  0.10100000352E+00 0. -1.
       -3    1    3    3    0  502 -0.48774801258E+03  0.10583059355E+03  0.36385016983E+03  0.61764487742E+03  0.10100000352E+00 0.  1.
</event>
<event>
 5   0  0.9396660E-03  0.1035028E+04  0.7818609E-02  0.9270940E-01
       -1   -1    0    0    0  501  0.00000000000E+00  0.00000000000E+00  0.38678092907E+03  0.38678092910E+03  0.50400001928E-02 0. -1.
        1   -1    0    0  501    0  0.00000000000E+00  0.00000000000E+00 -0.69243532069E+03  0.69243532071E+03  0.50400001928E-02 0.  1.
    10030    2    1    2    0    0  0.00000000000E+00  0.00000000000E+00 -0.30565439162E+03  0.10792162498E+04  0.10350280705E+04 0.  0.
        5    1    3    3  502    0  0.68903312534E+02 -0.30331878993E+03  0.27841006329E+03  0.41747360173E+03  0.46999998093E+01 0. -1.
       -5    1    3    3    0  502 -0.68903312534E+02  0.30331878993E+03 -0.58406445490E+03  0.66174264808E+03  0.46999998093E+01 0.  1.
</event>
<event>
 5   0  0.9471140E-03  0.8607327E+03  0.7818609E-02  0.9476044E-01
       -1   -1    0    0    0  501  0.00000000000E+00  0.00000000000E+00  0.25587609248E+03  0.25587609253E+03  0.50400001928E-02 0.  1.
        1   -1    0    0  501    0  0.00000000000E+00  0.00000000000E+00 -0.72384716978E+03  0.72384716979E+03  0.50400001928E-02 0. -1.
    10030    2    1    2    0    0  0.00000000000E+00  0.00000000000E+00 -0.46797107730E+03  0.97972326232E+03  0.86073267717E+03 0.  0.
        4    1    3    3  502    0 -0.60392173213E+02  0.29340703615E+03 -0.58569844646E+03  0.65785954924E+03  0.12699999809E+01 0. -1.
       -4    1    3    3    0  502  0.60392173213E+02 -0.29340703615E+03  0.11772736916E+03  0.32186371308E+03  0.12699999809E+01 0.  1.
</event>
<event>
 5   0  0.1656859E-02  0.9693568E+03  0.7818609E-02  0.9342807E-01
        2   -1    0    0  501    0  0.00000000000E+00  0.00000000000E+00  0.10589562718E+04  0.10589562718E+04  0.25500000920E-02 0. -1.
       -2   -1    0    0    0  501  0.00000000000E+00  0.00000000000E+00 -0.22183461389E+03  0.22183461390E+03  0.25500000920E-02 0.  1.
    10030    2    1    2    0    0  0.00000000000E+00  0.00000000000E+00  0.83712165794E+03  0.12807908857E+04  0.96935680881E+03 0.  0.
        4    1    3    3  502    0  0.35374262028E+02 -0.16186703153E+03  0.10203730246E+04  0.10337383598E+04  0.12699999809E+01 0. -1.
       -4    1    3    3    0  502 -0.35374262028E+02  0.16186703153E+03 -0.18325136663E+03  0.24705252596E+03  0.12699999809E+01 0.  1.
</event>
<event>
 5   0  0.1663497E-02  0.7139262E+03  0.7818609E-02  0.9693709E-01
        2   -1    0    0  501    0  0.00000000000E+00  0.00000000000E+00  0.89962030281E+03  0.89962030281E+03  0.25500000920E-02 0.  1.
       -2   -1    0    0    0  501  0.00000000000E+00  0.00000000000E+00 -0.14164048159E+03  0.14164048161E+03  0.25500000920E-02 0. -1.
    10030    2    1    2    0    0  0.00000000000E+00  0.00000000000E+00  0.75797982121E+03  0.10412607844E+04  0.71392619493E+03 0.  0.
        1    1    3    3  502    0 -0.90367576285E+02 -0.93006411580E+02  0.86405034984E+03  0.87372735938E+03  0.50400001928E-02 0.  1.
       -1    1    3    3    0  502  0.90367576285E+02  0.93006411580E+02 -0.10607052863E+03  0.16753342504E+03  0.50400001928E-02 0. -1.
</event>
<event>
 5   0  0.9759443E-03  0.1008507E+04  0.7818609E-02  0.9299264E-01
       -1   -1    0    0    0  501  0.00000000000E+00  0.00000000000E+00  0.55657458912E+03  0.55657458914E+03  0.50400001928E-02 0.  1.
        1   -1    0    0  501    0  0.00000000000E+00  0.00000000000E+00 -0.45685055122E+03  0.45685055125E+03  0.50400001928E-02 0. -1.
    10030    2    1    2    0    0  0.00000000000E+00  0.00000000000E+00  0.99724037899E+02  0.10134251404E+04  0.10085066343E+04 0.  0.
        2    1    3    3  502    0  0.28020562521E+02  0.80603807287E+02 -0.44954192554E+03  0.45756974168E+03  0.25500000920E-02 0. -1.
       -2    1    3    3    0  502 -0.28020562521E+02 -0.80603807287E+02  0.54926596344E+03  0.55585539871E+03  0.25500000920E-02 0.  1.
</event>
<event>
 5   0  0.1571895E-02  0.9676343E+03  0.7818609E-02  0.9344773E-01
       -2   -1    0    0    0  501  0.00000000000E+00  0.00000000000E+00  0.15453326533E+03  0.15453326535E+03  0.25500000920E-02 0.  1.
        2   -1    0    0  501    0  0.00000000000E+00  0.00000000000E+00 -0.15147485971E+04  0.15147485971E+04  0.25500000920E-02 0. -1.
    10030    2    1    2    0    0  0.00000000000E+00  0.00000000000E+00 -0.13602153318E+04  0.16692818624E+04  0.96763432532E+03 0.  0.
        2    1    3    3  502    0  0.20827815050E+03  0.54877714900E+02  0.67263450092E+02  0.22564512690E+03  0.25500000920E-02 0.  1.
       -2    1    3    3    0  502 -0.20827815050E+03 -0.54877714900E+02 -0.14274787819E+04  0.14436367355E+04  0.25500000920E-02 0. -1.
</event>
<event>
 5   0  0.1663497E-02  0.9371915E+03  0.7818609E-02  0.9380248E-01
       -2   -1    0    0    0  501  0.00000000000E+00  0.00000000000E+00  0.19968514961E+03  0.19968514963E+03  0.25500000920E-02 0. -1.
        2   -1    0    0  501    0  0.00000000000E+00  0.00000000000E+00 -0.10996410324E+04  0.10996410324E+04  0.25500000920E-02 0.  1.
    10030    2    1    2    0    0  0.00000000000E+00  0.00000000000E+00 -0.89995588280E+03  0.12993261820E+04  0.93719151531E+03 0.  0.
        1    1    3    3  502    0 -0.13439007203E+03  0.19532227706E+02  0.17180504163E+03  0.21899582584E+03  0.50400001928E-02 0. -1.
       -1    1    3    3    0  502  0.13439007203E+03 -0.19532227706E+02 -0.10717609244E+04  0.10803303562E+04  0.50400001928E-02 0.  1.
</event>
<event>
 5   0  0.1598986E-02  0.9954735E+03  0.7818609E-02  0.9313523E-01
        2   -1    0    0  501    0  0.00000000000E+00  0.00000000000E+00  0.46828716880E+03  0.46828716880E+03  0.25500000920E-02 0.  1.
       -2   -1    0    0    0  501  0.00000000000E+00  0.00000000000E+00 -0.52903835721E+03  0.52903835722E+03  0.25500000920E-02 0. -1.
    10030    2    1    2    0    0  0.00000000000E+00  0.00000000000E+00 -0.60751188415E+02  0.99732552602E+03  0.99547350440E+03 0.  0.
        3    1    3    3  502    0  0.17750896888E+03 -0.30436571063E+03  0.32183776612E+03  0.47720800260E+03  0.10100000352E+00 0.  1.
       -3    1    3    3    0  502 -0.17750896888E+03  0.30436571063E+03 -0.38258895453E+03  0.52011752342E+03  0.10100000352E+00 0. -1.
</event>
<event>
 5   0  0.1571895E-02  0.9878305E+03  0.7818609E-02  0.9321994E-01
        2   -1    0    0  501    0  0.00000000000E+00  0.00000000000E+00  0.16321160060E+04  0.16321160060E+04  0.25500000920E-02 0. -1.
       -2   -1    0    0    0  501  0.00000000000E+00  0.00000000000E+00 -0.14946994754E+03  0.14946994756E+03  0.25500000920E-02 0.  1.
    10030    2    1    2    0    0  0.00000000000E+00  0.00000000000E+00  0.14826460585E+04  0.17815859536E+04  0.98783053975E+03 0.  0.
        2    1    3    3  502    0 -0.41264828520E+03 -0.12862689659E+03  0.31024894666E+03  0.53205065052E+03  0.25500000920E-02 0.  1.
       -2    1    3    3    0  502  0.41264828520E+03  0.12862689659E+03  0.11723971118E+04  0.12495353031E+04  0.25500000920E-02 0. -1.
</event>
<event>
 5   0  0.9396660E-03  0.8638573E+03  0.7818609E-02  0.9471925E-01
        1   -1    0    0  501    0  0.00000000000E+00  0.00000000000E+00  0.15329468708E+04  0.15329468708E+04  0.50400001928E-02 0. -1.
       -1   -1    0    0    0  501  0.00000000000E+00  0.00000000000E+00 -0.12170178559E+03  0.12170178569E+03  0.50400001928E-02 0.  1.
    10030    2    1    2    0    0  0.00000000000E+00  0.00000000000E+00  0.14112450852E+04  0.16546486565E+04  0.86385732961E+03 0.  0.
        5    1    3    3  502    0  0.25984976138E+03  0.14902646458E+03  0.13015902770E+04  0.13356234967E+04  0.46999998093E+01 0. -1.
       -5    1    3    3    0  502 -0.25984976138E+03 -0.14902646458E+03  0.10965480816E+03  0.31902515979E+03  0.46999998093E+01 0.  1.
</event>
<event>
 5   0  0.1656859E-02  0.9853340E+03  0.7818609E-02  0.9324778E-01
       -2   -1    0    0    0  501  0.00000000000E+00  0.00000000000E+00  0.40726806296E+03  0.40726806297E+03  0.25500000920E-02 0.  1.
        2   -1    0    0  501    0  0.00000000000E+00  0.00000000000E+00 -0.59597306388E+03  0.59597306388E+03  0.25500000920E-02 0. -1.
    10030    2    1    2    0    0  0.00000000000E+00  0.00000000000E+00 -0.18870500092E+03  0.10032411268E+04  0.98533404550E+03 0.  0.
        4    1    3    3  502    0 -0.10958518063E+03  0.14226692519E+03 -0.56146054200E+03  0.58948141865E+03  0.12699999809E+01 0. -1.
       -4    1    3    3    0  502  0.10958518063E+03 -0.14226692519E+03  0.37275554108E+03  0.41375970819E+03  0.12699999809E+01 0.  1.
</event>
<event>
 5   0  0.1000773E-02  0.1023086E+04  0.7818609E-02  0.9283581E-01
        1   -1    0    0  501    0  0.00000000000E+00  0.00000000000E+00  0.47706415417E+03  0.47706415420E+03  0.50400001928E-02 0. -1.
       -1   -1    0    0    0  501  0.00000000000E+00  0.00000000000E+00 -0.54851343124E+03  0.54851343127E+03  0.50400001928E-02 0.  1.
    10030    2    1    2    0    0  0.00000000000E+00  0.00000000000E+00 -0.71449277071E+02  0.10255775855E+04  0.10230857171E+04 0.  0.
        3    1    3    3  502    0  0.16073374691E+03  0.42207957270E+03 -0.27649620494E+03  0.52956271077E+03  0.10100000352E+00 0.  1.
       -3    1    3    3    0  502 -0.16073374691E+03 -0.42207957270E+03  0.20504692787E+03  0.49601487469E+03  0.10100000352E+00 0. -1.
</event>
<event>
 5   0  0.9507815E-03  0.1063562E+04  0.7818609E-02  0.9241453E-01
       -1   -1    0    0    0  501  0.00000000000E+00  0.00000000000E+00  0.39450097017E+03  0.39450097020E+03  0.50400001928E-02 0.  1.
        1   -1    0    0  501    0  0.00000000000E+00  0.00000000000E+00 -0.71683229529E+03  0.71683229531E+03  0.50400001928E-02 0. -1.
    10030    2    1    2    0    0  0.00000000000E+00  0.00000000000E+00 -0.32233132512E+03  0.11113332655E+04  0.10635620075E+04 0.  0.
        1    1    3    3  502    0  0.16406620658E+03  0.49159177842E+03 -0.28572932290E+03  0.59179510200E+03  0.50400001928E-02 0. -1.
       -1    1    3    3    0  502 -0.16406620658E+03 -0.49159177842E+03 -0.36602002221E+02  0.51953816352E+03  0.50400001928E-02 0.  1.
</event>
<event>
 5   0  0.1598986E-02  0.1035830E+04  0.7818609E-02  0.9270098E-01
       -2   -1    0    0    0  501  0.00000000000E+00  0.00000000000E+00  0.11181434127E+04  0.11181434127E+04  0.25500000920E-02 0.  1.
        2   -1    0    0  501    0  0.00000000000E+00  0.00000000000E+00 -0.23989381687E+03  0.23989381688E+03  0.25500000920E-02 0. -1.
    10030    2    1    2    0    0  0.00000000000E+00  0.00000000000E+00  0.87824959581E+03  0.13580372296E+04  0.10358295054E+04 0.  0.
        3    1    3    3  502    0 -0.12604613985E+03  0.26132051133E+03 -0.12334950305E+03  0.31526361845E+03  0.10100000352E+00 0. -1.
       -3    1    3    3    0  502  0.12604613985E+03 -0.26132051133E+03  0.10015990989E+04  0.10427736111E+04  0.10100000352E+00 0.  1.
</event>
<event>
 5   0  0.6314750E-03  0.9508183E+03  0.7818609E-02  0.9364195E-01
        3   -1    0    0  501    0  0.00000000000E+00  0.00000000000E+00  0.31561023794E+03  0.31561025411E+03  0.10100000352E+00 0.  1.
       -3   -1    0    0    0  501  0.00000000000E+00  0.00000000000E+00 -0.71611690395E+03  0.71611691107E+03  0.10100000352E+00 0. -1.
    10030    2    1    2    0    0  0.00000000000E+00  0.00000000000E+00 -0.40050666600E+03  0.10317271652E+04  0.95081825490E+03 0.  0.
        2    1    3    3  502    0  0.77557874684E+02 -0.14218529546E+03 -0.68525751693E+03  0.70413759074E+03  0.25500000920E-02 0. -1.
       -2    1    3    3    0  502 -0.77557874684E+02  0.14218529546E+03  0.28475085093E+03  0.32758957444E+03  0.25500000920E-02 0.  1.
</event>
<event>
 5   0  0.1000773E-02  0.1031537E+04  0.7818609E-02  0.9274616E-01
       -1   -1    0    0    0  501  0.00000000000E+00  0.00000000000E+00  0.64727714968E+03  0.64727714970E+03  0.50400001928E-02 0.  1.
        1   -1    0    0  501    0  0.00000000000E+00  0.00000000000E+00 -0.41097876912E+03  0.41097876915E+03  0.50400001928E-02 0. -1.
    10030    2    1    2    0    0  0.00000000000E+00  0.00000000000E+00  0.23629838055E+03  0.10582559189E+04  0.10315370401E+04 0.  0.
        3    1    3    3  502    0 -0.34916703843E+03 -0.54140983478E+02  0.50360487491E+03  0.61519651093E+03  0.10100000352E+00 0.  1.
       -3    1    3    3    0  502  0.34916703843E+03  0.54140983478E+02 -0.26730649436E+03  0.44305940792E+03  0.10100000352E+00 0. -1.
</event>
<event>
 5   0  0.9471140E-03  0.9919897E+03  0.7818609E-02  0.9317374E-01
        1   -1    0    0  501    0  0.00000000000E+00  0.00000000000E+00  0.54278337502E+03  0.54278337505E+03  0.50400001928E-02 0. -1.
       -1   -1    0    0    0  501  0.00000000000E+00  0.00000000000E+00 -0.45323952144E+03  0.45323952147E+03  0.50400001928E-02 0.  1.
    10030    2    1    2    0    0  0.00000000000E+00  0.00000000000E+00  0.89543853586E+02  0.99602289651E+03  0.99198967165E+03 0.  0.
        4    1    3    3  502    0  0.43044275144E+03 -0.23519098961E+03  0.11864756713E+03  0.50465297181E+03  0.12699999809E+01 0.  1.
       -4    1    3    3    0  502 -0.43044275144E+03  0.23519098961E+03 -0.29103713545E+02  0.49136992471E+03  0.12699999809E+01 0. -1.
</event>
<event>
 5   0  0.9396660E-03  0.9974750E+03  0.7818609E-02  0.9311319E-01
        1   -1    0    0  501    0  0.00000000000E+00  0.00000000000E+00  0.41640867877E+03  0.41640867880E+03  0.50400001928E-02 0.  1.
       -1   -1    0    0    0  501  0.00000000000E+00  0.00000000000E+00 -0.59734365366E+03  0.59734365368E+03  0.50400001928E-02 0. -1.
    10030    2    1    2    0    0  0.00000000000E+00  0.00000000000E+00 -0.18093497489E+03  0.10137523325E+04  0.99747497536E+03 0.  0.
        5    1    3    3  502    0 -0.44048434648E+03 -0.19527216217E+03  0.40315435305E+02  0.48353397102E+03  0.46999998093E+01 0. -1.
       -5    1    3    3    0  502  0.44048434648E+03  0.19527216217E+03 -0.22125041019E+03  0.53021836145E+03  0.46999998093E+01 0.  1.
</event>
<event>
 5   0  0.9471140E-03  0.1043068E+04  0.7818609E-02  0.9262531E-01
        1   -1    0    0  501    0  0.00000000000E+00  0.00000000000E+00  0.22454843963E+03  0.22454843969E+03  0.50400001928E-02 0. -1.
       -1   -1    0    0    0  501  0.00000000000E+00  0.00000000000E+00 -0.12113087137E+04  0.12113087137E+04  0.50400001928E-02 0.  1.
    10030    2    1    2    0    0  0.00000000000E+00  0.00000000000E+00 -0.98676027411E+03  0.14358571534E+04  0.10430675561E+04 0.  0.
        4    1    3    3  502    0  0.14278500909E+03 -0.10125078807E+03 -0.11696629925E+04  0.11826886360E+04  0.12699999809E+01 0.  1.
       -4    1    3    3    0  502 -0.14278500909E+03  0.10125078807E+03  0.18290271839E+03  0.25316851739E+03  0.12699999809E+01 0. -1.
</event>
<event>
 5   0  0.1598986E-02  0.1010767E+04  0.7818609E-02  0.9296814E-01
        2   -1    0    0  501    0  0.00000000000E+00  0.00000000000E+00  0.14995468361E+04  0.14995468361E+04  0.25500000920E-02 0.  1.
       -2   -1    0    0    0  501  0.00000000000E+00  0.00000000000E+00 -0.17032637521E+03  0.17032637523E+03  0.25500000920E-02 0. -1.
    10030    2    1    2    0    0  0.00000000000E+00  0.00000000000E+00  0.13292204609E+04  0.16698732113E+04  0.10107667922E+04 0.  0.
        3    1    3    3  502    0 -0.49954379710E+03 -0.40117292768E+01  0.79099496572E+03  0.93553895974E+03  0.10100000352E+00 0. -1.
       -3    1    3    3    0  502  0.49954379710E+03  0.40117292768E+01  0.53822549514E+03  0.73433425156E+03  0.10100000352E+00 0.  1.
</event>
<event>
 5   0  0.9471140E-03  0.1007872E+04  0.7818609E-02  0.9299953E-01
        1   -1    0    0  501    0  0.00000000000E+00  0.00000000000E+00  0.22089429628E+04  0.22089429628E+04  0.50400001928E-02 0. -1.
       -1   -1    0    0    0  501  0.00000000000E+00  0.00000000000E+00 -0.11496518404E+03  0.11496518415E+03  0.50400001928E-02 0.  1.
    10030    2    1    2    0    0  0.00000000000E+00  0.00000000000E+00  0.20939777788E+04  0.23239081470E+04  0.10078720839E+04 0.  0.
        4    1    3    3  502    0 -0.41150001845E+03 -0.28714121038E+03  0.93963908172E+03  0.10652255896E+04  0.12699999809E+01 0. -1.
       -4    1    3    3    0  502  0.41150001845E+03  0.28714121038E+03  0.11543386970E+04  0.12586825574E+04  0.12699999809E+01 0.  1.
</event>
<event>
 5   0  0.1598986E-02  0.9093268E+03  0.7818609E-02  0.9413997E-01
        2   -1    0    0  501    0  0.00000000000E+00  0.00000000000E+00  0.13596726240E+03  0.13596726242E+03  0.25500000920E-02 0. -1.
       -2   -1    0    0    0  501  0.00000000000E+00  0.00000000000E+00 -0.15203573262E+04  0.15203573262E+04  0.25500000920E-02 0.  1.
    10030    2    1    2    0    0  0.00000000000E+00  0.00000000000E+00 -0.13843900638E+04  0.16563245887E+04  0.90932683571E+03 0.  0.
        3    1    3    3  502    0  0.97705831187E+02 -0.61637704391E+02 -0.14931785095E+04  0.14976407137E+04  0.10100000352E+00 0.  1.
       -3    1    3    3    0  502 -0.97705831187E+02  0.61637704391E+02  0.10878844565E+03  0.15868387492E+03  0.10100000352E+00 0. -1.
</event>
<event>
 5   0  0.1656859E-02  0.9569636E+03  0.7818609E-02  0.9357048E-01
        2   -1    0    0  501    0  0.00000000000E+00  0.00000000000E+00  0.11731356246E+04  0.11731356246E+04  0.25500000920E-02 0.  1.
       -2   -1    0    0    0  501  0.00000000000E+00  0.00000000000E+00 -0.19515633424E+03  0.19515633426E+03  0.25500000920E-02 0. -1.
    10030    2    1    2    0    0  0.00000000000E+00  0.00000000000E+00  0.97797929037E+03  0.13682919589E+04  0.95696363166E+03 0.  0.
        4    1    3    3  502    0 -0.97941723434E+02  0.44495138640E+03  0.69800327387E+03  0.83353734210E+03  0.12699999809E+01 0.  1.
       -4    1    3    3    0  502  0.97941723434E+02 -0.44495138640E+03  0.27997601650E+03  0.53475461677E+03  0.12699999809E+01 0. -1.
</event>
<event>
 5   0  0.9471140E-03  0.7213975E+03  0.7818609E-02  0.9681324E-01
        1   -1    0    0  501    0  0.00000000000E+00  0.00000000000E+00  0.48315072266E+03  0.48315072268E+03  0.50400001928E-02 0.  1.
       -1   -1    0    0    0  501  0.00000000000E+00  0.00000000000E+00 -0.26928154883E+03  0.26928154887E+03  0.50400001928E-02 0. -1.
    10030    2    1    2    0    0  0.00000000000E+00  0.00000000000E+00  0.21386917383E+03  0.75243227156E+03  0.72139746310E+03 0.  0.
        4    1    3    3  502    0  0.13048021179E+01 -0.36069412168E+03  0.10703950300E+03  0.37624595682E+03  0.12699999809E+01 0.  1.
       -4    1    3    3    0  502 -0.13048021179E+01  0.36069412168E+03  0.10682967083E+03  0.37618631474E+03  0.12699999809E+01 0. -1.
</event>
<event>
 5   0  0.9507815E-03  0.9576704E+03  0.7818609E-02  0.9356230E-01
        1   -1    0    0  501    0  0.00000000000E+00  0.00000000000E+00  0.51997232166E+03  0.51997232169E+03  0.50400001928E-02 0.  1.
       -1   -1    0    0    0  501  0.00000000000E+00  0.00000000000E+00 -0.44095258107E+03  0.44095258110E+03  0.50400001928E-02 0. -1.
    10030    2    1    2    0    0  0.00000000000E+00  0.00000000000E+00  0.79019740593E+02  0.96092490278E+03  0.95767037617E+03 0.  0.
        1    1    3    3  502    0 -0.60496189463E+01 -0.15986271756E+03 -0.41334467364E+03  0.44322286224E+03  0.50400001928E-02 0. -1.
       -1    1    3    3    0  502  0.60496189463E+01  0.15986271756E+03  0.49236441423E+03  0.51770204055E+03  0.50400001928E-02 0.  1.
</event>
<event>
 5   0  0.1571895E-02  0.1015596E+04  0.7818609E-02  0.9291603E-01
       -2   -1    0    0    0  501  0.00000000000E+00  0.00000000000E+00  0.19205353181E+03  0.19205353183E+03  0.25500000920E-02 0.  1.
        2   -1    0    0  501    0  0.00000000000E+00  0.00000000000E+00 -0.13426403062E+04  0.13426403062E+04  0.25500000920E-02 0. -1.
    10030    2    1    2    0    0  0.00000000000E+00  0.00000000000E+00 -0.11505867744E+04  0.15346938381E+04  0.10155960078E+04 0.  0.
        2    1    3    3  502    0  0.93532767971E+02 -0.12631701653E+03 -0.13049568745E+04  0.13143883793E+04  0.25500000920E-02 0. -1.
       -2    1    3    3    0  502 -0.93532767971E+02  0.12631701653E+03  0.15437010008E+03  0.22030545875E+03  0.25500000920E-02 0.  1.
</event>
<event>
 5   0  0.1598986E-02  0.1020656E+04  0.7818609E-02  0.9286175E-01
       -2   -1    0    0    0  501  0.00000000000E+00  0.00000000000E+00  0.33684196676E+03  0.33684196677E+03  0.25500000920E-02 0.  1.
        2   -1    0    0  501    0  0.00000000000E+00  0.00000000000E+00 -0.77316557592E+03  0.77316557592E+03  0.25500000920E-02 0. -1.
    10030    2    1    2    0    0  0.00000000000E+00  0.00000000000E+00 -0.43632360916E+03  0.11100075427E+04  0.10206558935E+04 0.  0.
        3    1    3    3  502    0 -0.30564507440E+03  0.36340195474E+03 -0.42149085809E+03  0.63492869353E+03  0.10100000352E+00 0.  1.
       -3    1    3    3    0  502  0.30564507440E+03 -0.36340195474E+03 -0.14832751065E+02  0.47507884916E+03  0.10100000352E+00 0. -1.
</event>
<event>
 5   0  0.9471140E-03  0.1006057E+04  0.7818609E-02  0.9301926E-01
        1   -1    0    0  501    0  0.00000000000E+00  0.00000000000E+00  0.31622312638E+03  0.31622312642E+03  0.50400001928E-02 0.  1.
       -1   -1    0    0    0  501  0.00000000000E+00  0.00000000000E+00 -0.80018777201E+03  0.80018777203E+03  0.50400001928E-02 0. -1.
    10030    2    1    2    0    0  0.00000000000E+00  0.00000000000E+00 -0.48396464563E+03  0.11164108985E+04  0.10060574119E+04 0.  0.
        4    1    3    3  502    0  0.39753526786E+03 -0.30298161439E+03 -0.30479619547E+03  0.58543529234E+03  0.12699999809E+01 0.  1.
       -4    1    3    3    0  502 -0.39753526786E+03  0.30298161439E+03 -0.17916845016E+03  0.53097560611E+03  0.12699999809E+01 0. -1.
</event>
<event>
 5   0  0.9759443E-03  0.9913466E+03  0.7818609E-02  0.9318087E-01
       -1   -1    0    0    0  501  0.00000000000E+00  0.00000000000E+00  0.35332055190E+03  0.35332055194E+03  0.50400001928E-02 0.  1.
        1   -1    0    0  501    0  0.00000000000E+00  0.00000000000E+00 -0.69537998641E+03  0.69537998643E+03  0.50400001928E-02 0. -1.
    10030    2    1    2    0    0  0.00000000000E+00  0.00000000000E+00 -0.34205943451E+03  0.10487005384E+04  0.99134664090E+03 0.  0.
        2    1    3    3  502    0 -0.62199946697E+02 -0.42837599737E+03 -0.42649055300E+03  0.60767509435E+03  0.25500000920E-02 0. -1.
       -2    1    3    3    0  502  0.62199946697E+02  0.42837599737E+03  0.84431118494E+02  0.44102544401E+03  0.25500000920E-02 0.  1.
</event>
<event>
 5   0  0.9507815E-03  0.8808640E+03  0.7818609E-02  0.9449824E-01
        1   -1    0    0  501    0  0.00000000000E+00  0.00000000000E+00  0.17140352745E+04  0.17140352745E+04  0.50400001928E-02 0.  1.
       -1   -1    0    0    0  501  0.00000000000E+00  0.00000000000E+00 -0.11317173621E+03  0.11317173633E+03  0.50400001928E-02 0. -1.
    10030    2    1    2    0    0  0.00000000000E+00  0.00000000000E+00  0.16008635383E+04  0.18272070108E+04  0.88086400326E+03 0.  0.
        1    1    3    3  502    0  0.87168882324E+02  0.43171356026E+03  0.79564015767E+03  0.90940545011E+03  0.50400001928E-02 0.  1.
       -1    1    3    3    0  502 -0.87168882324E+02 -0.43171356026E+03  0.80522338063E+03  0.91780156074E+03  0.50400001928E-02 0. -1.
</event>
<event>
 5   0  0.1571895E-02  0.9508351E+03  0.7818609E-02  0.9364175E-01
       -2   -1    0    0    0  501  0.00000000000E+00  0.00000000000E+00  0.32540671542E+03  0.32540671543E+03  0.25500000920E-02 0.  1.
        2   -1    0    0  501    0  0.00000000000E+00  0.00000000000E+00 -0.69458264065E+03  0.69458264066E+03  0.25500000920E-02 0. -1.
    10030    2    1    2    0    0  0.00000000000E+00  0.00000000000E+00 -0.36917592524E+03  0.10199893561E+04  0.95083511860E+03 0.  0.
        2    1    3    3  502    0  0.17193378614E+03  0.43674037750E+03 -0.26570842316E+03  0.53935549529E+03  0.25500000920E-02 0.  1.
       -2    1    3    3    0  502 -0.17193378614E+03 -0.43674037750E+03 -0.10346750207E+03  0.48063386080E+03  0.25500000920E-02 0. -1.
</event>
<event>
 5   0  0.9396660E-03  0.9870800E+03  0.7818609E-02  0.9322830E-01
       -1   -1    0    0    0  501  0.00000000000E+00  0.00000000000E+00  0.33382958401E+03  0.33382958405E+03  0.50400001928E-02 0.  1.
        1   -1    0    0  501    0  0.00000000000E+00  0.00000000000E+00 -0.72965889753E+03  0.72965889755E+03  0.50400001928E-02 0. -1.
    10030    2    1    2    0    0  0.00000000000E+00  0.00000000000E+00 -0.39582931352E+03  0.10634884816E+04  0.98707998918E+03 0.  0.
        5    1    3    3  502    0  0.31429467556E+03 -0.37246343291E+03 -0.28171380814E+03  0.56293419832E+03  0.46999998093E+01 0.  1.
       -5    1    3    3    0  502 -0.31429467556E+03  0.37246343291E+03 -0.11411550538E+03  0.50055428328E+03  0.46999998093E+01 0. -1.
</event>
<event>
 5   0  0.1000773E-02  0.1045150E+04  0.7818609E-02  0.9260366E-01
        1   -1    0    0  501    0  0.00000000000E+00  0.00000000000E+00  0.32135284496E+03  0.32135284500E+03  0.50400001928E-02 0.  1.
       -1   -1    0    0    0  501  0.00000000000E+00  0.00000000000E+00 -0.84979619186E+03  0.84979619187E+03  0.50400001928E-02 0. -1.
    10030    2    1    2    0    0  0.00000000000E+00  0.00000000000E+00 -0.52844334690E+03  0.11711490369E+04  0.10451496045E+04 0.  0.
        3    1    3    3  502    0  0.24105810267E+03 -0.15653054975E+03  0.22482588026E+03  0.36490753418E+03  0.10100000352E+00 0.  1.
       -3    1    3    3    0  502 -0.24105810267E+03  0.15653054975E+03 -0.75326922716E+03  0.80624150269E+03  0.10100000352E+00 0. -1.
</event>
<event>
 5   0  0.1598986E-02  0.8372111E+03  0.7818609E-02  0.9507664E-01
        2   -1    0    0  501    0  0.00000000000E+00  0.00000000000E+00  0.19157031739E+04  0.19157031739E+04  0.25500000920E-02 0.  1.
       -2   -1    0    0    0  501  0.00000000000E+00  0.00000000000E+00 -0.91470640176E+02  0.91470640211E+02  0.25500000920E-02 0. -1.
    10030    2    1    2    0    0  0.00000000000E+00  0.00000000000E+00  0.18242325338E+04  0.20071738141E+04  0.83721107433E+03 0.  0.
        3    1    3    3  502    0 -0.19834434536E+03 -0.54109344299E+02  0.37909320193E+02  0.20905843020E+03  0.10100000352E+00 0. -1.
       -3    1    3    3    0  502  0.19834434536E+03  0.54109344299E+02  0.17863232136E+04  0.17981153839E+04  0.10100000352E+00 0.  1.
</event>
<event>
 5   0  0.1598986E-02  0.8688652E+03  0.7818609E-02  0.9465361E-01
       -2   -1    0    0    0  501  0.00000000000E+00  0.00000000000E+00  0.23814426390E+03  0.23814426392E+03  0.25500000920E-02 0.  1.
        2   -1    0    0  501    0  0.00000000000E+00  0.00000000000E+00 -0.79250995453E+03  0.79250995453E+03  0.25500000920E-02 0. -1.
    10030    2    1    2    0    0  0.00000000000E+00  0.00000000000E+00 -0.55436569063E+03  0.10306542184E+04  0.86886523642E+03 0.  0.
        3    1    3    3  502    0 -0.37492226222E+03 -0.23705405983E+02 -0.53599097284E+03  0.65453417187E+03  0.10100000352E+00 0.  1.
       -3    1    3    3    0  502  0.37492226222E+03  0.23705405983E+02 -0.18374717792E+02  0.37612004658E+03  0.10100000352E+00 0. -1.
</event>
<event>
 5   0  0.9507815E-03  0.1000838E+04  0.7818609E-02  0.9307626E-01
        1   -1    0    0  501    0  0.00000000000E+00  0.00000000000E+00  0.19666803981E+04  0.19666803981E+04  0.50400001928E-02 0. -1.
       -1   -1    0    0    0  501  0.00000000000E+00  0.00000000000E+00 -0.12733094359E+03  0.12733094369E+03  0.50400001928E-02 0.  1.
    10030    2    1    2    0    0  0.00000000000E+00  0.00000000000E+00  0.18393494545E+04  0.20940113418E+04  0.10008381906E+04 0.  0.
        1    1    3    3  502    0 -0.42653180127E+03 -0.82483209492E+02  0.40002593632E+03  0.59055364456E+03  0.50400001928E-02 0.  1.
       -1    1    3    3    0  502  0.42653180127E+03  0.82483209492E+02  0.14393235182E+04  0.15034576973E+04  0.50400001928E-02 0. -1.
</event>
<event>
 5   0  0.1663497E-02  0.9608496E+03  0.7818609E-02  0.9352558E-01
        2   -1    0    0  501    0  0.00000000000E+00  0.00000000000E+00  0.17961901589E+04  0.17961901589E+04  0.25500000920E-02 0. -1.
       -2   -1    0    0    0  501  0.00000000000E+00  0.00000000000E+00 -0.12849863689E+03  0.12849863692E+03  0.25500000920E-02 0.  1.
    10030    2    1    2    0    0  0.00000000000E+00  0.00000000000E+00  0.16676915220E+04  0.19246887958E+04  0.96084959706E+03 0.  0.
        1    1    3    3  502    0  0.11593845594E+03  0.13532699813E+03 -0.59849226832E+02  0.18798152028E+03  0.50400001928E-02 0.  1.
       -1    1    3    3    0  502 -0.11593845594E+03 -0.13532699813E+03  0.17275407488E+04  0.17367072755E+04  0.50400001928E-02 0. -1.
</event>
<event>
 5   0  0.9759443E-03  0.1037107E+04  0.7818609E-02  0.9268757E-01
        1   -1    0    0  501    0  0.00000000000E+00  0.00000000000E+00  0.10594836197E+04  0.10594836197E+04  0.50400001928E-02 0.  1.
       -1   -1    0    0    0  501  0.00000000000E+00  0.00000000000E+00 -0.25380098548E+03  0.25380098553E+03  0.50400001928E-02 0. -1.
    10030    2    1    2    0    0  0.00000000000E+00  0.00000000000E+00  0.80568263420E+03  0.13132846052E+04  0.10371074907E+04 0.  0.
        2    1    3    3  502    0 -0.19722580465E+03  0.41298842777E+03  0.94113040160E+02  0.46724161183E+03  0.25500000920E-02 0. -1.
       -2    1    3    3    0  502  0.19722580465E+03 -0.41298842777E+03  0.71156959404E+03  0.84604299339E+03  0.25500000920E-02 0.  1.
</event>
<event>
 5   0  0.9507815E-03  0.9675573E+03  0.7818609E-02  0.9344861E-01
        1   -1    0    0  501    0  0.00000000000E+00  0.00000000000E+00  0.37772760360E+03  0.37772760363E+03  0.50400001928E-02 0. -1.
       -1   -1    0    0    0  501  0.00000000000E+00  0.00000000000E+00 -0.61960467974E+03  0.61960467976E+03  0.50400001928E-02 0.  1.
    10030    2    1    2    0    0  0.00000000000E+00  0.00000000000E+00 -0.24187707614E+03  0.99733228339E+03  0.96755731795E+03 0.  0.
        1    1    3    3  502    0 -0.37395315119E+03  0.19546506839E+03 -0.36485148149E+03  0.55782089941E+03  0.50400001928E-02 0.  1.
       -1    1    3    3    0  502  0.37395315119E+03 -0.19546506839E+03  0.12297440536E+03  0.43951138398E+03  0.50400001928E-02 0. -1.
</event>
<event>
 5   0  0.6314750E-03  0.1012024E+04  0.7818609E-02  0.9295454E-01
        4   -1    0    0  501    0  0.00000000000E+00  0.00000000000E+00  0.72641996137E+03  0.72642107154E+03  0.12699999809E+01 0. -1.
       -4   -1    0    0    0  501  0.00000000000E+00  0.00000000000E+00 -0.35247713085E+03  0.35247941879E+03  0.12699999809E+01 0.  1.
    10030    2    1    2    0    0  0.00000000000E+00  0.00000000000E+00  0.37394283052E+03  0.10789004903E+04  0.10120242228E+04 0.  0.
        4    1    3    3  502    0  0.62266307617E+02 -0.37127091239E+03  0.54743862223E+03  0.66438681614E+03  0.12699999809E+01 0. -1.
       -4    1    3    3    0  502 -0.62266307617E+02  0.37127091239E+03 -0.17349579171E+03  0.41451367419E+03  0.12699999809E+01 0.  1.
</event>
<event>
 5   0  0.1663497E-02  0.1073019E+04  0.7818609E-02  0.9231896E-01
        2   -1    0    0  501    0  0.00000000000E+00  0.00000000000E+00  0.12859741823E+04  0.12859741823E+04  0.25500000920E-02 0.  1.
       -2   -1    0    0    0  501  0.00000000000E+00  0.00000000000E+00 -0.22383231820E+03  0.22383231821E+03  0.25500000920E-02 0. -1.
    10030    2    1    2    0    0  0.00000000000E+00  0.00000000000E+00  0.10621418641E+04  0.15098065005E+04  0.10730192587E+04 0.  0.
        1    1    3    3  502    0 -0.43483241006E+03  0.11289002740E+03  0.94374907899E+03  0.10452204108E+04  0.50400001928E-02 0.  1.
       -1    1    3    3    0  502  0.43483241006E+03 -0.11289002740E+03  0.11839278511E+03  0.46458608967E+03  0.50400001928E-02 0. -1.
</event>
<event>
 5   0  0.9759443E-03  0.1030603E+04  0.7818609E-02  0.9275603E-01
        1   -1    0    0  501    0  0.00000000000E+00  0.00000000000E+00  0.57084318561E+03  0.57084318563E+03  0.50400001928E-02 0.  1.
       -1   -1    0    0    0  501  0.00000000000E+00  0.00000000000E+00 -0.46516371301E+03  0.46516371304E+03  0.50400001928E-02 0. -1.
    10030    2    1    2    0    0  0.00000000000E+00  0.00000000000E+00  0.10567947260E+03  0.10360068987E+04  0.10306028057E+04 0.  0.
        2    1    3    3  502    0  0.11104897538E+03  0.31712703332E+03 -0.33989301492E+03  0.47794214273E+03  0.25500000920E-02 0. -1.
       -2    1    3    3    0  502 -0.11104897538E+03 -0.31712703332E+03  0.44557248751E+03  0.55806475595E+03  0.25500000920E-02 0.  1.
</event>
<event>
 5   0  0.9759443E-03  0.9557855E+03  0.7818609E-02  0.9358414E-01
        1   -1    0    0  501    0  0.00000000000E+00  0.00000000000E+00  0.13704523364E+04  0.13704523365E+04  0.50400001928E-02 0.  1.
       -1   -1    0    0    0  501  0.00000000000E+00  0.00000000000E+00 -0.16664678704E+03  0.16664678711E+03  0.50400001928E-02 0. -1.
    10030    2    1    2    0    0  0.00000000000E+00  0.00000000000E+00  0.12038055494E+04  0.15370991236E+04  0.95578549628E+03 0.  0.
        2    1    3    3  502    0 -0.38067285663E+03 -0.10291124876E+03  0.10360554008E+04  0.11085636393E+04  0.25500000920E-02 0. -1.
       -2    1    3    3    0  502  0.38067285663E+03  0.10291124876E+03  0.16775014860E+03  0.42853548424E+03  0.25500000920E-02 0.  1.
</event>
<event>
 5   0  0.1571895E-02  0.5094054E+03  0.7818609E-02  0.1011353E+00
        2   -1    0    0  501    0  0.00000000000E+00  0.00000000000E+00  0.64446953339E+03  0.64446953339E+03  0.25500000920E-02 0.  1.
       -2   -1    0    0    0  501  0.00000000000E+00  0.00000000000E+00 -0.10066181472E+03  0.10066181475E+03  0.25500000920E-02 0. -1.
    10030    2    1    2    0    0  0.00000000000E+00  0.00000000000E+00  0.54380771867E+03  0.74513134814E+03  0.50940542900E+03 0.  0.
        2    1    3    3  502    0 -0.14526268870E+03  0.20921709492E+03  0.27094329593E+03  0.37186464089E+03  0.25500000920E-02 0. -1.
       -2    1    3    3    0  502  0.14526268870E+03 -0.20921709492E+03  0.27286442275E+03  0.37326670725E+03  0.25500000920E-02 0.  1.
</event>
<event>
 5   0  0.6314750E-03  0.1014974E+04  0.7818609E-02  0.9292272E-01
       -3   -1    0    0    0  501  0.00000000000E+00  0.00000000000E+00  0.28084187933E+03  0.28084189749E+03  0.10100000352E+00 0. -1.
        3   -1    0    0  501    0  0.00000000000E+00  0.00000000000E+00 -0.91703965231E+03  0.91703965787E+03  0.10100000352E+00 0.  1.
    10030    2    1    2    0    0  0.00000000000E+00  0.00000000000E+00 -0.63619777298E+03  0.11978815554E+04  0.10149741939E+04 0.  0.
        3    1    3    3  502    0 -0.16313518565E+03  0.47669186500E+03 -0.38983889478E+03  0.63704206850E+03  0.10100000352E+00 0.  1.
       -3    1    3    3    0  502  0.16313518565E+03 -0.47669186500E+03 -0.24635887820E+03  0.56083948686E+03  0.10100000352E+00 0. -1.
</event>
<event>
 5   0  0.1000773E-02  0.9893287E+03  0.7818609E-02  0.9320327E-01
        1   -1    0    0  501    0  0.00000000000E+00  0.00000000000E+00  0.93879835437E+03  0.93879835438E+03  0.50400001928E-02 0.  1.
       -1   -1    0    0    0  501  0.00000000000E+00  0.00000000000E+00 -0.26064469766E+03  0.26064469771E+03  0.50400001928E-02 0. -1.
    10030    2    1    2    0    0  0.00000000000E+00  0.00000000000E+00  0.67815365670E+03  0.11994430521E+04  0.98932868810E+03 0.  0.
        3    1    3    3  502    0  0.34153817253E+03  0.10684734548E+03 -0.74961623776E+02  0.36562813592E+03  0.10100000352E+00 0. -1.
       -3    1    3    3    0  502 -0.34153817253E+03 -0.10684734548E+03  0.75311528048E+03  0.83381491617E+03  0.10100000352E+00 0.  1.
</event>
<event>
 5   0  0.1617721E-02  0.9855786E+03  0.7818609E-02  0.9324505E-01
       -2   -1    0    0    0  501  0.00000000000E+00  0.00000000000E+00  0.38220391772E+03  0.38220391773E+03  0.25500000920E-02 0. -1.
        2   -1    0    0  501    0  0.00000000000E+00  0.00000000000E+00 -0.63537099049E+03  0.63537099050E+03  0.25500000920E-02 0.  1.
    10030    2    1    2    0    0  0.00000000000E+00  0.00000000000E+00 -0.25316707278E+03  0.10175749082E+04  0.98557857480E+03 0.  0.
        5    1    3    3  502    0 -0.22120871352E+03 -0.16830195132E+03 -0.54668413798E+03  0.61330618656E+03  0.46999998093E+01 0.  1.
       -5    1    3    3    0  502  0.22120871352E+03  0.16830195132E+03  0.29351706520E+03  0.40426872167E+03  0.46999998093E+01 0. -1.
</event>
<event>
 5   0  0.1000773E-02  0.9722792E+03  0.7818609E-02  0.9339482E-01
        1   -1    0    0  501    0  0.00000000000E+00  0.00000000000E+00  0.85985808761E+03  0.85985808763E+03  0.50400001928E-02 0.  1.
       -1   -1    0    0    0  501  0.00000000000E+00  0.00000000000E+00 -0.27484965232E+03  0.27484965236E+03  0.50400001928E-02 0. -1.
    10030    2    1    2    0    0  0.00000000000E+00  0.00000000000E+00  0.58500843529E+03  0.11347077400E+04  0.97227917073E+03 0.  0.
        3    1    3    3  502    0  0.19974577064E+03  0.32442849066E+03  0.64490881211E+03  0.74903912086E+03  0.10100000352E+00 0. -1.
       -3    1    3    3    0  502 -0.19974577064E+03 -0.32442849066E+03 -0.59900376819E+02  0.38566861913E+03  0.10100000352E+00 0.  1.
</event>
<event>
 5   0  0.1571895E-02  0.9715657E+03  0.7818609E-02  0.9340293E-01
        2   -1    0    0  501    0  0.00000000000E+00  0.00000000000E+00  0.16219904301E+03  0.16219904303E+03  0.25500000920E-02 0. -1.
       -2   -1    0    0    0  501  0.00000000000E+00  0.00000000000E+00 -0.14549099384E+04  0.14549099384E+04  0.25500000920E-02 0.  1.
    10030    2    1    2    0    0  0.00000000000E+00  0.00000000000E+00 -0.12927108954E+04  0.16171089815E+04  0.97156574599E+03 0.  0.
        2    1    3    3  502    0 -0.10058543461E+03  0.33321567270E+03 -0.82323095422E+02  0.35766912955E+03  0.25500000920E-02 0. -1.
       -2    1    3    3    0  502  0.10058543461E+03 -0.33321567270E+03 -0.12103878000E+04  0.12594398519E+04  0.25500000920E-02 0.  1.
</event>
<event>
 5   0  0.1571895E-02  0.1027873E+04  0.7818609E-02  0.9278492E-01
        2   -1    0    0  501    0  0.00000000000E+00  0.00000000000E+00  0.69783203497E+03  0.69783203498E+03  0.25500000920E-02 0. -1.
       -2   -1    0    0    0  501  0.00000000000E+00  0.00000000000E+00 -0.37850166979E+03  0.37850166980E+03  0.25500000920E-02 0.  1.
    10030    2    1    2    0    0  0.00000000000E+00  0.00000000000E+00  0.31933036518E+03  0.10763337048E+04  0.10278727362E+04 0.  0.
        2    1    3    3  502    0  0.42885636391E+03  0.67163576658E+02  0.44777687182E+03  0.62364481385E+03  0.25500000920E-02 0.  1.
       -2    1    3    3    0  502 -0.42885636391E+03 -0.67163576658E+02 -0.12844650663E+03  0.45268889093E+03  0.25500000920E-02 0. -1.
</event>
<event>
 5   0  0.9507815E-03  0.1012162E+04  0.7818609E-02  0.9295305E-01
        1   -1    0    0  501    0  0.00000000000E+00  0.00000000000E+00  0.10088640634E+04  0.10088640634E+04  0.50400001928E-02 0. -1.
       -1   -1    0    0    0  501  0.00000000000E+00  0.00000000000E+00 -0.25386764734E+03  0.25386764739E+03  0.50400001928E-02 0.  1.
    10030    2    1    2    0    0  0.00000000000E+00  0.00000000000E+00  0.75499641603E+03  0.12627317108E+04  0.10121619362E+04 0.  0.
        1    1    3    3  502    0 -0.38432739512E+03 -0.32821111899E+03  0.41021806738E+03  0.65092929578E+03  0.50400001928E-02 0.  1.
       -1    1    3    3    0  502  0.38432739512E+03  0.32821111899E+03  0.34477834865E+03  0.61180241500E+03  0.50400001928E-02 0. -1.
</event>
<event>
 5   0  0.1598986E-02  0.9757341E+03  0.7818609E-02  0.9335567E-01
        2   -1    0    0  501    0  0.00000000000E+00  0.00000000000E+00  0.70805223297E+03  0.70805223298E+03  0.25500000920E-02 0.  1.
       -2   -1    0    0    0  501  0.00000000000E+00  0.00000000000E+00 -0.33615354238E+03  0.33615354239E+03  0.25500000920E-02 0. -1.
    10030    2    1    2    0    0  0.00000000000E+00  0.00000000000E+00  0.37189869059E+03  0.10442057754E+04  0.97573411606E+03 0.  0.
        3    1    3    3  502    0  0.33626507435E+03  0.24998144406E+03 -0.81485815162E+02  0.42685462499E+03  0.10100000352E+00 0. -1.
       -3    1    3    3    0  502 -0.33626507435E+03 -0.24998144406E+03  0.45338450575E+03  0.61735115037E+03  0.10100000352E+00 0.  1.
</event>
<event>
 5   0  0.1571895E-02  0.9710262E+03  0.7818609E-02  0.9340906E-01
       -2   -1    0    0    0  501  0.00000000000E+00  0.00000000000E+00  0.25524836105E+03  0.25524836106E+03  0.25500000920E-02 0.  1.
        2   -1    0    0  501    0  0.00000000000E+00  0.00000000000E+00 -0.92350433767E+03  0.92350433768E+03  0.25500000920E-02 0. -1.
    10030    2    1    2    0    0  0.00000000000E+00  0.00000000000E+00 -0.66825597663E+03  0.11787526987E+04  0.97102619660E+03 0.  0.
        2    1    3    3  502    0  0.22619527040E+02 -0.17009491651E+03 -0.88546774408E+03  0.90194071281E+03  0.25500000920E-02 0. -1.
       -2    1    3    3    0  502 -0.22619527040E+02  0.17009491651E+03  0.21721176745E+03  0.27681198592E+03  0.25500000920E-02 0.  1.
</event>
<event>
 5   0  0.1000773E-02  0.9427921E+03  0.7818609E-02  0.9373615E-01
       -1   -1    0    0    0  501  0.00000000000E+00  0.00000000000E+00  0.59779543936E+03  0.59779543938E+03  0.50400001928E-02 0.  1.
        1   -1    0    0  501    0  0.00000000000E+00  0.00000000000E+00 -0.37172288038E+03  0.37172288041E+03  0.50400001928E-02 0. -1.
    10030    2    1    2    0    0  0.00000000000E+00  0.00000000000E+00  0.22607255898E+03  0.96951831980E+03  0.94279211415E+03 0.  0.
        3    1    3    3  502    0 -0.33263055883E+03 -0.32303632249E+03  0.25664955554E+02  0.46438588961E+03  0.10100000352E+00 0. -1.
       -3    1    3    3    0  502  0.33263055883E+03  0.32303632249E+03  0.20040760343E+03  0.50513243019E+03  0.10100000352E+00 0.  1.
</event>
<event>
 5   0  0.1000773E-02  0.5534706E+03  0.7818609E-02  0.1000694E+00
        1   -1    0    0  501    0  0.00000000000E+00  0.00000000000E+00  0.10534170627E+04  0.10534170627E+04  0.50400001928E-02 0. -1.
       -1   -1    0    0    0  501  0.00000000000E+00  0.00000000000E+00 -0.72699060819E+02  0.72699060994E+02  0.50400001928E-02 0.  1.
    10030    2    1    2    0    0  0.00000000000E+00  0.00000000000E+00  0.98071800185E+03  0.11261161237E+04  0.55347061787E+03 0.  0.
        3    1    3    3  502    0  0.13466860148E+03  0.85485387863E+02  0.30245602377E+02  0.16235205705E+03  0.10100000352E+00 0.  1.
       -3    1    3    3    0  502 -0.13466860148E+03 -0.85485387863E+02  0.95047239947E+03  0.96376406663E+03  0.10100000352E+00 0. -1.
</event>
<event>
 5   0  0.9471140E-03  0.1009151E+04  0.7818609E-02  0.9298565E-01
       -1   -1    0    0    0  501  0.00000000000E+00  0.00000000000E+00  0.69543039069E+03  0.69543039070E+03  0.50400001928E-02 0. -1.
        1   -1    0    0  501    0  0.00000000000E+00  0.00000000000E+00 -0.36609923101E+03  0.36609923104E+03  0.50400001928E-02 0.  1.
    10030    2    1    2    0    0  0.00000000000E+00  0.00000000000E+00  0.32933115968E+03  0.10615296217E+04  0.10091511904E+04 0.  0.
        4    1    3    3  502    0 -0.20929527256E+03 -0.36755002666E+03 -0.12474627698E+03  0.44097707394E+03  0.12699999809E+01 0.  1.
       -4    1    3    3    0  502  0.20929527256E+03  0.36755002666E+03  0.45407743666E+03  0.62055254781E+03  0.12699999809E+01 0. -1.
</event>
<event>
 5   0  0.1598986E-02  0.1000429E+04  0.7818609E-02  0.9308075E-01
        2   -1    0    0  501    0  0.00000000000E+00  0.00000000000E+00  0.18132854559E+03  0.18132854561E+03  0.25500000920E-02 0.  1.
       -2   -1    0    0    0  501  0.00000000000E+00  0.00000000000E+00 -0.13798957636E+04  0.13798957636E+04  0.25500000920E-02 0. -1.
    10030    2    1    2    0    0  0.00000000000E+00  0.00000000000E+00 -0.11985672180E+04  0.15612243092E+04  0.10004288918E+04 0.  0.
        3    1    3    3  502    0 -0.15660379806E+03  0.38667773180E+03 -0.16858721138E+03  0.44996230496E+03  0.10100000352E+00 0.  1.
       -3    1    3    3    0  502  0.15660379806E+03 -0.38667773180E+03 -0.10299800067E+04  0.11112620043E+04  0.10100000352E+00 0. -1.
</event>
<event>
 5   0  0.1571895E-02  0.1010631E+04  0.7818609E-02  0.9296961E-01
       -2   -1    0    0    0  501  0.00000000000E+00  0.00000000000E+00  0.11628789311E+03  0.11628789314E+03  0.25500000920E-02 0.  1.
        2   -1    0    0  501    0  0.00000000000E+00  0.00000000000E+00 -0.21957889205E+04  0.21957889205E+04  0.25500000920E-02 0. -1.
    10030    2    1    2    0    0  0.00000000000E+00  0.00000000000E+00 -0.20795010274E+04  0.23120768137E+04  0.10106308274E+04 0.  0.
        2    1    3    3  502    0  0.25734655280E+03 -0.26234877233E+03 -0.18332079787E+04  0.18696806197E+04  0.25500000920E-02 0. -1.
       -2    1    3    3    0  502 -0.25734655280E+03  0.26234877233E+03 -0.24629304877E+03  0.44239619399E+03  0.25500000920E-02 0.  1.
</event>
<event>
 5   0  0.1656859E-02  0.9902006E+03  0.7818609E-02  0.9319358E-01
       -2   -1    0    0    0  501  0.00000000000E+00  0.00000000000E+00  0.52337574763E+03  0.52337574764E+03  0.25500000920E-02 0. -1.
        2   -1    0    0  501    0  0.00000000000E+00  0.00000000000E+00 -0.46835247682E+03  0.46835247683E+03  0.25500000920E-02 0.  1.
    10030    2    1    2    0    0  0.00000000000E+00  0.00000000000E+00  0.55023270809E+02  0.99172822447E+03  0.99020064173E+03 0.  0.
        4    1    3    3  502    0 -0.27649315085E+03 -0.13401068500E+03 -0.36130807176E+03  0.47429153669E+03  0.12699999809E+01 0.  1.
       -4    1    3    3    0  502  0.27649315085E+03  0.13401068500E+03  0.41633134257E+03  0.51743668778E+03  0.12699999809E+01 0. -1.
</event>
<event>
 5   0  0.9759443E-03  0.8028547E+03  0.7818609E-02  0.9555894E-01
       -1   -1    0    0    0  501  0.00000000000E+00  0.00000000000E+00  0.79395645673E+03  0.79395645675E+03  0.50400001928E-02 0. -1.
        1   -1    0    0  501    0  0.00000000000E+00  0.00000000000E+00 -0.20296317903E+03  0.20296317910E+03  0.50400001928E-02 0.  1.
    10030    2    1    2    0    0  0.00000000000E+00  0.00000000000E+00  0.59099327770E+03  0.99691963584E+03  0.80285472288E+03 0.  0.
        2    1    3    3  502    0  0.24901549635E+03  0.68899135308E+02  0.67698548755E+03  0.72461379964E+03  0.25500000920E-02 0. -1.
       -2    1    3    3    0  502 -0.24901549635E+03 -0.68899135308E+02 -0.85992209849E+02  0.27230583621E+03  0.25500000920E-02 0.  1.
</event>
<event>
 5   0  0.6314750E-03  0.8603640E+03  0.7818609E-02  0.9476531E-01
        3   -1    0    0  501    0  0.00000000000E+00  0.00000000000E+00  0.26135941620E+03  0.26135943572E+03  0.10100000352E+00 0. -1.
       -3   -1    0    0    0  501  0.00000000000E+00  0.00000000000E+00 -0.70805386902E+03  0.70805387623E+03  0.10100000352E+00 0.  1.
    10030    2    1    2    0    0  0.00000000000E+00  0.00000000000E+00 -0.44669445282E+03  0.96941331194E+03  0.86036401319E+03 0.  0.
        4    1    3    3  502    0  0.32043189570E+02  0.42380326960E+03 -0.14844629830E+03  0.45019317376E+03  0.12699999809E+01 0.  1.
       -4    1    3    3    0  502 -0.32043189570E+02 -0.42380326960E+03 -0.29824815453E+03  0.51922013819E+03  0.12699999809E+01 0. -1.
</event>
<event>
 5   0  0.1663497E-02  0.1043011E+04  0.7818609E-02  0.9262589E-01
        2   -1    0    0  501    0  0.00000000000E+00  0.00000000000E+00  0.13447869491E+04  0.13447869491E+04  0.25500000920E-02 0.  1.
       -2   -1    0    0    0  501  0.00000000000E+00  0.00000000000E+00 -0.20223880457E+03  0.20223880459E+03  0.25500000920E-02 0. -1.
    10030    2    1    2    0    0  0.00000000000E+00  0.00000000000E+00  0.11425481445E+04  0.15470257537E+04  0.10430112272E+04 0.  0.
        1    1    3    3  502    0  0.23704008823E+03 -0.22502466812E+03  0.11740278770E+04  0.12186736892E+04  0.50400001928E-02 0.  1.
       -1    1    3    3    0  502 -0.23704008823E+03  0.22502466812E+03 -0.31479732470E+02  0.32835206452E+03  0.50400001928E-02 0. -1.
</event>
<event>
 5   0  0.1571895E-02  0.1047856E+04  0.7818609E-02  0.9257561E-01
        2   -1    0    0  501    0  0.00000000000E+00  0.00000000000E+00  0.96844632826E+03  0.96844632826E+03  0.25500000920E-02 0. -1.
       -2   -1    0    0    0  501  0.00000000000E+00  0.00000000000E+00 -0.28344411323E+03  0.28344411324E+03  0.25500000920E-02 0.  1.
    10030    2    1    2    0    0  0.00000000000E+00  0.00000000000E+00  0.68500221503E+03  0.12518904415E+04  0.10478557357E+04 0.  0.
        2    1    3    3  502    0  0.42029076834E+03  0.28769663450E+03  0.48924578167E+03  0.70624012796E+03  0.25500000920E-02 0. -1.
       -2    1    3    3    0  502 -0.42029076834E+03 -0.28769663450E+03  0.19575643337E+03  0.54565031354E+03  0.25500000920E-02 0.  1.
</event>
<event>
 5   0  0.9507815E-03  0.1026467E+04  0.7818609E-02  0.9279984E-01
       -1   -1    0    0    0  501  0.00000000000E+00  0.00000000000E+00  0.46915080735E+03  0.46915080738E+03  0.50400001928E-02 0. -1.
        1   -1    0    0  501    0  0.00000000000E+00  0.00000000000E+00 -0.56145812315E+03  0.56145812317E+03  0.50400001928E-02 0.  1.
    10030    2    1    2    0    0  0.00000000000E+00  0.00000000000E+00 -0.92307315801E+02  0.10306089305E+04  0.10264668174E+04 0.  0.
        1    1    3    3  502    0 -0.11924548592E+03  0.32692803019E+03  0.33260475217E+03  0.48138066437E+03  0.50400001928E-02 0. -1.
       -1    1    3    3    0  502  0.11924548592E+03 -0.32692803019E+03 -0.42491206797E+03  0.54922826618E+03  0.50400001928E-02 0.  1.
</event>
<event>
 5   0  0.1000773E-02  0.9747236E+03  0.7818609E-02  0.9336710E-01
       -1   -1    0    0    0  501  0.00000000000E+00  0.00000000000E+00  0.37633671375E+03  0.37633671378E+03  0.50400001928E-02 0. -1.
        1   -1    0    0  501    0  0.00000000000E+00  0.00000000000E+00 -0.63114102829E+03  0.63114102831E+03  0.50400001928E-02 0.  1.
    10030    2    1    2    0    0  0.00000000000E+00  0.00000000000E+00 -0.25480431454E+03  0.10074777421E+04  0.97472363370E+03 0.  0.
        3    1    3    3  502    0  0.47227033875E+02 -0.20255361391E+01 -0.62876594429E+03  0.63054033846E+03  0.10100000352E+00 0.  1.
       -3    1    3    3    0  502 -0.47227033875E+02  0.20255361391E+01  0.37396162975E+03  0.37693740363E+03  0.10100000352E+00 0. -1.
</event>
<event>
 5   0  0.9471140E-03  0.9785391E+03  0.7818609E-02  0.9332401E-01
        1   -1    0    0  501    0  0.00000000000E+00  0.00000000000E+00  0.15352914056E+04  0.15352914056E+04  0.50400001928E-02 0. -1.
       -1   -1    0    0    0  501  0.00000000000E+00  0.00000000000E+00 -0.15592133711E+03  0.15592133719E+03  0.50400001928E-02 0.  1.
    10030    2    1    2    0    0  0.00000000000E+00  0.00000000000E+00  0.13793700685E+04  0.16912127428E+04  0.97853909250E+03 0.  0.
        4    1    3    3  502    0  0.25129977725E+03  0.29320916458E+03  0.12089242040E+04  0.12691030440E+04  0.12699999809E+01 0. -1.
       -4    1    3    3    0  502 -0.25129977725E+03 -0.29320916458E+03  0.17044586450E+03  0.42210969885E+03  0.12699999809E+01 0.  1.
</event>
<event>
 5   0  0.6314750E-03  0.9978970E+03  0.7818609E-02  0.9310854E-01
       -3   -1    0    0    0  501  0.00000000000E+00  0.00000000000E+00  0.14891544243E+03  0.14891547669E+03  0.10100000352E+00 0. -1.
        3   -1    0    0  501    0  0.00000000000E+00  0.00000000000E+00 -0.16717512688E+04  0.16717512719E+04  0.10100000352E+00 0.  1.
    10030    2    1    2    0    0  0.00000000000E+00  0.00000000000E+00 -0.15228358264E+04  0.18206667486E+04  0.99789701632E+03 0.  0.
        1    1    3    3  502    0  0.37567180976E+03  0.14770286124E+03 -0.12964803841E+04  0.13578684878E+04  0.50400001928E-02 0.  1.
       -1    1    3    3    0  502 -0.37567180976E+03 -0.14770286124E+03 -0.22635544231E+03  0.46279826075E+03  0.50400001928E-02 0. -1.
</event>
<event>
 5   0  0.9507815E-03  0.9949447E+03  0.7818609E-02  0.9314107E-01
       -1   -1    0    0    0  501  0.00000000000E+00  0.00000000000E+00  0.28525091076E+03  0.28525091080E+03  0.50400001928E-02 0. -1.
        1   -1    0    0  501    0  0.00000000000E+00  0.00000000000E+00 -0.86758262939E+03  0.86758262940E+03  0.50400001928E-02 0.  1.
    10030    2    1    2    0    0  0.00000000000E+00  0.00000000000E+00 -0.58233171863E+03  0.11528335402E+04  0.99494469238E+03 0.  0.
        1    1    3    3  502    0  0.15097743493E+03 -0.20959913981E+03 -0.78378368192E+03  0.82525320074E+03  0.50400001928E-02 0.  1.
       -1    1    3    3    0  502 -0.15097743493E+03  0.20959913981E+03  0.20145196329E+03  0.32758033947E+03  0.50400001928E-02 0. -1.
</event>
<event>
 5   0  0.1598986E-02  0.9905930E+03  0.7818609E-02  0.9318923E-01
       -2   -1    0    0    0  501  0.00000000000E+00  0.00000000000E+00  0.21449192576E+03  0.21449192577E+03  0.25500000920E-02 0.  1.
        2   -1    0    0  501    0  0.00000000000E+00  0.00000000000E+00 -0.11437196097E+04  0.11437196097E+04  0.25500000920E-02 0. -1.
    10030    2    1    2    0    0  0.00000000000E+00  0.00000000000E+00 -0.92922768390E+03  0.13582115354E+04  0.99059299739E+03 0.  0.
        3    1    3    3  502    0 -0.25628708948E+03  0.38211216721E+03 -0.21318871790E+03  0.50709192481E+03  0.10100000352E+00 0.  1.
       -3    1    3    3    0  502  0.25628708948E+03 -0.38211216721E+03 -0.71603896600E+03  0.85111961063E+03  0.10100000352E+00 0. -1.
</event>
<event>
 5   0  0.9759443E-03  0.1005493E+04  0.7818609E-02  0.9302541E-01
        1   -1    0    0  501    0  0.00000000000E+00  0.00000000000E+00  0.93300295947E+03  0.93300295949E+03  0.50400001928E-02 0. -1.
       -1   -1    0    0    0  501  0.00000000000E+00  0.00000000000E+00 -0.27090362618E+03  0.27090362622E+03  0.50400001928E-02 0.  1.
    10030    2    1    2    0    0  0.00000000000E+00  0.00000000000E+00  0.66209933330E+03  0.12039065857E+04  0.10054926852E+04 0.  0.
        2    1    3    3  502    0  0.48600191721E+03 -0.11508138106E+03  0.39995907524E+03  0.63985064638E+03  0.25500000920E-02 0.  1.
       -2    1    3    3    0  502 -0.48600191721E+03  0.11508138106E+03  0.26214025806E+03  0.56405593934E+03  0.25500000920E-02 0. -1.
</event>
<event>
 5   0  0.1663497E-02  0.9594574E+03  0.7818609E-02  0.9354164E-01
        2   -1    0    0  501    0  0.00000000000E+00  0.00000000000E+00  0.79330347143E+03  0.79330347143E+03  0.25500000920E-02 0.  1.
       -2   -1    0    0    0  501  0.00000000000E+00  0.00000000000E+00 -0.29010286377E+03  0.29010286378E+03  0.25500000920E-02 0. -1.
    10030    2    1    2    0    0  0.00000000000E+00  0.00000000000E+00  0.50320060766E+03  0.10834063352E+04  0.95945736519E+03 0.  0.
        1    1    3    3  502    0  0.26737485796E+03  0.24135037353E+02  0.70053935688E+03  0.75021810513E+03  0.50400001928E-02 0.  1.
       -1    1    3    3    0  502 -0.26737485796E+03 -0.24135037353E+02 -0.19733874922E+03  0.33318823008E+03  0.50400001928E-02 0. -1.
</event>
<event>
 5   0  0.9759443E-03  0.1009058E+04  0.7818609E-02  0.9298665E-01
       -1   -1    0    0    0  501  0.00000000000E+00  0.00000000000E+00  0.67096389057E+03  0.67096389059E+03  0.50400001928E-02 0. -1.
        1   -1    0    0  501    0  0.00000000000E+00  0.00000000000E+00 -0.37937895893E+03  0.37937895897E+03  0.50400001928E-02 0.  1.
    10030    2    1    2    0    0  0.00000000000E+00  0.00000000000E+00  0.29158493164E+03  0.10503428496E+04  0.10090581397E+04 0.  0.
        2    1    3    3  502    0  0.49203089753E+03 -0.10433027152E+03  0.10454319732E+03  0.51372024468E+03  0.25500000920E-02 0.  1.
       -2    1    3    3    0  502 -0.49203089753E+03  0.10433027152E+03  0.18704173432E+03  0.53662260488E+03  0.25500000920E-02 0. -1.
</event>
<event>
 5   0  0.1000773E-02  0.9948526E+03  0.7818609E-02  0.9314208E-01
        1   -1    0    0  501    0  0.00000000000E+00  0.00000000000E+00  0.74679282864E+03  0.74679282866E+03  0.50400001928E-02 0. -1.
       -1   -1    0    0    0  501  0.00000000000E+00  0.00000000000E+00 -0.33132741312E+03  0.33132741316E+03  0.50400001928E-02 0.  1.
    10030    2    1    2    0    0  0.00000000000E+00  0.00000000000E+00  0.41546541552E+03  0.10781202418E+04  0.99485262442E+03 0.  0.
        3    1    3    3  502    0  0.94242262545E+02 -0.11340322066E+03 -0.30709937229E+03  0.34066395343E+03  0.10100000352E+00 0.  1.
       -3    1    3    3    0  502 -0.94242262545E+02  0.11340322066E+03  0.72256478781E+03  0.73745628839E+03  0.10100000352E+00 0. -1.
</event>
<event>
 5   0  0.1656859E-02  0.9784974E+03  0.7818609E-02  0.9332448E-01
        2   -1    0    0  501    0  0.00000000000E+00  0.00000000000E+00  0.13120939044E+04  0.13120939044E+04  0.25500000920E-02 0. -1.
       -2   -1    0    0    0  501  0.00000000000E+00  0.00000000000E+00 -0.18242923139E+03  0.18242923141E+03  0.25500000920E-02 0.  1.
    10030    2    1    2    0    0  0.00000000000E+00  0.00000000000E+00  0.11296646730E+04  0.14945231358E+04  0.97849738376E+03 0.  0.
        4    1    3    3  502    0  0.95600991205E+02  0.35257979535E+03  0.67767885687E+02  0.37154563763E+03  0.12699999809E+01 0.  1.
       -4    1    3    3    0  502 -0.95600991205E+02 -0.35257979535E+03  0.10618967873E+04  0.11229774982E+04  0.12699999809E+01 0. -1.
</event>
<event>
 5   0  0.9471140E-03  0.1046376E+04  0.7818609E-02  0.9259094E-01
       -1   -1    0    0    0  501  0.00000000000E+00  0.00000000000E+00  0.28199590281E+03  0.28199590286E+03  0.50400001928E-02 0.  1.
        1   -1    0    0  501    0  0.00000000000E+00  0.00000000000E+00 -0.97067166753E+03  0.97067166754E+03  0.50400001928E-02 0. -1.
    10030    2    1    2    0    0  0.00000000000E+00  0.00000000000E+00 -0.68867576472E+03  0.12526675704E+04  0.10463755220E+04 0.  0.
        4    1    3    3  502    0 -0.43435621085E+03  0.18389296838E+03 -0.61533257443E+03  0.77531782630E+03  0.12699999809E+01 0. -1.
       -4    1    3    3    0  502  0.43435621085E+03 -0.18389296838E+03 -0.73343190290E+02  0.47734974410E+03  0.12699999809E+01 0.  1.
</event>
<event>
 5   0  0.1571895E-02  0.9836635E+03  0.7818609E-02  0.9326646E-01
       -2   -1    0    0    0  501  0.00000000000E+00  0.00000000000E+00  0.71109380808E+03  0.71109380809E+03  0.25500000920E-02 0. -1.
        2   -1    0    0  501    0  0.00000000000E+00  0.00000000000E+00 -0.34017797550E+03  0.34017797551E+03  0.25500000920E-02 0.  1.
    10030    2    1    2    0    0  0.00000000000E+00  0.00000000000E+00  0.37091583259E+03  0.10512717836E+04  0.98366346284E+03 0.  0.
        2    1    3    3  502    0 -0.33164031904E+03 -0.35743204190E+03  0.25435159760E+03  0.54994336163E+03  0.25500000920E-02 0. -1.
       -2    1    3    3    0  502  0.33164031904E+03  0.35743204190E+03  0.11656423499E+03  0.50132842197E+03  0.25500000920E-02 0.  1.
</event>
<event>
 5   0  0.9396660E-03  0.1096115E+04  0.7818609E-02  0.9208986E-01
        1   -1    0    0  501    0  0.00000000000E+00  0.00000000000E+00  0.65384049296E+03  0.65384049298E+03  0.50400001928E-02 0.  1.
       -1   -1    0    0    0  501  0.00000000000E+00  0.00000000000E+00 -0.45938922126E+03  0.45938922129E+03  0.50400001928E-02 0. -1.
    10030    2    1    2    0    0  0.00000000000E+00  0.00000000000E+00  0.19445127170E+03  0.11132297143E+04  0.10961154591E+04 0.  0.
        5    1    3    3  502    0  0.11615860486E+03  0.45657164628E+03 -0.18713653773E+03  0.50694443820E+03  0.46999998093E+01 0. -1.
       -5    1    3    3    0  502 -0.11615860486E+03 -0.45657164628E+03  0.38158780943E+03  0.60628527607E+03  0.46999998093E+01 0.  1.
</event>
<event>
 5   0  0.1598986E-02  0.1018879E+04  0.7818609E-02  0.9288078E-01
        2   -1    0    0  501    0  0.00000000000E+00  0.00000000000E+00  0.52678379564E+03  0.52678379565E+03  0.25500000920E-02 0. -1.
       -2   -1    0    0    0  501  0.00000000000E+00  0.00000000000E+00 -0.49266592549E+03  0.49266592550E+03  0.25500000920E-02 0.  1.
    10030    2    1    2    0    0  0.00000000000E+00  0.00000000000E+00  0.34117870151E+02  0.10194497211E+04  0.10188786507E+04 0.  0.
        3    1    3    3  502    0 -0.11568233248E+03 -0.21407656823E+03  0.46487792877E+03  0.52471199526E+03  0.10100000352E+00 0. -1.
       -3    1    3    3    0  502  0.11568233248E+03  0.21407656823E+03 -0.43076005862E+03  0.49473772588E+03  0.10100000352E+00 0.  1.
</event>
<event>
 5   0  0.9759443E-03  0.9959622E+03  0.7818609E-02  0.9312985E-01
       -1   -1    0    0    0  501  0.00000000000E+00  0.00000000000E+00  0.10199894355E+04  0.10199894355E+04  0.50400001928E-02 0. -1.
        1   -1    0    0  501    0  0.00000000000E+00  0.00000000000E+00 -0.24312522165E+03  0.24312522170E+03  0.50400001928E-02 0.  1.
    10030    2    1    2    0    0  0.00000000000E+00  0.00000000000E+00  0.77686421388E+03  0.12631146572E+04  0.99596216320E+03 0.  0.
        2    1    3    3  502    0 -0.57332928054E+02  0.49114244517E+03  0.31364715109E+03  0.58556169742E+03  0.25500000920E-02 0.  1.
       -2    1    3    3    0  502  0.57332928054E+02 -0.49114244517E+03  0.46321706279E+03  0.67755295981E+03  0.25500000920E-02 0. -1.
</event>
<event>
 5   0  0.1571895E-02  0.9926762E+03  0.7818609E-02  0.9316614E-01
        2   -1    0    0  501    0  0.00000000000E+00  0.00000000000E+00  0.20168026871E+03  0.20168026873E+03  0.25500000920E-02 0.  1.
       -2   -1    0    0    0  501  0.00000000000E+00  0.00000000000E+00 -0.12214952705E+04  0.12214952705E+04  0.25500000920E-02 0. -1.
    10030    2    1    2    0    0  0.00000000000E+00  0.00000000000E+00 -0.10198150018E+04  0.14231755393E+04  0.99267616956E+03 0.  0.
        2    1    3    3  502    0  0.28420141806E+03  0.53348627690E+02 -0.10882582756E+04  0.11260206910E+04  0.25500000920E-02 0. -1.
       -2    1    3    3    0  502 -0.28420141806E+03 -0.53348627690E+02  0.68443273812E+02  0.29715484825E+03  0.25500000920E-02 0.  1.
</event>
<event>
 5   0  0.1663497E-02  0.1030284E+04  0.7818609E-02  0.9275940E-01
       -2   -1    0    0    0  501  0.00000000000E+00  0.00000000000E+00  0.69210103063E+03  0.69210103064E+03  0.25500000920E-02 0. -1.
        2   -1    0    0  501    0  0.00000000000E+00  0.00000000000E+00 -0.38342844949E+03  0.38342844950E+03  0.25500000920E-02 0.  1.
    10030    2    1    2    0    0  0.00000000000E+00  0.00000000000E+00  0.30867258115E+03  0.10755294801E+04  0.10302838931E+04 0.  0.
        1    1    3    3  502    0  0.30096681611E+03 -0.37254037717E+03 -0.43743418321E+02  0.48091667021E+03  0.50400001928E-02 0.  1.
       -1    1    3    3    0  502 -0.30096681611E+03  0.37254037717E+03  0.35241599947E+03  0.59461280992E+03  0.50400001928E-02 0. -1.
</event>
<event>
 5   0  0.1000773E-02  0.1009403E+04  0.7818609E-02  0.9298292E-01
        1   -1    0    0  501    0  0.00000000000E+00  0.00000000000E+00  0.18466936965E+04  0.18466936965E+04  0.50400001928E-02 0. -1.
       -1   -1    0    0    0  501  0.00000000000E+00  0.00000000000E+00 -0.13793481784E+03  0.13793481794E+03  0.50400001928E-02 0.  1.
    10030    2    1    2    0    0  0.00000000000E+00  0.00000000000E+00  0.17087588786E+04  0.19846285144E+04  0.10094025138E+04 0.  0.
        3    1    3    3  502    0  0.24668171626E+03 -0.37449236209E+03  0.13096886061E+04  0.13843340108E+04  0.10100000352E+00 0. -1.
       -3    1    3    3    0  502 -0.24668171626E+03  0.37449236209E+03  0.39907027252E+03  0.60029450357E+03  0.10100000352E+00 0.  1.
</event>
<event>
 5   0  0.9759443E-03  0.9775720E+03  0.7818609E-02  0.9333491E-01
        1   -1    0    0  501    0  0.00000000000E+00  0.00000000000E+00  0.68490834754E+03  0.68490834756E+03  0.50400001928E-02 0.  1.
       -1   -1    0    0    0  501  0.00000000000E+00  0.00000000000E+00 -0.34882294897E+03  0.34882294901E+03  0.50400001928E-02 0. -1.
    10030    2    1    2    0    0  0.00000000000E+00  0.00000000000E+00  0.33608539857E+03  0.10337312966E+04  0.97757199141E+03 0.  0.
        2    1    3    3  502    0  0.45717952859E+03  0.61790054793E+02 -0.27297662247E+01  0.46134432246E+03  0.25500000920E-02 0. -1.
       -2    1    3    3    0  502 -0.45717952859E+03 -0.61790054793E+02  0.33881516479E+03  0.57238697411E+03  0.25500000920E-02 0.  1.
</event>
<event>
 5   0  0.1571895E-02  0.1018090E+04  0.7818609E-02  0.9288923E-01
       -2   -1    0    0    0  501  0.00000000000E+00  0.00000000000E+00  0.25604427513E+03  0.25604427514E+03  0.25500000920E-02 0. -1.
        2   -1    0    0  501    0  0.00000000000E+00  0.00000000000E+00 -0.10120397259E+04  0.10120397259E+04  0.25500000920E-02 0.  1.
    10030    2    1    2    0    0  0.00000000000E+00  0.00000000000E+00 -0.75599545077E+03  0.12680840010E+04  0.10180903261E+04 0.  0.
        2    1    3    3  502    0 -0.46505029482E+03 -0.94954426393E+02 -0.14887426334E+03  0.49744513878E+03  0.25500000920E-02 0.  1.
       -2    1    3    3    0  502  0.46505029482E+03  0.94954426393E+02 -0.60712118743E+03  0.77063886227E+03  0.25500000920E-02 0. -1.
</event>
<event>
 5   0  0.1656859E-02  0.9925208E+03  0.7818609E-02  0.9316786E-01
       -2   -1    0    0    0  501  0.00000000000E+00  0.00000000000E+00  0.69747572620E+03  0.69747572620E+03  0.25500000920E-02 0. -1.
        2   -1    0    0  501    0  0.00000000000E+00  0.00000000000E+00 -0.35309386606E+03  0.35309386607E+03  0.25500000920E-02 0.  1.
    10030    2    1    2    0    0  0.00000000000E+00  0.00000000000E+00  0.34438186014E+03  0.10505695923E+04  0.99252083233E+03 0.  0.
        4    1    3    3  502    0  0.49281954525E+03  0.47787210677E+02  0.20758405657E+03  0.53688683643E+03  0.12699999809E+01 0. -1.
       -4    1    3    3    0  502 -0.49281954525E+03 -0.47787210677E+02  0.13679780357E+03  0.51368275584E+03  0.12699999809E+01 0.  1.
</event>
<event>
 5   0  0.1598986E-02  0.1001154E+04  0.7818609E-02  0.9307280E-01
        2   -1    0    0  501    0  0.00000000000E+00  0.00000000000E+00  0.48913111419E+03  0.48913111420E+03  0.25500000920E-02 0.  1.
       -2   -1    0    0    0  501  0.00000000000E+00  0.00000000000E+00 -0.51229055083E+03  0.51229055084E+03  0.25500000920E-02 0. -1.
    10030    2    1    2    0    0  0.00000000000E+00  0.00000000000E+00 -0.23159436642E+02  0.10014216650E+04  0.10011538302E+04 0.  0.
        3    1    3    3  502    0  0.34410926741E+03 -0.30078213561E+03  0.19267127755E+03  0.49598720993E+03  0.10100000352E+00 0.  1.
       -3    1    3    3    0  502 -0.34410926741E+03  0.30078213561E+03 -0.21583071420E+03  0.50543445511E+03  0.10100000352E+00 0. -1.
</event>
<event>
 5   0  0.1617721E-02  0.9781393E+03  0.7818609E-02  0.9332852E-01
       -2   -1    0    0    0  501  0.00000000000E+00  0.00000000000E+00  0.17548231729E+03  0.17548231731E+03  0.25500000920E-02 0. -1.
        2   -1    0    0  501    0  0.00000000000E+00  0.00000000000E+00 -0.13630382342E+04  0.13630382342E+04  0.25500000920E-02 0.  1.
    10030    2    1    2    0    0  0.00000000000E+00  0.00000000000E+00 -0.11875559169E+04  0.15385205515E+04  0.97813927005E+03 0.  0.
        5    1    3    3  502    0 -0.43320655520E+03  0.20646761964E+03 -0.74191709670E+03  0.88360617122E+03  0.46999998093E+01 0. -1.
       -5    1    3    3    0  502  0.43320655520E+03 -0.20646761964E+03 -0.44563882019E+03  0.65491438027E+03  0.46999998093E+01 0.  1.
</event>
<event>
 5   0  0.9471140E-03  0.9889642E+03  0.7818609E-02  0.9320732E-01
       -1   -1    0    0    0  501  0.00000000000E+00  0.00000000000E+00  0.24477227624E+03  0.24477227629E+03  0.50400001928E-02 0. -1.
        1   -1    0    0  501    0  0.00000000000E+00  0.00000000000E+00 -0.99893882487E+03  0.99893882488E+03  0.50400001928E-02 0.  1.
    10030    2    1    2    0    0  0.00000000000E+00  0.00000000000E+00 -0.75416654863E+03  0.12437111012E+04  0.98896416523E+03 0.  0.
        4    1    3    3  502    0  0.16837493138E+03  0.42937606164E+03 -0.60133304642E+03  0.75783703093E+03  0.12699999809E+01 0.  1.
       -4    1    3    3    0  502 -0.16837493138E+03 -0.42937606164E+03 -0.15283350221E+03  0.48587407024E+03  0.12699999809E+01 0. -1.
</event>
<event>
 5   0  0.9396660E-03  0.1007736E+04  0.7818609E-02  0.9300100E-01
        1   -1    0    0  501    0  0.00000000000E+00  0.00000000000E+00  0.55985435223E+03  0.55985435225E+03  0.50400001928E-02 0. -1.
       -1   -1    0    0    0  501  0.00000000000E+00  0.00000000000E+00 -0.45348044979E+03  0.45348044982E+03  0.50400001928E-02 0.  1.
    10030    2    1    2    0    0  0.00000000000E+00  0.00000000000E+00  0.10637390243E+03  0.10133348021E+04  0.10077360835E+04 0.  0.
        5    1    3    3  502    0  0.24720023219E+03 -0.27966530520E+03 -0.28713131589E+03  0.47094279938E+03  0.46999998093E+01 0.  1.
       -5    1    3    3    0  502 -0.24720023219E+03  0.27966530520E+03  0.39350521833E+03  0.54239200268E+03  0.46999998093E+01 0. -1.
</event>
<event>
 5   0  0.9507815E-03  0.9961680E+03  0.7818609E-02  0.9312758E-01
       -1   -1    0    0    0  501  0.00000000000E+00  0.00000000000E+00  0.13116317196E+03  0.13116317205E+03  0.50400001928E-02 0. -1.
        1   -1    0    0  501    0  0.00000000000E+00  0.00000000000E+00 -0.18914430068E+04  0.18914430068E+04  0.50400001928E-02 0.  1.
    10030    2    1    2    0    0  0.00000000000E+00  0.00000000000E+00 -0.17602798348E+04  0.20226061788E+04  0.99616798672E+03 0.  0.
        1    1    3    3  502    0 -0.14820658452E+03  0.20564711465E+03 -0.95993903375E+01  0.25366922513E+03  0.50400001928E-02 0. -1.
       -1    1    3    3    0  502  0.14820658452E+03 -0.20564711465E+03 -0.17506804445E+04  0.17689369537E+04  0.50400001928E-02 0.  1.
</event>
<event>
 5   0  0.1656859E-02  0.1037467E+04  0.7818609E-02  0.9268380E-01
        2   -1    0    0  501    0  0.00000000000E+00  0.00000000000E+00  0.49638284594E+03  0.49638284595E+03  0.25500000920E-02 0.  1.
       -2   -1    0    0    0  501  0.00000000000E+00  0.00000000000E+00 -0.54209023491E+03  0.54209023492E+03  0.25500000920E-02 0. -1.
    10030    2    1    2    0    0  0.00000000000E+00  0.00000000000E+00 -0.45707388969E+02  0.10384730809E+04  0.10374667100E+04 0.  0.
        4    1    3    3  502    0 -0.56486768514E+02 -0.50870153802E+03 -0.10728402324E+03  0.52295265975E+03  0.12699999809E+01 0.  1.
       -4    1    3    3    0  502  0.56486768514E+02  0.50870153802E+03  0.61576634272E+02  0.51552042112E+03  0.12699999809E+01 0. -1.
</event>
<event>
 5   0  0.1656859E-02  0.1011743E+04  0.7818609E-02  0.9295758E-01
        2   -1    0    0  501    0  0.00000000000E+00  0.00000000000E+00  0.17688598593E+04  0.17688598593E+04  0.25500000920E-02 0. -1.
       -2   -1    0    0    0  501  0.00000000000E+00  0.00000000000E+00 -0.14467295246E+03  0.14467295248E+03  0.25500000920E-02 0.  1.
    10030    2    1    2    0    0  0.00000000000E+00  0.00000000000E+00  0.16241869068E+04  0.19135328118E+04  0.10117434030E+04 0.  0.
        4    1    3    3  502    0 -0.19935118446E+03 -0.46479426930E+03  0.83365435539E+03  0.97506707701E+03  0.12699999809E+01 0.  1.
       -4    1    3    3    0  502  0.19935118446E+03  0.46479426930E+03  0.79053255142E+03  0.93846573474E+03  0.12699999809E+01 0. -1.
</event>
<event>
 5   0  0.9396660E-03  0.9714455E+03  0.7818609E-02  0.9340429E-01
        1   -1    0    0  501    0  0.00000000000E+00  0.00000000000E+00  0.20098625617E+04  0.20098625617E+04  0.50400001928E-02 0.  1.
       -1   -1    0    0    0  501  0.00000000000E+00  0.00000000000E+00 -0.11738444200E+03  0.11738444211E+03  0.50400001928E-02 0. -1.
    10030    2    1    2    0    0  0.00000000000E+00  0.00000000000E+00  0.18924781197E+04  0.21272470039E+04  0.97144551146E+03 0.  0.
        5    1    3    3  502    0  0.72931064022E+02  0.26657657048E+02 -0.10365452983E+03  0.12959908307E+03  0.46999998093E+01 0. -1.
       -5    1    3    3    0  502 -0.72931064022E+02 -0.26657657048E+02  0.19961326496E+04  0.19976479208E+04  0.46999998093E+01 0.  1.
</event>
<event>
 5   0  0.1571895E-02  0.8447690E+03  0.7818609E-02  0.9497385E-01
        2   -1    0    0  501    0  0.00000000000E+00  0.00000000000E+00  0.20694615067E+04  0.20694615067E+04  0.25500000920E-02 0. -1.
       -2   -1    0    0    0  501  0.00000000000E+00  0.00000000000E+00 -0.86210197633E+02  0.86210197671E+02  0.25500000920E-02 0.  1.
    10030    2    1    2    0    0  0.00000000000E+00  0.00000000000E+00  0.19832513090E+04  0.21556717043E+04  0.84476904661E+03 0.  0.
        2    1    3    3  502    0  0.25667786860E+02  0.37522524511E+03  0.50107222230E+03  0.62651910730E+03  0.25500000920E-02 0.  1.
       -2    1    3    3    0  502 -0.25667786860E+02 -0.37522524511E+03  0.14821790867E+04  0.15291525970E+04  0.25500000920E-02 0. -1.
</event>
<event>
 5   0  0.9759443E-03  0.1004158E+04  0.7818609E-02  0.9303996E-01
        1   -1    0    0  501    0  0.00000000000E+00  0.00000000000E+00  0.24822779999E+03  0.24822780004E+03  0.50400001928E-02 0. -1.
       -1   -1    0    0    0  501  0.00000000000E+00  0.00000000000E+00 -0.10155316400E+04  0.10155316400E+04  0.50400001928E-02 0.  1.
    10030    2    1    2    0    0  0.00000000000E+00  0.00000000000E+00 -0.76730384000E+03  0.12637594400E+04  0.10041577264E+04 0.  0.
        2    1    3    3  502    0  0.10039528754E+03  0.18251308162E+03  0.19127992364E+03  0.28280425724E+03  0.25500000920E-02 0. -1.
       -2    1    3    3    0  502 -0.10039528754E+03 -0.18251308162E+03 -0.95858376364E+03  0.98095518279E+03  0.25500000920E-02 0.  1.
</event>
<event>
 5   0  0.1000773E-02  0.1008735E+04  0.7818609E-02  0.9299016E-01
        1   -1    0    0  501    0  0.00000000000E+00  0.00000000000E+00  0.81627090117E+03  0.81627090118E+03  0.50400001928E-02 0.  1.
       -1   -1    0    0    0  501  0.00000000000E+00  0.00000000000E+00 -0.31164459662E+03  0.31164459666E+03  0.50400001928E-02 0. -1.
    10030    2    1    2    0    0  0.00000000000E+00  0.00000000000E+00  0.50462630455E+03  0.11279154978E+04  0.10087346842E+04 0.  0.
        3    1    3    3  502    0 -0.93058858866E+02  0.47982520324E+03  0.11313066575E+03  0.50168788565E+03  0.10100000352E+00 0. -1.
       -3    1    3    3    0  502  0.93058858866E+02 -0.47982520324E+03  0.39149563879E+03  0.62622761219E+03  0.10100000352E+00 0.  1.
</event>
<event>
 5   0  0.1617721E-02  0.1004774E+04  0.7818609E-02  0.9303325E-01
        2   -1    0    0  501    0  0.00000000000E+00  0.00000000000E+00  0.15868250380E+04  0.15868250380E+04  0.25500000920E-02 0.  1.
       -2   -1    0    0    0  501  0.00000000000E+00  0.00000000000E+00 -0.15905504287E+03  0.15905504289E+03  0.25500000920E-02 0. -1.
    10030    2    1    2    0    0  0.00000000000E+00  0.00000000000E+00  0.14277699951E+04  0.17458800809E+04  0.10047736550E+04 0.  0.
        5    1    3    3  502    0 -0.20686383148E+01  0.27343016965E+03  0.14461532673E+04  0.14717845288E+04  0.46999998093E+01 0.  1.
       -5    1    3    3    0  502  0.20686383148E+01 -0.27343016965E+03 -0.18383272160E+02  0.27409555201E+03  0.46999998093E+01 0. -1.
</event>
<event>
 5   0  0.1663497E-02  0.1005384E+04  0.7818609E-02  0.9302659E-01
        2   -1    0    0  501    0  0.00000000000E+00  0.00000000000E+00  0.19460996359E+04  0.19460996359E+04  0.25500000920E-02 0. -1.
       -2   -1    0    0    0  501  0.00000000000E+00  0.00000000000E+00 -0.12984910847E+03  0.12984910850E+03  0.25500000920E-02 0.  1.
    10030    2    1    2    0    0  0.00000000000E+00  0.00000000000E+00  0.18162505275E+04  0.20759487444E+04  0.10053841112E+04 0.  0.
        1    1    3    3  502    0 -0.35189864680E+03  0.53281608818E+02  0.16411483294E+04  0.16792973014E+04  0.50400001928E-02 0. -1.
       -1    1    3    3    0  502  0.35189864680E+03 -0.53281608818E+02  0.17510219809E+03  0.39665144303E+03  0.50400001928E-02 0.  1.
</event>
<event>
 5   0  0.9471140E-03  0.1017418E+04  0.7818609E-02  0.9289645E-01
       -1   -1    0    0    0  501  0.00000000000E+00  0.00000000000E+00  0.45079210036E+03  0.45079210039E+03  0.50400001928E-02 0. -1.
        1   -1    0    0  501    0  0.00000000000E+00  0.00000000000E+00 -0.57406692100E+03  0.57406692102E+03  0.50400001928E-02 0.  1.
    10030    2    1    2    0    0  0.00000000000E+00  0.00000000000E+00 -0.12327482064E+03  0.10248590214E+04  0.10174179733E+04 0.  0.
        4    1    3    3  502    0  0.16831844452E+03  0.50725555254E+02  0.41922066418E+03  0.45458965991E+03  0.12699999809E+01 0. -1.
       -4    1    3    3    0  502 -0.16831844452E+03 -0.50725555254E+02 -0.54249548482E+03  0.57026936150E+03  0.12699999809E+01 0.  1.
</event>
<event>
 5   0  0.9471140E-03  0.9981176E+03  0.7818609E-02  0.9310612E-01
       -1   -1    0    0    0  501  0.00000000000E+00  0.00000000000E+00  0.17584439159E+03  0.17584439166E+03  0.50400001928E-02 0.  1.
        1   -1    0    0  501    0  0.00000000000E+00  0.00000000000E+00 -0.14163642316E+04  0.14163642316E+04  0.50400001928E-02 0. -1.
    10030    2    1    2    0    0  0.00000000000E+00  0.00000000000E+00 -0.12405198400E+04  0.15922086233E+04  0.99811764165E+03 0.  0.
        4    1    3    3  502    0  0.27391253847E+03 -0.66042949086E+02 -0.12773405280E+04  0.13080482358E+04  0.12699999809E+01 0. -1.
       -4    1    3    3    0  502 -0.27391253847E+03  0.66042949086E+02  0.36820687962E+02  0.28416038748E+03  0.12699999809E+01 0.  1.
</event>
<event>
 5   0  0.9396660E-03  0.9951871E+03  0.7818609E-02  0.9313839E-01
       -1   -1    0    0    0  501  0.00000000000E+00  0.00000000000E+00  0.62707589007E+03  0.62707589009E+03  0.50400001928E-02 0.  1.
        1   -1    0    0  501    0  0.00000000000E+00  0.00000000000E+00 -0.39484747535E+03  0.39484747538E+03  0.50400001928E-02 0. -1.
    10030    2    1    2    0    0  0.00000000000E+00  0.00000000000E+00  0.23222841473E+03  0.10219233655E+04  0.99518708206E+03 0.  0.
        5    1    3    3  502    0  0.57070679072E+02 -0.46038481003E+03 -0.68624608930E+02  0.46898045020E+03  0.46999998093E+01 0. -1.
       -5    1    3    3    0  502 -0.57070679072E+02  0.46038481003E+03  0.30085302366E+03  0.55294291528E+03  0.46999998093E+01 0.  1.
</event>
<event>
 5   0  0.1656859E-02  0.1011114E+04  0.7818609E-02  0.9296439E-01
       -2   -1    0    0    0  501  0.00000000000E+00  0.00000000000E+00  0.46352416521E+03  0.46352416522E+03  0.25500000920E-02 0.  1.
        2   -1    0    0  501    0  0.00000000000E+00  0.00000000000E+00 -0.55140125006E+03  0.55140125006E+03  0.25500000920E-02 0. -1.
    10030    2    1    2    0    0  0.00000000000E+00  0.00000000000E+00 -0.87877084846E+02  0.10149254153E+04  0.10111138494E+04 0.  0.
        4    1    3    3  502    0 -0.31798897512E+03  0.36699242248E+03  0.97253587552E+02  0.49523761938E+03  0.12699999809E+01 0.  1.
       -4    1    3    3    0  502  0.31798897512E+03 -0.36699242248E+03 -0.18513067240E+03  0.51968779591E+03  0.12699999809E+01 0. -1.
</event>
<event>
 5   0  0.9396660E-03  0.1009698E+04  0.7818609E-02  0.9297971E-01
        1   -1    0    0  501    0  0.00000000000E+00  0.00000000000E+00  0.11290662273E+04  0.11290662273E+04  0.50400001928E-02 0. -1.
       -1   -1    0    0    0  501  0.00000000000E+00  0.00000000000E+00 -0.22573753175E+03  0.22573753181E+03  0.50400001928E-02 0.  1.
    10030    2    1    2    0    0  0.00000000000E+00  0.00000000000E+00  0.90332869553E+03  0.13548037591E+04  0.10096982190E+04 0.  0.
        5    1    3    3  502    0  0.21278923713E+03  0.45139768842E+03  0.34937622268E+03  0.60920026881E+03  0.46999998093E+01 0. -1.
       -5    1    3    3    0  502 -0.21278923713E+03 -0.45139768842E+03  0.55395247285E+03  0.74560349029E+03  0.46999998093E+01 0.  1.
</event>
<event>
 5   0  0.1598986E-02  0.9858036E+03  0.7818609E-02  0.9324254E-01
       -2   -1    0    0    0  501  0.00000000000E+00  0.00000000000E+00  0.49440245369E+03  0.49440245369E+03  0.25500000920E-02 0.  1.
        2   -1    0    0  501    0  0.00000000000E+00  0.00000000000E+00 -0.49140570408E+03  0.49140570409E+03  0.25500000920E-02 0. -1.
    10030    2    1    2    0    0  0.00000000000E+00  0.00000000000E+00  0.29967496079E+01  0.98580815778E+03  0.98580360287E+03 0.  0.
        3    1    3    3  502    0 -0.38015421917E+02 -0.43721065993E+03 -0.22289928008E+03  0.49222193442E+03  0.10100000352E+00 0. -1.
       -3    1    3    3    0  502  0.38015421917E+02  0.43721065993E+03  0.22589602969E+03  0.49358622336E+03  0.10100000352E+00 0.  1.
</event>
<event>
 5   0  0.1598986E-02  0.1104243E+04  0.7818609E-02  0.9201066E-01
       -2   -1    0    0    0  501  0.00000000000E+00  0.00000000000E+00  0.32965954095E+03  0.32965954096E+03  0.25500000920E-02 0. -1.
        2   -1    0    0  501    0  0.00000000000E+00  0.00000000000E+00 -0.92470637710E+03  0.92470637710E+03  0.25500000920E-02 0.  1.
    10030    2    1    2    0    0  0.00000000000E+00  0.00000000000E+00 -0.59504683614E+03  0.12543659181E+04  0.11042432337E+04 0.  0.
        3    1    3    3  502    0  0.41691843556E+03  0.15146075140E+03  0.75921019863E+02  0.45002816866E+03  0.10100000352E+00 0. -1.
       -3    1    3    3    0  502 -0.41691843556E+03 -0.15146075140E+03 -0.67096785600E+03  0.80433774941E+03  0.10100000352E+00 0.  1.
</event>
<event>
 5   0  0.6314750E-03  0.1032004E+04  0.7818609E-02  0.9274123E-01
        3   -1    0    0  501    0  0.00000000000E+00  0.00000000000E+00  0.51913969519E+03  0.51913970501E+03  0.10100000352E+00 0.  1.
       -3   -1    0    0    0  501  0.00000000000E+00  0.00000000000E+00 -0.51288371657E+03  0.51288372651E+03  0.10100000352E+00 0. -1.
    10030    2    1    2    0    0  0.00000000000E+00  0.00000000000E+00  0.62559786200E+01  0.10320234315E+04  0.10320044699E+04 0.  0.
        2    1    3    3  502    0 -0.47453504335E+02 -0.41836686414E+03 -0.29516533617E+03  0.51420350423E+03  0.25500000920E-02 0.  1.
       -2    1    3    3    0  502  0.47453504335E+02  0.41836686414E+03  0.30142131479E+03  0.51781992729E+03  0.25500000920E-02 0. -1.
</event>
<event>
 5   0  0.9396660E-03  0.1068905E+04  0.7818609E-02  0.9236041E-01
        1   -1    0    0  501    0  0.00000000000E+00  0.00000000000E+00  0.10625350302E+04  0.10625350302E+04  0.50400001928E-02 0. -1.
       -1   -1    0    0    0  501  0.00000000000E+00  0.00000000000E+00 -0.26882805274E+03  0.26882805279E+03  0.50400001928E-02 0.  1.
    10030    2    1    2    0    0  0.00000000000E+00  0.00000000000E+00  0.79370697746E+03  0.13313630830E+04  0.10689045293E+04 0.  0.
        5    1    3    3  502    0 -0.28490828494E+02 -0.48620747872E+03  0.67089401204E+03  0.82905386137E+03  0.46999998093E+01 0. -1.
       -5    1    3    3    0  502  0.28490828494E+02  0.48620747872E+03  0.12281296543E+03  0.50230922164E+03  0.46999998093E+01 0.  1.
</event>
<event>
 5   0  0.1598986E-02  0.9624721E+03  0.7818609E-02  0.9350690E-01
        2   -1    0    0  501    0  0.00000000000E+00  0.00000000000E+00  0.71682124467E+03  0.71682124467E+03  0.25500000920E-02 0.  1.
       -2   -1    0    0    0  501  0.00000000000E+00  0.00000000000E+00 -0.32307654047E+03  0.32307654048E+03  0.25500000920E-02 0. -1.
    10030    2    1    2    0    0  0.00000000000E+00  0.00000000000E+00  0.39374470419E+03  0.10398977852E+04  0.96247208348E+03 0.  0.
        3    1    3    3  502    0  0.23921051121E+03 -0.41711648705E+03  0.21794199810E+03  0.52792665890E+03  0.10100000352E+00 0. -1.
       -3    1    3    3    0  502 -0.23921051121E+03  0.41711648705E+03  0.17580270610E+03  0.51197112625E+03  0.10100000352E+00 0.  1.
</event>
<event>
 5   0  0.6314750E-03  0.5145453E+03  0.7818609E-02  0.1010051E+00
        3   -1    0    0  501    0  0.00000000000E+00  0.00000000000E+00  0.11714076845E+03  0.11714081199E+03  0.10100000352E+00 0. -1.
       -3   -1    0    0    0  501  0.00000000000E+00  0.00000000000E+00 -0.56503979761E+03  0.56503980664E+03  0.10100000352E+00 0.  1.
    10030    2    1    2    0    0  0.00000000000E+00  0.00000000000E+00 -0.44789902916E+03  0.68218061863E+03  0.51454529063E+03 0.  0.
        4    1    3    3  502    0  0.20128212286E+03 -0.18095551975E+02 -0.43502002670E+03  0.47967278276E+03  0.12699999809E+01 0.  1.
       -4    1    3    3    0  502 -0.20128212286E+03  0.18095551975E+02 -0.12879002462E+02  0.20250783587E+03  0.12699999809E+01 0. -1.
</event>
<event>
 5   0  0.1571895E-02  0.1005684E+04  0.7818609E-02  0.9302333E-01
        2   -1    0    0  501    0  0.00000000000E+00  0.00000000000E+00  0.50986996498E+03  0.50986996499E+03  0.25500000920E-02 0. -1.
       -2   -1    0    0    0  501  0.00000000000E+00  0.00000000000E+00 -0.49591095653E+03  0.49591095654E+03  0.25500000920E-02 0.  1.
    10030    2    1    2    0    0  0.00000000000E+00  0.00000000000E+00  0.13959008447E+02  0.10057809215E+04  0.10056840499E+04 0.  0.
        2    1    3    3  502    0  0.28599791577E+02  0.90255202386E+02 -0.48691637439E+03  0.49603579033E+03  0.25500000920E-02 0.  1.
       -2    1    3    3    0  502 -0.28599791577E+02 -0.90255202386E+02  0.50087538284E+03  0.50974513119E+03  0.25500000920E-02 0. -1.
</event>
<event>
 5   0  0.1663497E-02  0.9612189E+03  0.7818609E-02  0.9352133E-01
       -2   -1    0    0    0  501  0.00000000000E+00  0.00000000000E+00  0.38508599888E+03  0.38508599889E+03  0.25500000920E-02 0. -1.
        2   -1    0    0  501    0  0.00000000000E+00  0.00000000000E+00 -0.59982818056E+03  0.59982818057E+03  0.25500000920E-02 0.  1.
    10030    2    1    2    0    0  0.00000000000E+00  0.00000000000E+00 -0.21474218169E+03  0.98491417946E+03  0.96121888054E+03 0.  0.
        1    1    3    3  502    0 -0.34213590532E+03  0.12639002148E+03  0.21332024484E+03  0.42253632048E+03  0.50400001928E-02 0. -1.
       -1    1    3    3    0  502  0.34213590532E+03 -0.12639002148E+03 -0.42806242653E+03  0.56237785898E+03  0.50400001928E-02 0.  1.
</event>
<event>
 5   0  0.9507815E-03  0.1024742E+04  0.7818609E-02  0.9281817E-01
       -1   -1    0    0    0  501  0.00000000000E+00  0.00000000000E+00  0.18606628593E+03  0.18606628600E+03  0.50400001928E-02 0. -1.
        1   -1    0    0  501    0  0.00000000000E+00  0.00000000000E+00 -0.14109172534E+04  0.14109172534E+04  0.50400001928E-02 0.  1.
    10030    2    1    2    0    0  0.00000000000E+00  0.00000000000E+00 -0.12248509674E+04  0.15969835394E+04  0.10247421786E+04 0.  0.
        1    1    3    3  502    0 -0.43700409622E+03 -0.21966373128E+03 -0.85030562029E+03  0.98094056031E+03  0.50400001928E-02 0.  1.
       -1    1    3    3    0  502  0.43700409622E+03  0.21966373128E+03 -0.37454534714E+03  0.61604297906E+03  0.50400001928E-02 0. -1.
</event>
<event>
 5   0  0.1656859E-02  0.8096186E+03  0.7818609E-02  0.9546198E-01
        2   -1    0    0  501    0  0.00000000000E+00  0.00000000000E+00  0.64401104522E+03  0.64401104522E+03  0.25500000920E-02 0. -1.
       -2   -1    0    0    0  501  0.00000000000E+00  0.00000000000E+00 -0.25445303101E+03  0.25445303102E+03  0.25500000920E-02 0.  1.
    10030    2    1    2    0    0  0.00000000000E+00  0.00000000000E+00  0.38955801421E+03  0.89846407624E+03  0.80961858295E+03 0.  0.
        4    1    3    3  502    0 -0.39401991420E+03  0.88279332703E+02  0.22663477836E+03  0.46304413292E+03  0.12699999809E+01 0. -1.
       -4    1    3    3    0  502  0.39401991420E+03 -0.88279332703E+02  0.16292323585E+03  0.43541994333E+03  0.12699999809E+01 0.  1.
</event>
<event>
 5   0  0.1656859E-02  0.1009258E+04  0.7818609E-02  0.9298448E-01
        2   -1    0    0  501    0  0.00000000000E+00  0.00000000000E+00  0.61416791680E+03  0.61416791680E+03  0.25500000920E-02 0.  1.
       -2   -1    0    0    0  501  0.00000000000E+00  0.00000000000E+00 -0.41462688175E+03  0.41462688176E+03  0.25500000920E-02 0. -1.
    10030    2    1    2    0    0  0.00000000000E+00  0.00000000000E+00  0.19954103505E+03  0.10287947986E+04  0.10092581993E+04 0.  0.
        4    1    3    3  502    0 -0.33131871521E+03  0.30678312073E+03  0.32943366169E+03  0.55894196887E+03  0.12699999809E+01 0. -1.
       -4    1    3    3    0  502  0.33131871521E+03 -0.30678312073E+03 -0.12989262665E+03  0.46985282969E+03  0.12699999809E+01 0.  1.
</event>
<event>
 5   0  0.1617721E-02  0.1000845E+04  0.7818609E-02  0.9307618E-01
        2   -1    0    0  501    0  0.00000000000E+00  0.00000000000E+00  0.27506933408E+03  0.27506933409E+03  0.25500000920E-02 0. -1.
       -2   -1    0    0    0  501  0.00000000000E+00  0.00000000000E+00 -0.91039922606E+03  0.91039922607E+03  0.25500000920E-02 0.  1.
    10030    2    1    2    0    0  0.00000000000E+00  0.00000000000E+00 -0.63532989198E+03  0.11854685602E+04  0.10008454603E+04 0.  0.
        5    1    3    3  502    0  0.19062147893E+02  0.22591208748E+03  0.21072049788E+03  0.30955589960E+03  0.46999998093E+01 0. -1.
       -5    1    3    3    0  502 -0.19062147893E+02 -0.22591208748E+03 -0.84605038986E+03  0.87591266056E+03  0.46999998093E+01 0.  1.
</event>
<event>
 5   0  0.9471140E-03  0.9330307E+03  0.7818609E-02  0.9385208E-01
       -1   -1    0    0    0  501  0.00000000000E+00  0.00000000000E+00  0.13409475820E+03  0.13409475830E+03  0.50400001928E-02 0.  1.
        1   -1    0    0  501    0  0.00000000000E+00  0.00000000000E+00 -0.16230059096E+04  0.16230059096E+04  0.50400001928E-02 0. -1.
    10030    2    1    2    0    0  0.00000000000E+00  0.00000000000E+00 -0.14889111514E+04  0.17571006679E+04  0.93303072854E+03 0.  0.
        4    1    3    3  502    0  0.25839381910E+03 -0.26414723548E+02 -0.14675339889E+02  0.26015780186E+03  0.12699999809E+01 0.  1.
       -4    1    3    3    0  502 -0.25839381910E+03  0.26414723548E+02 -0.14742358115E+04  0.14969428661E+04  0.12699999809E+01 0. -1.
</event>
<event>
 5   0  0.9759443E-03  0.9350692E+03  0.7818609E-02  0.9382775E-01
        1   -1    0    0  501    0  0.00000000000E+00  0.00000000000E+00  0.91950598415E+03  0.91950598416E+03  0.50400001928E-02 0. -1.
       -1   -1    0    0    0  501  0.00000000000E+00  0.00000000000E+00 -0.23772395871E+03  0.23772395876E+03  0.50400001928E-02 0.  1.
    10030    2    1    2    0    0  0.00000000000E+00  0.00000000000E+00  0.68178202544E+03  0.11572299429E+04  0.93506920096E+03 0.  0.
        2    1    3    3  502    0  0.22457214652E+03 -0.15388697865E+03 -0.12951394233E+03  0.30147589034E+03  0.25500000920E-02 0.  1.
       -2    1    3    3    0  502 -0.22457214652E+03  0.15388697865E+03  0.81129596777E+03  0.85575405259E+03  0.25500000920E-02 0. -1.
</event>
<event>
 5   0  0.1598986E-02  0.9731048E+03  0.7818609E-02  0.9338545E-01
        2   -1    0    0  501    0  0.00000000000E+00  0.00000000000E+00  0.76367799553E+03  0.76367799553E+03  0.25500000920E-02 0. -1.
       -2   -1    0    0    0  501  0.00000000000E+00  0.00000000000E+00 -0.30999093336E+03  0.30999093337E+03  0.25500000920E-02 0.  1.
    10030    2    1    2    0    0  0.00000000000E+00  0.00000000000E+00  0.45368706217E+03  0.10736689289E+04  0.97310483428E+03 0.  0.
        3    1    3    3  502    0  0.82083621675E+02 -0.47948226965E+03  0.23744232580E+03  0.54131306666E+03  0.10100000352E+00 0.  1.
       -3    1    3    3    0  502 -0.82083621675E+02  0.47948226965E+03  0.21624473637E+03  0.53235586224E+03  0.10100000352E+00 0. -1.
</event>
<event>
 5   0  0.1656859E-02  0.9874299E+03  0.7818609E-02  0.9322440E-01
        2   -1    0    0  501    0  0.00000000000E+00  0.00000000000E+00  0.41092456860E+03  0.41092456860E+03  0.25500000920E-02 0. -1.
       -2   -1    0    0    0  501  0.00000000000E+00  0.00000000000E+00 -0.59318541355E+03  0.59318541356E+03  0.25500000920E-02 0.  1.
    10030    2    1    2    0    0  0.00000000000E+00  0.00000000000E+00 -0.18226084495E+03  0.10041099822E+04  0.98742991684E+03 0.  0.
        4    1    3    3  502    0 -0.45966336899E+03  0.18017305459E+03 -0.90801111090E+02  0.50199521618E+03  0.12699999809E+01 0. -1.
       -4    1    3    3    0  502  0.45966336899E+03 -0.18017305459E+03 -0.91459733863E+02  0.50211476598E+03  0.12699999809E+01 0.  1.
</event>
<event>
 5   0  0.1656859E-02  0.1016579E+04  0.7818609E-02  0.9290546E-01
       -2   -1    0    0    0  501  0.00000000000E+00  0.00000000000E+00  0.18638916482E+03  0.18638916484E+03  0.25500000920E-02 0.  1.
        2   -1    0    0  501    0  0.00000000000E+00  0.00000000000E+00 -0.13861220838E+04  0.13861220838E+04  0.25500000920E-02 0. -1.
    10030    2    1    2    0    0  0.00000000000E+00  0.00000000000E+00 -0.11997329190E+04  0.15725112487E+04  0.10165788460E+04 0.  0.
        4    1    3    3  502    0  0.19281620913E+03 -0.19821729452E+03  0.59846659042E+02  0.28293359971E+03  0.12699999809E+01 0.  1.
       -4    1    3    3    0  502 -0.19281620913E+03  0.19821729452E+03 -0.12595795780E+04  0.12895776489E+04  0.12699999809E+01 0. -1.
</event>
<event>
 5   0  0.1000773E-02  0.9923121E+03  0.7818609E-02  0.9317017E-01
       -1   -1    0    0    0  501  0.00000000000E+00  0.00000000000E+00  0.18673954367E+03  0.18673954374E+03  0.50400001928E-02 0. -1.
        1   -1    0    0  501    0  0.00000000000E+00  0.00000000000E+00 -0.13182576338E+04  0.13182576338E+04  0.50400001928E-02 0.  1.
    10030    2    1    2    0    0  0.00000000000E+00  0.00000000000E+00 -0.11315180901E+04  0.15049971775E+04  0.99231210620E+03 0.  0.
        3    1    3    3  502    0  0.69533831106E+02  0.34629008739E+03 -0.10942417680E+04  0.11498333946E+04  0.10100000352E+00 0.  1.
       -3    1    3    3    0  502 -0.69533831106E+02 -0.34629008739E+03 -0.37276322082E+02  0.35516378290E+03  0.10100000352E+00 0. -1.
</event>
<event>
 5   0  0.9507815E-03  0.9648073E+03  0.7818609E-02  0.9348009E-01
        1   -1    0    0  501    0  0.00000000000E+00  0.00000000000E+00  0.57401892700E+03  0.57401892702E+03  0.50400001928E-02 0. -1.
       -1   -1    0    0    0  501  0.00000000000E+00  0.00000000000E+00 -0.40541043269E+03  0.40541043272E+03  0.50400001928E-02 0.  1.
    10030    2    1    2    0    0  0.00000000000E+00  0.00000000000E+00  0.16860849431E+03  0.97942935974E+03  0.96480725866E+03 0.  0.
        1    1    3    3  502    0  0.22714938758E+03  0.80007652606E+02  0.50862853614E+03  0.56276198926E+03  0.50400001928E-02 0. -1.
       -1    1    3    3    0  502 -0.22714938758E+03 -0.80007652606E+02 -0.34002004183E+03  0.41666737048E+03  0.50400001928E-02 0.  1.
</event>
<event>
 5   0  0.9759443E-03  0.1161832E+04  0.7818609E-02  0.9146937E-01
        1   -1    0    0  501    0  0.00000000000E+00  0.00000000000E+00  0.64452256662E+03  0.64452256664E+03  0.50400001928E-02 0.  1.
       -1   -1    0    0    0  501  0.00000000000E+00  0.00000000000E+00 -0.52358685971E+03  0.52358685973E+03  0.50400001928E-02 0. -1.
    10030    2    1    2    0    0  0.00000000000E+00  0.00000000000E+00  0.12093570692E+03  0.11681094264E+04  0.11618322541E+04 0.  0.
        2    1    3    3  502    0  0.11196958206E+03 -0.39604753603E+03  0.47264954686E+03  0.62672835604E+03  0.25500000920E-02 0.  1.
       -2    1    3    3    0  502 -0.11196958206E+03  0.39604753603E+03 -0.35171383995E+03  0.54138107034E+03  0.25500000920E-02 0. -1.
</event>
<event>
 5   0  0.1663497E-02  0.1016730E+04  0.7818609E-02  0.9290383E-01
        2   -1    0    0  501    0  0.00000000000E+00  0.00000000000E+00  0.21574851385E+04  0.21574851385E+04  0.25500000920E-02 0.  1.
       -2   -1    0    0    0  501  0.00000000000E+00  0.00000000000E+00 -0.11978538212E+03  0.11978538215E+03  0.25500000920E-02 0. -1.
    10030    2    1    2    0    0  0.00000000000E+00  0.00000000000E+00  0.20376997564E+04  0.22772705207E+04  0.10167304102E+04 0.  0.
        1    1    3    3  502    0  0.42134557658E+03  0.12609880399E+03  0.15898980779E+04  0.16496087116E+04  0.50400001928E-02 0.  1.
       -1    1    3    3    0  502 -0.42134557658E+03 -0.12609880399E+03  0.44780167849E+03  0.62766180907E+03  0.50400001928E-02 0. -1.
</event>
<event>
 5   0  0.1656859E-02  0.9769575E+03  0.7818609E-02  0.9334185E-01
        2   -1    0    0  501    0  0.00000000000E+00  0.00000000000E+00  0.81240327584E+03  0.81240327585E+03  0.25500000920E-02 0. -1.
       -2   -1    0    0    0  501  0.00000000000E+00  0.00000000000E+00 -0.29371061378E+03  0.29371061379E+03  0.25500000920E-02 0.  1.
    10030    2    1    2    0    0  0.00000000000E+00  0.00000000000E+00  0.51869266206E+03  0.11061138896E+04  0.97695745003E+03 0.  0.
        4    1    3    3  502    0 -0.26057081842E+03  0.41315095926E+03  0.26427958438E+03  0.55537030724E+03  0.12699999809E+01 0. -1.
       -4    1    3    3    0  502  0.26057081842E+03 -0.41315095926E+03  0.25441307769E+03  0.55074358239E+03  0.12699999809E+01 0.  1.
</event>
<event>
 5   0  0.9396660E-03  0.9936626E+03  0.7818609E-02  0.9315523E-01
       -1   -1    0    0    0  501  0.00000000000E+00  0.00000000000E+00  0.19000449348E+03  0.19000449355E+03  0.50400001928E-02 0.  1.
        1   -1    0    0  501    0  0.00000000000E+00  0.00000000000E+00 -0.12991341394E+04  0.12991341395E+04  0.50400001928E-02 0. -1.
    10030    2    1    2    0    0  0.00000000000E+00  0.00000000000E+00 -0.11091296460E+04  0.14891386330E+04  0.99366256684E+03 0.  0.
        5    1    3    3  502    0  0.25035942345E+03  0.75919342888E+02  0.78377274054E+02  0.27314588524E+03  0.46999998093E+01 0.  1.
       -5    1    3    3    0  502 -0.25035942345E+03 -0.75919342888E+02 -0.11875069200E+04  0.12159927478E+04  0.46999998093E+01 0. -1.
</event>
<event>
 5   0  0.1663497E-02  0.1013848E+04  0.7818609E-02  0.9293486E-01
        2   -1    0    0  501    0  0.00000000000E+00  0.00000000000E+00  0.65355025994E+03  0.65355025995E+03  0.25500000920E-02 0. -1.
       -2   -1    0    0    0  501  0.00000000000E+00  0.00000000000E+00 -0.39319393873E+03  0.39319393873E+03  0.25500000920E-02 0.  1.
    10030    2    1    2    0    0  0.00000000000E+00  0.00000000000E+00  0.26035632122E+03  0.10467441987E+04  0.10138481166E+04 0.  0.
        1    1    3    3  502    0 -0.33044328899E+03  0.38042548483E+03  0.18725000279E+03  0.53756755884E+03  0.50400001928E-02 0.  1.
       -1    1    3    3    0  502  0.33044328899E+03 -0.38042548483E+03  0.73106318430E+02  0.50917663985E+03  0.50400001928E-02 0. -1.
</event>
<event>
 5   0  0.1000773E-02  0.9873282E+03  0.7818609E-02  0.9322553E-01
        1   -1    0    0  501    0  0.00000000000E+00  0.00000000000E+00  0.54751082106E+03  0.54751082108E+03  0.50400001928E-02 0. -1.
       -1   -1    0    0    0  501  0.00000000000E+00  0.00000000000E+00 -0.44511309575E+03  0.44511309578E+03  0.50400001928E-02 0.  1.
    10030    2    1    2    0    0  0.00000000000E+00  0.00000000000E+00  0.10239772531E+03  0.99262391686E+03  0.98732818565E+03 0.  0.
        3    1    3    3  502    0 -0.10085079053E+03  0.20401269359E+03  0.49162638745E+03  0.54174585936E+03  0.10100000352E+00 0. -1.
       -3    1    3    3    0  502  0.10085079053E+03 -0.20401269359E+03 -0.38922866215E+03  0.45087805750E+03  0.10100000352E+00 0.  1.
</event>
<event>
 5   0  0.9396660E-03  0.1011878E+04  0.7818609E-02  0.9295613E-01
        1   -1    0    0  501    0  0.00000000000E+00  0.00000000000E+00  0.10683517924E+04  0.10683517924E+04  0.50400001928E-02 0. -1.
       -1   -1    0    0    0  501  0.00000000000E+00  0.00000000000E+00 -0.23959715446E+03  0.23959715451E+03  0.50400001928E-02 0.  1.
    10030    2    1    2    0    0  0.00000000000E+00  0.00000000000E+00  0.82875463795E+03  0.13079489469E+04  0.10118775607E+04 0.  0.
        5    1    3    3  502    0 -0.47515188907E+03 -0.29581786309E+02  0.63566266579E+03  0.79418732957E+03  0.46999998093E+01 0. -1.
       -5    1    3    3    0  502  0.47515188907E+03  0.29581786309E+02  0.19309197216E+03  0.51376161736E+03  0.46999998093E+01 0.  1.
</event>
<event>
 5   0  0.9396660E-03  0.9557980E+03  0.7818609E-02  0.9358399E-01
       -1   -1    0    0    0  501  0.00000000000E+00  0.00000000000E+00  0.63968384529E+03  0.63968384531E+03  0.50400001928E-02 0.  1.
        1   -1    0    0  501    0  0.00000000000E+00  0.00000000000E+00 -0.35703175968E+03  0.35703175972E+03  0.50400001928E-02 0. -1.
    10030    2    1    2    0    0  0.00000000000E+00  0.00000000000E+00  0.28265208561E+03  0.99671560503E+03  0.95579798902E+03 0.  0.
        5    1    3    3  502    0  0.31785394999E+03 -0.32440028876E+03  0.29634624290E+03  0.54231897122E+03  0.46999998093E+01 0. -1.
       -5    1    3    3    0  502 -0.31785394999E+03  0.32440028876E+03 -0.13694157287E+02  0.45439663380E+03  0.46999998093E+01 0.  1.
</event>
<event>
 5   0  0.1617721E-02  0.9898886E+03  0.7818609E-02  0.9319705E-01
        2   -1    0    0  501    0  0.00000000000E+00  0.00000000000E+00  0.19112387696E+04  0.19112387696E+04  0.25500000920E-02 0.  1.
       -2   -1    0    0    0  501  0.00000000000E+00  0.00000000000E+00 -0.12817333247E+03  0.12817333250E+03  0.25500000920E-02 0. -1.
    10030    2    1    2    0    0  0.00000000000E+00  0.00000000000E+00  0.17830654371E+04  0.20394121021E+04  0.98988856398E+03 0.  0.
        5    1    3    3  502    0  0.15590310601E+03  0.45280762091E+03  0.63414866762E+03  0.79467423682E+03  0.46999998093E+01 0. -1.
       -5    1    3    3    0  502 -0.15590310601E+03 -0.45280762091E+03  0.11489167695E+04  0.12447378652E+04  0.46999998093E+01 0.  1.
</event>
<event>
 5   0  0.1617721E-02  0.1007330E+04  0.7818609E-02  0.9300542E-01
        2   -1    0    0  501    0  0.00000000000E+00  0.00000000000E+00  0.21751261739E+04  0.21751261739E+04  0.25500000920E-02 0. -1.
       -2   -1    0    0    0  501  0.00000000000E+00  0.00000000000E+00 -0.11662694314E+03  0.11662694316E+03  0.25500000920E-02 0.  1.
    10030    2    1    2    0    0  0.00000000000E+00  0.00000000000E+00  0.20584992307E+04  0.22917531170E+04  0.10073297705E+04 0.  0.
        5    1    3    3  502    0 -0.11306491981E+03  0.33074024951E+03  0.20429190304E+03  0.40488277364E+03  0.46999998093E+01 0.  1.
       -5    1    3    3    0  502  0.11306491981E+03 -0.33074024951E+03  0.18542073277E+04  0.18868703434E+04  0.46999998093E+01 0. -1.
</event>
<event>
 5   0  0.1571895E-02  0.1015683E+04  0.7818609E-02  0.9291509E-01
       -2   -1    0    0    0  501  0.00000000000E+00  0.00000000000E+00  0.15292620853E+03  0.15292620855E+03  0.25500000920E-02 0.  1.
        2   -1    0    0  501    0  0.00000000000E+00  0.00000000000E+00 -0.16864539456E+04  0.16864539456E+04  0.25500000920E-02 0. -1.
    10030    2    1    2    0    0  0.00000000000E+00  0.00000000000E+00 -0.15335277371E+04  0.18393801541E+04  0.10156830367E+04 0.  0.
        2    1    3    3  502    0  0.49971277319E+03  0.72968132816E+02 -0.86371134627E+03  0.10005171132E+04  0.25500000920E-02 0. -1.
       -2    1    3    3    0  502 -0.49971277319E+03 -0.72968132816E+02 -0.66981639080E+03  0.83886304096E+03  0.25500000920E-02 0.  1.
</event>
<event>
 5   0  0.9507815E-03  0.9829445E+03  0.7818609E-02  0.9327451E-01
       -1   -1    0    0    0  501  0.00000000000E+00  0.00000000000E+00  0.18170058503E+03  0.18170058510E+03  0.50400001928E-02 0. -1.
        1   -1    0    0  501    0  0.00000000000E+00  0.00000000000E+00 -0.13293571310E+04  0.13293571310E+04  0.50400001928E-02 0.  1.
    10030    2    1    2    0    0  0.00000000000E+00  0.00000000000E+00 -0.11476565460E+04  0.15110577161E+04  0.98294449178E+03 0.  0.
        1    1    3    3  502    0  0.16262527579E+03 -0.32107327370E+03 -0.59334238051E+02  0.36476784294E+03  0.50400001928E-02 0. -1.
       -1    1    3    3    0  502 -0.16262527579E+03  0.32107327370E+03 -0.10883223079E+04  0.11462898732E+04  0.50400001928E-02 0.  1.
</event>
<event>
 5   0  0.1617721E-02  0.9751938E+03  0.7818609E-02  0.9336178E-01
        2   -1    0    0  501    0  0.00000000000E+00  0.00000000000E+00  0.13555020765E+04  0.13555020765E+04  0.25500000920E-02 0.  1.
       -2   -1    0    0    0  501  0.00000000000E+00  0.00000000000E+00 -0.17539679013E+03  0.17539679015E+03  0.25500000920E-02 0. -1.
    10030    2    1    2    0    0  0.00000000000E+00  0.00000000000E+00  0.11801052864E+04  0.15308988667E+04  0.97519375153E+03 0.  0.
        5    1    3    3  502    0 -0.32989312503E+03 -0.74779411523E+02  0.38801135625E+02  0.34051292553E+03  0.46999998093E+01 0. -1.
       -5    1    3    3    0  502  0.32989312503E+03  0.74779411523E+02  0.11413041508E+04  0.11903859411E+04  0.46999998093E+01 0.  1.
</event>
<event>
 5   0  0.9396660E-03  0.1000028E+04  0.7818609E-02  0.9308514E-01
        1   -1    0    0  501    0  0.00000000000E+00  0.00000000000E+00  0.86832305250E+03  0.86832305252E+03  0.50400001928E-02 0. -1.
       -1   -1    0    0    0  501  0.00000000000E+00  0.00000000000E+00 -0.28792732174E+03  0.28792732178E+03  0.50400001928E-02 0.  1.
    10030    2    1    2    0    0  0.00000000000E+00  0.00000000000E+00  0.58039573076E+03  0.11562503743E+04  0.10000278615E+04 0.  0.
        5    1    3    3  502    0  0.44650644967E+03  0.13851054126E+03  0.85189393271E+02  0.47521837334E+03  0.46999998093E+01 0.  1.
       -5    1    3    3    0  502 -0.44650644967E+03 -0.13851054126E+03  0.49520633749E+03  0.68103200096E+03  0.46999998093E+01 0. -1.
</event>
<event>
 5   0  0.1598986E-02  0.9878184E+03  0.7818609E-02  0.9322007E-01
       -2   -1    0    0    0  501  0.00000000000E+00  0.00000000000E+00  0.14584694737E+03  0.14584694739E+03  0.25500000920E-02 0. -1.
        2   -1    0    0  501    0  0.00000000000E+00  0.00000000000E+00 -0.16726183467E+04  0.16726183467E+04  0.25500000920E-02 0.  1.
    10030    2    1    2    0    0  0.00000000000E+00  0.00000000000E+00 -0.15267713993E+04  0.18184652941E+04  0.98781836387E+03 0.  0.
        3    1    3    3  502    0 -0.15738620097E+03  0.85500105604E+01 -0.16250772541E+04  0.16327031607E+04  0.10100000352E+00 0.  1.
       -3    1    3    3    0  502  0.15738620097E+03 -0.85500105604E+01  0.98305854747E+02  0.18576213342E+03  0.10100000352E+00 0. -1.
</event>
<event>
 5   0  0.1617721E-02  0.1215375E+04  0.7818609E-02  0.9099505E-01
        2   -1    0    0  501    0  0.00000000000E+00  0.00000000000E+00  0.17778978611E+04  0.17778978611E+04  0.25500000920E-02 0.  1.
       -2   -1    0    0    0  501  0.00000000000E+00  0.00000000000E+00 -0.20770811715E+03  0.20770811716E+03  0.25500000920E-02 0. -1.
    10030    2    1    2    0    0  0.00000000000E+00  0.00000000000E+00  0.15701897439E+04  0.19856059782E+04  0.12153745385E+04 0.  0.
        5    1    3    3  502    0  0.41522248857E+03 -0.35122264820E+03  0.34218960890E+03  0.64255963307E+03  0.46999998093E+01 0.  1.
       -5    1    3    3    0  502 -0.41522248857E+03  0.35122264820E+03  0.12280001350E+04  0.13430463452E+04  0.46999998093E+01 0. -1.
</event>
<event>
 5   0  0.9471140E-03  0.9918714E+03  0.7818609E-02  0.9317505E-01
       -1   -1    0    0    0  501  0.00000000000E+00  0.00000000000E+00  0.72661723074E+03  0.72661723076E+03  0.50400001928E-02 0.  1.
        1   -1    0    0  501    0  0.00000000000E+00  0.00000000000E+00 -0.33848936433E+03  0.33848936437E+03  0.50400001928E-02 0. -1.
    10030    2    1    2    0    0  0.00000000000E+00  0.00000000000E+00  0.38812786641E+03  0.10651065951E+04  0.99187137185E+03 0.  0.
        4    1    3    3  502    0 -0.73894744324E+02 -0.35123393176E+03 -0.17344026489E+03  0.39863372467E+03  0.12699999809E+01 0. -1.
       -4    1    3    3    0  502  0.73894744324E+02  0.35123393176E+03  0.56156813130E+03  0.66647287045E+03  0.12699999809E+01 0.  1.
</event>
<event>
 5   0  0.1598986E-02  0.9613956E+03  0.7818609E-02  0.9351929E-01
       -2   -1    0    0    0  501  0.00000000000E+00  0.00000000000E+00  0.31348758375E+03  0.31348758376E+03  0.25500000920E-02 0.  1.
        2   -1    0    0  501    0  0.00000000000E+00  0.00000000000E+00 -0.73709575031E+03  0.73709575032E+03  0.25500000920E-02 0. -1.
    10030    2    1    2    0    0  0.00000000000E+00  0.00000000000E+00 -0.42360816656E+03  0.10505833341E+04  0.96139558094E+03 0.  0.
        3    1    3    3  502    0  0.12949719069E+03  0.21744105206E+03 -0.65839811400E+03  0.70536389207E+03  0.10100000352E+00 0. -1.
       -3    1    3    3    0  502 -0.12949719069E+03 -0.21744105206E+03  0.23478994744E+03  0.34521944200E+03  0.10100000352E+00 0.  1.
</event>
<event>
 5   0  0.1571895E-02  0.9374521E+03  0.7818609E-02  0.9379939E-01
        2   -1    0    0  501    0  0.00000000000E+00  0.00000000000E+00  0.45753499652E+03  0.45753499653E+03  0.25500000920E-02 0.  1.
       -2   -1    0    0    0  501  0.00000000000E+00  0.00000000000E+00 -0.48019086806E+03  0.48019086806E+03  0.25500000920E-02 0. -1.
    10030    2    1    2    0    0  0.00000000000E+00  0.00000000000E+00 -0.22655871538E+02  0.93772586459E+03  0.93745213670E+03 0.  0.
        2    1    3    3  502    0 -0.33786041895E+03  0.32199446899E+03 -0.54630602569E+02  0.46990914387E+03  0.25500000920E-02 0. -1.
       -2    1    3    3    0  502  0.33786041895E+03 -0.32199446899E+03  0.31974731031E+02  0.46781672072E+03  0.25500000920E-02 0.  1.
</event>
<event>
 5   0  0.1656859E-02  0.1021396E+04  0.7818609E-02  0.9285385E-01
       -2   -1    0    0    0  501  0.00000000000E+00  0.00000000000E+00  0.36730529865E+03  0.36730529865E+03  0.25500000920E-02 0. -1.
        2   -1    0    0  501    0  0.00000000000E+00  0.00000000000E+00 -0.71006923886E+03  0.71006923886E+03  0.25500000920E-02 0.  1.
    10030    2    1    2    0    0  0.00000000000E+00  0.00000000000E+00 -0.34276394021E+03  0.10773745375E+04  0.10213955039E+04 0.  0.
        4    1    3    3  502    0 -0.20347179353E+03 -0.29791750983E+03  0.20989074636E+03  0.41738633390E+03  0.12699999809E+01 0. -1.
       -4    1    3    3    0  502  0.20347179353E+03  0.29791750983E+03 -0.55265468657E+03  0.65998820361E+03  0.12699999809E+01 0.  1.
</event>
<event>
 5   0  0.1617721E-02  0.1074820E+04  0.7818609E-02  0.9230087E-01
       -2   -1    0    0    0  501  0.00000000000E+00  0.00000000000E+00  0.62411938812E+03  0.62411938813E+03  0.25500000920E-02 0. -1.
        2   -1    0    0  501    0  0.00000000000E+00  0.00000000000E+00 -0.46274760430E+03  0.46274760431E+03  0.25500000920E-02 0.  1.
    10030    2    1    2    0    0  0.00000000000E+00  0.00000000000E+00  0.16137178382E+03  0.10868669924E+04  0.10748204532E+04 0.  0.
        5    1    3    3  502    0  0.13866256756E+03  0.28588844945E+03  0.51893477324E+03  0.60850217917E+03  0.46999998093E+01 0. -1.
       -5    1    3    3    0  502 -0.13866256756E+03 -0.28588844945E+03 -0.35756298942E+03  0.47836481327E+03  0.46999998093E+01 0.  1.
</event>
<event>
 5   0  0.1663497E-02  0.9944607E+03  0.7818609E-02  0.9314641E-01
        2   -1    0    0  501    0  0.00000000000E+00  0.00000000000E+00  0.28711521145E+04  0.28711521145E+04  0.25500000920E-02 0.  1.
       -2   -1    0    0    0  501  0.00000000000E+00  0.00000000000E+00 -0.86111077555E+02  0.86111077593E+02  0.25500000920E-02 0. -1.
    10030    2    1    2    0    0  0.00000000000E+00  0.00000000000E+00  0.27850410370E+04  0.29572631921E+04  0.99446066280E+03 0.  0.
        1    1    3    3  502    0  0.95503890532E+02 -0.33835624658E+03  0.34691486810E+03  0.49391888852E+03  0.50400001928E-02 0. -1.
       -1    1    3    3    0  502 -0.95503890532E+02  0.33835624658E+03  0.24381261689E+04  0.24633443036E+04  0.50400001928E-02 0.  1.
</event>
<event>
 5   0  0.1663497E-02  0.1066063E+04  0.7818609E-02  0.9238916E-01
       -2   -1    0    0    0  501  0.00000000000E+00  0.00000000000E+00  0.59101510115E+03  0.59101510115E+03  0.25500000920E-02 0. -1.
        2   -1    0    0  501    0  0.00000000000E+00  0.00000000000E+00 -0.48073616584E+03  0.48073616585E+03  0.25500000920E-02 0.  1.
    10030    2    1    2    0    0  0.00000000000E+00  0.00000000000E+00  0.11027893531E+03  0.10717512670E+04  0.10660625379E+04 0.  0.
        1    1    3    3  502    0 -0.40189518616E+02 -0.46504572208E+03  0.31388342453E+03  0.56249935578E+03  0.50400001928E-02 0. -1.
       -1    1    3    3    0  502  0.40189518616E+02  0.46504572208E+03 -0.20360448922E+03  0.50925191123E+03  0.50400001928E-02 0.  1.
</event>
<event>
 5   0  0.9507815E-03  0.1003999E+04  0.7818609E-02  0.9304169E-01
       -1   -1    0    0    0  501  0.00000000000E+00  0.00000000000E+00  0.55391639209E+03  0.55391639211E+03  0.50400001928E-02 0. -1.
        1   -1    0    0  501    0  0.00000000000E+00  0.00000000000E+00 -0.45494893930E+03  0.45494893933E+03  0.50400001928E-02 0.  1.
    10030    2    1    2    0    0  0.00000000000E+00  0.00000000000E+00  0.98967452785E+02  0.10088653314E+04  0.10039993527E+04 0.  0.
        1    1    3    3  502    0  0.50631803362E+02  0.42039102470E+03 -0.22147382770E+03  0.47785233026E+03  0.50400001928E-02 0.  1.
       -1    1    3    3    0  502 -0.50631803362E+02 -0.42039102470E+03  0.32044128048E+03  0.53101300118E+03  0.50400001928E-02 0. -1.
</event>
<event>
 5   0  0.9759443E-03  0.9409602E+03  0.7818609E-02  0.9375780E-01
       -1   -1    0    0    0  501  0.00000000000E+00  0.00000000000E+00  0.84718137227E+03  0.84718137228E+03  0.50400001928E-02 0. -1.
        1   -1    0    0  501    0  0.00000000000E+00  0.00000000000E+00 -0.26127997459E+03  0.26127997464E+03  0.50400001928E-02 0.  1.
    10030    2    1    2    0    0  0.00000000000E+00  0.00000000000E+00  0.58590139768E+03  0.11084613469E+04  0.94096020628E+03 0.  0.
        2    1    3    3  502    0  0.38000026438E+03  0.92832613376E+02  0.60089056325E+03  0.71699899863E+03  0.25500000920E-02 0. -1.
       -2    1    3    3    0  502 -0.38000026438E+03 -0.92832613376E+02 -0.14989165566E+02  0.39146234829E+03  0.25500000920E-02 0.  1.
</event>
<event>
 5   0  0.1663497E-02  0.8847815E+03  0.7818609E-02  0.9444808E-01
       -2   -1    0    0    0  501  0.00000000000E+00  0.00000000000E+00  0.14584664542E+03  0.14584664545E+03  0.25500000920E-02 0. -1.
        2   -1    0    0  501    0  0.00000000000E+00  0.00000000000E+00 -0.13418860276E+04  0.13418860276E+04  0.25500000920E-02 0.  1.
    10030    2    1    2    0    0  0.00000000000E+00  0.00000000000E+00 -0.11960393822E+04  0.14877326730E+04  0.88478150000E+03 0.  0.
        1    1    3    3  502    0  0.53266986802E+02  0.36958136814E+03 -0.19911153225E+03  0.42317036978E+03  0.50400001928E-02 0. -1.
       -1    1    3    3    0  502 -0.53266986802E+02 -0.36958136814E+03 -0.99692784992E+03  0.10645623033E+04  0.50400001928E-02 0.  1.
</event>
<event>
 5   0  0.1000773E-02  0.1027375E+04  0.7818609E-02  0.9279019E-01
       -1   -1    0    0    0  501  0.00000000000E+00  0.00000000000E+00  0.71441751138E+03  0.71441751140E+03  0.50400001928E-02 0.  1.
        1   -1    0    0  501    0  0.00000000000E+00  0.00000000000E+00 -0.36935683525E+03  0.36935683529E+03  0.50400001928E-02 0. -1.
    10030    2    1    2    0    0  0.00000000000E+00  0.00000000000E+00  0.34506067613E+03  0.10837743467E+04  0.10273752792E+04 0.  0.
        3    1    3    3  502    0 -0.24773666805E+03  0.69787429863E+02  0.64149222861E+03  0.69119898122E+03  0.10100000352E+00 0.  1.
       -3    1    3    3    0  502  0.24773666805E+03 -0.69787429863E+02 -0.29643155248E+03  0.39257536547E+03  0.10100000352E+00 0. -1.
</event>
<event>
 5   0  0.1617721E-02  0.1063909E+04  0.7818609E-02  0.9241100E-01
       -2   -1    0    0    0  501  0.00000000000E+00  0.00000000000E+00  0.17719207414E+03  0.17719207416E+03  0.25500000920E-02 0. -1.
        2   -1    0    0  501    0  0.00000000000E+00  0.00000000000E+00 -0.15969993375E+04  0.15969993375E+04  0.25500000920E-02 0.  1.
    10030    2    1    2    0    0  0.00000000000E+00  0.00000000000E+00 -0.14198072634E+04  0.17741914117E+04  0.10639090657E+04 0.  0.
        5    1    3    3  502    0  0.14746316016E+03  0.15706871298E+03 -0.15209506448E+04  0.15361409174E+04  0.46999998093E+01 0.  1.
       -5    1    3    3    0  502 -0.14746316016E+03 -0.15706871298E+03  0.10114338146E+03  0.23805049425E+03  0.46999998093E+01 0. -1.
</event>
<event>
 5   0  0.1000773E-02  0.1018609E+04  0.7818609E-02  0.9288367E-01
        1   -1    0    0  501    0  0.00000000000E+00  0.00000000000E+00  0.27907674755E+03  0.27907674760E+03  0.50400001928E-02 0. -1.
       -1   -1    0    0    0  501  0.00000000000E+00  0.00000000000E+00 -0.92946165849E+03  0.92946165850E+03  0.50400001928E-02 0.  1.
    10030    2    1    2    0    0  0.00000000000E+00  0.00000000000E+00 -0.65038491094E+03  0.12085384061E+04  0.10186091236E+04 0.  0.
        3    1    3    3  502    0 -0.34208235881E+03  0.62075110237E+02 -0.76676815450E+03  0.84190680748E+03  0.10100000352E+00 0.  1.
       -3    1    3    3    0  502  0.34208235881E+03 -0.62075110237E+02  0.11638324356E+03  0.36663159862E+03  0.10100000352E+00 0. -1.
</event>
<event>
 5   0  0.1571895E-02  0.1001023E+04  0.7818609E-02  0.9307423E-01
       -2   -1    0    0    0  501  0.00000000000E+00  0.00000000000E+00  0.33044561140E+03  0.33044561141E+03  0.25500000920E-02 0. -1.
        2   -1    0    0  501    0  0.00000000000E+00  0.00000000000E+00 -0.75810318572E+03  0.75810318573E+03  0.25500000920E-02 0.  1.
    10030    2    1    2    0    0  0.00000000000E+00  0.00000000000E+00 -0.42765757433E+03  0.10885487971E+04  0.10010232179E+04 0.  0.
        2    1    3    3  502    0 -0.39245023882E+03 -0.25140199012E+02 -0.55051743175E+03  0.67654908338E+03  0.25500000920E-02 0.  1.
       -2    1    3    3    0  502  0.39245023882E+03  0.25140199012E+02  0.12285985743E+03  0.41199971375E+03  0.25500000920E-02 0. -1.
</event>
<event>
 5   0  0.9471140E-03  0.1055638E+04  0.7818609E-02  0.9249542E-01
       -1   -1    0    0    0  501  0.00000000000E+00  0.00000000000E+00  0.31299336897E+03  0.31299336902E+03  0.50400001928E-02 0. -1.
        1   -1    0    0  501    0  0.00000000000E+00  0.00000000000E+00 -0.89009239035E+03  0.89009239036E+03  0.50400001928E-02 0.  1.
    10030    2    1    2    0    0  0.00000000000E+00  0.00000000000E+00 -0.57709902137E+03  0.12030857594E+04  0.10556382259E+04 0.  0.
        4    1    3    3  502    0 -0.49790404048E+03  0.17257040383E+03 -0.25431318845E+03  0.58512031970E+03  0.12699999809E+01 0.  1.
       -4    1    3    3    0  502  0.49790404048E+03 -0.17257040383E+03 -0.32278583292E+03  0.61796543968E+03  0.12699999809E+01 0. -1.
</event>
<event>
 5   0  0.9396660E-03  0.9841002E+03  0.7818609E-02  0.9326157E-01
       -1   -1    0    0    0  501  0.00000000000E+00  0.00000000000E+00  0.69873687287E+03  0.69873687289E+03  0.50400001928E-02 0.  1.
        1   -1    0    0  501    0  0.00000000000E+00  0.00000000000E+00 -0.34650138374E+03  0.34650138378E+03  0.50400001928E-02 0. -1.
    10030    2    1    2    0    0  0.00000000000E+00  0.00000000000E+00  0.35223548913E+03  0.10452382567E+04  0.98410018463E+03 0.  0.
        5    1    3    3  502    0  0.30439953905E+03  0.24556361197E+03  0.49321281277E+03  0.62947719226E+03  0.46999998093E+01 0.  1.
       -5    1    3    3    0  502 -0.30439953905E+03 -0.24556361197E+03 -0.14097732364E+03  0.41576106440E+03  0.46999998093E+01 0. -1.
</event>
<event>
 5   0  0.9507815E-03  0.9376454E+03  0.7818609E-02  0.9379709E-01
        1   -1    0    0  501    0  0.00000000000E+00  0.00000000000E+00  0.61558788243E+03  0.61558788245E+03  0.50400001928E-02 0.  1.
       -1   -1    0    0    0  501  0.00000000000E+00  0.00000000000E+00 -0.35704848400E+03  0.35704848404E+03  0.50400001928E-02 0. -1.
    10030    2    1    2    0    0  0.00000000000E+00  0.00000000000E+00  0.25853939843E+03  0.97263636648E+03  0.93764539185E+03 0.  0.
        1    1    3    3  502    0 -0.56195527868E+02  0.45296843698E+03  0.24029847369E+03  0.51583107578E+03  0.50400001928E-02 0. -1.
       -1    1    3    3    0  502  0.56195527868E+02 -0.45296843698E+03  0.18240924737E+02  0.45680529070E+03  0.50400001928E-02 0.  1.
</event>
<event>
 5   0  0.9759443E-03  0.1006474E+04  0.7818609E-02  0.9301473E-01
       -1   -1    0    0    0  501  0.00000000000E+00  0.00000000000E+00  0.23260734181E+03  0.23260734186E+03  0.50400001928E-02 0.  1.
        1   -1    0    0  501    0  0.00000000000E+00  0.00000000000E+00 -0.10887339615E+04  0.10887339615E+04  0.50400001928E-02 0. -1.
    10030    2    1    2    0    0  0.00000000000E+00  0.00000000000E+00 -0.85612661969E+03  0.13213413034E+04  0.10064740687E+04 0.  0.
        2    1    3    3  502    0  0.75928231622E+01 -0.29938746466E+02  0.23136179963E+03  0.23341435653E+03  0.25500000920E-02 0.  1.
       -2    1    3    3    0  502 -0.75928231622E+01  0.29938746466E+02 -0.10874884193E+04  0.10879269468E+04  0.25500000920E-02 0. -1.
</event>
<event>
 5   0  0.1598986E-02  0.9930961E+03  0.7818609E-02  0.9316149E-01
        2   -1    0    0  501    0  0.00000000000E+00  0.00000000000E+00  0.12480001836E+04  0.12480001836E+04  0.25500000920E-02 0. -1.
       -2   -1    0    0    0  501  0.00000000000E+00  0.00000000000E+00 -0.19756404222E+03  0.19756404223E+03  0.25500000920E-02 0.  1.
    10030    2    1    2    0    0  0.00000000000E+00  0.00000000000E+00  0.10504361414E+04  0.14455642258E+04  0.99309608996E+03 0.  0.
        3    1    3    3  502    0 -0.22534104062E+03  0.47621815438E+02 -0.11510888757E+03  0.25748104414E+03  0.10100000352E+00 0.  1.
       -3    1    3    3    0  502  0.22534104062E+03 -0.47621815438E+02  0.11655450290E+04  0.11880831817E+04  0.10100000352E+00 0. -1.
</event>
<event>
 5   0  0.1663497E-02  0.9890680E+03  0.7818609E-02  0.9320617E-01
        2   -1    0    0  501    0  0.00000000000E+00  0.00000000000E+00  0.14322950272E+04  0.14322950272E+04  0.25500000920E-02 0.  1.
       -2   -1    0    0    0  501  0.00000000000E+00  0.00000000000E+00 -0.17074966874E+03  0.17074966876E+03  0.25500000920E-02 0. -1.
    10030    2    1    2    0    0  0.00000000000E+00  0.00000000000E+00  0.12615453585E+04  0.16030446960E+04  0.98906804911E+03 0.  0.
        1    1    3    3  502    0  0.30323863762E+03 -0.33983836804E+03  0.31850710525E+03  0.55577924022E+03  0.50400001928E-02 0. -1.
       -1    1    3    3    0  502 -0.30323863762E+03  0.33983836804E+03  0.94303825321E+03  0.10472654557E+04  0.50400001928E-02 0.  1.
</event>
<event>
 5   0  0.9759443E-03  0.1023186E+04  0.7818609E-02  0.9283474E-01
       -1   -1    0    0    0  501  0.00000000000E+00  0.00000000000E+00  0.48093178080E+03  0.48093178083E+03  0.50400001928E-02 0. -1.
        1   -1    0    0  501    0  0.00000000000E+00  0.00000000000E+00 -0.54420889161E+03  0.54420889163E+03  0.50400001928E-02 0.  1.
    10030    2    1    2    0    0  0.00000000000E+00  0.00000000000E+00 -0.63277110806E+02  0.10251406725E+04  0.10231859096E+04 0.  0.
        2    1    3    3  502    0  0.41497234782E+03 -0.21402109664E+03 -0.24113195379E+03  0.52550137812E+03  0.25500000920E-02 0.  1.
       -2    1    3    3    0  502 -0.41497234782E+03  0.21402109664E+03  0.17785484298E+03  0.49963929433E+03  0.25500000920E-02 0. -1.
</event>
<event>
 5   0  0.9471140E-03  0.1017994E+04  0.7818609E-02  0.9289026E-01
        1   -1    0    0  501    0  0.00000000000E+00  0.00000000000E+00  0.83286390605E+03  0.83286390607E+03  0.50400001928E-02 0. -1.
       -1   -1    0    0    0  501  0.00000000000E+00  0.00000000000E+00 -0.31106891421E+03  0.31106891425E+03  0.50400001928E-02 0.  1.
    10030    2    1    2    0    0  0.00000000000E+00  0.00000000000E+00  0.52179499185E+03  0.11439328203E+04  0.10179942455E+04 0.  0.
        4    1    3    3  502    0  0.24711886101E+03 -0.44450894086E+03  0.23785376978E+03  0.56145521520E+03  0.12699999809E+01 0.  1.
       -4    1    3    3    0  502 -0.24711886101E+03  0.44450894086E+03  0.28394122207E+03  0.58247760512E+03  0.12699999809E+01 0. -1.
</event>
<event>
 5   0  0.1000773E-02  0.7850731E+03  0.7818609E-02  0.9581878E-01
       -1   -1    0    0    0  501  0.00000000000E+00  0.00000000000E+00  0.68580369602E+03  0.68580369604E+03  0.50400001928E-02 0.  1.
        1   -1    0    0  501    0  0.00000000000E+00  0.00000000000E+00 -0.22467793480E+03  0.22467793486E+03  0.50400001928E-02 0. -1.
    10030    2    1    2    0    0  0.00000000000E+00  0.00000000000E+00  0.46112576121E+03  0.91048163090E+03  0.78507313834E+03 0.  0.
        3    1    3    3  502    0 -0.86880492546E+02 -0.13188675799E+03  0.64733230641E+03  0.66631933939E+03  0.10100000352E+00 0.  1.
       -3    1    3    3    0  502  0.86880492546E+02  0.13188675799E+03 -0.18620654520E+03  0.24416229151E+03  0.10100000352E+00 0. -1.
</event>
<event>
 5   0  0.9471140E-03  0.1004184E+04  0.7818609E-02  0.9303967E-01
        1   -1    0    0  501    0  0.00000000000E+00  0.00000000000E+00  0.60087149739E+03  0.60087149741E+03  0.50400001928E-02 0.  1.
       -1   -1    0    0    0  501  0.00000000000E+00  0.00000000000E+00 -0.41955164803E+03  0.41955164806E+03  0.50400001928E-02 0. -1.
    10030    2    1    2    0    0  0.00000000000E+00  0.00000000000E+00  0.18131984937E+03  0.10204231455E+04  0.10041844990E+04 0.  0.
        4    1    3    3  502    0  0.21927952606E+03 -0.24212292905E+03  0.47812365477E+03  0.57906032973E+03  0.12699999809E+01 0.  1.
       -4    1    3    3    0  502 -0.21927952606E+03  0.24212292905E+03 -0.29680380540E+03  0.44136281574E+03  0.12699999809E+01 0. -1.
</event>
<event>
 5   0  0.1571895E-02  0.1011070E+04  0.7818609E-02  0.9296487E-01
        2   -1    0    0  501    0  0.00000000000E+00  0.00000000000E+00  0.10335643509E+04  0.10335643509E+04  0.25500000920E-02 0. -1.
       -2   -1    0    0    0  501  0.00000000000E+00  0.00000000000E+00 -0.24726610531E+03  0.24726610533E+03  0.25500000920E-02 0.  1.
    10030    2    1    2    0    0  0.00000000000E+00  0.00000000000E+00  0.78629824556E+03  0.12808304562E+04  0.10110695953E+04 0.  0.
        2    1    3    3  502    0  0.27065593004E+03  0.41789327421E+03  0.28216052192E+03  0.57227963552E+03  0.25500000920E-02 0.  1.
       -2    1    3    3    0  502 -0.27065593004E+03 -0.41789327421E+03  0.50413772364E+03  0.70855082068E+03  0.25500000920E-02 0. -1.
</event>
<event>
 5   0  0.1663497E-02  0.9732577E+03  0.7818609E-02  0.9338371E-01
       -2   -1    0    0    0  501  0.00000000000E+00  0.00000000000E+00  0.44057840471E+03  0.44057840472E+03  0.25500000920E-02 0.  1.
        2   -1    0    0  501    0  0.00000000000E+00  0.00000000000E+00 -0.53749264327E+03  0.53749264327E+03  0.25500000920E-02 0. -1.
    10030    2    1    2    0    0  0.00000000000E+00  0.00000000000E+00 -0.96914238558E+02  0.97807104799E+03  0.97325772809E+03 0.  0.
        1    1    3    3  502    0  0.18207661636E+03  0.18092483776E+03 -0.46392884602E+03  0.53020341883E+03  0.50400001928E-02 0. -1.
       -1    1    3    3    0  502 -0.18207661636E+03 -0.18092483776E+03  0.36701460746E+03  0.44786762917E+03  0.50400001928E-02 0.  1.
</event>
<event>
 5   0  0.6314750E-03  0.9624097E+03  0.7818609E-02  0.9350762E-01
       -3   -1    0    0    0  501  0.00000000000E+00  0.00000000000E+00  0.14341629372E+04  0.14341629408E+04  0.10100000352E+00 0. -1.
        3   -1    0    0  501    0  0.00000000000E+00  0.00000000000E+00 -0.16145871015E+03  0.16145874175E+03  0.10100000352E+00 0.  1.
    10030    2    1    2    0    0  0.00000000000E+00  0.00000000000E+00  0.12727042271E+04  0.15956216825E+04  0.96240973818E+03 0.  0.
        3    1    3    3  502    0  0.20317846847E+03 -0.43616547616E+03  0.62636264549E+03  0.78984301384E+03  0.10100000352E+00 0.  1.
       -3    1    3    3    0  502 -0.20317846847E+03  0.43616547616E+03  0.64634158159E+03  0.80577866870E+03  0.10100000352E+00 0. -1.
</event>
<event>
 5   0  0.9507815E-03  0.9565935E+03  0.7818609E-02  0.9357477E-01
       -1   -1    0    0    0  501  0.00000000000E+00  0.00000000000E+00  0.59510521970E+03  0.59510521972E+03  0.50400001928E-02 0. -1.
        1   -1    0    0  501    0  0.00000000000E+00  0.00000000000E+00 -0.38441564971E+03  0.38441564974E+03  0.50400001928E-02 0.  1.
    10030    2    1    2    0    0  0.00000000000E+00  0.00000000000E+00  0.21068956999E+03  0.97952086946E+03  0.95659345535E+03 0.  0.
        1    1    3    3  502    0 -0.37432150859E+03 -0.31540720369E+02  0.40850903142E+03  0.55496940241E+03  0.50400001928E-02 0. -1.
       -1    1    3    3    0  502  0.37432150859E+03  0.31540720369E+02 -0.19781946143E+03  0.42455146706E+03  0.50400001928E-02 0.  1.
</event>
<event>
 5   0  0.1571895E-02  0.9682376E+03  0.7818609E-02  0.9344084E-01
       -2   -1    0    0    0  501  0.00000000000E+00  0.00000000000E+00  0.17310913269E+03  0.17310913270E+03  0.25500000920E-02 0.  1.
        2   -1    0    0  501    0  0.00000000000E+00  0.00000000000E+00 -0.13538915708E+04  0.13538915708E+04  0.25500000920E-02 0. -1.
    10030    2    1    2    0    0  0.00000000000E+00  0.00000000000E+00 -0.11807824381E+04  0.15270007035E+04  0.96823756505E+03 0.  0.
        2    1    3    3  502    0  0.20080085331E+03  0.42387966446E+03 -0.77948488864E+03  0.90972064078E+03  0.25500000920E-02 0. -1.
       -2    1    3    3    0  502 -0.20080085331E+03 -0.42387966446E+03 -0.40129754951E+03  0.61728006276E+03  0.25500000920E-02 0.  1.
</event>
<event>
 5   0  0.1000773E-02  0.9829040E+03  0.7818609E-02  0.9327497E-01
       -1   -1    0    0    0  501  0.00000000000E+00  0.00000000000E+00  0.16805365715E+03  0.16805365723E+03  0.50400001928E-02 0.  1.
        1   -1    0    0  501    0  0.00000000000E+00  0.00000000000E+00 -0.14371900579E+04  0.14371900579E+04  0.50400001928E-02 0. -1.
    10030    2    1    2    0    0  0.00000000000E+00  0.00000000000E+00 -0.12691364008E+04  0.16052437152E+04  0.98290395324E+03 0.  0.
        3    1    3    3  502    0 -0.41918688086E+03 -0.22248233776E+03 -0.42600215416E+03  0.63772555010E+03  0.10100000352E+00 0.  1.
       -3    1    3    3    0  502  0.41918688086E+03  0.22248233776E+03 -0.84313424661E+03  0.96751816506E+03  0.10100000352E+00 0. -1.
</event>
<event>
 5   0  0.1663497E-02  0.9495551E+03  0.7818609E-02  0.9365671E-01
       -2   -1    0    0    0  501  0.00000000000E+00  0.00000000000E+00  0.29095676582E+03  0.29095676583E+03  0.25500000920E-02 0.  1.
        2   -1    0    0  501    0  0.00000000000E+00  0.00000000000E+00 -0.77473268289E+03  0.77473268289E+03  0.25500000920E-02 0. -1.
    10030    2    1    2    0    0  0.00000000000E+00  0.00000000000E+00 -0.48377591707E+03  0.10656894487E+04  0.94955508696E+03 0.  0.
        1    1    3    3  502    0 -0.29605780682E+03  0.36047362234E+01  0.17465240131E+03  0.34375380785E+03  0.50400001928E-02 0.  1.
       -1    1    3    3    0  502  0.29605780682E+03 -0.36047362234E+01 -0.65842831838E+03  0.72193564088E+03  0.50400001928E-02 0. -1.
</event>
<event>
 5   0  0.1000773E-02  0.9965385E+03  0.7818609E-02  0.9312349E-01
        1   -1    0    0  501    0  0.00000000000E+00  0.00000000000E+00  0.10937955551E+04  0.10937955551E+04  0.50400001928E-02 0. -1.
       -1   -1    0    0    0  501  0.00000000000E+00  0.00000000000E+00 -0.22698233100E+03  0.22698233106E+03  0.50400001928E-02 0.  1.
    10030    2    1    2    0    0  0.00000000000E+00  0.00000000000E+00  0.86681322409E+03  0.13207778862E+04  0.99653853871E+03 0.  0.
        3    1    3    3  502    0 -0.17550397865E+03 -0.45864915917E+03  0.32163846950E+03  0.58703663684E+03  0.10100000352E+00 0. -1.
       -3    1    3    3    0  502  0.17550397865E+03  0.45864915917E+03  0.54517475459E+03  0.73374124933E+03  0.10100000352E+00 0.  1.
</event>
<event>
 5   0  0.1617721E-02  0.1027914E+04  0.7818609E-02  0.9278448E-01
        2   -1    0    0  501    0  0.00000000000E+00  0.00000000000E+00  0.81951024575E+03  0.81951024576E+03  0.25500000920E-02 0. -1.
       -2   -1    0    0    0  501  0.00000000000E+00  0.00000000000E+00 -0.32232883237E+03  0.32232883238E+03  0.25500000920E-02 0.  1.
    10030    2    1    2    0    0  0.00000000000E+00  0.00000000000E+00  0.49718141339E+03  0.11418390781E+04  0.10279139665E+04 0.  0.
        5    1    3    3  502    0  0.11486166991E+03  0.13498504247E+03 -0.28728098387E+03  0.33758942311E+03  0.46999998093E+01 0.  1.
       -5    1    3    3    0  502 -0.11486166991E+03 -0.13498504247E+03  0.78446239725E+03  0.80424965502E+03  0.46999998093E+01 0. -1.
</event>
<event>
 5   0  0.1663497E-02  0.9897321E+03  0.7818609E-02  0.9319879E-01
       -2   -1    0    0    0  501  0.00000000000E+00  0.00000000000E+00  0.22346200764E+03  0.22346200766E+03  0.25500000920E-02 0.  1.
        2   -1    0    0  501    0  0.00000000000E+00  0.00000000000E+00 -0.10959017164E+04  0.10959017165E+04  0.25500000920E-02 0. -1.
    10030    2    1    2    0    0  0.00000000000E+00  0.00000000000E+00 -0.87243970881E+03  0.13193637241E+04  0.98973208041E+03 0.  0.
        1    1    3    3  502    0  0.19128368585E+03  0.37272601550E+03 -0.78734231729E+03  0.89186437070E+03  0.50400001928E-02 0. -1.
       -1    1    3    3    0  502 -0.19128368585E+03 -0.37272601550E+03 -0.85097391520E+02  0.42749935341E+03  0.50400001928E-02 0.  1.
</event>
<event>
 5   0  0.9759443E-03  0.1075680E+04  0.7818609E-02  0.9229225E-01
       -1   -1    0    0    0  501  0.00000000000E+00  0.00000000000E+00  0.38915319110E+03  0.38915319113E+03  0.50400001928E-02 0.  1.
        1   -1    0    0  501    0  0.00000000000E+00  0.00000000000E+00 -0.74333716948E+03  0.74333716950E+03  0.50400001928E-02 0. -1.
    10030    2    1    2    0    0  0.00000000000E+00  0.00000000000E+00 -0.35418397838E+03  0.11324903606E+04  0.10756803086E+04 0.  0.
        2    1    3    3  502    0  0.43353485954E+02 -0.49086838405E+03  0.49790430021E+02  0.49528818089E+03  0.25500000920E-02 0.  1.
       -2    1    3    3    0  502 -0.43353485954E+02  0.49086838405E+03 -0.40397440840E+03  0.63720217973E+03  0.25500000920E-02 0. -1.
</event>
<event>
 5   0  0.1571895E-02  0.9960314E+03  0.7818609E-02  0.9312908E-01
        2   -1    0    0  501    0  0.00000000000E+00  0.00000000000E+00  0.28906637490E+04  0.28906637490E+04  0.25500000920E-02 0.  1.
       -2   -1    0    0    0  501  0.00000000000E+00  0.00000000000E+00 -0.85800237208E+02  0.85800237246E+02  0.25500000920E-02 0. -1.
    10030    2    1    2    0    0  0.00000000000E+00  0.00000000000E+00  0.28048635118E+04  0.29764639862E+04  0.99603139591E+03 0.  0.
        2    1    3    3  502    0  0.31397464931E+03 -0.31345597007E+03  0.20785125135E+04  0.21253350310E+04  0.25500000920E-02 0. -1.
       -2    1    3    3    0  502 -0.31397464931E+03  0.31345597007E+03  0.72635099831E+03  0.85112895517E+03  0.25500000920E-02 0.  1.
</event>
<event>
 5   0  0.1663497E-02  0.1008812E+04  0.7818609E-02  0.9298933E-01
       -2   -1    0    0    0  501  0.00000000000E+00  0.00000000000E+00  0.53940006965E+03  0.53940006966E+03  0.25500000920E-02 0. -1.
        2   -1    0    0  501    0  0.00000000000E+00  0.00000000000E+00 -0.47168187715E+03  0.47168187716E+03  0.25500000920E-02 0.  1.
    10030    2    1    2    0    0  0.00000000000E+00  0.00000000000E+00  0.67718192501E+02  0.10110819468E+04  0.10088116522E+04 0.  0.
        1    1    3    3  502    0  0.20325102543E+03 -0.12182604373E+03 -0.41242118387E+03  0.47565091948E+03  0.50400001928E-02 0.  1.
       -1    1    3    3    0  502 -0.20325102543E+03  0.12182604373E+03  0.48013937637E+03  0.53543102734E+03  0.50400001928E-02 0. -1.
</event>
<event>
 5   0  0.9759443E-03  0.1005464E+04  0.7818609E-02  0.9302572E-01
        1   -1    0    0  501    0  0.00000000000E+00  0.00000000000E+00  0.43508103419E+03  0.43508103422E+03  0.50400001928E-02 0.  1.
       -1   -1    0    0    0  501  0.00000000000E+00  0.00000000000E+00 -0.58090187190E+03  0.58090187192E+03  0.50400001928E-02 0. -1.
    10030    2    1    2    0    0  0.00000000000E+00  0.00000000000E+00 -0.14582083771E+03  0.10159829061E+04  0.10054638476E+04 0.  0.
        2    1    3    3  502    0  0.73887111785E+02  0.29003561868E+03  0.33524542605E+03  0.44941012571E+03  0.25500000920E-02 0.  1.
       -2    1    3    3    0  502 -0.73887111785E+02 -0.29003561868E+03 -0.48106626377E+03  0.56657278044E+03  0.25500000920E-02 0. -1.
</event>
<event>
 5   0  0.9471140E-03  0.1021702E+04  0.7818609E-02  0.9285057E-01
       -1   -1    0    0    0  501  0.00000000000E+00  0.00000000000E+00  0.57077461645E+03  0.57077461647E+03  0.50400001928E-02 0. -1.
        1   -1    0    0  501    0  0.00000000000E+00  0.00000000000E+00 -0.45721887254E+03  0.45721887256E+03  0.50400001928E-02 0.  1.
    10030    2    1    2    0    0  0.00000000000E+00  0.00000000000E+00  0.11355574391E+03  0.10279934890E+04  0.10217023571E+04 0.  0.
        4    1    3    3  502    0 -0.43549632794E+03 -0.12359752613E+03 -0.18139453564E+03  0.48768739021E+03  0.12699999809E+01 0.  1.
       -4    1    3    3    0  502  0.43549632794E+03  0.12359752613E+03  0.29495027955E+03  0.54030609882E+03  0.12699999809E+01 0. -1.
</event>
<event>
 5   0  0.1617721E-02  0.9050789E+03  0.7818609E-02  0.9419255E-01
       -2   -1    0    0    0  501  0.00000000000E+00  0.00000000000E+00  0.10368170615E+04  0.10368170615E+04  0.25500000920E-02 0. -1.
        2   -1    0    0  501    0  0.00000000000E+00  0.00000000000E+00 -0.19751986327E+03  0.19751986329E+03  0.25500000920E-02 0.  1.
    10030    2    1    2    0    0  0.00000000000E+00  0.00000000000E+00  0.83929719826E+03  0.12343369248E+04  0.90507892306E+03 0.  0.
        5    1    3    3  502    0  0.38602769276E+03  0.16528703979E+03  0.64961068434E+03  0.77353300919E+03  0.46999998093E+01 0. -1.
       -5    1    3    3    0  502 -0.38602769276E+03 -0.16528703979E+03  0.18968651392E+03  0.46080391563E+03  0.46999998093E+01 0.  1.
</event>
<event>
 5   0  0.1000773E-02  0.1000304E+04  0.7818609E-02  0.9308211E-01
       -1   -1    0    0    0  501  0.00000000000E+00  0.00000000000E+00  0.24740123323E+03  0.24740123329E+03  0.50400001928E-02 0.  1.
        1   -1    0    0  501    0  0.00000000000E+00  0.00000000000E+00 -0.10111195378E+04  0.10111195378E+04  0.50400001928E-02 0. -1.
    10030    2    1    2    0    0  0.00000000000E+00  0.00000000000E+00 -0.76371830460E+03  0.12585207711E+04  0.10003043950E+04 0.  0.
        3    1    3    3  502    0 -0.49952632954E+03  0.44832797612E+01 -0.41281948603E+03  0.64804829446E+03  0.10100000352E+00 0.  1.
       -3    1    3    3    0  502  0.49952632954E+03 -0.44832797612E+01 -0.35089881858E+03  0.61047247668E+03  0.10100000352E+00 0. -1.
</event>
<event>
 5   0  0.1000773E-02  0.9664765E+03  0.7818609E-02  0.9346097E-01
        1   -1    0    0  501    0  0.00000000000E+00  0.00000000000E+00  0.13893086728E+04  0.13893086728E+04  0.50400001928E-02 0.  1.
       -1   -1    0    0    0  501  0.00000000000E+00  0.00000000000E+00 -0.16808301283E+03  0.16808301290E+03  0.50400001928E-02 0. -1.
    10030    2    1    2    0    0  0.00000000000E+00  0.00000000000E+00  0.12212256600E+04  0.15573916857E+04  0.96647646124E+03 0.  0.
        3    1    3    3  502    0 -0.44843819210E+03  0.20291044176E+02  0.32230679015E+03  0.55262122271E+03  0.10100000352E+00 0. -1.
       -3    1    3    3    0  502  0.44843819210E+03 -0.20291044176E+02  0.89891886982E+03  0.10047704630E+04  0.10100000352E+00 0.  1.
</event>
<event>
 5   0  0.1598986E-02  0.9837846E+03  0.7818609E-02  0.9326510E-01
        2   -1    0    0  501    0  0.00000000000E+00  0.00000000000E+00  0.19748581773E+03  0.19748581775E+03  0.25500000920E-02 0.  1.
       -2   -1    0    0    0  501  0.00000000000E+00  0.00000000000E+00 -0.12251920436E+04  0.12251920436E+04  0.25500000920E-02 0. -1.
    10030    2    1    2    0    0  0.00000000000E+00  0.00000000000E+00 -0.10277062259E+04  0.14226778614E+04  0.98378463623E+03 0.  0.
        3    1    3    3  502    0 -0.94241552180E+02  0.16937139521E+03 -0.11676400757E+04  0.11836179689E+04  0.10100000352E+00 0. -1.
       -3    1    3    3    0  502  0.94241552180E+02 -0.16937139521E+03  0.13993384981E+03  0.23905989249E+03  0.10100000352E+00 0.  1.
</event>
<event>
 5   0  0.1617721E-02  0.8203256E+03  0.7818609E-02  0.9531054E-01
        2   -1    0    0  501    0  0.00000000000E+00  0.00000000000E+00  0.16221215153E+03  0.16221215155E+03  0.25500000920E-02 0. -1.
       -2   -1    0    0    0  501  0.00000000000E+00  0.00000000000E+00 -0.10371204434E+04  0.10371204434E+04  0.25500000920E-02 0.  1.
    10030    2    1    2    0    0  0.00000000000E+00  0.00000000000E+00 -0.87490829185E+03  0.11993325949E+04  0.82032563908E+03 0.  0.
        5    1    3    3  502    0  0.44276603501E+02 -0.32210290645E+03 -0.71946925350E+02  0.33303025392E+03  0.46999998093E+01 0. -1.
       -5    1    3    3    0  502 -0.44276603501E+02  0.32210290645E+03 -0.80296136650E+03  0.86630234101E+03  0.46999998093E+01 0.  1.
</event>
<event>
 5   0  0.9396660E-03  0.1000248E+04  0.7818609E-02  0.9308273E-01
        1   -1    0    0  501    0  0.00000000000E+00  0.00000000000E+00  0.10578004304E+04  0.10578004304E+04  0.50400001928E-02 0. -1.
       -1   -1    0    0    0  501  0.00000000000E+00  0.00000000000E+00 -0.23645669037E+03  0.23645669042E+03  0.50400001928E-02 0.  1.
    10030    2    1    2    0    0  0.00000000000E+00  0.00000000000E+00  0.82134374003E+03  0.12942571208E+04  0.10002479470E+04 0.  0.
        5    1    3    3  502    0  0.41648807514E+03 -0.54548370274E+02  0.59483025121E+02  0.42426190226E+03  0.46999998093E+01 0.  1.
       -5    1    3    3    0  502 -0.41648807514E+03  0.54548370274E+02  0.76186071491E+03  0.86999521858E+03  0.46999998093E+01 0. -1.
</event>
<event>
 5   0  0.9759443E-03  0.1008668E+04  0.7818609E-02  0.9299088E-01
        1   -1    0    0  501    0  0.00000000000E+00  0.00000000000E+00  0.93206504381E+03  0.93206504383E+03  0.50400001928E-02 0.  1.
       -1   -1    0    0    0  501  0.00000000000E+00  0.00000000000E+00 -0.27289193491E+03  0.27289193496E+03  0.50400001928E-02 0. -1.
    10030    2    1    2    0    0  0.00000000000E+00  0.00000000000E+00  0.65917310890E+03  0.12049569788E+04  0.10086684952E+04 0.  0.
        2    1    3    3  502    0  0.13665395824E+03  0.41121340002E+03  0.21337055438E+02  0.43385024443E+03  0.25500000920E-02 0. -1.
       -2    1    3    3    0  502 -0.13665395824E+03 -0.41121340002E+03  0.63783605347E+03  0.77110673435E+03  0.25500000920E-02 0.  1.
</event>
<event>
 5   0  0.1656859E-02  0.9810223E+03  0.7818609E-02  0.9329608E-01
        2   -1    0    0  501    0  0.00000000000E+00  0.00000000000E+00  0.17577963570E+03  0.17577963572E+03  0.25500000920E-02 0.  1.
       -2   -1    0    0    0  501  0.00000000000E+00  0.00000000000E+00 -0.13687658735E+04  0.13687658735E+04  0.25500000920E-02 0. -1.
    10030    2    1    2    0    0  0.00000000000E+00  0.00000000000E+00 -0.11929862378E+04  0.15445455092E+04  0.98102225586E+03 0.  0.
        4    1    3    3  502    0 -0.17885205291E+03 -0.26574615231E+03 -0.11813456998E+04  0.12240050448E+04  0.12699999809E+01 0. -1.
       -4    1    3    3    0  502  0.17885205291E+03  0.26574615231E+03 -0.11640537948E+02  0.32054046441E+03  0.12699999809E+01 0.  1.
</event>
<event>
 5   0  0.1617721E-02  0.1003854E+04  0.7818609E-02  0.9304328E-01
       -2   -1    0    0    0  501  0.00000000000E+00  0.00000000000E+00  0.34312901696E+03  0.34312901697E+03  0.25500000920E-02 0. -1.
        2   -1    0    0  501    0  0.00000000000E+00  0.00000000000E+00 -0.73421577506E+03  0.73421577506E+03  0.25500000920E-02 0.  1.
    10030    2    1    2    0    0  0.00000000000E+00  0.00000000000E+00 -0.39108675810E+03  0.10773447920E+04  0.10038540474E+04 0.  0.
        5    1    3    3  502    0  0.43970305265E+03  0.10095960441E+02 -0.45504678016E+03  0.63287468353E+03  0.46999998093E+01 0.  1.
       -5    1    3    3    0  502 -0.43970305265E+03 -0.10095960441E+02  0.63960022065E+02  0.44447010849E+03  0.46999998093E+01 0. -1.
</event>
<event>
 5   0  0.9507815E-03  0.9648895E+03  0.7818609E-02  0.9347914E-01
        1   -1    0    0  501    0  0.00000000000E+00  0.00000000000E+00  0.54092367166E+03  0.54092367169E+03  0.50400001928E-02 0.  1.
       -1   -1    0    0    0  501  0.00000000000E+00  0.00000000000E+00 -0.43028792663E+03  0.43028792666E+03  0.50400001928E-02 0. -1.
    10030    2    1    2    0    0  0.00000000000E+00  0.00000000000E+00  0.11063574503E+03  0.97121159835E+03  0.96488947589E+03 0.  0.
        1    1    3    3  502    0  0.16461111512E+03 -0.34129265301E+02 -0.39985220865E+03  0.43375501699E+03  0.50400001928E-02 0. -1.
       -1    1    3    3    0  502 -0.16461111512E+03  0.34129265301E+02  0.51048795368E+03  0.53745658136E+03  0.50400001928E-02 0.  1.
</event>
<event>
 5   0  0.1571895E-02  0.9936472E+03  0.7818609E-02  0.9315540E-01
       -2   -1    0    0    0  501  0.00000000000E+00  0.00000000000E+00  0.16581411370E+03  0.16581411372E+03  0.25500000920E-02 0. -1.
        2   -1    0    0  501    0  0.00000000000E+00  0.00000000000E+00 -0.14886168666E+04  0.14886168666E+04  0.25500000920E-02 0.  1.
    10030    2    1    2    0    0  0.00000000000E+00  0.00000000000E+00 -0.13228027529E+04  0.16544309803E+04  0.99364719369E+03 0.  0.
        2    1    3    3  502    0 -0.24553959069E+03  0.81080341615E+02 -0.13677457182E+04  0.13919741600E+04  0.25500000920E-02 0.  1.
       -2    1    3    3    0  502  0.24553959069E+03 -0.81080341615E+02  0.44942965321E+02  0.26245682031E+03  0.25500000920E-02 0. -1.
</event>
<event>
 5   0  0.9759443E-03  0.1027640E+04  0.7818609E-02  0.9278739E-01
       -1   -1    0    0    0  501  0.00000000000E+00  0.00000000000E+00  0.73760759144E+03  0.73760759146E+03  0.50400001928E-02 0. -1.
        1   -1    0    0  501    0  0.00000000000E+00  0.00000000000E+00 -0.35792873642E+03  0.35792873646E+03  0.50400001928E-02 0.  1.
    10030    2    1    2    0    0  0.00000000000E+00  0.00000000000E+00  0.37967885502E+03  0.10955363279E+04  0.10276399237E+04 0.  0.
        2    1    3    3  502    0 -0.42758189254E+03  0.13609225015E+03  0.45670552754E+03  0.64025566321E+03  0.25500000920E-02 0. -1.
       -2    1    3    3    0  502  0.42758189254E+03 -0.13609225015E+03 -0.77026672524E+02  0.45528066471E+03  0.25500000920E-02 0.  1.
</event>
<event>
 5   0  0.1663497E-02  0.9992032E+03  0.7818609E-02  0.9309419E-01
       -2   -1    0    0    0  501  0.00000000000E+00  0.00000000000E+00  0.26439557000E+03  0.26439557001E+03  0.25500000920E-02 0.  1.
        2   -1    0    0  501    0  0.00000000000E+00  0.00000000000E+00 -0.94404659733E+03  0.94404659733E+03  0.25500000920E-02 0. -1.
    10030    2    1    2    0    0  0.00000000000E+00  0.00000000000E+00 -0.67965102733E+03  0.12084421673E+04  0.99920315895E+03 0.  0.
        1    1    3    3  502    0 -0.23490586104E+03 -0.35375854826E+03 -0.65814487058E+03  0.78324998865E+03  0.50400001928E-02 0.  1.
       -1    1    3    3    0  502  0.23490586104E+03  0.35375854826E+03 -0.21506156745E+02  0.42519217869E+03  0.50400001928E-02 0. -1.
</event>
<event>
 5   0  0.9507815E-03  0.1000821E+04  0.7818609E-02  0.9307644E-01
       -1   -1    0    0    0  501  0.00000000000E+00  0.00000000000E+00  0.21278096616E+03  0.21278096622E+03  0.50400001928E-02 0. -1.
        1   -1    0    0  501    0  0.00000000000E+00  0.00000000000E+00 -0.11768478996E+04  0.11768478996E+04  0.50400001928E-02 0.  1.
    10030    2    1    2    0    0  0.00000000000E+00  0.00000000000E+00 -0.96406693343E+03  0.13896288658E+04  0.10008213290E+04 0.  0.
        1    1    3    3  502    0  0.38724954654E+03  0.30959447728E+03 -0.38786281097E+03  0.62948273353E+03  0.50400001928E-02 0. -1.
       -1    1    3    3    0  502 -0.38724954654E+03 -0.30959447728E+03 -0.57620412246E+03  0.76014613228E+03  0.50400001928E-02 0.  1.
</event>
<event>
 5   0  0.1000773E-02  0.9809513E+03  0.7818609E-02  0.9329687E-01
       -1   -1    0    0    0  501  0.00000000000E+00  0.00000000000E+00  0.68716797276E+03  0.68716797278E+03  0.50400001928E-02 0. -1.
        1   -1    0    0  501    0  0.00000000000E+00  0.00000000000E+00 -0.35008379634E+03  0.35008379638E+03  0.50400001928E-02 0.  1.
    10030    2    1    2    0    0  0.00000000000E+00  0.00000000000E+00  0.33708417642E+03  0.10372517692E+04  0.98095131920E+03 0.  0.
        3    1    3    3  502    0  0.47228844178E+03 -0.12411811254E+03  0.21705196993E+03  0.53439053692E+03  0.10100000352E+00 0.  1.
       -3    1    3    3    0  502 -0.47228844178E+03  0.12411811254E+03  0.12003220648E+03  0.50286123224E+03  0.10100000352E+00 0. -1.
</event>
<event>
 5   0  0.1656859E-02  0.1002711E+04  0.7818609E-02  0.9305576E-01
       -2   -1    0    0    0  501  0.00000000000E+00  0.00000000000E+00  0.16203711373E+03  0.16203711375E+03  0.25500000920E-02 0. -1.
        2   -1    0    0  501    0  0.00000000000E+00  0.00000000000E+00 -0.15512345342E+04  0.15512345342E+04  0.25500000920E-02 0.  1.
    10030    2    1    2    0    0  0.00000000000E+00  0.00000000000E+00 -0.13891974205E+04  0.17132716480E+04  0.10027114573E+04 0.  0.
        4    1    3    3  502    0 -0.20527063531E+02 -0.40456774855E+03 -0.18987153775E+03  0.44738041671E+03  0.12699999809E+01 0. -1.
       -4    1    3    3    0  502  0.20527063531E+02  0.40456774855E+03 -0.11993258828E+04  0.12658912313E+04  0.12699999809E+01 0.  1.
</event>
<event>
 5   0  0.1663497E-02  0.9997991E+03  0.7818609E-02  0.9308765E-01
        2   -1    0    0  501    0  0.00000000000E+00  0.00000000000E+00  0.10472196174E+04  0.10472196174E+04  0.25500000920E-02 0.  1.
       -2   -1    0    0    0  501  0.00000000000E+00  0.00000000000E+00 -0.23863145107E+03  0.23863145109E+03  0.25500000920E-02 0. -1.
    10030    2    1    2    0    0  0.00000000000E+00  0.00000000000E+00  0.80858816635E+03  0.12858510685E+04  0.99979905363E+03 0.  0.
        1    1    3    3  502    0  0.27745955812E+03  0.38670817508E+03  0.20767272191E+03  0.51928313907E+03  0.50400001928E-02 0. -1.
       -1    1    3    3    0  502 -0.27745955812E+03 -0.38670817508E+03  0.60091544444E+03  0.76656792945E+03  0.50400001928E-02 0.  1.
</event>
<event>
 5   0  0.6314750E-03  0.9932272E+03  0.7818609E-02  0.9316004E-01
       -4   -1    0    0    0  501  0.00000000000E+00  0.00000000000E+00  0.26047099544E+03  0.26047409154E+03  0.12699999809E+01 0. -1.
        4   -1    0    0  501    0  0.00000000000E+00  0.00000000000E+00 -0.94683350012E+03  0.94683435186E+03  0.12699999809E+01 0.  1.
    10030    2    1    2    0    0  0.00000000000E+00  0.00000000000E+00 -0.68636250468E+03  0.12073084434E+04  0.99322715915E+03 0.  0.
        4    1    3    3  502    0 -0.12201805567E+03 -0.37553084416E+03  0.22919901592E+02  0.39552339453E+03  0.12699999809E+01 0. -1.
       -4    1    3    3    0  502  0.12201805567E+03  0.37553084416E+03 -0.70928240628E+03  0.81178504888E+03  0.12699999809E+01 0.  1.
</event>
<event>
 5   0  0.9471140E-03  0.1067534E+04  0.7818609E-02  0.9237427E-01
        1   -1    0    0  501    0  0.00000000000E+00  0.00000000000E+00  0.86545569001E+03  0.86545569003E+03  0.50400001928E-02 0. -1.
       -1   -1    0    0    0  501  0.00000000000E+00  0.00000000000E+00 -0.32919887530E+03  0.32919887534E+03  0.50400001928E-02 0.  1.
    10030    2    1    2    0    0  0.00000000000E+00  0.00000000000E+00  0.53625681471E+03  0.11946545654E+04  0.10675336806E+04 0.  0.
        4    1    3    3  502    0 -0.28260073755E+03 -0.10120366640E+03 -0.22579011541E+03  0.37561702314E+03  0.12699999809E+01 0.  1.
       -4    1    3    3    0  502  0.28260073755E+03  0.10120366640E+03  0.76204693012E+03  0.81903754222E+03  0.12699999809E+01 0. -1.
</event>
<event>
 5   0  0.9396660E-03  0.9963533E+03  0.7818609E-02  0.9312553E-01
        1   -1    0    0  501    0  0.00000000000E+00  0.00000000000E+00  0.11722827137E+04  0.11722827137E+04  0.50400001928E-02 0. -1.
       -1   -1    0    0    0  501  0.00000000000E+00  0.00000000000E+00 -0.21170658912E+03  0.21170658918E+03  0.50400001928E-02 0.  1.
    10030    2    1    2    0    0  0.00000000000E+00  0.00000000000E+00  0.96057612459E+03  0.13839893029E+04  0.99635330049E+03 0.  0.
        5    1    3    3  502    0  0.38788513307E+02 -0.39309385799E+03  0.90190807117E+03  0.98462560844E+03  0.46999998093E+01 0. -1.
       -5    1    3    3    0  502 -0.38788513307E+02  0.39309385799E+03  0.58668053421E+02  0.39936369445E+03  0.46999998093E+01 0.  1.
</event>
<event>
 5   0  0.1571895E-02  0.9945722E+03  0.7818609E-02  0.9314518E-01
       -2   -1    0    0    0  501  0.00000000000E+00  0.00000000000E+00  0.56600147075E+03  0.56600147075E+03  0.25500000920E-02 0. -1.
        2   -1    0    0  501    0  0.00000000000E+00  0.00000000000E+00 -0.43691311168E+03  0.43691311169E+03  0.25500000920E-02 0.  1.
    10030    2    1    2    0    0  0.00000000000E+00  0.00000000000E+00  0.12908835906E+03  0.10029145824E+04  0.99457219709E+03 0.  0.
        2    1    3    3  502    0  0.18810275384E+03  0.76664699558E+02  0.52226048594E+03  0.56037142802E+03  0.25500000920E-02 0. -1.
       -2    1    3    3    0  502 -0.18810275384E+03 -0.76664699558E+02 -0.39317212688E+03  0.44254315442E+03  0.25500000920E-02 0.  1.
</event>
<event>
 5   0  0.9471140E-03  0.1012367E+04  0.7818609E-02  0.9295084E-01
       -1   -1    0    0    0  501  0.00000000000E+00  0.00000000000E+00  0.35531135778E+03  0.35531135782E+03  0.50400001928E-02 0. -1.
        1   -1    0    0  501    0  0.00000000000E+00  0.00000000000E+00 -0.72111924857E+03  0.72111924858E+03  0.50400001928E-02 0.  1.
    10030    2    1    2    0    0  0.00000000000E+00  0.00000000000E+00 -0.36580789078E+03  0.10764306064E+04  0.10123672444E+04 0.  0.
        4    1    3    3  502    0  0.29812162797E+03  0.25062117470E+03  0.16087096570E+03  0.42138884511E+03  0.12699999809E+01 0. -1.
       -4    1    3    3    0  502 -0.29812162797E+03 -0.25062117470E+03 -0.52667885648E+03  0.65504176130E+03  0.12699999809E+01 0.  1.
</event>
<event>
 5   0  0.1617721E-02  0.7564124E+03  0.7818609E-02  0.9625344E-01
        2   -1    0    0  501    0  0.00000000000E+00  0.00000000000E+00  0.45216530129E+03  0.45216530130E+03  0.25500000920E-02 0.  1.
       -2   -1    0    0    0  501  0.00000000000E+00  0.00000000000E+00 -0.31634432909E+03  0.31634432910E+03  0.25500000920E-02 0. -1.
    10030    2    1    2    0    0  0.00000000000E+00  0.00000000000E+00  0.13582097220E+03  0.76850963040E+03  0.75641239779E+03 0.  0.
        5    1    3    3  502    0 -0.23368251362E+03 -0.16624587051E+03 -0.18255316052E+03  0.33998963668E+03  0.46999998093E+01 0. -1.
       -5    1    3    3    0  502  0.23368251362E+03  0.16624587051E+03  0.31837413272E+03  0.42851999372E+03  0.46999998093E+01 0.  1.
</event>
<event>
 5   0  0.9396660E-03  0.9379633E+03  0.7818609E-02  0.9379331E-01
        1   -1    0    0  501    0  0.00000000000E+00  0.00000000000E+00  0.99108684481E+03  0.99108684483E+03  0.50400001928E-02 0.  1.
       -1   -1    0    0    0  501  0.00000000000E+00  0.00000000000E+00 -0.22192179361E+03  0.22192179367E+03  0.50400001928E-02 0. -1.
    10030    2    1    2    0    0  0.00000000000E+00  0.00000000000E+00  0.76916505120E+03  0.12130086385E+04  0.93796326212E+03 0.  0.
        5    1    3    3  502    0 -0.23237771169E+03 -0.21163703812E+03  0.83468104799E+03  0.89191040955E+03  0.46999998093E+01 0.  1.
       -5    1    3    3    0  502  0.23237771169E+03  0.21163703812E+03 -0.65515996792E+02  0.32109822894E+03  0.46999998093E+01 0. -1.
</event>
<event>
 5   0  0.9507815E-03  0.9926813E+03  0.7818609E-02  0.9316608E-01
        1   -1    0    0  501    0  0.00000000000E+00  0.00000000000E+00  0.78384262539E+03  0.78384262541E+03  0.50400001928E-02 0.  1.
       -1   -1    0    0    0  501  0.00000000000E+00  0.00000000000E+00 -0.31429016125E+03  0.31429016129E+03  0.50400001928E-02 0. -1.
    10030    2    1    2    0    0  0.00000000000E+00  0.00000000000E+00  0.46955246415E+03  0.10981327867E+04  0.99268126840E+03 0.  0.
        1    1    3    3  502    0  0.13384823907E+02 -0.47226508329E+03  0.40305603291E+03  0.62102143932E+03  0.50400001928E-02 0. -1.
       -1    1    3    3    0  502 -0.13384823907E+02  0.47226508329E+03  0.66496431234E+02  0.47711134738E+03  0.50400001928E-02 0.  1.
</event>
<event>
 5   0  0.1571895E-02  0.1030326E+04  0.7818609E-02  0.9275896E-01
        2   -1    0    0  501    0  0.00000000000E+00  0.00000000000E+00  0.95698920394E+03  0.95698920394E+03  0.25500000920E-02 0.  1.
       -2   -1    0    0    0  501  0.00000000000E+00  0.00000000000E+00 -0.27732052943E+03  0.27732052944E+03  0.25500000920E-02 0. -1.
    10030    2    1    2    0    0  0.00000000000E+00  0.00000000000E+00  0.67966867451E+03  0.12343097334E+04  0.10303256819E+04 0.  0.
        2    1    3    3  502    0  0.30190564245E+03  0.19073488489E+02  0.83938192281E+03  0.89222913382E+03  0.25500000920E-02 0.  1.
       -2    1    3    3    0  502 -0.30190564245E+03 -0.19073488489E+02 -0.15971324829E+03  0.34208059956E+03  0.25500000920E-02 0. -1.
</event>
<event>
 5   0  0.9396660E-03  0.9917799E+03  0.7818609E-02  0.9317607E-01
        1   -1    0    0  501    0  0.00000000000E+00  0.00000000000E+00  0.37171882139E+03  0.37171882143E+03  0.50400001928E-02 0.  1.
       -1   -1    0    0    0  501  0.00000000000E+00  0.00000000000E+00 -0.66153989936E+03  0.66153989938E+03  0.50400001928E-02 0. -1.
    10030    2    1    2    0    0  0.00000000000E+00  0.00000000000E+00 -0.28982107797E+03  0.10332587208E+04  0.99177987825E+03 0.  0.
        5    1    3    3  502    0 -0.10491946401E+03  0.16068772936E+03  0.33143840879E+03  0.38301716556E+03  0.46999998093E+01 0.  1.
       -5    1    3    3    0  502  0.10491946401E+03 -0.16068772936E+03 -0.62125948676E+03  0.65024155525E+03  0.46999998093E+01 0. -1.
</event>
<event>
 5   0  0.1663497E-02  0.1005630E+04  0.7818609E-02  0.9302391E-01
       -2   -1    0    0    0  501  0.00000000000E+00  0.00000000000E+00  0.29065630750E+03  0.29065630751E+03  0.25500000920E-02 0. -1.
        2   -1    0    0  501    0  0.00000000000E+00  0.00000000000E+00 -0.86983491603E+03  0.86983491603E+03  0.25500000920E-02 0.  1.
    10030    2    1    2    0    0  0.00000000000E+00  0.00000000000E+00 -0.57917860853E+03  0.11604912235E+04  0.10056301603E+04 0.  0.
        1    1    3    3  502    0  0.49337431918E+03  0.11857910406E+02 -0.17851669666E+03  0.52481143268E+03  0.50400001928E-02 0. -1.
       -1    1    3    3    0  502 -0.49337431918E+03 -0.11857910406E+02 -0.40066191187E+03  0.63567979086E+03  0.50400001928E-02 0.  1.
</event>
<event>
 5   0  0.9507815E-03  0.9957133E+03  0.7818609E-02  0.9313259E-01
        1   -1    0    0  501    0  0.00000000000E+00  0.00000000000E+00  0.33160798932E+03  0.33160798936E+03  0.50400001928E-02 0. -1.
       -1   -1    0    0    0  501  0.00000000000E+00  0.00000000000E+00 -0.74745253520E+03  0.74745253522E+03  0.50400001928E-02 0.  1.
    10030    2    1    2    0    0  0.00000000000E+00  0.00000000000E+00 -0.41584454588E+03  0.10790605246E+04  0.99571327669E+03 0.  0.
        1    1    3    3  502    0  0.69265823654E+02  0.45601064921E+03 -0.41100591628E+03  0.61779392176E+03  0.50400001928E-02 0.  1.
       -1    1    3    3    0  502 -0.69265823654E+02 -0.45601064921E+03 -0.48386295926E+01  0.46126660282E+03  0.50400001928E-02 0. -1.
</event>
<event>
 5   0  0.9759443E-03  0.9165746E+03  0.7818609E-02  0.9405096E-01
       -1   -1    0    0    0  501  0.00000000000E+00  0.00000000000E+00  0.12387786454E+03  0.12387786465E+03  0.50400001928E-02 0. -1.
        1   -1    0    0  501    0  0.00000000000E+00  0.00000000000E+00 -0.16954381071E+04  0.16954381071E+04  0.50400001928E-02 0.  1.
    10030    2    1    2    0    0  0.00000000000E+00  0.00000000000E+00 -0.15715602425E+04  0.18193159717E+04  0.91657460639E+03 0.  0.
        2    1    3    3  502    0 -0.42202780133E+03  0.66326871498E+02 -0.11150626845E+04  0.11940986180E+04  0.25500000920E-02 0.  1.
       -2    1    3    3    0  502  0.42202780133E+03 -0.66326871498E+02 -0.45649755800E+03  0.62521735376E+03  0.25500000920E-02 0. -1.
</event>
<event>
 5   0  0.1656859E-02  0.1019093E+04  0.7818609E-02  0.9287848E-01
       -2   -1    0    0    0  501  0.00000000000E+00  0.00000000000E+00  0.90248066160E+03  0.90248066161E+03  0.25500000920E-02 0.  1.
        2   -1    0    0  501    0  0.00000000000E+00  0.00000000000E+00 -0.28769325321E+03  0.28769325322E+03  0.25500000920E-02 0. -1.
    10030    2    1    2    0    0  0.00000000000E+00  0.00000000000E+00  0.61478740839E+03  0.11901739148E+04  0.10190929251E+04 0.  0.
        4    1    3    3  502    0  0.61221575241E+01 -0.43077541871E+03 -0.10369476034E+02  0.43094556630E+03  0.12699999809E+01 0. -1.
       -4    1    3    3    0  502 -0.61221575241E+01  0.43077541871E+03  0.62515688442E+03  0.75922834854E+03  0.12699999809E+01 0.  1.
</event>
<event>
 5   0  0.1571895E-02  0.9791426E+03  0.7818609E-02  0.9331721E-01
        2   -1    0    0  501    0  0.00000000000E+00  0.00000000000E+00  0.10324077159E+04  0.10324077159E+04  0.25500000920E-02 0.  1.
       -2   -1    0    0    0  501  0.00000000000E+00  0.00000000000E+00 -0.23215641010E+03  0.23215641012E+03  0.25500000920E-02 0. -1.
    10030    2    1    2    0    0  0.00000000000E+00  0.00000000000E+00  0.80025130582E+03  0.12645641260E+04  0.97914262312E+03 0.  0.
        2    1    3    3  502    0 -0.16746792251E+03  0.40858451767E+03  0.67315912902E+03  0.80506523099E+03  0.25500000920E-02 0.  1.
       -2    1    3    3    0  502  0.16746792251E+03 -0.40858451767E+03  0.12709217680E+03  0.45949889506E+03  0.25500000920E-02 0. -1.
</event>
<event>
 5   0  0.1656859E-02  0.9818565E+03  0.7818609E-02  0.9328671E-01
        2   -1    0    0  501    0  0.00000000000E+00  0.00000000000E+00  0.84323622005E+03  0.84323622006E+03  0.25500000920E-02 0. -1.
       -2   -1    0    0    0  501  0.00000000000E+00  0.00000000000E+00 -0.28581615194E+03  0.28581615195E+03  0.25500000920E-02 0.  1.
    10030    2    1    2    0    0  0.00000000000E+00  0.00000000000E+00  0.55742006811E+03  0.11290523720E+04  0.98185646935E+03 0.  0.
        4    1    3    3  502    0 -0.14150682157E+01 -0.85149329413E+02  0.83467565479E+03  0.83900981658E+03  0.12699999809E+01 0. -1.
       -4    1    3    3    0  502  0.14150682157E+01  0.85149329413E+02 -0.27725558668E+03  0.29004255543E+03  0.12699999809E+01 0.  1.
</event>
<event>
 5   0  0.9759443E-03  0.1121488E+04  0.7818609E-02  0.9184498E-01
        1   -1    0    0  501    0  0.00000000000E+00  0.00000000000E+00  0.50423021856E+03  0.50423021858E+03  0.50400001928E-02 0.  1.
       -1   -1    0    0    0  501  0.00000000000E+00  0.00000000000E+00 -0.62359147692E+03  0.62359147694E+03  0.50400001928E-02 0. -1.
    10030    2    1    2    0    0  0.00000000000E+00  0.00000000000E+00 -0.11936125836E+03  0.11278216955E+04  0.11214877025E+04 0.  0.
        2    1    3    3  502    0  0.39454449498E+03  0.37999890303E+03 -0.18022900008E+03  0.57666889746E+03  0.25500000920E-02 0. -1.
       -2    1    3    3    0  502 -0.39454449498E+03 -0.37999890303E+03  0.60867741718E+02  0.55115279806E+03  0.25500000920E-02 0.  1.
</event>
<event>
 5   0  0.1663497E-02  0.9816406E+03  0.7818609E-02  0.9328913E-01
       -2   -1    0    0    0  501  0.00000000000E+00  0.00000000000E+00  0.22043454550E+03  0.22043454551E+03  0.25500000920E-02 0. -1.
        2   -1    0    0  501    0  0.00000000000E+00  0.00000000000E+00 -0.10928622168E+04  0.10928622168E+04  0.25500000920E-02 0.  1.
    10030    2    1    2    0    0  0.00000000000E+00  0.00000000000E+00 -0.87242767134E+03  0.13132967624E+04  0.98164063908E+03 0.  0.
        1    1    3    3  502    0 -0.18160914264E+03  0.45460039789E+03 -0.38870225265E+03  0.62508626900E+03  0.50400001928E-02 0. -1.
       -1    1    3    3    0  502  0.18160914264E+03 -0.45460039789E+03 -0.48372541870E+03  0.68821049336E+03  0.50400001928E-02 0.  1.
</event>
<event>
 5   0  0.9471140E-03  0.1358614E+04  0.7818609E-02  0.8984333E-01
        1   -1    0    0  501    0  0.00000000000E+00  0.00000000000E+00  0.84905841744E+03  0.84905841746E+03  0.50400001928E-02 0. -1.
       -1   -1    0    0    0  501  0.00000000000E+00  0.00000000000E+00 -0.54349391019E+03  0.54349391021E+03  0.50400001928E-02 0.  1.
    10030    2    1    2    0    0  0.00000000000E+00  0.00000000000E+00  0.30556450726E+03  0.13925523277E+04  0.13586141164E+04 0.  0.
        4    1    3    3  502    0  0.43855992005E+03 -0.12123844690E+03 -0.36422126848E+03  0.58283128759E+03  0.12699999809E+01 0.  1.
       -4    1    3    3    0  502 -0.43855992005E+03  0.12123844690E+03  0.66978577573E+03  0.80972104008E+03  0.12699999809E+01 0. -1.
</event>
<event>
 5   0  0.9759443E-03  0.1002831E+04  0.7818609E-02  0.9305445E-01
       -1   -1    0    0    0  501  0.00000000000E+00  0.00000000000E+00  0.41589896048E+03  0.41589896051E+03  0.50400001928E-02 0.  1.
        1   -1    0    0  501    0  0.00000000000E+00  0.00000000000E+00 -0.60451604804E+03  0.60451604806E+03  0.50400001928E-02 0. -1.
    10030    2    1    2    0    0  0.00000000000E+00  0.00000000000E+00 -0.18861708756E+03  0.10204150086E+04  0.10028311842E+04 0.  0.
        2    1    3    3  502    0 -0.42462329850E+03  0.21850440808E+02 -0.36474150481E+03  0.56019528089E+03  0.25500000920E-02 0. -1.
       -2    1    3    3    0  502  0.42462329850E+03 -0.21850440808E+02  0.17612441724E+03  0.46021972768E+03  0.25500000920E-02 0.  1.
</event>
<event>
 5   0  0.9507815E-03  0.9846104E+03  0.7818609E-02  0.9325587E-01
       -1   -1    0    0    0  501  0.00000000000E+00  0.00000000000E+00  0.36614959644E+03  0.36614959648E+03  0.50400001928E-02 0.  1.
        1   -1    0    0  501    0  0.00000000000E+00  0.00000000000E+00 -0.66192728187E+03  0.66192728189E+03  0.50400001928E-02 0. -1.
    10030    2    1    2    0    0  0.00000000000E+00  0.00000000000E+00 -0.29577768543E+03  0.10280768784E+04  0.98461039434E+03 0.  0.
        1    1    3    3  502    0  0.18235019392E+03  0.30074336941E+03 -0.50757586288E+03  0.61752038352E+03  0.50400001928E-02 0. -1.
       -1    1    3    3    0  502 -0.18235019392E+03 -0.30074336941E+03  0.21179817745E+03  0.41055649484E+03  0.50400001928E-02 0.  1.
</event>
<event>
 5   0  0.1663497E-02  0.1022855E+04  0.7818609E-02  0.9283827E-01
       -2   -1    0    0    0  501  0.00000000000E+00  0.00000000000E+00  0.57539072408E+03  0.57539072408E+03  0.25500000920E-02 0. -1.
        2   -1    0    0  501    0  0.00000000000E+00  0.00000000000E+00 -0.45457466051E+03  0.45457466051E+03  0.25500000920E-02 0.  1.
    10030    2    1    2    0    0  0.00000000000E+00  0.00000000000E+00  0.12081606357E+03  0.10299653846E+04  0.10228549126E+04 0.  0.
        1    1    3    3  502    0  0.48786575643E+03 -0.11983139861E+03  0.15691520260E+03  0.52630308875E+03  0.50400001928E-02 0. -1.
       -1    1    3    3    0  502 -0.48786575643E+03  0.11983139861E+03 -0.36099139030E+02  0.50366229585E+03  0.50400001928E-02 0.  1.
</event>
<event>
 5   0  0.1000773E-02  0.9484815E+03  0.7818609E-02  0.9366927E-01
        1   -1    0    0  501    0  0.00000000000E+00  0.00000000000E+00  0.23274480103E+04  0.23274480103E+04  0.50400001928E-02 0.  1.
       -1   -1    0    0    0  501  0.00000000000E+00  0.00000000000E+00 -0.96631276544E+02  0.96631276675E+02  0.50400001928E-02 0. -1.
    10030    2    1    2    0    0  0.00000000000E+00  0.00000000000E+00  0.22308167338E+04  0.24240792870E+04  0.94848146527E+03 0.  0.
        3    1    3    3  502    0  0.34647278605E+03 -0.25549635193E+02  0.19404363588E+04  0.19712913149E+04  0.10100000352E+00 0.  1.
       -3    1    3    3    0  502 -0.34647278605E+03  0.25549635193E+02  0.29038037497E+03  0.45278797212E+03  0.10100000352E+00 0. -1.
</event>
<event>
 5   0  0.9396660E-03  0.9909470E+03  0.7818609E-02  0.9318530E-01
       -1   -1    0    0    0  501  0.00000000000E+00  0.00000000000E+00  0.17766212737E+03  0.17766212745E+03  0.50400001928E-02 0. -1.
        1   -1    0    0  501    0  0.00000000000E+00  0.00000000000E+00 -0.13818025470E+04  0.13818025471E+04  0.50400001928E-02 0.  1.
    10030    2    1    2    0    0  0.00000000000E+00  0.00000000000E+00 -0.12041404197E+04  0.15594646745E+04  0.99094698180E+03 0.  0.
        5    1    3    3  502    0 -0.21738075649E+03 -0.44033766587E+03 -0.70550792137E+03  0.85960175104E+03  0.46999998093E+01 0. -1.
       -5    1    3    3    0  502  0.21738075649E+03  0.44033766587E+03 -0.49863249830E+03  0.69986292346E+03  0.46999998093E+01 0.  1.
</event>
<event>
 5   0  0.1000773E-02  0.1048842E+04  0.7818609E-02  0.9256541E-01
       -1   -1    0    0    0  501  0.00000000000E+00  0.00000000000E+00  0.50199960656E+03  0.50199960658E+03  0.50400001928E-02 0.  1.
        1   -1    0    0  501    0  0.00000000000E+00  0.00000000000E+00 -0.54784352031E+03  0.54784352033E+03  0.50400001928E-02 0. -1.
    10030    2    1    2    0    0  0.00000000000E+00  0.00000000000E+00 -0.45843913749E+02  0.10498431269E+04  0.10488417072E+04 0.  0.
        3    1    3    3  502    0 -0.44959749987E+03 -0.62054367006E+02  0.24006177478E+03  0.51343774916E+03  0.10100000352E+00 0.  1.
       -3    1    3    3    0  502  0.44959749987E+03  0.62054367006E+02 -0.28590568852E+03  0.53640537776E+03  0.10100000352E+00 0. -1.
</event>
<event>
 5   0  0.1571895E-02  0.9872344E+03  0.7818609E-02  0.9322658E-01
       -2   -1    0    0    0  501  0.00000000000E+00  0.00000000000E+00  0.33734589058E+03  0.33734589059E+03  0.25500000920E-02 0.  1.
        2   -1    0    0  501    0  0.00000000000E+00  0.00000000000E+00 -0.72227925207E+03  0.72227925207E+03  0.25500000920E-02 0. -1.
    10030    2    1    2    0    0  0.00000000000E+00  0.00000000000E+00 -0.38493336148E+03  0.10596251427E+04  0.98723439476E+03 0.  0.
        2    1    3    3  502    0  0.16633643417E+03 -0.74470823530E+02  0.29991340872E+03  0.35094410613E+03  0.25500000920E-02 0.  1.
       -2    1    3    3    0  502 -0.16633643417E+03  0.74470823530E+02 -0.68484677020E+03  0.70868103654E+03  0.25500000920E-02 0. -1.
</event>
<event>
 5   0  0.1571895E-02  0.1004835E+04  0.7818609E-02  0.9303258E-01
        2   -1    0    0  501    0  0.00000000000E+00  0.00000000000E+00  0.67239769441E+03  0.67239769442E+03  0.25500000920E-02 0.  1.
       -2   -1    0    0    0  501  0.00000000000E+00  0.00000000000E+00 -0.37540748059E+03  0.37540748060E+03  0.25500000920E-02 0. -1.
    10030    2    1    2    0    0  0.00000000000E+00  0.00000000000E+00  0.29699021382E+03  0.10478051750E+04  0.10048345623E+04 0.  0.
        2    1    3    3  502    0  0.13311755686E+03  0.34770436769E+03 -0.20328049679E+03  0.42419520464E+03  0.25500000920E-02 0. -1.
       -2    1    3    3    0  502 -0.13311755686E+03 -0.34770436769E+03  0.50027071061E+03  0.62360997038E+03  0.25500000920E-02 0.  1.
</event>
<event>
 5   0  0.1656859E-02  0.7760269E+03  0.7818609E-02  0.9595380E-01
       -2   -1    0    0    0  501  0.00000000000E+00  0.00000000000E+00  0.12173095603E+03  0.12173095605E+03  0.25500000920E-02 0.  1.
        2   -1    0    0  501    0  0.00000000000E+00  0.00000000000E+00 -0.12367801409E+04  0.12367801409E+04  0.25500000920E-02 0. -1.
    10030    2    1    2    0    0  0.00000000000E+00  0.00000000000E+00 -0.11150491849E+04  0.13585110969E+04  0.77602687831E+03 0.  0.
        4    1    3    3  502    0 -0.28922422777E+03  0.15815489267E+03 -0.91581684598E+03  0.97333741954E+03  0.12699999809E+01 0. -1.
       -4    1    3    3    0  502  0.28922422777E+03 -0.15815489267E+03 -0.19923233887E+03  0.38517367739E+03  0.12699999809E+01 0.  1.
</event>
<event>
 5   0  0.6314750E-03  0.9811453E+03  0.7818609E-02  0.9329469E-01
       -3   -1    0    0    0  501  0.00000000000E+00  0.00000000000E+00  0.59182087632E+03  0.59182088494E+03  0.10100000352E+00 0. -1.
        3   -1    0    0  501    0  0.00000000000E+00  0.00000000000E+00 -0.40664588145E+03  0.40664589399E+03  0.10100000352E+00 0.  1.
    10030    2    1    2    0    0  0.00000000000E+00  0.00000000000E+00  0.18517499488E+03  0.99846677893E+03  0.98114531539E+03 0.  0.
        2    1    3    3  502    0  0.26676430114E+03  0.34227558081E+03  0.32541863947E+03  0.54241410058E+03  0.25500000920E-02 0. -1.
       -2    1    3    3    0  502 -0.26676430114E+03 -0.34227558081E+03 -0.14024364460E+03  0.45605267836E+03  0.25500000920E-02 0.  1.
</event>
<event>
 5   0  0.1000773E-02  0.1013287E+04  0.7818609E-02  0.9294091E-01
        1   -1    0    0  501    0  0.00000000000E+00  0.00000000000E+00  0.52711585486E+03  0.52711585488E+03  0.50400001928E-02 0.  1.
       -1   -1    0    0    0  501  0.00000000000E+00  0.00000000000E+00 -0.48696592650E+03  0.48696592653E+03  0.50400001928E-02 0. -1.
    10030    2    1    2    0    0  0.00000000000E+00  0.00000000000E+00  0.40149928354E+02  0.10140817814E+04  0.10132866537E+04 0.  0.
        3    1    3    3  502    0 -0.18743047732E+00  0.64186580438E+02 -0.48288033601E+03  0.48712768485E+03  0.10100000352E+00 0. -1.
       -3    1    3    3    0  502  0.18743047732E+00 -0.64186580438E+02  0.52303026437E+03  0.52695409656E+03  0.10100000352E+00 0.  1.
</event>
<event>
 5   0  0.9471140E-03  0.9626614E+03  0.7818609E-02  0.9350473E-01
        1   -1    0    0  501    0  0.00000000000E+00  0.00000000000E+00  0.62093552070E+03  0.62093552072E+03  0.50400001928E-02 0. -1.
       -1   -1    0    0    0  501  0.00000000000E+00  0.00000000000E+00 -0.37311322347E+03  0.37311322350E+03  0.50400001928E-02 0.  1.
    10030    2    1    2    0    0  0.00000000000E+00  0.00000000000E+00  0.24782229723E+03  0.99404874422E+03  0.96266142276E+03 0.  0.
        4    1    3    3  502    0 -0.18969275611E+03 -0.44146589999E+03  0.15315699124E+03  0.50431553559E+03  0.12699999809E+01 0. -1.
       -4    1    3    3    0  502  0.18969275611E+03  0.44146589999E+03  0.94665305993E+02  0.48973320863E+03  0.12699999809E+01 0.  1.
</event>
<event>
 5   0  0.1617721E-02  0.1004556E+04  0.7818609E-02  0.9303561E-01
        2   -1    0    0  501    0  0.00000000000E+00  0.00000000000E+00  0.32449295983E+03  0.32449295984E+03  0.25500000920E-02 0.  1.
       -2   -1    0    0    0  501  0.00000000000E+00  0.00000000000E+00 -0.77746963115E+03  0.77746963115E+03  0.25500000920E-02 0. -1.
    10030    2    1    2    0    0  0.00000000000E+00  0.00000000000E+00 -0.45297667132E+03  0.11019625910E+04  0.10045564629E+04 0.  0.
        5    1    3    3  502    0  0.34317560889E+03  0.12781169621E+03 -0.60355695961E+03  0.70598046836E+03  0.46999998093E+01 0. -1.
       -5    1    3    3    0  502 -0.34317560889E+03 -0.12781169621E+03  0.15058028829E+03  0.39598212263E+03  0.46999998093E+01 0.  1.
</event>
<event>
 5   0  0.1000773E-02  0.9992895E+03  0.7818609E-02  0.9309324E-01
       -1   -1    0    0    0  501  0.00000000000E+00  0.00000000000E+00  0.17346250377E+03  0.17346250385E+03  0.50400001928E-02 0.  1.
        1   -1    0    0  501    0  0.00000000000E+00  0.00000000000E+00 -0.14391863852E+04  0.14391863852E+04  0.50400001928E-02 0. -1.
    10030    2    1    2    0    0  0.00000000000E+00  0.00000000000E+00 -0.12657238814E+04  0.16126488890E+04  0.99928949526E+03 0.  0.
        3    1    3    3  502    0  0.37852833911E+03  0.31789266148E+03 -0.51531584274E+03  0.71406573627E+03  0.10100000352E+00 0.  1.
       -3    1    3    3    0  502 -0.37852833911E+03 -0.31789266148E+03 -0.75040803866E+03  0.89858315276E+03  0.10100000352E+00 0. -1.
</event>
<event>
 5   0  0.9759443E-03  0.9995265E+03  0.7818609E-02  0.9309064E-01
        1   -1    0    0  501    0  0.00000000000E+00  0.00000000000E+00  0.62151686679E+03  0.62151686681E+03  0.50400001928E-02 0. -1.
       -1   -1    0    0    0  501  0.00000000000E+00  0.00000000000E+00 -0.40186086116E+03  0.40186086120E+03  0.50400001928E-02 0.  1.
    10030    2    1    2    0    0  0.00000000000E+00  0.00000000000E+00  0.21965600562E+03  0.10233777280E+04  0.99952649458E+03 0.  0.
        2    1    3    3  502    0 -0.20968060311E+02  0.36113176800E+03 -0.24323015947E+03  0.43590907756E+03  0.25500000920E-02 0.  1.
       -2    1    3    3    0  502  0.20968060311E+02 -0.36113176800E+03  0.46288616509E+03  0.58746865044E+03  0.25500000920E-02 0. -1.
</event>
<event>
 5   0  0.1598986E-02  0.1047003E+04  0.7818609E-02  0.9258444E-01
       -2   -1    0    0    0  501  0.00000000000E+00  0.00000000000E+00  0.36945676668E+03  0.36945676669E+03  0.25500000920E-02 0. -1.
        2   -1    0    0  501    0  0.00000000000E+00  0.00000000000E+00 -0.74177525213E+03  0.74177525213E+03  0.25500000920E-02 0.  1.
    10030    2    1    2    0    0  0.00000000000E+00  0.00000000000E+00 -0.37231848545E+03  0.11112320188E+04  0.10470031256E+04 0.  0.
        3    1    3    3  502    0  0.20036800827E+03 -0.21501748342E+03 -0.64594852730E+03  0.70966849095E+03  0.10100000352E+00 0.  1.
       -3    1    3    3    0  502 -0.20036800827E+03  0.21501748342E+03  0.27363004185E+03  0.40156352787E+03  0.10100000352E+00 0. -1.
</event>
<event>
 5   0  0.1000773E-02  0.9870892E+03  0.7818609E-02  0.9322820E-01
        1   -1    0    0  501    0  0.00000000000E+00  0.00000000000E+00  0.45631749163E+03  0.45631749166E+03  0.50400001928E-02 0. -1.
       -1   -1    0    0    0  501  0.00000000000E+00  0.00000000000E+00 -0.53380871477E+03  0.53380871479E+03  0.50400001928E-02 0.  1.
    10030    2    1    2    0    0  0.00000000000E+00  0.00000000000E+00 -0.77491223138E+02  0.99012620645E+03  0.98708916265E+03 0.  0.
        3    1    3    3  502    0 -0.38579876706E+03 -0.15113227685E+03  0.23022973650E+03  0.47401202046E+03  0.10100000352E+00 0. -1.
       -3    1    3    3    0  502  0.38579876706E+03  0.15113227685E+03 -0.30772095964E+03  0.51611418598E+03  0.10100000352E+00 0.  1.
</event>
<event>
 5   0  0.1000773E-02  0.9820821E+03  0.7818609E-02  0.9328418E-01
        1   -1    0    0  501    0  0.00000000000E+00  0.00000000000E+00  0.10586875824E+04  0.10586875824E+04  0.50400001928E-02 0.  1.
       -1   -1    0    0    0  501  0.00000000000E+00  0.00000000000E+00 -0.22775492388E+03  0.22775492394E+03  0.50400001928E-02 0. -1.
    10030    2    1    2    0    0  0.00000000000E+00  0.00000000000E+00  0.83093265855E+03  0.12864425064E+04  0.98208209391E+03 0.  0.
        3    1    3    3  502    0  0.15978742057E+03  0.42645263113E+03  0.65603232227E+03  0.79860646405E+03  0.10100000352E+00 0.  1.
       -3    1    3    3    0  502 -0.15978742057E+03 -0.42645263113E+03  0.17490033629E+03  0.48783604234E+03  0.10100000352E+00 0. -1.
</event>
<event>
 5   0  0.1000773E-02  0.9814799E+03  0.7818609E-02  0.9329094E-01
       -1   -1    0    0    0  501  0.00000000000E+00  0.00000000000E+00  0.16527601698E+03  0.16527601706E+03  0.50400001928E-02 0.  1.
        1   -1    0    0  501    0  0.00000000000E+00  0.00000000000E+00 -0.14571121128E+04  0.14571121128E+04  0.50400001928E-02 0. -1.
    10030    2    1    2    0    0  0.00000000000E+00  0.00000000000E+00 -0.12918360958E+04  0.16223881298E+04  0.98147987522E+03 0.  0.
        3    1    3    3  502    0  0.11714765244E+03  0.45256045616E+03 -0.89271481915E+03  0.10077074464E+04  0.10100000352E+00 0. -1.
       -3    1    3    3    0  502 -0.11714765244E+03 -0.45256045616E+03 -0.39912127664E+03  0.61468068346E+03  0.10100000352E+00 0.  1.
</event>
<event>
 5   0  0.6314750E-03  0.1032965E+04  0.7818609E-02  0.9273111E-01
        4   -1    0    0  501    0  0.00000000000E+00  0.00000000000E+00  0.83114260140E+03  0.83114357169E+03  0.12699999809E+01 0.  1.
       -4   -1    0    0    0  501  0.00000000000E+00  0.00000000000E+00 -0.32094612923E+03  0.32094864194E+03  0.12699999809E+01 0. -1.
    10030    2    1    2    0    0  0.00000000000E+00  0.00000000000E+00  0.51019647217E+03  0.11520922136E+04  0.10329646792E+04 0.  0.
        4    1    3    3  502    0  0.48965927751E+03  0.26985143886E+02  0.74367301635E+02  0.49601059917E+03  0.12699999809E+01 0. -1.
       -4    1    3    3    0  502 -0.48965927751E+03 -0.26985143886E+02  0.43582917053E+03  0.65608161446E+03  0.12699999809E+01 0.  1.
</event>
<event>
 5   0  0.9471140E-03  0.1030481E+04  0.7818609E-02  0.9275731E-01
       -1   -1    0    0    0  501  0.00000000000E+00  0.00000000000E+00  0.18829091533E+03  0.18829091540E+03  0.50400001928E-02 0. -1.
        1   -1    0    0  501    0  0.00000000000E+00  0.00000000000E+00 -0.14099074220E+04  0.14099074220E+04  0.50400001928E-02 0.  1.
    10030    2    1    2    0    0  0.00000000000E+00  0.00000000000E+00 -0.12216165067E+04  0.15981983374E+04  0.10304809733E+04 0.  0.
        4    1    3    3  502    0  0.31443585473E+03 -0.72619505928E+02  0.12130137453E+02  0.32294311033E+03  0.12699999809E+01 0. -1.
       -4    1    3    3    0  502 -0.31443585473E+03  0.72619505928E+02 -0.12337466442E+04  0.12752552271E+04  0.12699999809E+01 0.  1.
</event>
<event>
 5   0  0.9471140E-03  0.1013133E+04  0.7818609E-02  0.9294257E-01
        1   -1    0    0  501    0  0.00000000000E+00  0.00000000000E+00  0.94900768350E+03  0.94900768351E+03  0.50400001928E-02 0. -1.
       -1   -1    0    0    0  501  0.00000000000E+00  0.00000000000E+00 -0.27039781402E+03  0.27039781407E+03  0.50400001928E-02 0.  1.
    10030    2    1    2    0    0  0.00000000000E+00  0.00000000000E+00  0.67860986948E+03  0.12194054976E+04  0.10131329689E+04 0.  0.
        4    1    3    3  502    0 -0.89256089647E+02  0.16487052904E+03  0.90571167933E+03  0.92491307693E+03  0.12699999809E+01 0. -1.
       -4    1    3    3    0  502  0.89256089647E+02 -0.16487052904E+03 -0.22710180985E+03  0.29449242065E+03  0.12699999809E+01 0.  1.
</event>
<event>
 5   0  0.1598986E-02  0.9861008E+03  0.7818609E-02  0.9323922E-01
       -2   -1    0    0    0  501  0.00000000000E+00  0.00000000000E+00  0.53607587641E+03  0.53607587642E+03  0.25500000920E-02 0. -1.
        2   -1    0    0  501    0  0.00000000000E+00  0.00000000000E+00 -0.45347815578E+03  0.45347815578E+03  0.25500000920E-02 0.  1.
    10030    2    1    2    0    0  0.00000000000E+00  0.00000000000E+00  0.82597720636E+02  0.98955403220E+03  0.98610080580E+03 0.  0.
        3    1    3    3  502    0 -0.26337899355E+03 -0.39128693300E+02 -0.37512316214E+03  0.46001841904E+03  0.10100000352E+00 0.  1.
       -3    1    3    3    0  502  0.26337899355E+03  0.39128693300E+02  0.45772088277E+03  0.52953561316E+03  0.10100000352E+00 0. -1.
</event>
<event>
 5   0  0.1656859E-02  0.9872929E+03  0.7818609E-02  0.9322593E-01
        2   -1    0    0  501    0  0.00000000000E+00  0.00000000000E+00  0.21843412048E+03  0.21843412050E+03  0.25500000920E-02 0.  1.
       -2   -1    0    0    0  501  0.00000000000E+00  0.00000000000E+00 -0.11156079232E+04  0.11156079233E+04  0.25500000920E-02 0. -1.
    10030    2    1    2    0    0  0.00000000000E+00  0.00000000000E+00 -0.89717380276E+03  0.13340420437E+04  0.98729293633E+03 0.  0.
        4    1    3    3  502    0  0.15891789941E+03 -0.86265110258E+02 -0.10692458747E+04  0.10844283846E+04  0.12699999809E+01 0. -1.
       -4    1    3    3    0  502 -0.15891789941E+03  0.86265110258E+02  0.17207207189E+03  0.24961365913E+03  0.12699999809E+01 0.  1.
</event>
<event>
 5   0  0.1656859E-02  0.9933984E+03  0.7818609E-02  0.9315815E-01
        2   -1    0    0  501    0  0.00000000000E+00  0.00000000000E+00  0.15797212510E+04  0.15797212510E+04  0.25500000920E-02 0. -1.
       -2   -1    0    0    0  501  0.00000000000E+00  0.00000000000E+00 -0.15617318977E+03  0.15617318979E+03  0.25500000920E-02 0.  1.
    10030    2    1    2    0    0  0.00000000000E+00  0.00000000000E+00  0.14235480612E+04  0.17358944408E+04  0.99339842306E+03 0.  0.
        4    1    3    3  502    0 -0.35190592624E+03 -0.28748448660E+03  0.36131347713E+03  0.58054642589E+03  0.12699999809E+01 0.  1.
       -4    1    3    3    0  502  0.35190592624E+03  0.28748448660E+03  0.10622345841E+04  0.11553480149E+04  0.12699999809E+01 0. -1.
</event>
<event>
 5   0  0.9396660E-03  0.1019058E+04  0.7818609E-02  0.9287885E-01
        1   -1    0    0  501    0  0.00000000000E+00  0.00000000000E+00  0.10466459195E+04  0.10466459195E+04  0.50400001928E-02 0. -1.
       -1   -1    0    0    0  501  0.00000000000E+00  0.00000000000E+00 -0.24804954403E+03  0.24804954408E+03  0.50400001928E-02 0.  1.
    10030    2    1    2    0    0  0.00000000000E+00  0.00000000000E+00  0.79859637545E+03  0.12946954636E+04  0.10190584735E+04 0.  0.
        5    1    3    3  502    0 -0.13129731940E+03  0.49100537141E+03  0.44462239622E+03  0.67530469127E+03  0.46999998093E+01 0. -1.
       -5    1    3    3    0  502  0.13129731940E+03 -0.49100537141E+03  0.35397397923E+03  0.61939077230E+03  0.46999998093E+01 0.  1.
</event>
<event>
 5   0  0.1000773E-02  0.1032058E+04  0.7818609E-02  0.9274067E-01
        1   -1    0    0  501    0  0.00000000000E+00  0.00000000000E+00  0.67173170256E+03  0.67173170258E+03  0.50400001928E-02 0.  1.
       -1   -1    0    0    0  501  0.00000000000E+00  0.00000000000E+00 -0.39641684152E+03  0.39641684155E+03  0.50400001928E-02 0. -1.
    10030    2    1    2    0    0  0.00000000000E+00  0.00000000000E+00  0.27531486104E+03  0.10681485441E+04  0.10320576726E+04 0.  0.
        3    1    3    3  502    0  0.26195616231E+03 -0.50370129598E+02 -0.31952233729E+03  0.41623636934E+03  0.10100000352E+00 0. -1.
       -3    1    3    3    0  502 -0.26195616231E+03  0.50370129598E+02  0.59483719834E+03  0.65191217480E+03  0.10100000352E+00 0.  1.
</event>
<event>
 5   0  0.1656859E-02  0.8471379E+03  0.7818609E-02  0.9494186E-01
       -2   -1    0    0    0  501  0.00000000000E+00  0.00000000000E+00  0.22383106060E+03  0.22383106061E+03  0.25500000920E-02 0. -1.
        2   -1    0    0  501    0  0.00000000000E+00  0.00000000000E+00 -0.80154492008E+03  0.80154492008E+03  0.25500000920E-02 0.  1.
    10030    2    1    2    0    0  0.00000000000E+00  0.00000000000E+00 -0.57771385948E+03  0.10253759807E+04  0.84713788626E+03 0.  0.
        4    1    3    3  502    0 -0.20676133739E+03 -0.19004387075E+03 -0.67265522338E+03  0.72892632404E+03  0.12699999809E+01 0.  1.
       -4    1    3    3    0  502  0.20676133739E+03  0.19004387075E+03  0.94941363897E+02  0.29644965665E+03  0.12699999809E+01 0. -1.
</event>
<event>
 5   0  0.1617721E-02  0.9759600E+03  0.7818609E-02  0.9335312E-01
        2   -1    0    0  501    0  0.00000000000E+00  0.00000000000E+00  0.10519827292E+04  0.10519827292E+04  0.25500000920E-02 0. -1.
       -2   -1    0    0    0  501  0.00000000000E+00  0.00000000000E+00 -0.22635780206E+03  0.22635780207E+03  0.25500000920E-02 0.  1.
    10030    2    1    2    0    0  0.00000000000E+00  0.00000000000E+00  0.82562492714E+03  0.12783405313E+04  0.97596003688E+03 0.  0.
        5    1    3    3  502    0  0.28419895936E+03  0.31087770584E+03  0.90135909240E+02  0.43076741824E+03  0.46999998093E+01 0.  1.
       -5    1    3    3    0  502 -0.28419895936E+03 -0.31087770584E+03  0.73548901790E+03  0.84757311303E+03  0.46999998093E+01 0. -1.
</event>
<event>
 5   0  0.9396660E-03  0.1011797E+04  0.7818609E-02  0.9295699E-01
        1   -1    0    0  501    0  0.00000000000E+00  0.00000000000E+00  0.19049408754E+04  0.19049408755E+04  0.50400001928E-02 0. -1.
       -1   -1    0    0    0  501  0.00000000000E+00  0.00000000000E+00 -0.13435247552E+03  0.13435247561E+03  0.50400001928E-02 0.  1.
    10030    2    1    2    0    0  0.00000000000E+00  0.00000000000E+00  0.17705883999E+04  0.20392933511E+04  0.10117974549E+04 0.  0.
        5    1    3    3  502    0  0.28750538297E+03 -0.15470513094E+03  0.16641244270E+04  0.16958553067E+04  0.46999998093E+01 0. -1.
       -5    1    3    3    0  502 -0.28750538297E+03  0.15470513094E+03  0.10646397292E+03  0.34343804435E+03  0.46999998093E+01 0.  1.
</event>
<event>
 5   0  0.1000773E-02  0.1188009E+04  0.7818609E-02  0.9123417E-01
        1   -1    0    0  501    0  0.00000000000E+00  0.00000000000E+00  0.20775498645E+04  0.20775498645E+04  0.50400001928E-02 0. -1.
       -1   -1    0    0    0  501  0.00000000000E+00  0.00000000000E+00 -0.16983540728E+03  0.16983540735E+03  0.50400001928E-02 0.  1.
    10030    2    1    2    0    0  0.00000000000E+00  0.00000000000E+00  0.19077144572E+04  0.22473852719E+04  0.11880093055E+04 0.  0.
        3    1    3    3  502    0 -0.27015078335E+03 -0.48175009896E+03  0.13673488690E+04  0.14746889649E+04  0.10100000352E+00 0. -1.
       -3    1    3    3    0  502  0.27015078335E+03  0.48175009896E+03  0.54036558828E+03  0.77269630696E+03  0.10100000352E+00 0.  1.
</event>
<event>
 5   0  0.1571895E-02  0.9908401E+03  0.7818609E-02  0.9318649E-01
       -2   -1    0    0    0  501  0.00000000000E+00  0.00000000000E+00  0.14627047013E+03  0.14627047016E+03  0.25500000920E-02 0.  1.
        2   -1    0    0  501    0  0.00000000000E+00  0.00000000000E+00 -0.16779943712E+04  0.16779943712E+04  0.25500000920E-02 0. -1.
    10030    2    1    2    0    0  0.00000000000E+00  0.00000000000E+00 -0.15317239011E+04  0.18242648414E+04  0.99084009928E+03 0.  0.
        2    1    3    3  502    0 -0.20022015294E+03 -0.37879966153E+03 -0.12237954060E+04  0.12966312078E+04  0.25500000920E-02 0. -1.
       -2    1    3    3    0  502  0.20022015294E+03  0.37879966153E+03 -0.30792849507E+03  0.52763363359E+03  0.25500000920E-02 0.  1.
</event>
<event>
 5   0  0.1617721E-02  0.9679804E+03  0.7818609E-02  0.9344378E-01
       -2   -1    0    0    0  501  0.00000000000E+00  0.00000000000E+00  0.39030963619E+03  0.39030963620E+03  0.25500000920E-02 0.  1.
        2   -1    0    0  501    0  0.00000000000E+00  0.00000000000E+00 -0.60015554375E+03  0.60015554375E+03  0.25500000920E-02 0. -1.
    10030    2    1    2    0    0  0.00000000000E+00  0.00000000000E+00 -0.20984590756E+03  0.99046517995E+03  0.96798035506E+03 0.  0.
        5    1    3    3  502    0 -0.15086325765E+03 -0.45797807538E+03 -0.62477316245E+02  0.48623980203E+03  0.46999998093E+01 0. -1.
       -5    1    3    3    0  502  0.15086325765E+03  0.45797807538E+03 -0.14736859131E+03  0.50422537792E+03  0.46999998093E+01 0.  1.
</event>
<event>
 5   0  0.1663497E-02  0.9853958E+03  0.7818609E-02  0.9324709E-01
        2   -1    0    0  501    0  0.00000000000E+00  0.00000000000E+00  0.13068524861E+04  0.13068524861E+04  0.25500000920E-02 0. -1.
       -2   -1    0    0    0  501  0.00000000000E+00  0.00000000000E+00 -0.18575258318E+03  0.18575258319E+03  0.25500000920E-02 0.  1.
    10030    2    1    2    0    0  0.00000000000E+00  0.00000000000E+00  0.11210999030E+04  0.14926050693E+04  0.98539580910E+03 0.  0.
        1    1    3    3  502    0 -0.43414987935E+02  0.42004564478E+02 -0.18012181148E+03  0.18998187179E+03  0.50400001928E-02 0.  1.
       -1    1    3    3    0  502  0.43414987935E+02 -0.42004564478E+02  0.13012217144E+04  0.13026231975E+04  0.50400001928E-02 0. -1.
</event>
<event>
 5   0  0.1656859E-02  0.1011880E+04  0.7818609E-02  0.9295610E-01
       -2   -1    0    0    0  501  0.00000000000E+00  0.00000000000E+00  0.17758512351E+03  0.17758512353E+03  0.25500000920E-02 0. -1.
        2   -1    0    0  501    0  0.00000000000E+00  0.00000000000E+00 -0.14414228615E+04  0.14414228615E+04  0.25500000920E-02 0.  1.
    10030    2    1    2    0    0  0.00000000000E+00  0.00000000000E+00 -0.12638377380E+04  0.16190079851E+04  0.10118799472E+04 0.  0.
        4    1    3    3  502    0  0.34259601120E+03  0.22019998012E+03 -0.15161604823E+03  0.43456771292E+03  0.12699999809E+01 0. -1.
       -4    1    3    3    0  502 -0.34259601120E+03 -0.22019998012E+03 -0.11122216898E+04  0.11844402721E+04  0.12699999809E+01 0.  1.
</event>
<event>
 5   0  0.1617721E-02  0.1010519E+04  0.7818609E-02  0.9297082E-01
        2   -1    0    0  501    0  0.00000000000E+00  0.00000000000E+00  0.17847423366E+03  0.17847423368E+03  0.25500000920E-02 0. -1.
       -2   -1    0    0    0  501  0.00000000000E+00  0.00000000000E+00 -0.14303880535E+04  0.14303880535E+04  0.25500000920E-02 0.  1.
    10030    2    1    2    0    0  0.00000000000E+00  0.00000000000E+00 -0.12519138199E+04  0.16088622872E+04  0.10105194936E+04 0.  0.
        5    1    3    3  502    0  0.23565230030E+03  0.43453660223E+03 -0.79226430326E+03  0.93384092946E+03  0.46999998093E+01 0.  1.
       -5    1    3    3    0  502 -0.23565230030E+03 -0.43453660223E+03 -0.45964951663E+03  0.67502135777E+03  0.46999998093E+01 0. -1.
</event>
<event>
 5   0  0.1598986E-02  0.9799800E+03  0.7818609E-02  0.9330779E-01
        2   -1    0    0  501    0  0.00000000000E+00  0.00000000000E+00  0.59076988276E+03  0.59076988276E+03  0.25500000920E-02 0.  1.
       -2   -1    0    0    0  501  0.00000000000E+00  0.00000000000E+00 -0.40640223448E+03  0.40640223449E+03  0.25500000920E-02 0. -1.
    10030    2    1    2    0    0  0.00000000000E+00  0.00000000000E+00  0.18436764828E+03  0.99717211725E+03  0.97998000066E+03 0.  0.
        3    1    3    3  502    0  0.26468441973E+03 -0.37769190351E+02 -0.32563616708E+03  0.42133511282E+03  0.10100000352E+00 0. -1.
       -3    1    3    3    0  502 -0.26468441973E+03  0.37769190351E+02  0.51000381536E+03  0.57583700443E+03  0.10100000352E+00 0.  1.
</event>
<event>
 5   0  0.9759443E-03  0.9988224E+03  0.7818609E-02  0.9309837E-01
       -1   -1    0    0    0  501  0.00000000000E+00  0.00000000000E+00  0.19839021047E+03  0.19839021053E+03  0.50400001928E-02 0. -1.
        1   -1    0    0  501    0  0.00000000000E+00  0.00000000000E+00 -0.12571766582E+04  0.12571766582E+04  0.50400001928E-02 0.  1.
    10030    2    1    2    0    0  0.00000000000E+00  0.00000000000E+00 -0.10587864477E+04  0.14555668687E+04  0.99882239034E+03 0.  0.
        2    1    3    3  502    0 -0.13797823158E+03  0.30801903686E+03  0.70330612399E+01  0.33758433526E+03  0.25500000920E-02 0. -1.
       -2    1    3    3    0  502  0.13797823158E+03 -0.30801903686E+03 -0.10658195089E+04  0.11179825334E+04  0.25500000920E-02 0.  1.
</event>
<event>
 5   0  0.1617721E-02  0.1016834E+04  0.7818609E-02  0.9290272E-01
       -2   -1    0    0    0  501  0.00000000000E+00  0.00000000000E+00  0.21170535446E+03  0.21170535447E+03  0.25500000920E-02 0.  1.
        2   -1    0    0  501    0  0.00000000000E+00  0.00000000000E+00 -0.12209795464E+04  0.12209795464E+04  0.25500000920E-02 0. -1.
    10030    2    1    2    0    0  0.00000000000E+00  0.00000000000E+00 -0.10092741920E+04  0.14326849009E+04  0.10168341215E+04 0.  0.
        5    1    3    3  502    0 -0.46279422696E+03  0.15413385232E+02 -0.80035137139E+03  0.92466235818E+03  0.46999998093E+01 0.  1.
       -5    1    3    3    0  502  0.46279422696E+03 -0.15413385232E+02 -0.20892282057E+03  0.50802254271E+03  0.46999998093E+01 0. -1.
</event>
<event>
 5   0  0.9396660E-03  0.1006921E+04  0.7818609E-02  0.9300986E-01
       -1   -1    0    0    0  501  0.00000000000E+00  0.00000000000E+00  0.31269026919E+03  0.31269026923E+03  0.50400001928E-02 0.  1.
        1   -1    0    0  501    0  0.00000000000E+00  0.00000000000E+00 -0.81061851537E+03  0.81061851538E+03  0.50400001928E-02 0. -1.
    10030    2    1    2    0    0  0.00000000000E+00  0.00000000000E+00 -0.49792824618E+03  0.11233087846E+04  0.10069210929E+04 0.  0.
        5    1    3    3  502    0  0.18271872256E+03 -0.94302418926E+02  0.26368618064E+03  0.33441227497E+03  0.46999998093E+01 0.  1.
       -5    1    3    3    0  502 -0.18271872256E+03  0.94302418926E+02 -0.76161442682E+03  0.78889650964E+03  0.46999998093E+01 0. -1.
</event>
<event>
 5   0  0.9396660E-03  0.1006304E+04  0.7818609E-02  0.9301658E-01
        1   -1    0    0  501    0  0.00000000000E+00  0.00000000000E+00  0.11783377465E+04  0.11783377465E+04  0.50400001928E-02 0. -1.
       -1   -1    0    0    0  501  0.00000000000E+00  0.00000000000E+00 -0.21484656233E+03  0.21484656239E+03  0.50400001928E-02 0.  1.
    10030    2    1    2    0    0  0.00000000000E+00  0.00000000000E+00  0.96349118415E+03  0.13931843089E+04  0.10063037596E+04 0.  0.
        5    1    3    3  502    0  0.15329797233E+03 -0.25054265549E+03  0.10472888027E+04  0.10877075971E+04  0.46999998093E+01 0. -1.
       -5    1    3    3    0  502 -0.15329797233E+03  0.25054265549E+03 -0.83797618583E+02  0.30547671175E+03  0.46999998093E+01 0.  1.
</event>
<event>
 5   0  0.9396660E-03  0.8753303E+03  0.7818609E-02  0.9456956E-01
        1   -1    0    0  501    0  0.00000000000E+00  0.00000000000E+00  0.51018641740E+03  0.51018641743E+03  0.50400001928E-02 0. -1.
       -1   -1    0    0    0  501  0.00000000000E+00  0.00000000000E+00 -0.37545256936E+03  0.37545256939E+03  0.50400001928E-02 0.  1.
    10030    2    1    2    0    0  0.00000000000E+00  0.00000000000E+00  0.13473384804E+03  0.88563898682E+03  0.87533034060E+03 0.  0.
        5    1    3    3  502    0  0.18677941455E+03  0.39539848304E+03  0.84955587516E+02  0.44549528834E+03  0.46999998093E+01 0.  1.
       -5    1    3    3    0  502 -0.18677941455E+03 -0.39539848304E+03  0.49778260527E+02  0.44014369848E+03  0.46999998093E+01 0. -1.
</event>
<event>
 5   0  0.9471140E-03  0.1008540E+04  0.7818609E-02  0.9299228E-01
       -1   -1    0    0    0  501  0.00000000000E+00  0.00000000000E+00  0.41287523689E+03  0.41287523692E+03  0.50400001928E-02 0. -1.
        1   -1    0    0  501    0  0.00000000000E+00  0.00000000000E+00 -0.61589581838E+03  0.61589581840E+03  0.50400001928E-02 0.  1.
    10030    2    1    2    0    0  0.00000000000E+00  0.00000000000E+00 -0.20302058149E+03  0.10287710553E+04  0.10085397998E+04 0.  0.
        4    1    3    3  502    0  0.21899850685E+03  0.13194142985E+03 -0.54487583797E+03  0.60188053517E+03  0.12699999809E+01 0.  1.
       -4    1    3    3    0  502 -0.21899850685E+03 -0.13194142985E+03  0.34185525648E+03  0.42689052015E+03  0.12699999809E+01 0. -1.
</event>
<event>
 5   0  0.1598986E-02  0.9982624E+03  0.7818609E-02  0.9310453E-01
        2   -1    0    0  501    0  0.00000000000E+00  0.00000000000E+00  0.36106398273E+03  0.36106398274E+03  0.25500000920E-02 0.  1.
       -2   -1    0    0    0  501  0.00000000000E+00  0.00000000000E+00 -0.68999391851E+03  0.68999391851E+03  0.25500000920E-02 0. -1.
    10030    2    1    2    0    0  0.00000000000E+00  0.00000000000E+00 -0.32892993578E+03  0.10510579013E+04  0.99826239493E+03 0.  0.
        3    1    3    3  502    0 -0.38854184187E+03  0.18656308055E+03  0.10056458216E+03  0.44258760860E+03  0.10100000352E+00 0.  1.
       -3    1    3    3    0  502  0.38854184187E+03 -0.18656308055E+03 -0.42949451793E+03  0.60847029265E+03  0.10100000352E+00 0. -1.
</event>
<event>
 5   0  0.6314750E-03  0.1026742E+04  0.7818609E-02  0.9279691E-01
        4   -1    0    0  501    0  0.00000000000E+00  0.00000000000E+00  0.28444377528E+03  0.28444661044E+03  0.12699999809E+01 0.  1.
       -4   -1    0    0    0  501  0.00000000000E+00  0.00000000000E+00 -0.92653736231E+03  0.92653823270E+03  0.12699999809E+01 0. -1.
    10030    2    1    2    0    0  0.00000000000E+00  0.00000000000E+00 -0.64209358704E+03  0.12109848431E+04  0.10267424778E+04 0.  0.
        2    1    3    3  502    0  0.44347917844E+03 -0.21796906655E+03 -0.48517912953E+03  0.69251937404E+03  0.25500000920E-02 0. -1.
       -2    1    3    3    0  502 -0.44347917844E+03  0.21796906655E+03 -0.15691445751E+03  0.51846546911E+03  0.25500000920E-02 0.  1.
</event>
<event>
 5   0  0.9471140E-03  0.1011379E+04  0.7818609E-02  0.9296152E-01
        1   -1    0    0  501    0  0.00000000000E+00  0.00000000000E+00  0.97755377022E+03  0.97755377024E+03  0.50400001928E-02 0.  1.
       -1   -1    0    0    0  501  0.00000000000E+00  0.00000000000E+00 -0.26159345140E+03  0.26159345145E+03  0.50400001928E-02 0. -1.
    10030    2    1    2    0    0  0.00000000000E+00  0.00000000000E+00  0.71596031882E+03  0.12391472217E+04  0.10113785933E+04 0.  0.
        4    1    3    3  502    0 -0.49257031897E+03  0.94814526797E+02  0.27948337219E+03  0.57421936736E+03  0.12699999809E+01 0. -1.
       -4    1    3    3    0  502  0.49257031897E+03 -0.94814526797E+02  0.43647694663E+03  0.66492785433E+03  0.12699999809E+01 0.  1.
</event>
<event>
 5   0  0.1571895E-02  0.9953809E+03  0.7818609E-02  0.9313626E-01
       -2   -1    0    0    0  501  0.00000000000E+00  0.00000000000E+00  0.52324049696E+03  0.52324049697E+03  0.25500000920E-02 0.  1.
        2   -1    0    0  501    0  0.00000000000E+00  0.00000000000E+00 -0.47338797596E+03  0.47338797596E+03  0.25500000920E-02 0. -1.
    10030    2    1    2    0    0  0.00000000000E+00  0.00000000000E+00  0.49852521006E+02  0.99662847293E+03  0.99538085134E+03 0.  0.
        2    1    3    3  502    0  0.66369648280E+01  0.15154961976E+03 -0.44967675278E+03  0.47457403906E+03  0.25500000920E-02 0. -1.
       -2    1    3    3    0  502 -0.66369648280E+01 -0.15154961976E+03  0.49952927378E+03  0.52205443387E+03  0.25500000920E-02 0.  1.
</event>
<event>
 5   0  0.1571895E-02  0.1019879E+04  0.7818609E-02  0.9287007E-01
        2   -1    0    0  501    0  0.00000000000E+00  0.00000000000E+00  0.15965833742E+04  0.15965833742E+04  0.25500000920E-02 0.  1.
       -2   -1    0    0    0  501  0.00000000000E+00  0.00000000000E+00 -0.16287173957E+03  0.16287173959E+03  0.25500000920E-02 0. -1.
    10030    2    1    2    0    0  0.00000000000E+00  0.00000000000E+00  0.14337116346E+04  0.17594551138E+04  0.10198790351E+04 0.  0.
        2    1    3    3  502    0 -0.23687310884E+03 -0.40385078945E+03  0.10654662600E+04  0.11637966666E+04  0.25500000920E-02 0.  1.
       -2    1    3    3    0  502  0.23687310884E+03  0.40385078945E+03  0.36824537456E+03  0.59565844720E+03  0.25500000920E-02 0. -1.
</event>
<event>
 5   0  0.9471140E-03  0.1034752E+04  0.7818609E-02  0.9271230E-01
        1   -1    0    0  501    0  0.00000000000E+00  0.00000000000E+00  0.10284576819E+04  0.10284576820E+04  0.50400001928E-02 0.  1.
       -1   -1    0    0    0  501  0.00000000000E+00  0.00000000000E+00 -0.26027111440E+03  0.26027111445E+03  0.50400001928E-02 0. -1.
    10030    2    1    2    0    0  0.00000000000E+00  0.00000000000E+00  0.76818656754E+03  0.12887287964E+04  0.10347518099E+04 0.  0.
        4    1    3    3  502    0  0.34720651568E+03  0.57229400176E+02 -0.88272276788E+02  0.36279632926E+03  0.12699999809E+01 0. -1.
       -4    1    3    3    0  502 -0.34720651568E+03 -0.57229400176E+02  0.85645884433E+03  0.92593246715E+03  0.12699999809E+01 0.  1.
</event>
<event>
 5   0  0.1617721E-02  0.6952436E+03  0.7818609E-02  0.9725401E-01
       -2   -1    0    0    0  501  0.00000000000E+00  0.00000000000E+00  0.85459654412E+03  0.85459654412E+03  0.25500000920E-02 0. -1.
        2   -1    0    0  501    0  0.00000000000E+00  0.00000000000E+00 -0.14140114453E+03  0.14140114456E+03  0.25500000920E-02 0.  1.
    10030    2    1    2    0    0  0.00000000000E+00  0.00000000000E+00  0.71319539958E+03  0.99599768867E+03  0.69524363921E+03 0.  0.
        5    1    3    3  502    0  0.81524740458E+02  0.64265293746E+02 -0.11862982445E+03  0.15770680561E+03  0.46999998093E+01 0.  1.
       -5    1    3    3    0  502 -0.81524740458E+02 -0.64265293746E+02  0.83182522404E+03  0.83829088307E+03  0.46999998093E+01 0. -1.
</event>
<event>
 5   0  0.1000773E-02  0.1002260E+04  0.7818609E-02  0.9306070E-01
       -1   -1    0    0    0  501  0.00000000000E+00  0.00000000000E+00  0.30329913995E+03  0.30329913999E+03  0.50400001928E-02 0. -1.
        1   -1    0    0  501    0  0.00000000000E+00  0.00000000000E+00 -0.82799855064E+03  0.82799855065E+03  0.50400001928E-02 0.  1.
    10030    2    1    2    0    0  0.00000000000E+00  0.00000000000E+00 -0.52469941069E+03  0.11312976906E+04  0.10022599430E+04 0.  0.
        3    1    3    3  502    0  0.12814438854E+03 -0.26609139331E+03  0.19462636132E+03  0.35370191494E+03  0.10100000352E+00 0. -1.
       -3    1    3    3    0  502 -0.12814438854E+03  0.26609139331E+03 -0.71932577201E+03  0.77759577570E+03  0.10100000352E+00 0.  1.
</event>
<event>
 5   0  0.1656859E-02  0.9966114E+03  0.7818609E-02  0.9312269E-01
       -2   -1    0    0    0  501  0.00000000000E+00  0.00000000000E+00  0.10197786821E+04  0.10197786821E+04  0.25500000920E-02 0.  1.
        2   -1    0    0  501    0  0.00000000000E+00  0.00000000000E+00 -0.24349263066E+03  0.24349263067E+03  0.25500000920E-02 0. -1.
    10030    2    1    2    0    0  0.00000000000E+00  0.00000000000E+00  0.77628605147E+03  0.12632713128E+04  0.99661144688E+03 0.  0.
        4    1    3    3  502    0 -0.17481290764E+03  0.45282167296E+03  0.53099029919E+03  0.71941596515E+03  0.12699999809E+01 0.  1.
       -4    1    3    3    0  502  0.17481290764E+03 -0.45282167296E+03  0.24529575228E+03  0.54385534765E+03  0.12699999809E+01 0. -1.
</event>
<event>
 5   0  0.6314750E-03  0.1025044E+04  0.7818609E-02  0.9281495E-01
       -3   -1    0    0    0  501  0.00000000000E+00  0.00000000000E+00  0.38787079464E+03  0.38787080779E+03  0.10100000352E+00 0.  1.
        3   -1    0    0  501    0  0.00000000000E+00  0.00000000000E+00 -0.67723313628E+03  0.67723314381E+03  0.10100000352E+00 0. -1.
    10030    2    1    2    0    0  0.00000000000E+00  0.00000000000E+00 -0.28936234164E+03  0.10651039516E+04  0.10250443224E+04 0.  0.
        1    1    3    3  502    0  0.22214246853E+02 -0.43590276228E+02  0.38543889050E+03  0.38853149586E+03  0.50400001928E-02 0.  1.
       -1    1    3    3    0  502 -0.22214246853E+02  0.43590276228E+02 -0.67480123214E+03  0.67657245574E+03  0.50400001928E-02 0. -1.
</event>
<event>
 5   0  0.6314750E-03  0.9976509E+03  0.7818609E-02  0.9311125E-01
       -4   -1    0    0    0  501  0.00000000000E+00  0.00000000000E+00  0.45814950245E+03  0.45815126268E+03  0.12699999809E+01 0.  1.
        4   -1    0    0  501    0  0.00000000000E+00  0.00000000000E+00 -0.54310918207E+03  0.54311066695E+03  0.12699999809E+01 0. -1.
    10030    2    1    2    0    0  0.00000000000E+00  0.00000000000E+00 -0.84959679626E+02  0.10012619296E+04  0.99765089313E+03 0.  0.
        2    1    3    3  502    0 -0.18972452655E+02  0.35160879289E+03 -0.39708310749E+03  0.53071997462E+03  0.25500000920E-02 0. -1.
       -2    1    3    3    0  502  0.18972452655E+02 -0.35160879289E+03  0.31212342786E+03  0.47054195501E+03  0.25500000920E-02 0.  1.
</event>
<event>
 5   0  0.9507815E-03  0.6332271E+03  0.7818609E-02  0.9838772E-01
       -1   -1    0    0    0  501  0.00000000000E+00  0.00000000000E+00  0.93769842076E+02  0.93769842211E+02  0.50400001928E-02 0.  1.
        1   -1    0    0  501    0  0.00000000000E+00  0.00000000000E+00 -0.10690445088E+04  0.10690445088E+04  0.50400001928E-02 0. -1.
    10030    2    1    2    0    0  0.00000000000E+00  0.00000000000E+00 -0.97527466669E+03  0.11628143510E+04  0.63322708358E+03 0.  0.
        1    1    3    3  502    0  0.17890063877E+03  0.20737319227E+03 -0.19592618120E+03  0.33674344526E+03  0.50400001928E-02 0.  1.
       -1    1    3    3    0  502 -0.17890063877E+03 -0.20737319227E+03 -0.77934848549E+03  0.82607090572E+03  0.50400001928E-02 0. -1.
</event>
<event>
 5   0  0.9507815E-03  0.1038066E+04  0.7818609E-02  0.9267752E-01
        1   -1    0    0  501    0  0.00000000000E+00  0.00000000000E+00  0.84273416299E+03  0.84273416300E+03  0.50400001928E-02 0.  1.
       -1   -1    0    0    0  501  0.00000000000E+00  0.00000000000E+00 -0.31966833234E+03  0.31966833238E+03  0.50400001928E-02 0. -1.
    10030    2    1    2    0    0  0.00000000000E+00  0.00000000000E+00  0.52306583065E+03  0.11624024954E+04  0.10380663264E+04 0.  0.
        1    1    3    3  502    0 -0.37347251000E+02  0.47448532302E+03  0.49336803457E+03  0.68552400139E+03  0.50400001928E-02 0.  1.
       -1    1    3    3    0  502  0.37347251000E+02 -0.47448532302E+03  0.29697796085E+02  0.47687849399E+03  0.50400001928E-02 0. -1.
</event>
<event>
 5   0  0.1000773E-02  0.9688560E+03  0.7818609E-02  0.9343378E-01
       -1   -1    0    0    0  501  0.00000000000E+00  0.00000000000E+00  0.19977304449E+03  0.19977304456E+03  0.50400001928E-02 0.  1.
        1   -1    0    0  501    0  0.00000000000E+00  0.00000000000E+00 -0.11746854974E+04  0.11746854974E+04  0.50400001928E-02 0. -1.
    10030    2    1    2    0    0  0.00000000000E+00  0.00000000000E+00 -0.97491245294E+03  0.13744585420E+04  0.96885602273E+03 0.  0.
        3    1    3    3  502    0  0.32126272576E+03  0.30323281800E+03 -0.20546911888E+03  0.48721396726E+03  0.10100000352E+00 0. -1.
       -3    1    3    3    0  502 -0.32126272576E+03 -0.30323281800E+03 -0.76944333406E+03  0.88724457474E+03  0.10100000352E+00 0.  1.
</event>
<event>
 5   0  0.1656859E-02  0.1000598E+04  0.7818609E-02  0.9307889E-01
       -2   -1    0    0    0  501  0.00000000000E+00  0.00000000000E+00  0.81451605478E+03  0.81451605479E+03  0.25500000920E-02 0. -1.
        2   -1    0    0  501    0  0.00000000000E+00  0.00000000000E+00 -0.30729798175E+03  0.30729798176E+03  0.25500000920E-02 0.  1.
    10030    2    1    2    0    0  0.00000000000E+00  0.00000000000E+00  0.50721807304E+03  0.11218140365E+04  0.10005981006E+04 0.  0.
        4    1    3    3  502    0 -0.46453254638E+02  0.11030640615E+02  0.81195418863E+03  0.81335773017E+03  0.12699999809E+01 0. -1.
       -4    1    3    3    0  502  0.46453254638E+02 -0.11030640615E+02 -0.30473611559E+03  0.30845630638E+03  0.12699999809E+01 0.  1.
</event>
<event>
 5   0  0.1663497E-02  0.1033780E+04  0.7818609E-02  0.9272252E-01
       -2   -1    0    0    0  501  0.00000000000E+00  0.00000000000E+00  0.22231430138E+03  0.22231430139E+03  0.25500000920E-02 0.  1.
        2   -1    0    0  501    0  0.00000000000E+00  0.00000000000E+00 -0.12017918148E+04  0.12017918148E+04  0.25500000920E-02 0. -1.
    10030    2    1    2    0    0  0.00000000000E+00  0.00000000000E+00 -0.97947751344E+03  0.14241061162E+04  0.10337804559E+04 0.  0.
        1    1    3    3  502    0 -0.15616668007E+03 -0.47715108610E+03 -0.65909776204E+03  0.82853548559E+03  0.50400001928E-02 0. -1.
       -1    1    3    3    0  502  0.15616668007E+03  0.47715108610E+03 -0.32037975139E+03  0.59557063062E+03  0.50400001928E-02 0.  1.
</event>
<event>
 5   0  0.6314750E-03  0.9918821E+03  0.7818609E-02  0.9317493E-01
        4   -1    0    0  501    0  0.00000000000E+00  0.00000000000E+00  0.21850320758E+03  0.21850689834E+03  0.12699999809E+01 0. -1.
       -4   -1    0    0    0  501  0.00000000000E+00  0.00000000000E+00 -0.11256335419E+04  0.11256342584E+04  0.12699999809E+01 0.  1.
    10030    2    1    2    0    0  0.00000000000E+00  0.00000000000E+00 -0.90713033434E+03  0.13441411567E+04  0.99188205229E+03 0.  0.
        2    1    3    3  502    0 -0.15183698292E+03 -0.17870059734E+03  0.13863214278E+03  0.27241006569E+03  0.25500000920E-02 0. -1.
       -2    1    3    3    0  502  0.15183698292E+03  0.17870059734E+03 -0.10457624771E+04  0.10717310910E+04  0.25500000920E-02 0.  1.
</event>
<event>
 5   0  0.9759443E-03  0.1021642E+04  0.7818609E-02  0.9285122E-01
        1   -1    0    0  501    0  0.00000000000E+00  0.00000000000E+00  0.69070180440E+03  0.69070180442E+03  0.50400001928E-02 0.  1.
       -1   -1    0    0    0  501  0.00000000000E+00  0.00000000000E+00 -0.37778657173E+03  0.37778657177E+03  0.50400001928E-02 0. -1.
    10030    2    1    2    0    0  0.00000000000E+00  0.00000000000E+00  0.31291523266E+03  0.10684883762E+04  0.10216415551E+04 0.  0.
        2    1    3    3  502    0 -0.38758607713E+03 -0.24290058952E+03  0.39429283823E+03  0.60389610519E+03  0.25500000920E-02 0.  1.
       -2    1    3    3    0  502  0.38758607713E+03  0.24290058952E+03 -0.81377605565E+02  0.46459227100E+03  0.25500000920E-02 0. -1.
</event>
<event>
 5   0  0.9396660E-03  0.1022734E+04  0.7818609E-02  0.9283956E-01
        1   -1    0    0  501    0  0.00000000000E+00  0.00000000000E+00  0.19069516481E+03  0.19069516488E+03  0.50400001928E-02 0. -1.
       -1   -1    0    0    0  501  0.00000000000E+00  0.00000000000E+00 -0.13712796619E+04  0.13712796619E+04  0.50400001928E-02 0.  1.
    10030    2    1    2    0    0  0.00000000000E+00  0.00000000000E+00 -0.11805844971E+04  0.15619748268E+04  0.10227343764E+04 0.  0.
        5    1    3    3  502    0  0.53675753935E+02 -0.66354940645E+02 -0.13602920580E+04  0.13629749219E+04  0.46999998093E+01 0.  1.
       -5    1    3    3    0  502 -0.53675753935E+02  0.66354940645E+02  0.17970756089E+03  0.19899990489E+03  0.46999998093E+01 0. -1.
</event>
<event>
 5   0  0.1656859E-02  0.9181478E+03  0.7818609E-02  0.9403176E-01
       -2   -1    0    0    0  501  0.00000000000E+00  0.00000000000E+00  0.14579667297E+03  0.14579667299E+03  0.25500000920E-02 0. -1.
        2   -1    0    0  501    0  0.00000000000E+00  0.00000000000E+00 -0.14454984383E+04  0.14454984383E+04  0.25500000920E-02 0.  1.
    10030    2    1    2    0    0  0.00000000000E+00  0.00000000000E+00 -0.12997017653E+04  0.15912951113E+04  0.91814783799E+03 0.  0.
        4    1    3    3  502    0 -0.11832818530E+03 -0.27630437635E+03 -0.48463641527E+02  0.30446018669E+03  0.12699999809E+01 0. -1.
       -4    1    3    3    0  502  0.11832818530E+03  0.27630437635E+03 -0.12512381238E+04  0.12868349246E+04  0.12699999809E+01 0.  1.
</event>
<event>
 5   0  0.1000773E-02  0.7760392E+03  0.7818609E-02  0.9595362E-01
       -1   -1    0    0    0  501  0.00000000000E+00  0.00000000000E+00  0.10678991828E+04  0.10678991828E+04  0.50400001928E-02 0.  1.
        1   -1    0    0  501    0  0.00000000000E+00  0.00000000000E+00 -0.14098635403E+03  0.14098635412E+03  0.50400001928E-02 0. -1.
    10030    2    1    2    0    0  0.00000000000E+00  0.00000000000E+00  0.92691282874E+03  0.12088855369E+04  0.77603920599E+03 0.  0.
        3    1    3    3  502    0 -0.24314400394E+03 -0.30355914439E+02 -0.52174184718E+01  0.24508716786E+03  0.10100000352E+00 0. -1.
       -3    1    3    3    0  502  0.24314400394E+03  0.30355914439E+02  0.93213024721E+03  0.96379836904E+03  0.10100000352E+00 0.  1.
</event>
<event>
 5   0  0.1656859E-02  0.7391930E+03  0.7818609E-02  0.9652459E-01
       -2   -1    0    0    0  501  0.00000000000E+00  0.00000000000E+00  0.54408570543E+03  0.54408570544E+03  0.25500000920E-02 0. -1.
        2   -1    0    0  501    0  0.00000000000E+00  0.00000000000E+00 -0.25106624725E+03  0.25106624726E+03  0.25500000920E-02 0.  1.
    10030    2    1    2    0    0  0.00000000000E+00  0.00000000000E+00  0.29301945818E+03  0.79515195270E+03  0.73919295519E+03 0.  0.
        4    1    3    3  502    0  0.12453966933E+03 -0.12647800876E+03 -0.20221236877E+03  0.26906926788E+03  0.12699999809E+01 0.  1.
       -4    1    3    3    0  502 -0.12453966933E+03  0.12647800876E+03  0.49523182695E+03  0.52608268481E+03  0.12699999809E+01 0. -1.
</event>
<event>
 5   0  0.9507815E-03  0.1010632E+04  0.7818609E-02  0.9296960E-01
        1   -1    0    0  501    0  0.00000000000E+00  0.00000000000E+00  0.89751534262E+03  0.89751534264E+03  0.50400001928E-02 0. -1.
       -1   -1    0    0    0  501  0.00000000000E+00  0.00000000000E+00 -0.28450154980E+03  0.28450154984E+03  0.50400001928E-02 0.  1.
    10030    2    1    2    0    0  0.00000000000E+00  0.00000000000E+00  0.61301379282E+03  0.11820168925E+04  0.10106324871E+04 0.  0.
        1    1    3    3  502    0  0.18871068854E+03  0.42171684136E+03  0.67134745623E+02  0.46686603255E+03  0.50400001928E-02 0. -1.
       -1    1    3    3    0  502 -0.18871068854E+03 -0.42171684136E+03  0.54587904720E+03  0.71515085993E+03  0.50400001928E-02 0.  1.
</event>
<event>
 5   0  0.9507815E-03  0.1005992E+04  0.7818609E-02  0.9301997E-01
        1   -1    0    0  501    0  0.00000000000E+00  0.00000000000E+00  0.10541941928E+04  0.10541941928E+04  0.50400001928E-02 0.  1.
       -1   -1    0    0    0  501  0.00000000000E+00  0.00000000000E+00 -0.23999858919E+03  0.23999858924E+03  0.50400001928E-02 0. -1.
    10030    2    1    2    0    0  0.00000000000E+00  0.00000000000E+00  0.81419560357E+03  0.12941927820E+04  0.10059922843E+04 0.  0.
        1    1    3    3  502    0  0.34349670944E+03  0.36707852225E+03  0.42817761967E+03  0.66035801267E+03  0.50400001928E-02 0. -1.
       -1    1    3    3    0  502 -0.34349670944E+03 -0.36707852225E+03  0.38601798390E+03  0.63383476933E+03  0.50400001928E-02 0.  1.
</event>
<event>
 5   0  0.1656859E-02  0.9808735E+03  0.7818609E-02  0.9329775E-01
        2   -1    0    0  501    0  0.00000000000E+00  0.00000000000E+00  0.22245408932E+03  0.22245408934E+03  0.25500000920E-02 0.  1.
       -2   -1    0    0    0  501  0.00000000000E+00  0.00000000000E+00 -0.10812487845E+04  0.10812487845E+04  0.25500000920E-02 0. -1.
    10030    2    1    2    0    0  0.00000000000E+00  0.00000000000E+00 -0.85879469517E+03  0.13037028738E+04  0.98087351620E+03 0.  0.
        4    1    3    3  502    0 -0.67058689857E+02 -0.42833780786E+03 -0.12469300256E+03  0.45113202426E+03  0.12699999809E+01 0.  1.
       -4    1    3    3    0  502  0.67058689857E+02  0.42833780786E+03 -0.73410169261E+03  0.85257084956E+03  0.12699999809E+01 0. -1.
</event>
<event>
 5   0  0.1663497E-02  0.1008338E+04  0.7818609E-02  0.9299447E-01
       -2   -1    0    0    0  501  0.00000000000E+00  0.00000000000E+00  0.16605266301E+03  0.16605266303E+03  0.25500000920E-02 0. -1.
        2   -1    0    0  501    0  0.00000000000E+00  0.00000000000E+00 -0.15307563359E+04  0.15307563359E+04  0.25500000920E-02 0.  1.
    10030    2    1    2    0    0  0.00000000000E+00  0.00000000000E+00 -0.13647036729E+04  0.16968089989E+04  0.10083375744E+04 0.  0.
        1    1    3    3  502    0 -0.42644498611E+03 -0.98265636718E+01 -0.23008090310E+03  0.48465359746E+03  0.50400001928E-02 0. -1.
       -1    1    3    3    0  502  0.42644498611E+03  0.98265636718E+01 -0.11346227698E+04  0.12121554014E+04  0.50400001928E-02 0.  1.
</event>
<event>
 5   0  0.1571895E-02  0.9764701E+03  0.7818609E-02  0.9334735E-01
       -2   -1    0    0    0  501  0.00000000000E+00  0.00000000000E+00  0.10136915833E+03  0.10136915836E+03  0.25500000920E-02 0.  1.
        2   -1    0    0  501    0  0.00000000000E+00  0.00000000000E+00 -0.23515385052E+04  0.23515385052E+04  0.25500000920E-02 0. -1.
    10030    2    1    2    0    0  0.00000000000E+00  0.00000000000E+00 -0.22501693469E+04  0.24529076636E+04  0.97647013081E+03 0.  0.
        2    1    3    3  502    0  0.53500444156E+02  0.38085129038E+03 -0.18806271283E+04  0.19195490091E+04  0.25500000920E-02 0. -1.
       -2    1    3    3    0  502 -0.53500444156E+02 -0.38085129038E+03 -0.36954221862E+03  0.53335865444E+03  0.25500000920E-02 0.  1.
</event>
<event>
 5   0  0.1656859E-02  0.9768538E+03  0.7818609E-02  0.9334302E-01
       -2   -1    0    0    0  501  0.00000000000E+00  0.00000000000E+00  0.33110767929E+03  0.33110767930E+03  0.25500000920E-02 0.  1.
        2   -1    0    0  501    0  0.00000000000E+00  0.00000000000E+00 -0.72049322011E+03  0.72049322012E+03  0.25500000920E-02 0. -1.
    10030    2    1    2    0    0  0.00000000000E+00  0.00000000000E+00 -0.38938554082E+03  0.10516008994E+04  0.97685380291E+03 0.  0.
        4    1    3    3  502    0 -0.28761270106E+03  0.36296850850E+03 -0.27599870783E+02  0.46392948790E+03  0.12699999809E+01 0.  1.
       -4    1    3    3    0  502  0.28761270106E+03 -0.36296850850E+03 -0.36178567003E+03  0.58767141152E+03  0.12699999809E+01 0. -1.
</event>
<event>
 5   0  0.9507815E-03  0.1002462E+04  0.7818609E-02  0.9305849E-01
        1   -1    0    0  501    0  0.00000000000E+00  0.00000000000E+00  0.10670157773E+04  0.10670157773E+04  0.50400001928E-02 0. -1.
       -1   -1    0    0    0  501  0.00000000000E+00  0.00000000000E+00 -0.23545347414E+03  0.23545347419E+03  0.50400001928E-02 0.  1.
    10030    2    1    2    0    0  0.00000000000E+00  0.00000000000E+00  0.83156230317E+03  0.13024692515E+04  0.10024621125E+04 0.  0.
        1    1    3    3  502    0 -0.21348783853E+03  0.39995348417E+03  0.69351130967E+03  0.82855161781E+03  0.50400001928E-02 0. -1.
       -1    1    3    3    0  502  0.21348783853E+03 -0.39995348417E+03  0.13805099349E+03  0.47391763370E+03  0.50400001928E-02 0.  1.
</event>
<event>
 5   0  0.1000773E-02  0.9763925E+03  0.7818609E-02  0.9334823E-01
       -1   -1    0    0    0  501  0.00000000000E+00  0.00000000000E+00  0.23348175086E+03  0.23348175092E+03  0.50400001928E-02 0.  1.
        1   -1    0    0  501    0  0.00000000000E+00  0.00000000000E+00 -0.10207888791E+04  0.10207888791E+04  0.50400001928E-02 0. -1.
    10030    2    1    2    0    0  0.00000000000E+00  0.00000000000E+00 -0.78730712819E+03  0.12542706300E+04  0.97639249236E+03 0.  0.
        3    1    3    3  502    0 -0.38898125678E+03  0.28848040664E+03 -0.47292683500E+03  0.67689523902E+03  0.10100000352E+00 0. -1.
       -3    1    3    3    0  502  0.38898125678E+03 -0.28848040664E+03 -0.31438029319E+03  0.57737539096E+03  0.10100000352E+00 0.  1.
</event>
<event>
 5   0  0.1571895E-02  0.1021073E+04  0.7818609E-02  0.9285730E-01
       -2   -1    0    0    0  501  0.00000000000E+00  0.00000000000E+00  0.30337246129E+03  0.30337246130E+03  0.25500000920E-02 0.  1.
        2   -1    0    0  501    0  0.00000000000E+00  0.00000000000E+00 -0.85916633833E+03  0.85916633833E+03  0.25500000920E-02 0. -1.
    10030    2    1    2    0    0  0.00000000000E+00  0.00000000000E+00 -0.55579387704E+03  0.11625387996E+04  0.10210727824E+04 0.  0.
        2    1    3    3  502    0 -0.30945465423E+03  0.40525970109E+03 -0.24887408809E+03  0.56739397255E+03  0.25500000920E-02 0.  1.
       -2    1    3    3    0  502  0.30945465423E+03 -0.40525970109E+03 -0.30691978895E+03  0.59514482709E+03  0.25500000920E-02 0. -1.
</event>
<event>
 5   0  0.9759443E-03  0.1009749E+04  0.7818609E-02  0.9297917E-01
       -1   -1    0    0    0  501  0.00000000000E+00  0.00000000000E+00  0.24587070020E+03  0.24587070025E+03  0.50400001928E-02 0.  1.
        1   -1    0    0  501    0  0.00000000000E+00  0.00000000000E+00 -0.10367156868E+04  0.10367156868E+04  0.50400001928E-02 0. -1.
    10030    2    1    2    0    0  0.00000000000E+00  0.00000000000E+00 -0.79084498658E+03  0.12825863870E+04  0.10097485070E+04 0.  0.
        2    1    3    3  502    0  0.28229915265E+03 -0.30066568359E+03 -0.25521903197E+02  0.41321184932E+03  0.25500000920E-02 0.  1.
       -2    1    3    3    0  502 -0.28229915265E+03  0.30066568359E+03 -0.76532308339E+03  0.86937453772E+03  0.25500000920E-02 0. -1.
</event>
<event>
 5   0  0.9471140E-03  0.1046070E+04  0.7818609E-02  0.9259411E-01
        1   -1    0    0  501    0  0.00000000000E+00  0.00000000000E+00  0.52201092904E+03  0.52201092907E+03  0.50400001928E-02 0.  1.
       -1   -1    0    0    0  501  0.00000000000E+00  0.00000000000E+00 -0.52406146807E+03  0.52406146809E+03  0.50400001928E-02 0. -1.
    10030    2    1    2    0    0  0.00000000000E+00  0.00000000000E+00 -0.20505390275E+01  0.10460723972E+04  0.10460703874E+04 0.  0.
        4    1    3    3  502    0 -0.32054856383E+03 -0.34597308047E+03 -0.22711295864E+03  0.52347938170E+03  0.12699999809E+01 0. -1.
       -4    1    3    3    0  502  0.32054856383E+03  0.34597308047E+03  0.22506241961E+03  0.52259301546E+03  0.12699999809E+01 0.  1.
</event>
<event>
 5   0  0.9471140E-03  0.1018120E+04  0.7818609E-02  0.9288891E-01
       -1   -1    0    0    0  501  0.00000000000E+00  0.00000000000E+00  0.64916576143E+03  0.64916576145E+03  0.50400001928E-02 0. -1.
        1   -1    0    0  501    0  0.00000000000E+00  0.00000000000E+00 -0.39919271739E+03  0.39919271742E+03  0.50400001928E-02 0.  1.
    10030    2    1    2    0    0  0.00000000000E+00  0.00000000000E+00  0.24997304404E+03  0.10483584789E+04  0.10181203158E+04 0.  0.
        4    1    3    3  502    0 -0.23085919178E+03 -0.45000082719E+03  0.65442428974E+02  0.50998140683E+03  0.12699999809E+01 0. -1.
       -4    1    3    3    0  502  0.23085919178E+03  0.45000082719E+03  0.18453061506E+03  0.53837707204E+03  0.12699999809E+01 0.  1.
</event>
<event>
 5   0  0.1571895E-02  0.1082917E+04  0.7818609E-02  0.9222004E-01
        2   -1    0    0  501    0  0.00000000000E+00  0.00000000000E+00  0.13695151707E+04  0.13695151707E+04  0.25500000920E-02 0. -1.
       -2   -1    0    0    0  501  0.00000000000E+00  0.00000000000E+00 -0.21407391108E+03  0.21407391109E+03  0.25500000920E-02 0.  1.
    10030    2    1    2    0    0  0.00000000000E+00  0.00000000000E+00  0.11554412596E+04  0.15835890818E+04  0.10829172986E+04 0.  0.
        2    1    3    3  502    0  0.34372608115E+03 -0.40970314927E+03  0.45386862052E+03  0.70142783954E+03  0.25500000920E-02 0.  1.
       -2    1    3    3    0  502 -0.34372608115E+03  0.40970314927E+03  0.70157263909E+03  0.88216124224E+03  0.25500000920E-02 0. -1.
</event>
<event>
 5   0  0.9507815E-03  0.9926489E+03  0.7818609E-02  0.9316644E-01
       -1   -1    0    0    0  501  0.00000000000E+00  0.00000000000E+00  0.25201598591E+03  0.25201598596E+03  0.50400001928E-02 0. -1.
        1   -1    0    0  501    0  0.00000000000E+00  0.00000000000E+00 -0.97746966933E+03  0.97746966934E+03  0.50400001928E-02 0.  1.
    10030    2    1    2    0    0  0.00000000000E+00  0.00000000000E+00 -0.72545368341E+03  0.12294856553E+04  0.99264894591E+03 0.  0.
        1    1    3    3  502    0  0.28994759801E+03  0.32304143347E+03 -0.64659543487E+02  0.43886926746E+03  0.50400001928E-02 0. -1.
       -1    1    3    3    0  502 -0.28994759801E+03 -0.32304143347E+03 -0.66079413993E+03  0.79061638784E+03  0.50400001928E-02 0.  1.
</event>
<event>
 5   0  0.1571895E-02  0.9188010E+03  0.7818609E-02  0.9402380E-01
        2   -1    0    0  501    0  0.00000000000E+00  0.00000000000E+00  0.43137750859E+03  0.43137750860E+03  0.25500000920E-02 0. -1.
       -2   -1    0    0    0  501  0.00000000000E+00  0.00000000000E+00 -0.48924391379E+03  0.48924391379E+03  0.25500000920E-02 0.  1.
    10030    2    1    2    0    0  0.00000000000E+00  0.00000000000E+00 -0.57866405198E+02  0.92062142239E+03  0.91880100268E+03 0.  0.
        2    1    3    3  502    0  0.14389671053E+03 -0.43185680585E+03  0.33175548545E+02  0.45640681534E+03  0.25500000920E-02 0.  1.
       -2    1    3    3    0  502 -0.14389671053E+03  0.43185680585E+03 -0.91041953742E+02  0.46421460706E+03  0.25500000920E-02 0. -1.
</event>
<event>
 5   0  0.1571895E-02  0.9685439E+03  0.7818609E-02  0.9343734E-01
       -2   -1    0    0    0  501  0.00000000000E+00  0.00000000000E+00  0.56915980534E+03  0.56915980534E+03  0.25500000920E-02 0.  1.
        2   -1    0    0  501    0  0.00000000000E+00  0.00000000000E+00 -0.41204480506E+03  0.41204480507E+03  0.25500000920E-02 0. -1.
    10030    2    1    2    0    0  0.00000000000E+00  0.00000000000E+00  0.15711500027E+03  0.98120461041E+03  0.96854394025E+03 0.  0.
        2    1    3    3  502    0 -0.30410146095E+03  0.35904201122E+03  0.19464367419E+03  0.50919055793E+03  0.25500000920E-02 0.  1.
       -2    1    3    3    0  502  0.30410146095E+03 -0.35904201122E+03 -0.37528673914E+02  0.47201405249E+03  0.25500000920E-02 0. -1.
</event>
<event>
 5   0  0.1571895E-02  0.9951010E+03  0.7818609E-02  0.9313934E-01
       -2   -1    0    0    0  501  0.00000000000E+00  0.00000000000E+00  0.20639758352E+03  0.20639758353E+03  0.25500000920E-02 0.  1.
        2   -1    0    0  501    0  0.00000000000E+00  0.00000000000E+00 -0.11994156127E+04  0.11994156127E+04  0.25500000920E-02 0. -1.
    10030    2    1    2    0    0  0.00000000000E+00  0.00000000000E+00 -0.99301802914E+03  0.14058131962E+04  0.99510096794E+03 0.  0.
        2    1    3    3  502    0  0.33580379273E+03 -0.35470925721E+03 -0.36268169429E+03  0.60837558773E+03  0.25500000920E-02 0.  1.
       -2    1    3    3    0  502 -0.33580379273E+03  0.35470925721E+03 -0.63033633485E+03  0.79743760847E+03  0.25500000920E-02 0. -1.
</event>
<event>
 5   0  0.1663497E-02  0.1044023E+04  0.7818609E-02  0.9261536E-01
       -2   -1    0    0    0  501  0.00000000000E+00  0.00000000000E+00  0.19494163425E+03  0.19494163427E+03  0.25500000920E-02 0. -1.
        2   -1    0    0  501    0  0.00000000000E+00  0.00000000000E+00 -0.13978349354E+04  0.13978349354E+04  0.25500000920E-02 0.  1.
    10030    2    1    2    0    0  0.00000000000E+00  0.00000000000E+00 -0.12028933012E+04  0.15927765697E+04  0.10440234226E+04 0.  0.
        1    1    3    3  502    0 -0.53727783595E+02 -0.14371783661E+03  0.15976392270E+03  0.22150847006E+03  0.50400001928E-02 0. -1.
       -1    1    3    3    0  502  0.53727783595E+02  0.14371783661E+03 -0.13626572239E+04  0.13712680996E+04  0.50400001928E-02 0.  1.
</event>
<event>
 5   0  0.9759443E-03  0.1016121E+04  0.7818609E-02  0.9291039E-01
       -1   -1    0    0    0  501  0.00000000000E+00  0.00000000000E+00  0.59994149740E+03  0.59994149742E+03  0.50400001928E-02 0. -1.
        1   -1    0    0  501    0  0.00000000000E+00  0.00000000000E+00 -0.43025071615E+03  0.43025071618E+03  0.50400001928E-02 0.  1.
    10030    2    1    2    0    0  0.00000000000E+00  0.00000000000E+00  0.16969078125E+03  0.10301922136E+04  0.10161205813E+04 0.  0.
        2    1    3    3  502    0 -0.48209712528E+03  0.32517170655E+02  0.24402363754E+03  0.54131556441E+03  0.25500000920E-02 0. -1.
       -2    1    3    3    0  502  0.48209712528E+03 -0.32517170655E+02 -0.74332856289E+02  0.48887664919E+03  0.25500000920E-02 0.  1.
</event>
<event>
 5   0  0.1656859E-02  0.1018434E+04  0.7818609E-02  0.9288554E-01
        2   -1    0    0  501    0  0.00000000000E+00  0.00000000000E+00  0.67670674894E+03  0.67670674894E+03  0.25500000920E-02 0.  1.
       -2   -1    0    0    0  501  0.00000000000E+00  0.00000000000E+00 -0.38318246944E+03  0.38318246945E+03  0.25500000920E-02 0. -1.
    10030    2    1    2    0    0  0.00000000000E+00  0.00000000000E+00  0.29352427950E+03  0.10598892184E+04  0.10184344125E+04 0.  0.
        4    1    3    3  502    0  0.47102204081E+03  0.18700364070E+03  0.19846772250E+03  0.54426388300E+03  0.12699999809E+01 0.  1.
       -4    1    3    3    0  502 -0.47102204081E+03 -0.18700364070E+03  0.95056556998E+02  0.51562533539E+03  0.12699999809E+01 0. -1.
</event>
<event>
 5   0  0.1617721E-02  0.1020936E+04  0.7818609E-02  0.9285876E-01
       -2   -1    0    0    0  501  0.00000000000E+00  0.00000000000E+00  0.43759378613E+03  0.43759378613E+03  0.25500000920E-02 0.  1.
        2   -1    0    0  501    0  0.00000000000E+00  0.00000000000E+00 -0.59547860618E+03  0.59547860618E+03  0.25500000920E-02 0. -1.
    10030    2    1    2    0    0  0.00000000000E+00  0.00000000000E+00 -0.15788482005E+03  0.10330723923E+04  0.10209363111E+04 0.  0.
        5    1    3    3  502    0  0.94654743479E+02 -0.98064554889E+02  0.41881916303E+03  0.44046311844E+03  0.46999998093E+01 0.  1.
       -5    1    3    3    0  502 -0.94654743479E+02  0.98064554889E+02 -0.57670398308E+03  0.59260927388E+03  0.46999998093E+01 0. -1.
</event>
<event>
 5   0  0.1000773E-02  0.1035478E+04  0.7818609E-02  0.9270467E-01
        1   -1    0    0  501    0  0.00000000000E+00  0.00000000000E+00  0.41632831599E+03  0.41632831602E+03  0.50400001928E-02 0.  1.
       -1   -1    0    0    0  501  0.00000000000E+00  0.00000000000E+00 -0.64385145005E+03  0.64385145007E+03  0.50400001928E-02 0. -1.
    10030    2    1    2    0    0  0.00000000000E+00  0.00000000000E+00 -0.22752313405E+03  0.10601797661E+04  0.10354778413E+04 0.  0.
        3    1    3    3  502    0  0.46154786689E+03  0.21399975660E+02  0.12541159484E+03  0.47876139225E+03  0.10100000352E+00 0.  1.
       -3    1    3    3    0  502 -0.46154786689E+03 -0.21399975660E+02 -0.35293472889E+03  0.58141837384E+03  0.10100000352E+00 0. -1.
</event>
<event>
 5   0  0.1617721E-02  0.1021428E+04  0.7818609E-02  0.9285350E-01
       -2   -1    0    0    0  501  0.00000000000E+00  0.00000000000E+00  0.13474522225E+03  0.13474522227E+03  0.25500000920E-02 0. -1.
        2   -1    0    0  501    0  0.00000000000E+00  0.00000000000E+00 -0.19357184509E+04  0.19357184509E+04  0.25500000920E-02 0.  1.
    10030    2    1    2    0    0  0.00000000000E+00  0.00000000000E+00 -0.18009732287E+04  0.20704636732E+04  0.10214280452E+04 0.  0.
        5    1    3    3  502    0  0.37487091485E+03  0.26188114523E+03 -0.13613705898E+04  0.14361274003E+04  0.46999998093E+01 0.  1.
       -5    1    3    3    0  502 -0.37487091485E+03 -0.26188114523E+03 -0.43960263882E+03  0.63433627288E+03  0.46999998093E+01 0. -1.
</event>
<event>
 5   0  0.9396660E-03  0.9521442E+03  0.7818609E-02  0.9362648E-01
       -1   -1    0    0    0  501  0.00000000000E+00  0.00000000000E+00  0.20658203189E+03  0.20658203196E+03  0.50400001928E-02 0.  1.
        1   -1    0    0  501    0  0.00000000000E+00  0.00000000000E+00 -0.10971169893E+04  0.10971169893E+04  0.50400001928E-02 0. -1.
    10030    2    1    2    0    0  0.00000000000E+00  0.00000000000E+00 -0.89053495744E+03  0.13036990213E+04  0.95214422632E+03 0.  0.
        5    1    3    3  502    0  0.36401987233E+01  0.39711216858E+03 -0.80470187780E+03  0.89737312619E+03  0.46999998093E+01 0.  1.
       -5    1    3    3    0  502 -0.36401987233E+01 -0.39711216858E+03 -0.85833079641E+02  0.40632589511E+03  0.46999998093E+01 0. -1.
</event>
<event>
 5   0  0.1617721E-02  0.1009490E+04  0.7818609E-02  0.9298197E-01
       -2   -1    0    0    0  501  0.00000000000E+00  0.00000000000E+00  0.21826621119E+03  0.21826621121E+03  0.25500000920E-02 0. -1.
        2   -1    0    0  501    0  0.00000000000E+00  0.00000000000E+00 -0.11672323480E+04  0.11672323480E+04  0.25500000920E-02 0.  1.
    10030    2    1    2    0    0  0.00000000000E+00  0.00000000000E+00 -0.94896613676E+03  0.13854985592E+04  0.10094897368E+04 0.  0.
        5    1    3    3  502    0 -0.45377129973E+02 -0.50078668781E+03 -0.53429053380E+03  0.73371306048E+03  0.46999998093E+01 0. -1.
       -5    1    3    3    0  502  0.45377129973E+02  0.50078668781E+03 -0.41467560295E+03  0.65178549868E+03  0.46999998093E+01 0.  1.
</event>
<event>
 5   0  0.1571895E-02  0.1000108E+04  0.7818609E-02  0.9308426E-01
       -2   -1    0    0    0  501  0.00000000000E+00  0.00000000000E+00  0.16553300399E+03  0.16553300401E+03  0.25500000920E-02 0.  1.
        2   -1    0    0  501    0  0.00000000000E+00  0.00000000000E+00 -0.15105998839E+04  0.15105998840E+04  0.25500000920E-02 0. -1.
    10030    2    1    2    0    0  0.00000000000E+00  0.00000000000E+00 -0.13450668800E+04  0.16761328880E+04  0.10001082674E+04 0.  0.
        2    1    3    3  502    0  0.35228761519E+03 -0.28692668537E+03 -0.10225652363E+04  0.11189607451E+04  0.25500000920E-02 0. -1.
       -2    1    3    3    0  502 -0.35228761519E+03  0.28692668537E+03 -0.32250164362E+03  0.55717214282E+03  0.25500000920E-02 0.  1.
</event>
<event>
 5   0  0.9507815E-03  0.1014953E+04  0.7818609E-02  0.9292295E-01
        1   -1    0    0  501    0  0.00000000000E+00  0.00000000000E+00  0.38894033323E+03  0.38894033327E+03  0.50400001928E-02 0.  1.
       -1   -1    0    0    0  501  0.00000000000E+00  0.00000000000E+00 -0.66213799669E+03  0.66213799671E+03  0.50400001928E-02 0. -1.
    10030    2    1    2    0    0  0.00000000000E+00  0.00000000000E+00 -0.27319766346E+03  0.10510783300E+04  0.10149525567E+04 0.  0.
        1    1    3    3  502    0 -0.54819596268E+01  0.33192114450E+02 -0.66098194016E+03  0.66183751298E+03  0.50400001928E-02 0. -1.
       -1    1    3    3    0  502  0.54819596268E+01 -0.33192114450E+02  0.38778427670E+03  0.38924081700E+03  0.50400001928E-02 0.  1.
</event>
<event>
 5   0  0.9507815E-03  0.9942157E+03  0.7818609E-02  0.9314912E-01
       -1   -1    0    0    0  501  0.00000000000E+00  0.00000000000E+00  0.68769696891E+03  0.68769696893E+03  0.50400001928E-02 0.  1.
        1   -1    0    0  501    0  0.00000000000E+00  0.00000000000E+00 -0.35933881600E+03  0.35933881603E+03  0.50400001928E-02 0. -1.
    10030    2    1    2    0    0  0.00000000000E+00  0.00000000000E+00  0.32835815291E+03  0.10470357850E+04  0.99421570014E+03 0.  0.
        1    1    3    3  502    0  0.23728301779E+03  0.31832838964E+03  0.47920329664E+03  0.62231181390E+03  0.50400001928E-02 0.  1.
       -1    1    3    3    0  502 -0.23728301779E+03 -0.31832838964E+03 -0.15084514373E+03  0.42472397106E+03  0.50400001928E-02 0. -1.
</event>
<event>
 5   0  0.1656859E-02  0.9565607E+03  0.7818609E-02  0.9357515E-01
       -2   -1    0    0    0  501  0.00000000000E+00  0.00000000000E+00  0.14223300536E+03  0.14223300539E+03  0.25500000920E-02 0.  1.
        2   -1    0    0  501    0  0.00000000000E+00  0.00000000000E+00 -0.16082912942E+04  0.16082912942E+04  0.25500000920E-02 0. -1.
    10030    2    1    2    0    0  0.00000000000E+00  0.00000000000E+00 -0.14660582888E+04  0.17505242996E+04  0.95656072320E+03 0.  0.
        4    1    3    3  502    0 -0.32376496221E+03 -0.19991338482E+03 -0.20276119140E+03  0.43116449973E+03  0.12699999809E+01 0.  1.
       -4    1    3    3    0  502  0.32376496221E+03  0.19991338482E+03 -0.12632970974E+04  0.13193597998E+04  0.12699999809E+01 0. -1.
</event>
<event>
 5   0  0.1656859E-02  0.9035984E+03  0.7818609E-02  0.9421094E-01
        2   -1    0    0  501    0  0.00000000000E+00  0.00000000000E+00  0.14196932059E+04  0.14196932059E+04  0.25500000920E-02 0. -1.
       -2   -1    0    0    0  501  0.00000000000E+00  0.00000000000E+00 -0.14377930017E+03  0.14377930019E+03  0.25500000920E-02 0.  1.
    10030    2    1    2    0    0  0.00000000000E+00  0.00000000000E+00  0.12759139057E+04  0.15634725060E+04  0.90359835239E+03 0.  0.
        4    1    3    3  502    0  0.35893906362E+03 -0.25384842151E+03  0.81814326288E+03  0.92878215098E+03  0.12699999809E+01 0. -1.
       -4    1    3    3    0  502 -0.35893906362E+03  0.25384842151E+03  0.45777064281E+03  0.63469035506E+03  0.12699999809E+01 0.  1.
</event>
<event>
 5   0  0.1663497E-02  0.1030429E+04  0.7818609E-02  0.9275786E-01
       -2   -1    0    0    0  501  0.00000000000E+00  0.00000000000E+00  0.64843324760E+03  0.64843324761E+03  0.25500000920E-02 0. -1.
        2   -1    0    0  501    0  0.00000000000E+00  0.00000000000E+00 -0.40936512362E+03  0.40936512363E+03  0.25500000920E-02 0.  1.
    10030    2    1    2    0    0  0.00000000000E+00  0.00000000000E+00  0.23906812398E+03  0.10577983712E+04  0.10304289526E+04 0.  0.
        1    1    3    3  502    0  0.49007012594E+03  0.15859410370E+03  0.13101772079E+03  0.53149455430E+03  0.50400001928E-02 0.  1.
       -1    1    3    3    0  502 -0.49007012594E+03 -0.15859410370E+03  0.10805040319E+03  0.52630381693E+03  0.50400001928E-02 0. -1.
</event>
<event>
 5   0  0.1617721E-02  0.9798564E+03  0.7818609E-02  0.9330918E-01
       -2   -1    0    0    0  501  0.00000000000E+00  0.00000000000E+00  0.24403793524E+03  0.24403793526E+03  0.25500000920E-02 0. -1.
        2   -1    0    0  501    0  0.00000000000E+00  0.00000000000E+00 -0.98357502415E+03  0.98357502415E+03  0.25500000920E-02 0.  1.
    10030    2    1    2    0    0  0.00000000000E+00  0.00000000000E+00 -0.73953708891E+03  0.12276129594E+04  0.97985635286E+03 0.  0.
        5    1    3    3  502    0 -0.21083255787E+03 -0.42616376986E+02 -0.92122322333E+03  0.94601312900E+03  0.46999998093E+01 0.  1.
       -5    1    3    3    0  502  0.21083255787E+03  0.42616376986E+02  0.18168613442E+03  0.28159983041E+03  0.46999998093E+01 0. -1.
</event>
<event>
 5   0  0.1000773E-02  0.9899906E+03  0.7818609E-02  0.9319592E-01
       -1   -1    0    0    0  501  0.00000000000E+00  0.00000000000E+00  0.15180517806E+03  0.15180517814E+03  0.50400001928E-02 0.  1.
        1   -1    0    0  501    0  0.00000000000E+00  0.00000000000E+00 -0.16140447945E+04  0.16140447945E+04  0.50400001928E-02 0. -1.
    10030    2    1    2    0    0  0.00000000000E+00  0.00000000000E+00 -0.14622396165E+04  0.17658499727E+04  0.98999062119E+03 0.  0.
        3    1    3    3  502    0 -0.31572979923E+03 -0.22285173573E+03 -0.17940393584E+03  0.42606805165E+03  0.10100000352E+00 0.  1.
       -3    1    3    3    0  502  0.31572979923E+03  0.22285173573E+03 -0.12828356806E+04  0.13397819210E+04  0.10100000352E+00 0. -1.
</event>
<event>
 5   0  0.9507815E-03  0.9996373E+03  0.7818609E-02  0.9308943E-01
        1   -1    0    0  501    0  0.00000000000E+00  0.00000000000E+00  0.10337892488E+04  0.10337892488E+04  0.50400001928E-02 0. -1.
       -1   -1    0    0    0  501  0.00000000000E+00  0.00000000000E+00 -0.24165339041E+03  0.24165339046E+03  0.50400001928E-02 0.  1.
    10030    2    1    2    0    0  0.00000000000E+00  0.00000000000E+00  0.79213585837E+03  0.12754426392E+04  0.99963728817E+03 0.  0.
        1    1    3    3  502    0 -0.25163611279E+03  0.38365551194E+03  0.14310896528E+03  0.48061675072E+03  0.50400001928E-02 0. -1.
       -1    1    3    3    0  502  0.25163611279E+03 -0.38365551194E+03  0.64902689308E+03  0.79482588853E+03  0.50400001928E-02 0.  1.
</event>
<event>
 5   0  0.1571895E-02  0.1005783E+04  0.7818609E-02  0.9302224E-01
        2   -1    0    0  501    0  0.00000000000E+00  0.00000000000E+00  0.11412406230E+04  0.11412406230E+04  0.25500000920E-02 0.  1.
       -2   -1    0    0    0  501  0.00000000000E+00  0.00000000000E+00 -0.22160094538E+03  0.22160094540E+03  0.25500000920E-02 0. -1.
    10030    2    1    2    0    0  0.00000000000E+00  0.00000000000E+00  0.91963967766E+03  0.13628415684E+04  0.10057832788E+04 0.  0.
        2    1    3    3  502    0 -0.20460791066E+03  0.34090185954E+03  0.42571678334E+02  0.39986350514E+03  0.25500000920E-02 0. -1.
       -2    1    3    3    0  502  0.20460791066E+03 -0.34090185954E+03  0.87706799933E+03  0.96297806330E+03  0.25500000920E-02 0.  1.
</event>
<event>
 5   0  0.9396660E-03  0.1022471E+04  0.7818609E-02  0.9284237E-01
       -1   -1    0    0    0  501  0.00000000000E+00  0.00000000000E+00  0.27147019764E+03  0.27147019768E+03  0.50400001928E-02 0.  1.
        1   -1    0    0  501    0  0.00000000000E+00  0.00000000000E+00 -0.96276402162E+03  0.96276402163E+03  0.50400001928E-02 0. -1.
    10030    2    1    2    0    0  0.00000000000E+00  0.00000000000E+00 -0.69129382398E+03  0.12342342193E+04  0.10224710055E+04 0.  0.
        5    1    3    3  502    0  0.33526126083E+03 -0.85964288892E+02 -0.79979869490E+03  0.87148724278E+03  0.46999998093E+01 0. -1.
       -5    1    3    3    0  502 -0.33526126083E+03  0.85964288892E+02  0.10850487091E+03  0.36274697654E+03  0.46999998093E+01 0.  1.
</event>
<event>
 5   0  0.9507815E-03  0.1023631E+04  0.7818609E-02  0.9283000E-01
        1   -1    0    0  501    0  0.00000000000E+00  0.00000000000E+00  0.82322718509E+03  0.82322718511E+03  0.50400001928E-02 0.  1.
       -1   -1    0    0    0  501  0.00000000000E+00  0.00000000000E+00 -0.31820483019E+03  0.31820483023E+03  0.50400001928E-02 0. -1.
    10030    2    1    2    0    0  0.00000000000E+00  0.00000000000E+00  0.50502235490E+03  0.11414320153E+04  0.10236305323E+04 0.  0.
        1    1    3    3  502    0 -0.43783112484E+03  0.19055107696E+03  0.47054294890E+02  0.47981237323E+03  0.50400001928E-02 0. -1.
       -1    1    3    3    0  502  0.43783112484E+03 -0.19055107696E+03  0.45796806001E+03  0.66161964211E+03  0.50400001928E-02 0.  1.
</event>
<event>
 5   0  0.9759443E-03  0.1000749E+04  0.7818609E-02  0.9307724E-01
       -1   -1    0    0    0  501  0.00000000000E+00  0.00000000000E+00  0.72732134581E+03  0.72732134583E+03  0.50400001928E-02 0. -1.
        1   -1    0    0  501    0  0.00000000000E+00  0.00000000000E+00 -0.34424180482E+03  0.34424180486E+03  0.50400001928E-02 0.  1.
    10030    2    1    2    0    0  0.00000000000E+00  0.00000000000E+00  0.38307954099E+03  0.10715631507E+04  0.10007485454E+04 0.  0.
        2    1    3    3  502    0 -0.39636177985E+03  0.26175258105E+03  0.23061156524E+02  0.47555114463E+03  0.25500000920E-02 0. -1.
       -2    1    3    3    0  502  0.39636177985E+03 -0.26175258105E+03  0.36001838446E+03  0.59601200606E+03  0.25500000920E-02 0.  1.
</event>
<event>
 5   0  0.1571895E-02  0.1007869E+04  0.7818609E-02  0.9299956E-01
        2   -1    0    0  501    0  0.00000000000E+00  0.00000000000E+00  0.24833065977E+04  0.24833065977E+04  0.25500000920E-02 0. -1.
       -2   -1    0    0    0  501  0.00000000000E+00  0.00000000000E+00 -0.10226292277E+03  0.10226292280E+03  0.25500000920E-02 0.  1.
    10030    2    1    2    0    0  0.00000000000E+00  0.00000000000E+00  0.23810436749E+04  0.25855695205E+04  0.10078694179E+04 0.  0.
        2    1    3    3  502    0 -0.35604613022E+03  0.28705974177E+03  0.17333777022E+04  0.17926991941E+04  0.25500000920E-02 0. -1.
       -2    1    3    3    0  502  0.35604613022E+03 -0.28705974177E+03  0.64766597276E+03  0.79287032639E+03  0.25500000920E-02 0.  1.
</event>
<event>
 5   0  0.1598986E-02  0.1088826E+04  0.7818609E-02  0.9216151E-01
        2   -1    0    0  501    0  0.00000000000E+00  0.00000000000E+00  0.11566893788E+04  0.11566893788E+04  0.25500000920E-02 0.  1.
       -2   -1    0    0    0  501  0.00000000000E+00  0.00000000000E+00 -0.25623626854E+03  0.25623626855E+03  0.25500000920E-02 0. -1.
    10030    2    1    2    0    0  0.00000000000E+00  0.00000000000E+00  0.90045311023E+03  0.14129256473E+04  0.10888264697E+04 0.  0.
        3    1    3    3  502    0 -0.23000553098E+03  0.29991660561E+03 -0.58239369502E+02  0.38241907505E+03  0.10100000352E+00 0. -1.
       -3    1    3    3    0  502  0.23000553098E+03 -0.29991660561E+03  0.95869247973E+03  0.10305065723E+04  0.10100000352E+00 0.  1.
</event>
<event>
 5   0  0.9396660E-03  0.1001134E+04  0.7818609E-02  0.9307302E-01
       -1   -1    0    0    0  501  0.00000000000E+00  0.00000000000E+00  0.18222046467E+03  0.18222046474E+03  0.50400001928E-02 0. -1.
        1   -1    0    0  501    0  0.00000000000E+00  0.00000000000E+00 -0.13750786517E+04  0.13750786517E+04  0.50400001928E-02 0.  1.
    10030    2    1    2    0    0  0.00000000000E+00  0.00000000000E+00 -0.11928581870E+04  0.15572991164E+04  0.10011342985E+04 0.  0.
        5    1    3    3  502    0 -0.28874129711E+03  0.35371233525E+03 -0.91545188004E+03  0.10230142655E+04  0.46999998093E+01 0.  1.
       -5    1    3    3    0  502  0.28874129711E+03 -0.35371233525E+03 -0.27740630695E+03  0.53428485090E+03  0.46999998093E+01 0. -1.
</event>
<event>
 5   0  0.9507815E-03  0.1023710E+04  0.7818609E-02  0.9282915E-01
       -1   -1    0    0    0  501  0.00000000000E+00  0.00000000000E+00  0.57203358971E+03  0.57203358973E+03  0.50400001928E-02 0. -1.
        1   -1    0    0  501    0  0.00000000000E+00  0.00000000000E+00 -0.45800759269E+03  0.45800759272E+03  0.50400001928E-02 0.  1.
    10030    2    1    2    0    0  0.00000000000E+00  0.00000000000E+00  0.11402599701E+03  0.10300411825E+04  0.10237103641E+04 0.  0.
        1    1    3    3  502    0  0.26165941908E+03 -0.30150278372E+03  0.37934728308E+03  0.55070313363E+03  0.50400001928E-02 0. -1.
       -1    1    3    3    0  502 -0.26165941908E+03  0.30150278372E+03 -0.26532128607E+03  0.47933804882E+03  0.50400001928E-02 0.  1.
</event>
<event>
 5   0  0.1000773E-02  0.1012417E+04  0.7818609E-02  0.9295030E-01
       -1   -1    0    0    0  501  0.00000000000E+00  0.00000000000E+00  0.57100696878E+03  0.57100696881E+03  0.50400001928E-02 0. -1.
        1   -1    0    0  501    0  0.00000000000E+00  0.00000000000E+00 -0.44876338141E+03  0.44876338144E+03  0.50400001928E-02 0.  1.
    10030    2    1    2    0    0  0.00000000000E+00  0.00000000000E+00  0.12224358737E+03  0.10197703502E+04  0.10124169460E+04 0.  0.
        3    1    3    3  502    0  0.20781798337E+03 -0.35432852780E+03 -0.23684768926E+03  0.47416648756E+03  0.10100000352E+00 0.  1.
       -3    1    3    3    0  502 -0.20781798337E+03  0.35432852780E+03  0.35909127663E+03  0.54560386268E+03  0.10100000352E+00 0. -1.
</event>
<event>
 5   0  0.1617721E-02  0.9560751E+03  0.7818609E-02  0.9358078E-01
       -2   -1    0    0    0  501  0.00000000000E+00  0.00000000000E+00  0.28369416905E+03  0.28369416906E+03  0.25500000920E-02 0. -1.
        2   -1    0    0  501    0  0.00000000000E+00  0.00000000000E+00 -0.80551488326E+03  0.80551488327E+03  0.25500000920E-02 0.  1.
    10030    2    1    2    0    0  0.00000000000E+00  0.00000000000E+00 -0.52182071422E+03  0.10892090523E+04  0.95607505034E+03 0.  0.
        5    1    3    3  502    0  0.19305084387E+03  0.83021631440E+01 -0.75901206477E+03  0.78323620875E+03  0.46999998093E+01 0.  1.
       -5    1    3    3    0  502 -0.19305084387E+03 -0.83021631440E+01  0.23719135055E+03  0.30597284358E+03  0.46999998093E+01 0. -1.
</event>
<event>
 5   0  0.6314750E-03  0.1019858E+04  0.7818609E-02  0.9287029E-01
        3   -1    0    0  501    0  0.00000000000E+00  0.00000000000E+00  0.33561664991E+03  0.33561666511E+03  0.10100000352E+00 0.  1.
       -3   -1    0    0    0  501  0.00000000000E+00  0.00000000000E+00 -0.77477540441E+03  0.77477541099E+03  0.10100000352E+00 0. -1.
    10030    2    1    2    0    0  0.00000000000E+00  0.00000000000E+00 -0.43915875450E+03  0.11103920761E+04  0.10198579073E+04 0.  0.
        2    1    3    3  502    0 -0.48076765803E+03  0.14192710537E+03 -0.32140536714E+03  0.59546809677E+03  0.25500000920E-02 0. -1.
       -2    1    3    3    0  502  0.48076765803E+03 -0.14192710537E+03 -0.11775338736E+03  0.51492397933E+03  0.25500000920E-02 0.  1.
</event>
<event>
 5   0  0.1571895E-02  0.7927285E+03  0.7818609E-02  0.9570602E-01
        2   -1    0    0  501    0  0.00000000000E+00  0.00000000000E+00  0.59655878458E+03  0.59655878459E+03  0.25500000920E-02 0. -1.
       -2   -1    0    0    0  501  0.00000000000E+00  0.00000000000E+00 -0.26335146971E+03  0.26335146972E+03  0.25500000920E-02 0.  1.
    10030    2    1    2    0    0  0.00000000000E+00  0.00000000000E+00  0.33320731487E+03  0.85991025431E+03  0.79272853536E+03 0.  0.
        2    1    3    3  502    0  0.20556671658E+03 -0.14633968946E+03  0.49817398065E+03  0.55843557792E+03  0.25500000920E-02 0. -1.
       -2    1    3    3    0  502 -0.20556671658E+03  0.14633968946E+03 -0.16496666578E+03  0.30147467639E+03  0.25500000920E-02 0.  1.
</event>
<event>
 5   0  0.1571895E-02  0.1009812E+04  0.7818609E-02  0.9297849E-01
       -2   -1    0    0    0  501  0.00000000000E+00  0.00000000000E+00  0.16508901281E+03  0.16508901283E+03  0.25500000920E-02 0.  1.
        2   -1    0    0  501    0  0.00000000000E+00  0.00000000000E+00 -0.15441965776E+04  0.15441965776E+04  0.25500000920E-02 0. -1.
    10030    2    1    2    0    0  0.00000000000E+00  0.00000000000E+00 -0.13791075648E+04  0.17092855904E+04  0.10098116430E+04 0.  0.
        2    1    3    3  502    0  0.27938802043E+03  0.38719937721E+03 -0.96742559653E+03  0.10788388705E+04  0.25500000920E-02 0. -1.
       -2    1    3    3    0  502 -0.27938802043E+03 -0.38719937721E+03 -0.41168196823E+03  0.63044671991E+03  0.25500000920E-02 0.  1.
</event>
<event>
 5   0  0.1617721E-02  0.9676389E+03  0.7818609E-02  0.9344768E-01
        2   -1    0    0  501    0  0.00000000000E+00  0.00000000000E+00  0.89034719219E+03  0.89034719220E+03  0.25500000920E-02 0. -1.
       -2   -1    0    0    0  501  0.00000000000E+00  0.00000000000E+00 -0.26291008429E+03  0.26291008431E+03  0.25500000920E-02 0.  1.
    10030    2    1    2    0    0  0.00000000000E+00  0.00000000000E+00  0.62743710790E+03  0.11532572765E+04  0.96763889000E+03 0.  0.
        5    1    3    3  502    0  0.34550840023E+03  0.13868867663E+03  0.68193025305E+03  0.77695660347E+03  0.46999998093E+01 0. -1.
       -5    1    3    3    0  502 -0.34550840023E+03 -0.13868867663E+03 -0.54493145152E+02  0.37630067303E+03  0.46999998093E+01 0.  1.
</event>
<event>
 5   0  0.1663497E-02  0.1024278E+04  0.7818609E-02  0.9282311E-01
       -2   -1    0    0    0  501  0.00000000000E+00  0.00000000000E+00  0.62713926428E+03  0.62713926429E+03  0.25500000920E-02 0.  1.
        2   -1    0    0  501    0  0.00000000000E+00  0.00000000000E+00 -0.41822624925E+03  0.41822624926E+03  0.25500000920E-02 0. -1.
    10030    2    1    2    0    0  0.00000000000E+00  0.00000000000E+00  0.20891301503E+03  0.10453655135E+04  0.10242775059E+04 0.  0.
        1    1    3    3  502    0 -0.36016535556E+03 -0.30171642916E+03  0.31245181549E+03  0.56424996589E+03  0.50400001928E-02 0.  1.
       -1    1    3    3    0  502  0.36016535556E+03  0.30171642916E+03 -0.10353880046E+03  0.48111554766E+03  0.50400001928E-02 0. -1.
</event>
<event>
 5   0  0.1571895E-02  0.1001145E+04  0.7818609E-02  0.9307290E-01
        2   -1    0    0  501    0  0.00000000000E+00  0.00000000000E+00  0.39399884985E+03  0.39399884986E+03  0.25500000920E-02 0. -1.
       -2   -1    0    0    0  501  0.00000000000E+00  0.00000000000E+00 -0.63597393175E+03  0.63597393176E+03  0.25500000920E-02 0.  1.
    10030    2    1    2    0    0  0.00000000000E+00  0.00000000000E+00 -0.24197508190E+03  0.10299727816E+04  0.10011453394E+04 0.  0.
        2    1    3    3  502    0 -0.33611911487E+02 -0.78936262949E+02  0.38637849174E+03  0.39578912705E+03  0.25500000920E-02 0. -1.
       -2    1    3    3    0  502  0.33611911487E+02  0.78936262949E+02 -0.62835357364E+03  0.63418365457E+03  0.25500000920E-02 0.  1.
</event>
<event>
 5   0  0.1663497E-02  0.9807124E+03  0.7818609E-02  0.9329956E-01
       -2   -1    0    0    0  501  0.00000000000E+00  0.00000000000E+00  0.47406378650E+03  0.47406378651E+03  0.25500000920E-02 0. -1.
        2   -1    0    0  501    0  0.00000000000E+00  0.00000000000E+00 -0.50720854780E+03  0.50720854781E+03  0.25500000920E-02 0.  1.
    10030    2    1    2    0    0  0.00000000000E+00  0.00000000000E+00 -0.33144761303E+02  0.98127233432E+03  0.98071240377E+03 0.  0.
        1    1    3    3  502    0 -0.38217678020E+03  0.90804257564E+01 -0.32384323595E+03  0.50101495682E+03  0.50400001928E-02 0.  1.
       -1    1    3    3    0  502  0.38217678020E+03 -0.90804257564E+01  0.29069847465E+03  0.48025737750E+03  0.50400001928E-02 0. -1.
</event>
<event>
 5   0  0.9471140E-03  0.1034396E+04  0.7818609E-02  0.9271604E-01
        1   -1    0    0  501    0  0.00000000000E+00  0.00000000000E+00  0.18375727622E+03  0.18375727629E+03  0.50400001928E-02 0. -1.
       -1   -1    0    0    0  501  0.00000000000E+00  0.00000000000E+00 -0.14556905641E+04  0.14556905641E+04  0.50400001928E-02 0.  1.
    10030    2    1    2    0    0  0.00000000000E+00  0.00000000000E+00 -0.12719332879E+04  0.16394478404E+04  0.10343959264E+04 0.  0.
        4    1    3    3  502    0 -0.41328467517E+03 -0.47667116281E+02 -0.11229711855E+04  0.11975567932E+04  0.12699999809E+01 0.  1.
       -4    1    3    3    0  502  0.41328467517E+03  0.47667116281E+02 -0.14896210240E+03  0.44189104716E+03  0.12699999809E+01 0. -1.
</event>
<event>
 5   0  0.9471140E-03  0.1014964E+04  0.7818609E-02  0.9292283E-01
       -1   -1    0    0    0  501  0.00000000000E+00  0.00000000000E+00  0.65470955052E+03  0.65470955054E+03  0.50400001928E-02 0. -1.
        1   -1    0    0  501    0  0.00000000000E+00  0.00000000000E+00 -0.39336196464E+03  0.39336196467E+03  0.50400001928E-02 0.  1.
    10030    2    1    2    0    0  0.00000000000E+00  0.00000000000E+00  0.26134758589E+03  0.10480715152E+04  0.10149637138E+04 0.  0.
        4    1    3    3  502    0 -0.36129264320E+03  0.28042413213E+03  0.35777067951E+03  0.58066473970E+03  0.12699999809E+01 0. -1.
       -4    1    3    3    0  502  0.36129264320E+03 -0.28042413213E+03 -0.96423093619E+02  0.46740677551E+03  0.12699999809E+01 0.  1.
</event>
<event>
 5   0  0.9471140E-03  0.1049638E+04  0.7818609E-02  0.9255718E-01
       -1   -1    0    0    0  501  0.00000000000E+00  0.00000000000E+00  0.10543338373E+04  0.10543338373E+04  0.50400001928E-02 0. -1.
        1   -1    0    0  501    0  0.00000000000E+00  0.00000000000E+00 -0.26124063987E+03  0.26124063991E+03  0.50400001928E-02 0.  1.
    10030    2    1    2    0    0  0.00000000000E+00  0.00000000000E+00  0.79309319740E+03  0.13155744772E+04  0.10496377400E+04 0.  0.
        4    1    3    3  502    0  0.40547796066E+03  0.24484232326E+03  0.67979801114E+03  0.82854516394E+03  0.12699999809E+01 0. -1.
       -4    1    3    3    0  502 -0.40547796066E+03 -0.24484232326E+03  0.11329518626E+03  0.48702931325E+03  0.12699999809E+01 0.  1.
</event>
<event>
 5   0  0.1656859E-02  0.9864523E+03  0.7818609E-02  0.9323530E-01
       -2   -1    0    0    0  501  0.00000000000E+00  0.00000000000E+00  0.58511668290E+03  0.58511668290E+03  0.25500000920E-02 0.  1.
        2   -1    0    0  501    0  0.00000000000E+00  0.00000000000E+00 -0.41576669360E+03  0.41576669361E+03  0.25500000920E-02 0. -1.
    10030    2    1    2    0    0  0.00000000000E+00  0.00000000000E+00  0.16934998930E+03  0.10008833765E+04  0.98645228699E+03 0.  0.
        4    1    3    3  502    0  0.47474862565E+03 -0.96635126706E+02  0.17847093036E+03  0.51631200950E+03  0.12699999809E+01 0.  1.
       -4    1    3    3    0  502 -0.47474862565E+03  0.96635126706E+02 -0.91209410605E+01  0.48457136702E+03  0.12699999809E+01 0. -1.
</event>
<event>
 5   0  0.9396660E-03  0.1215367E+04  0.7818609E-02  0.9099511E-01
        1   -1    0    0  501    0  0.00000000000E+00  0.00000000000E+00  0.54058056402E+03  0.54058056405E+03  0.50400001928E-02 0. -1.
       -1   -1    0    0    0  501  0.00000000000E+00  0.00000000000E+00 -0.68311639285E+03  0.68311639287E+03  0.50400001928E-02 0.  1.
    10030    2    1    2    0    0  0.00000000000E+00  0.00000000000E+00 -0.14253582882E+03  0.12236969569E+04  0.12153673436E+04 0.  0.
        5    1    3    3  502    0  0.59461475597E+03  0.52920167161E+02  0.43044792434E+02  0.59853337105E+03  0.46999998093E+01 0. -1.
       -5    1    3    3    0  502 -0.59461475597E+03 -0.52920167161E+02 -0.18558062126E+03  0.62516358586E+03  0.46999998093E+01 0.  1.
</event>
<event>
 5   0  0.9759443E-03  0.9674524E+03  0.7818609E-02  0.9344981E-01
       -1   -1    0    0    0  501  0.00000000000E+00  0.00000000000E+00  0.10100054039E+03  0.10100054052E+03  0.50400001928E-02 0.  1.
        1   -1    0    0  501    0  0.00000000000E+00  0.00000000000E+00 -0.23167304894E+04  0.23167304894E+04  0.50400001928E-02 0. -1.
    10030    2    1    2    0    0  0.00000000000E+00  0.00000000000E+00 -0.22157299490E+04  0.24177310299E+04  0.96745238959E+03 0.  0.
        2    1    3    3  502    0  0.14885126422E+03 -0.66332949825E+02 -0.22460651256E+04  0.22519692066E+04  0.25500000920E-02 0. -1.
       -2    1    3    3    0  502 -0.14885126422E+03  0.66332949825E+02  0.30335176667E+02  0.16576182324E+03  0.25500000920E-02 0.  1.
</event>
<event>
 5   0  0.9471140E-03  0.1002222E+04  0.7818609E-02  0.9306111E-01
       -1   -1    0    0    0  501  0.00000000000E+00  0.00000000000E+00  0.50770209479E+03  0.50770209481E+03  0.50400001928E-02 0.  1.
        1   -1    0    0  501    0  0.00000000000E+00  0.00000000000E+00 -0.49460542606E+03  0.49460542608E+03  0.50400001928E-02 0. -1.
    10030    2    1    2    0    0  0.00000000000E+00  0.00000000000E+00  0.13096668728E+02  0.10023075209E+04  0.10022219533E+04 0.  0.
        4    1    3    3  502    0 -0.19882049552E+03 -0.28784932227E+03  0.36535992493E+03  0.50584217836E+03  0.12699999809E+01 0.  1.
       -4    1    3    3    0  502  0.19882049552E+03  0.28784932227E+03 -0.35226325620E+03  0.49646534253E+03  0.12699999809E+01 0. -1.
</event>
<event>
 5   0  0.9471140E-03  0.9987593E+03  0.7818609E-02  0.9309907E-01
        1   -1    0    0  501    0  0.00000000000E+00  0.00000000000E+00  0.89379542376E+03  0.89379542378E+03  0.50400001928E-02 0. -1.
       -1   -1    0    0    0  501  0.00000000000E+00  0.00000000000E+00 -0.27901242878E+03  0.27901242883E+03  0.50400001928E-02 0.  1.
    10030    2    1    2    0    0  0.00000000000E+00  0.00000000000E+00  0.61478299498E+03  0.11728078526E+04  0.99875929443E+03 0.  0.
        4    1    3    3  502    0  0.25234761452E+03  0.49529818235E+02  0.81006172320E+03  0.84990242366E+03  0.12699999809E+01 0. -1.
       -4    1    3    3    0  502 -0.25234761452E+03 -0.49529818235E+02 -0.19527872822E+03  0.32290542894E+03  0.12699999809E+01 0.  1.
</event>
<event>
 5   0  0.1598986E-02  0.9901824E+03  0.7818609E-02  0.9319379E-01
        2   -1    0    0  501    0  0.00000000000E+00  0.00000000000E+00  0.28123888500E+03  0.28123888502E+03  0.25500000920E-02 0. -1.
       -2   -1    0    0    0  501  0.00000000000E+00  0.00000000000E+00 -0.87155552628E+03  0.87155552628E+03  0.25500000920E-02 0.  1.
    10030    2    1    2    0    0  0.00000000000E+00  0.00000000000E+00 -0.59031664127E+03  0.11527944113E+04  0.99018241640E+03 0.  0.
        3    1    3    3  502    0 -0.14135125485E+03 -0.70817403253E+02 -0.84137683509E+03  0.85610178757E+03  0.10100000352E+00 0.  1.
       -3    1    3    3    0  502  0.14135125485E+03  0.70817403253E+02  0.25106019382E+03  0.29669262372E+03  0.10100000352E+00 0. -1.
</event>
<event>
 5   0  0.9759443E-03  0.7663434E+03  0.7818609E-02  0.9610053E-01
        1   -1    0    0  501    0  0.00000000000E+00  0.00000000000E+00  0.48023464093E+03  0.48023464095E+03  0.50400001928E-02 0. -1.
       -1   -1    0    0    0  501  0.00000000000E+00  0.00000000000E+00 -0.30572672018E+03  0.30572672022E+03  0.50400001928E-02 0.  1.
    10030    2    1    2    0    0  0.00000000000E+00  0.00000000000E+00  0.17450792075E+03  0.78596136117E+03  0.76634342618E+03 0.  0.
        2    1    3    3  502    0 -0.20391539537E+03 -0.12188886846E+02 -0.24522142478E+03  0.31916078176E+03  0.25500000920E-02 0. -1.
       -2    1    3    3    0  502  0.20391539537E+03  0.12188886846E+02  0.41972934554E+03  0.46680057942E+03  0.25500000920E-02 0.  1.
</event>
<event>
 5   0  0.1598986E-02  0.1073889E+04  0.7818609E-02  0.9231021E-01
        2   -1    0    0  501    0  0.00000000000E+00  0.00000000000E+00  0.92604821343E+03  0.92604821343E+03  0.25500000920E-02 0. -1.
       -2   -1    0    0    0  501  0.00000000000E+00  0.00000000000E+00 -0.31133322205E+03  0.31133322206E+03  0.25500000920E-02 0.  1.
    10030    2    1    2    0    0  0.00000000000E+00  0.00000000000E+00  0.61471499137E+03  0.12373814355E+04  0.10738893315E+04 0.  0.
        3    1    3    3  502    0 -0.26858720493E+03  0.37827930018E+03 -0.41218242742E+01  0.46395184581E+03  0.10100000352E+00 0. -1.
       -3    1    3    3    0  502  0.26858720493E+03 -0.37827930018E+03  0.61883681565E+03  0.77342958968E+03  0.10100000352E+00 0.  1.
</event>
<event>
 5   0  0.9396660E-03  0.1007202E+04  0.7818609E-02  0.9300681E-01
       -1   -1    0    0    0  501  0.00000000000E+00  0.00000000000E+00  0.21194190490E+03  0.21194190496E+03  0.50400001928E-02 0. -1.
        1   -1    0    0  501    0  0.00000000000E+00  0.00000000000E+00 -0.11966198903E+04  0.11966198904E+04  0.50400001928E-02 0.  1.
    10030    2    1    2    0    0  0.00000000000E+00  0.00000000000E+00 -0.98467798545E+03  0.14085617953E+04  0.10072018647E+04 0.  0.
        5    1    3    3  502    0 -0.11102632368E+03  0.40195430788E+03 -0.88714365688E+03  0.98027550623E+03  0.46999998093E+01 0.  1.
       -5    1    3    3    0  502  0.11102632368E+03 -0.40195430788E+03 -0.97534328564E+02  0.42828628909E+03  0.46999998093E+01 0. -1.
</event>
<event>
 5   0  0.1598986E-02  0.8974218E+03  0.7818609E-02  0.9428810E-01
       -2   -1    0    0    0  501  0.00000000000E+00  0.00000000000E+00  0.17680473856E+03  0.17680473857E+03  0.25500000920E-02 0.  1.
        2   -1    0    0  501    0  0.00000000000E+00  0.00000000000E+00 -0.11387786197E+04  0.11387786197E+04  0.25500000920E-02 0. -1.
    10030    2    1    2    0    0  0.00000000000E+00  0.00000000000E+00 -0.96197388112E+03  0.13155833583E+04  0.89742176515E+03 0.  0.
        3    1    3    3  502    0  0.28017082487E+03  0.32984403881E+03 -0.30723114490E+03  0.53073888839E+03  0.10100000352E+00 0. -1.
       -3    1    3    3    0  502 -0.28017082487E+03 -0.32984403881E+03 -0.65474273622E+03  0.78484446987E+03  0.10100000352E+00 0.  1.
</event>
<event>
 5   0  0.1000773E-02  0.9986377E+03  0.7818609E-02  0.9310040E-01
       -1   -1    0    0    0  501  0.00000000000E+00  0.00000000000E+00  0.47695884033E+03  0.47695884036E+03  0.50400001928E-02 0.  1.
        1   -1    0    0  501    0  0.00000000000E+00  0.00000000000E+00 -0.52272709661E+03  0.52272709664E+03  0.50400001928E-02 0. -1.
    10030    2    1    2    0    0  0.00000000000E+00  0.00000000000E+00 -0.45768256282E+02  0.99968593700E+03  0.99863769173E+03 0.  0.
        3    1    3    3  502    0  0.16952515455E+02 -0.61272181474E+02  0.47289084662E+03  0.47714508383E+03  0.10100000352E+00 0.  1.
       -3    1    3    3    0  502 -0.16952515455E+02  0.61272181474E+02 -0.51865910290E+03  0.52254085317E+03  0.10100000352E+00 0. -1.
</event>
<event>
 5   0  0.9396660E-03  0.9461981E+03  0.7818609E-02  0.9369605E-01
       -1   -1    0    0    0  501  0.00000000000E+00  0.00000000000E+00  0.36112988733E+03  0.36112988737E+03  0.50400001928E-02 0. -1.
        1   -1    0    0  501    0  0.00000000000E+00  0.00000000000E+00 -0.61978451087E+03  0.61978451089E+03  0.50400001928E-02 0.  1.
    10030    2    1    2    0    0  0.00000000000E+00  0.00000000000E+00 -0.25865462353E+03  0.98091439826E+03  0.94619809894E+03 0.  0.
        5    1    3    3  502    0 -0.78458266274E+02  0.44868675154E+03  0.31303944626E+01  0.45552979038E+03  0.46999998093E+01 0. -1.
       -5    1    3    3    0  502  0.78458266274E+02 -0.44868675154E+03 -0.26178501800E+03  0.52538460788E+03  0.46999998093E+01 0.  1.
</event>
<event>
 5   0  0.1617721E-02  0.9828265E+03  0.7818609E-02  0.9327584E-01
        2   -1    0    0  501    0  0.00000000000E+00  0.00000000000E+00  0.43989340365E+03  0.43989340366E+03  0.25500000920E-02 0.  1.
       -2   -1    0    0    0  501  0.00000000000E+00  0.00000000000E+00 -0.54896707142E+03  0.54896707143E+03  0.25500000920E-02 0. -1.
    10030    2    1    2    0    0  0.00000000000E+00  0.00000000000E+00 -0.10907366777E+03  0.98886047509E+03  0.98282652294E+03 0.  0.
        5    1    3    3  502    0  0.23905935578E+03  0.21783583415E+02  0.37686237201E+03  0.44684587671E+03  0.46999998093E+01 0.  1.
       -5    1    3    3    0  502 -0.23905935578E+03 -0.21783583415E+02 -0.48593603979E+03  0.54201459838E+03  0.46999998093E+01 0. -1.
</event>
<event>
 5   0  0.9507815E-03  0.1013456E+04  0.7818609E-02  0.9293909E-01
       -1   -1    0    0    0  501  0.00000000000E+00  0.00000000000E+00  0.48494082776E+03  0.48494082779E+03  0.50400001928E-02 0.  1.
        1   -1    0    0  501    0  0.00000000000E+00  0.00000000000E+00 -0.52949364601E+03  0.52949364603E+03  0.50400001928E-02 0. -1.
    10030    2    1    2    0    0  0.00000000000E+00  0.00000000000E+00 -0.44552818244E+02  0.10144344738E+04  0.10134556468E+04 0.  0.
        1    1    3    3  502    0  0.24511303006E+03 -0.44190549341E+03 -0.59892278641E+02  0.50886928349E+03  0.50400001928E-02 0. -1.
       -1    1    3    3    0  502 -0.24511303006E+03  0.44190549341E+03  0.15339460397E+02  0.50556519034E+03  0.50400001928E-02 0.  1.
</event>
<event>
 5   0  0.9759443E-03  0.9811648E+03  0.7818609E-02  0.9329448E-01
       -1   -1    0    0    0  501  0.00000000000E+00  0.00000000000E+00  0.44529879414E+03  0.44529879417E+03  0.50400001928E-02 0.  1.
        1   -1    0    0  501    0  0.00000000000E+00  0.00000000000E+00 -0.54047099142E+03  0.54047099144E+03  0.50400001928E-02 0. -1.
    10030    2    1    2    0    0  0.00000000000E+00  0.00000000000E+00 -0.95172197275E+02  0.98576978561E+03  0.98116477876E+03 0.  0.
        2    1    3    3  502    0  0.37216776213E+03  0.21244025835E+03  0.19234717034E+03  0.46972027898E+03  0.25500000920E-02 0.  1.
       -2    1    3    3    0  502 -0.37216776213E+03 -0.21244025835E+03 -0.28751936761E+03  0.51604950663E+03  0.25500000920E-02 0. -1.
</event>
<event>
 5   0  0.1571895E-02  0.1031340E+04  0.7818609E-02  0.9274824E-01
        2   -1    0    0  501    0  0.00000000000E+00  0.00000000000E+00  0.61931923770E+03  0.61931923770E+03  0.25500000920E-02 0. -1.
       -2   -1    0    0    0  501  0.00000000000E+00  0.00000000000E+00 -0.42936763036E+03  0.42936763037E+03  0.25500000920E-02 0.  1.
    10030    2    1    2    0    0  0.00000000000E+00  0.00000000000E+00  0.18995160734E+03  0.10486868681E+04  0.10313401641E+04 0.  0.
        2    1    3    3  502    0  0.40604786926E+03  0.28053195620E+03 -0.57012647058E+02  0.49681333769E+03  0.25500000920E-02 0.  1.
       -2    1    3    3    0  502 -0.40604786926E+03 -0.28053195620E+03  0.24696425439E+03  0.55187353038E+03  0.25500000920E-02 0. -1.
</event>
<event>
 5   0  0.1571895E-02  0.1014262E+04  0.7818609E-02  0.9293039E-01
        2   -1    0    0  501    0  0.00000000000E+00  0.00000000000E+00  0.68375555983E+03  0.68375555983E+03  0.25500000920E-02 0.  1.
       -2   -1    0    0    0  501  0.00000000000E+00  0.00000000000E+00 -0.37613155271E+03  0.37613155272E+03  0.25500000920E-02 0. -1.
    10030    2    1    2    0    0  0.00000000000E+00  0.00000000000E+00  0.30762400711E+03  0.10598871126E+04  0.10142623732E+04 0.  0.
        2    1    3    3  502    0 -0.35598177424E+03 -0.35587405096E+03  0.21833644960E+03  0.54867127588E+03  0.25500000920E-02 0.  1.
       -2    1    3    3    0  502  0.35598177424E+03  0.35587405096E+03  0.89287557508E+02  0.51121583668E+03  0.25500000920E-02 0. -1.
</event>
<event>
 5   0  0.1656859E-02  0.1012191E+04  0.7818609E-02  0.9295274E-01
       -2   -1    0    0    0  501  0.00000000000E+00  0.00000000000E+00  0.34631052134E+03  0.34631052135E+03  0.25500000920E-02 0.  1.
        2   -1    0    0  501    0  0.00000000000E+00  0.00000000000E+00 -0.73960365882E+03  0.73960365883E+03  0.25500000920E-02 0. -1.
    10030    2    1    2    0    0  0.00000000000E+00  0.00000000000E+00 -0.39329313748E+03  0.10859141802E+04  0.10121907502E+04 0.  0.
        4    1    3    3  502    0 -0.84675948333E+02  0.42188528896E+03  0.89166360525E+02  0.43944222148E+03  0.12699999809E+01 0.  1.
       -4    1    3    3    0  502  0.84675948333E+02 -0.42188528896E+03 -0.48245949801E+03  0.64647195870E+03  0.12699999809E+01 0. -1.
</event>
<event>
 5   0  0.1663497E-02  0.9475331E+03  0.7818609E-02  0.9368039E-01
        2   -1    0    0  501    0  0.00000000000E+00  0.00000000000E+00  0.11729422758E+04  0.11729422758E+04  0.25500000920E-02 0.  1.
       -2   -1    0    0    0  501  0.00000000000E+00  0.00000000000E+00 -0.19136043455E+03  0.19136043457E+03  0.25500000920E-02 0. -1.
    10030    2    1    2    0    0  0.00000000000E+00  0.00000000000E+00  0.98158184127E+03  0.13643027104E+04  0.94753309940E+03 0.  0.
        1    1    3    3  502    0 -0.37767006017E+03 -0.24899587322E+03  0.69350340458E+03  0.82799794167E+03  0.50400001928E-02 0. -1.
       -1    1    3    3    0  502  0.37767006017E+03  0.24899587322E+03  0.28807843669E+03  0.53630476871E+03  0.50400001928E-02 0.  1.
</event>
<event>
 5   0  0.6314750E-03  0.1062481E+04  0.7818609E-02  0.9242552E-01
        4   -1    0    0  501    0  0.00000000000E+00  0.00000000000E+00  0.14831143736E+03  0.14831687481E+03  0.12699999809E+01 0. -1.
       -4   -1    0    0    0  501  0.00000000000E+00  0.00000000000E+00 -0.19028228806E+04  0.19028233044E+04  0.12699999809E+01 0.  1.
    10030    2    1    2    0    0  0.00000000000E+00  0.00000000000E+00 -0.17545114432E+04  0.20511401792E+04  0.10624808847E+04 0.  0.
        4    1    3    3  502    0  0.49734907722E+03  0.51546603056E+02 -0.12236838895E+04  0.13218990246E+04  0.12699999809E+01 0.  1.
       -4    1    3    3    0  502 -0.49734907722E+03 -0.51546603056E+02 -0.53082755370E+03  0.72924115460E+03  0.12699999809E+01 0. -1.
</event>
<event>
 5   0  0.1571895E-02  0.9994691E+03  0.7818609E-02  0.9309127E-01
       -2   -1    0    0    0  501  0.00000000000E+00  0.00000000000E+00  0.96695946144E+02  0.96695946177E+02  0.25500000920E-02 0. -1.
        2   -1    0    0  501    0  0.00000000000E+00  0.00000000000E+00 -0.25826795132E+04  0.25826795132E+04  0.25500000920E-02 0.  1.
    10030    2    1    2    0    0  0.00000000000E+00  0.00000000000E+00 -0.24859835670E+04  0.26793754593E+04  0.99946913741E+03 0.  0.
        2    1    3    3  502    0  0.39754941908E+03  0.82359735480E+02 -0.46184381511E+03  0.61492143905E+03  0.25500000920E-02 0. -1.
       -2    1    3    3    0  502 -0.39754941908E+03 -0.82359735480E+02 -0.20241397519E+04  0.20644540203E+04  0.25500000920E-02 0.  1.
</event>
<event>
 5   0  0.1598986E-02  0.9993176E+03  0.7818609E-02  0.9309294E-01
        2   -1    0    0  501    0  0.00000000000E+00  0.00000000000E+00  0.27489646895E+03  0.27489646896E+03  0.25500000920E-02 0. -1.
       -2   -1    0    0    0  501  0.00000000000E+00  0.00000000000E+00 -0.90819255443E+03  0.90819255444E+03  0.25500000920E-02 0.  1.
    10030    2    1    2    0    0  0.00000000000E+00  0.00000000000E+00 -0.63329608548E+03  0.11830890234E+04  0.99931761988E+03 0.  0.
        3    1    3    3  502    0 -0.32002884663E+03  0.35091350378E+03 -0.13285718687E+03  0.49316304820E+03  0.10100000352E+00 0.  1.
       -3    1    3    3    0  502  0.32002884663E+03 -0.35091350378E+03 -0.50043889862E+03  0.68992597520E+03  0.10100000352E+00 0. -1.
</event>
<event>
 5   0  0.6314750E-03  0.1005605E+04  0.7818609E-02  0.9302418E-01
        3   -1    0    0  501    0  0.00000000000E+00  0.00000000000E+00  0.33503313195E+03  0.33503314717E+03  0.10100000352E+00 0.  1.
       -3   -1    0    0    0  501  0.00000000000E+00  0.00000000000E+00 -0.75458380616E+03  0.75458381292E+03  0.10100000352E+00 0. -1.
    10030    2    1    2    0    0  0.00000000000E+00  0.00000000000E+00 -0.41955067421E+03  0.10896169601E+04  0.10056054651E+04 0.  0.
        4    1    3    3  502    0 -0.96435078971E+02 -0.15967341514E+03  0.29615191495E+03  0.35000413367E+03  0.12699999809E+01 0.  1.
       -4    1    3    3    0  502  0.96435078971E+02  0.15967341514E+03 -0.71570258916E+03  0.73961282641E+03  0.12699999809E+01 0. -1.
</event>
<event>
 5   0  0.6314750E-03  0.1005322E+04  0.7818609E-02  0.9302727E-01
       -3   -1    0    0    0  501  0.00000000000E+00  0.00000000000E+00  0.10197097218E+04  0.10197097268E+04  0.10100000352E+00 0.  1.
        3   -1    0    0  501    0  0.00000000000E+00  0.00000000000E+00 -0.24778416699E+03  0.24778418758E+03  0.10100000352E+00 0. -1.
    10030    2    1    2    0    0  0.00000000000E+00  0.00000000000E+00  0.77192555480E+03  0.12674939144E+04  0.10053217201E+04 0.  0.
        4    1    3    3  502    0 -0.16639893051E+03  0.39923026401E+03  0.70886370905E+03  0.83039916828E+03  0.12699999809E+01 0.  1.
       -4    1    3    3    0  502  0.16639893051E+03 -0.39923026401E+03  0.63061845756E+02  0.43709474610E+03  0.12699999809E+01 0. -1.
</event>
<event>
 5   0  0.1000773E-02  0.1080878E+04  0.7818609E-02  0.9224032E-01
        1   -1    0    0  501    0  0.00000000000E+00  0.00000000000E+00  0.73878892384E+03  0.73878892385E+03  0.50400001928E-02 0. -1.
       -1   -1    0    0    0  501  0.00000000000E+00  0.00000000000E+00 -0.39534207833E+03  0.39534207837E+03  0.50400001928E-02 0.  1.
    10030    2    1    2    0    0  0.00000000000E+00  0.00000000000E+00  0.34344684550E+03  0.11341310022E+04  0.10808780664E+04 0.  0.
        3    1    3    3  502    0  0.38367680414E+03 -0.25627365768E+03  0.46699551731E+03  0.65648221685E+03  0.10100000352E+00 0. -1.
       -3    1    3    3    0  502 -0.38367680414E+03  0.25627365768E+03 -0.12354867180E+03  0.47764878537E+03  0.10100000352E+00 0.  1.
</event>
<event>
 5   0  0.1617721E-02  0.1000490E+04  0.7818609E-02  0.9308008E-01
       -2   -1    0    0    0  501  0.00000000000E+00  0.00000000000E+00  0.37945333009E+03  0.37945333010E+03  0.25500000920E-02 0.  1.
        2   -1    0    0  501    0  0.00000000000E+00  0.00000000000E+00 -0.65948828791E+03  0.65948828792E+03  0.25500000920E-02 0. -1.
    10030    2    1    2    0    0  0.00000000000E+00  0.00000000000E+00 -0.28003495782E+03  0.10389416180E+04  0.10004899340E+04 0.  0.
        5    1    3    3  502    0  0.18523032983E+03 -0.15098396113E+03  0.31632207871E+03  0.39646964460E+03  0.46999998093E+01 0.  1.
       -5    1    3    3    0  502 -0.18523032983E+03  0.15098396113E+03 -0.59635703653E+03  0.64247197342E+03  0.46999998093E+01 0. -1.
</event>
<event>
 5   0  0.9471140E-03  0.5952691E+03  0.7818609E-02  0.9915270E-01
       -1   -1    0    0    0  501  0.00000000000E+00  0.00000000000E+00  0.16777703165E+03  0.16777703172E+03  0.50400001928E-02 0. -1.
        1   -1    0    0  501    0  0.00000000000E+00  0.00000000000E+00 -0.52800029727E+03  0.52800029729E+03  0.50400001928E-02 0.  1.
    10030    2    1    2    0    0  0.00000000000E+00  0.00000000000E+00 -0.36022326562E+03  0.69577732901E+03  0.59526909081E+03 0.  0.
        4    1    3    3  502    0  0.28736182142E+03  0.62674925806E+02 -0.12680733918E+03  0.32029154985E+03  0.12699999809E+01 0.  1.
       -4    1    3    3    0  502 -0.28736182142E+03 -0.62674925806E+02 -0.23341592644E+03  0.37548577916E+03  0.12699999809E+01 0. -1.
</event>
<event>
 5   0  0.1663497E-02  0.9945564E+03  0.7818609E-02  0.9314535E-01
        2   -1    0    0  501    0  0.00000000000E+00  0.00000000000E+00  0.87142237796E+03  0.87142237797E+03  0.25500000920E-02 0. -1.
       -2   -1    0    0    0  501  0.00000000000E+00  0.00000000000E+00 -0.28377241252E+03  0.28377241253E+03  0.25500000920E-02 0.  1.
    10030    2    1    2    0    0  0.00000000000E+00  0.00000000000E+00  0.58764996544E+03  0.11551947905E+04  0.99455644491E+03 0.  0.
        1    1    3    3  502    0 -0.31790160010E+03  0.24671702025E+03 -0.45518922115E+02  0.40497245304E+03  0.50400001928E-02 0.  1.
       -1    1    3    3    0  502  0.31790160010E+03 -0.24671702025E+03  0.63316888756E+03  0.75022233746E+03  0.50400001928E-02 0. -1.
</event>
<event>
 5   0  0.6314750E-03  0.1000773E+04  0.7818609E-02  0.9307697E-01
        3   -1    0    0  501    0  0.00000000000E+00  0.00000000000E+00  0.14624019069E+03  0.14624022557E+03  0.10100000352E+00 0.  1.
       -3   -1    0    0    0  501  0.00000000000E+00  0.00000000000E+00 -0.17121613986E+04  0.17121614016E+04  0.10100000352E+00 0. -1.
    10030    2    1    2    0    0  0.00000000000E+00  0.00000000000E+00 -0.15659212079E+04  0.18584016271E+04  0.10007733901E+04 0.  0.
        3    1    3    3  502    0  0.36458333456E+03  0.33298818165E+03 -0.93364619985E+03  0.10561710911E+04  0.10100000352E+00 0. -1.
       -3    1    3    3    0  502 -0.36458333456E+03 -0.33298818165E+03 -0.63227500805E+03  0.80223053604E+03  0.10100000352E+00 0.  1.
</event>
<event>
 5   0  0.1571895E-02  0.1027664E+04  0.7818609E-02  0.9278713E-01
        2   -1    0    0  501    0  0.00000000000E+00  0.00000000000E+00  0.42074661828E+03  0.42074661829E+03  0.25500000920E-02 0.  1.
       -2   -1    0    0    0  501  0.00000000000E+00  0.00000000000E+00 -0.62751169709E+03  0.62751169709E+03  0.25500000920E-02 0. -1.
    10030    2    1    2    0    0  0.00000000000E+00  0.00000000000E+00 -0.20676507881E+03  0.10482583154E+04  0.10276641951E+04 0.  0.
        2    1    3    3  502    0  0.53781013725E+02  0.36137980846E+02 -0.62332779528E+03  0.62668643792E+03  0.25500000920E-02 0. -1.
       -2    1    3    3    0  502 -0.53781013725E+02 -0.36137980846E+02  0.41656271648E+03  0.42157187746E+03  0.25500000920E-02 0.  1.
</event>
<event>
 5   0  0.9396660E-03  0.5107730E+03  0.7818609E-02  0.1011005E+00
        1   -1    0    0  501    0  0.00000000000E+00  0.00000000000E+00  0.17615695595E+03  0.17615695603E+03  0.50400001928E-02 0. -1.
       -1   -1    0    0    0  501  0.00000000000E+00  0.00000000000E+00 -0.37025083607E+03  0.37025083611E+03  0.50400001928E-02 0.  1.
    10030    2    1    2    0    0  0.00000000000E+00  0.00000000000E+00 -0.19409388012E+03  0.54640779213E+03  0.51077298382E+03 0.  0.
        5    1    3    3  502    0  0.35527107062E+02 -0.17186131096E+03 -0.29546391381E+03  0.34368517556E+03  0.46999998093E+01 0.  1.
       -5    1    3    3    0  502 -0.35527107062E+02  0.17186131096E+03  0.10137003369E+03  0.20272261657E+03  0.46999998093E+01 0. -1.
</event>
<event>
 5   0  0.1656859E-02  0.9751760E+03  0.7818609E-02  0.9336198E-01
       -2   -1    0    0    0  501  0.00000000000E+00  0.00000000000E+00  0.26638460450E+03  0.26638460451E+03  0.25500000920E-02 0. -1.
        2   -1    0    0  501    0  0.00000000000E+00  0.00000000000E+00 -0.89247678384E+03  0.89247678384E+03  0.25500000920E-02 0.  1.
    10030    2    1    2    0    0  0.00000000000E+00  0.00000000000E+00 -0.62609217934E+03  0.11588613884E+04  0.97517603559E+03 0.  0.
        4    1    3    3  502    0 -0.47404447557E+02 -0.35434069583E+03  0.80973979825E+02  0.36655546467E+03  0.12699999809E+01 0. -1.
       -4    1    3    3    0  502  0.47404447557E+02  0.35434069583E+03 -0.70706615916E+03  0.79230592369E+03  0.12699999809E+01 0.  1.
</event>
<event>
 5   0  0.1617721E-02  0.1051385E+04  0.7818609E-02  0.9253915E-01
        2   -1    0    0  501    0  0.00000000000E+00  0.00000000000E+00  0.68746398231E+03  0.68746398231E+03  0.25500000920E-02 0.  1.
       -2   -1    0    0    0  501  0.00000000000E+00  0.00000000000E+00 -0.40198870542E+03  0.40198870543E+03  0.25500000920E-02 0. -1.
    10030    2    1    2    0    0  0.00000000000E+00  0.00000000000E+00  0.28547527689E+03  0.10894526877E+04  0.10513852886E+04 0.  0.
        5    1    3    3  502    0 -0.16508322908E+03  0.40793670815E+03 -0.15518911876E+03  0.46665895787E+03  0.46999998093E+01 0. -1.
       -5    1    3    3    0  502  0.16508322908E+03 -0.40793670815E+03  0.44066439565E+03  0.62279372987E+03  0.46999998093E+01 0.  1.
</event>
<event>
 5   0  0.9471140E-03  0.9802448E+03  0.7818609E-02  0.9330481E-01
       -1   -1    0    0    0  501  0.00000000000E+00  0.00000000000E+00  0.21282323668E+03  0.21282323674E+03  0.50400001928E-02 0. -1.
        1   -1    0    0  501    0  0.00000000000E+00  0.00000000000E+00 -0.11287300423E+04  0.11287300423E+04  0.50400001928E-02 0.  1.
    10030    2    1    2    0    0  0.00000000000E+00  0.00000000000E+00 -0.91590680560E+03  0.13415532790E+04  0.98024482857E+03 0.  0.
        4    1    3    3  502    0 -0.80016875955E+01  0.37006136600E+03 -0.18278176579E+02  0.37060106077E+03  0.12699999809E+01 0. -1.
       -4    1    3    3    0  502  0.80016875955E+01 -0.37006136600E+03 -0.89762862903E+03  0.97095221826E+03  0.12699999809E+01 0.  1.
</event>
<event>
 5   0  0.1598986E-02  0.8946024E+03  0.7818609E-02  0.9432354E-01
       -2   -1    0    0    0  501  0.00000000000E+00  0.00000000000E+00  0.12542030657E+03  0.12542030660E+03  0.25500000920E-02 0.  1.
        2   -1    0    0  501    0  0.00000000000E+00  0.00000000000E+00 -0.15952629016E+04  0.15952629016E+04  0.25500000920E-02 0. -1.
    10030    2    1    2    0    0  0.00000000000E+00  0.00000000000E+00 -0.14698425950E+04  0.17206832082E+04  0.89460239705E+03 0.  0.
        3    1    3    3  502    0 -0.18820779717E+03  0.37206595823E+03 -0.42345369708E+03  0.59427964458E+03  0.10100000352E+00 0.  1.
       -3    1    3    3    0  502  0.18820779717E+03 -0.37206595823E+03 -0.10463888979E+04  0.11264035636E+04  0.10100000352E+00 0. -1.
</event>
<event>
 5   0  0.9396660E-03  0.1011140E+04  0.7818609E-02  0.9296411E-01
       -1   -1    0    0    0  501  0.00000000000E+00  0.00000000000E+00  0.11956635334E+03  0.11956635345E+03  0.50400001928E-02 0.  1.
        1   -1    0    0  501    0  0.00000000000E+00  0.00000000000E+00 -0.21377328119E+04  0.21377328119E+04  0.50400001928E-02 0. -1.
    10030    2    1    2    0    0  0.00000000000E+00  0.00000000000E+00 -0.20181664585E+04  0.22572991653E+04  0.10111397863E+04 0.  0.
        5    1    3    3  502    0 -0.43237193200E+03 -0.23407015005E+03 -0.12717569491E+04  0.13634962964E+04  0.46999998093E+01 0.  1.
       -5    1    3    3    0  502  0.43237193200E+03  0.23407015005E+03 -0.74640950943E+03  0.89380286892E+03  0.46999998093E+01 0. -1.
</event>
<event>
 5   0  0.1000773E-02  0.9997643E+03  0.7818609E-02  0.9308803E-01
        1   -1    0    0  501    0  0.00000000000E+00  0.00000000000E+00  0.73128314173E+03  0.73128314174E+03  0.50400001928E-02 0. -1.
       -1   -1    0    0    0  501  0.00000000000E+00  0.00000000000E+00 -0.34170371209E+03  0.34170371213E+03  0.50400001928E-02 0.  1.
    10030    2    1    2    0    0  0.00000000000E+00  0.00000000000E+00  0.38957942964E+03  0.10729868539E+04  0.99976430052E+03 0.  0.
        3    1    3    3  502    0  0.44136303868E+03  0.23273605372E+03  0.16232973087E+03  0.52470787524E+03  0.10100000352E+00 0. -1.
       -3    1    3    3    0  502 -0.44136303868E+03 -0.23273605372E+03  0.22724969876E+03  0.54827897863E+03  0.10100000352E+00 0.  1.
</event>
<event>
 5   0  0.1000773E-02  0.9697907E+03  0.7818609E-02  0.9342313E-01
       -1   -1    0    0    0  501  0.00000000000E+00  0.00000000000E+00  0.14360078010E+04  0.14360078010E+04  0.50400001928E-02 0. -1.
        1   -1    0    0  501    0  0.00000000000E+00  0.00000000000E+00 -0.16373415015E+03  0.16373415023E+03  0.50400001928E-02 0.  1.
    10030    2    1    2    0    0  0.00000000000E+00  0.00000000000E+00  0.12722736509E+04  0.15997419513E+04  0.96979073409E+03 0.  0.
        3    1    3    3  502    0 -0.21839052039E+03 -0.12671641367E+03 -0.46739228957E+02  0.25678012893E+03  0.10100000352E+00 0.  1.
       -3    1    3    3    0  502  0.21839052039E+03  0.12671641367E+03  0.13190128798E+04  0.13429618223E+04  0.10100000352E+00 0. -1.
</event>
<event>
 5   0  0.9471140E-03  0.1007041E+04  0.7818609E-02  0.9300856E-01
        1   -1    0    0  501    0  0.00000000000E+00  0.00000000000E+00  0.13385062478E+04  0.13385062478E+04  0.50400001928E-02 0.  1.
       -1   -1    0    0    0  501  0.00000000000E+00  0.00000000000E+00 -0.18941467764E+03  0.18941467771E+03  0.50400001928E-02 0. -1.
    10030    2    1    2    0    0  0.00000000000E+00  0.00000000000E+00  0.11490915702E+04  0.15279209255E+04  0.10070406735E+04 0.  0.
        4    1    3    3  502    0  0.14007757042E+02 -0.38985546959E+03  0.91530774409E+02  0.40070313199E+03  0.12699999809E+01 0. -1.
       -4    1    3    3    0  502 -0.14007757042E+02  0.38985546959E+03  0.10575607958E+04  0.11272177935E+04  0.12699999809E+01 0.  1.
</event>
<event>
 5   0  0.1598986E-02  0.9973506E+03  0.7818609E-02  0.9311455E-01
       -2   -1    0    0    0  501  0.00000000000E+00  0.00000000000E+00  0.38819742882E+03  0.38819742883E+03  0.25500000920E-02 0. -1.
        2   -1    0    0  501    0  0.00000000000E+00  0.00000000000E+00 -0.64059431536E+03  0.64059431536E+03  0.25500000920E-02 0.  1.
    10030    2    1    2    0    0  0.00000000000E+00  0.00000000000E+00 -0.25239688653E+03  0.10287917442E+04  0.99735062269E+03 0.  0.
        3    1    3    3  502    0 -0.11301298425E+03  0.40263962913E+03 -0.40639830495E+03  0.58313823234E+03  0.10100000352E+00 0.  1.
       -3    1    3    3    0  502  0.11301298425E+03 -0.40263962913E+03  0.15400141842E+03  0.44565351185E+03  0.10100000352E+00 0. -1.
</event>
<event>
 5   0  0.6314750E-03  0.9892746E+03  0.7818609E-02  0.9320387E-01
       -3   -1    0    0    0  501  0.00000000000E+00  0.00000000000E+00  0.61097535516E+03  0.61097536351E+03  0.10100000352E+00 0.  1.
        3   -1    0    0  501    0  0.00000000000E+00  0.00000000000E+00 -0.40045154473E+03  0.40045155746E+03  0.10100000352E+00 0. -1.
    10030    2    1    2    0    0  0.00000000000E+00  0.00000000000E+00  0.21052381044E+03  0.10114269210E+04  0.98927455325E+03 0.  0.
        2    1    3    3  502    0  0.38226048976E+03  0.12292508358E+03 -0.19005273659E+03  0.44424509102E+03  0.25500000920E-02 0. -1.
       -2    1    3    3    0  502 -0.38226048976E+03 -0.12292508358E+03  0.40057654702E+03  0.56718182996E+03  0.25500000920E-02 0.  1.
</event>
<event>
 5   0  0.1598986E-02  0.7018854E+03  0.7818609E-02  0.9714013E-01
       -2   -1    0    0    0  501  0.00000000000E+00  0.00000000000E+00  0.93412094135E+02  0.93412094170E+02  0.25500000920E-02 0.  1.
        2   -1    0    0  501    0  0.00000000000E+00  0.00000000000E+00 -0.13184672798E+04  0.13184672798E+04  0.25500000920E-02 0. -1.
    10030    2    1    2    0    0  0.00000000000E+00  0.00000000000E+00 -0.12250551857E+04  0.14118793740E+04  0.70188543134E+03 0.  0.
        3    1    3    3  502    0  0.25009512644E+03  0.11907661427E+03 -0.17906735945E+03  0.32983623475E+03  0.10100000352E+00 0.  1.
       -3    1    3    3    0  502 -0.25009512644E+03 -0.11907661427E+03 -0.10459878262E+04  0.10820431392E+04  0.10100000352E+00 0. -1.
</event>
<event>
 5   0  0.1617721E-02  0.1014240E+04  0.7818609E-02  0.9293063E-01
        2   -1    0    0  501    0  0.00000000000E+00  0.00000000000E+00  0.29803408134E+03  0.29803408135E+03  0.25500000920E-02 0.  1.
       -2   -1    0    0    0  501  0.00000000000E+00  0.00000000000E+00 -0.86289038440E+03  0.86289038440E+03  0.25500000920E-02 0. -1.
    10030    2    1    2    0    0  0.00000000000E+00  0.00000000000E+00 -0.56485630306E+03  0.11609244658E+04  0.10142400959E+04 0.  0.
        5    1    3    3  502    0 -0.30911651895E+03 -0.40198344008E+03 -0.28497340148E+03  0.58170064289E+03  0.46999998093E+01 0.  1.
       -5    1    3    3    0  502  0.30911651895E+03  0.40198344008E+03 -0.27988290158E+03  0.57922382287E+03  0.46999998093E+01 0. -1.
</event>
<event>
 5   0  0.9759443E-03  0.1034763E+04  0.7818609E-02  0.9271218E-01
        1   -1    0    0  501    0  0.00000000000E+00  0.00000000000E+00  0.14202296631E+04  0.14202296631E+04  0.50400001928E-02 0.  1.
       -1   -1    0    0    0  501  0.00000000000E+00  0.00000000000E+00 -0.18847922270E+03  0.18847922277E+03  0.50400001928E-02 0. -1.
    10030    2    1    2    0    0  0.00000000000E+00  0.00000000000E+00  0.12317504404E+04  0.16087088859E+04  0.10347633218E+04 0.  0.
        2    1    3    3  502    0  0.14565687519E+03 -0.84612171800E+02 -0.14465350497E+03  0.22203554088E+03  0.25500000920E-02 0. -1.
       -2    1    3    3    0  502 -0.14565687519E+03  0.84612171800E+02  0.13764039454E+04  0.13866733450E+04  0.25500000920E-02 0.  1.
</event>
<event>
 5   0  0.9471140E-03  0.1011223E+04  0.7818609E-02  0.9296321E-01
        1   -1    0    0  501    0  0.00000000000E+00  0.00000000000E+00  0.32393651701E+03  0.32393651705E+03  0.50400001928E-02 0.  1.
       -1   -1    0    0    0  501  0.00000000000E+00  0.00000000000E+00 -0.78917589872E+03  0.78917589874E+03  0.50400001928E-02 0. -1.
    10030    2    1    2    0    0  0.00000000000E+00  0.00000000000E+00 -0.46523938171E+03  0.11131124158E+04  0.10112228082E+04 0.  0.
        4    1    3    3  502    0 -0.33897218343E+03  0.34600781785E+03 -0.39220211325E+03  0.62325569527E+03  0.12699999809E+01 0. -1.
       -4    1    3    3    0  502  0.33897218343E+03 -0.34600781785E+03 -0.73037268463E+02  0.48985672052E+03  0.12699999809E+01 0.  1.
</event>
<event>
 5   0  0.1571895E-02  0.1014261E+04  0.7818609E-02  0.9293041E-01
        2   -1    0    0  501    0  0.00000000000E+00  0.00000000000E+00  0.92910859348E+03  0.92910859348E+03  0.25500000920E-02 0. -1.
       -2   -1    0    0    0  501  0.00000000000E+00  0.00000000000E+00 -0.27680417220E+03  0.27680417221E+03  0.25500000920E-02 0.  1.
    10030    2    1    2    0    0  0.00000000000E+00  0.00000000000E+00  0.65230442128E+03  0.12059127657E+04  0.10142605880E+04 0.  0.
        2    1    3    3  502    0 -0.18189643887E+02  0.34807038076E+03 -0.11182540703E+03  0.36604477153E+03  0.25500000920E-02 0.  1.
       -2    1    3    3    0  502  0.18189643887E+02 -0.34807038076E+03  0.76412982830E+03  0.83986799416E+03  0.25500000920E-02 0. -1.
</event>
<event>
 5   0  0.1598986E-02  0.9709508E+03  0.7818609E-02  0.9340992E-01
       -2   -1    0    0    0  501  0.00000000000E+00  0.00000000000E+00  0.20504205761E+03  0.20504205762E+03  0.25500000920E-02 0. -1.
        2   -1    0    0  501    0  0.00000000000E+00  0.00000000000E+00 -0.11494536599E+04  0.11494536599E+04  0.25500000920E-02 0.  1.
    10030    2    1    2    0    0  0.00000000000E+00  0.00000000000E+00 -0.94441160227E+03  0.13544957175E+04  0.97095075788E+03 0.  0.
        3    1    3    3  502    0 -0.16193705354E+03  0.43114201507E+02  0.16341510677E+03  0.23406612528E+03  0.10100000352E+00 0. -1.
       -3    1    3    3    0  502  0.16193705354E+03 -0.43114201507E+02 -0.11078267090E+04  0.11204295922E+04  0.10100000352E+00 0.  1.
</event>
<event>
 5   0  0.9507815E-03  0.9776638E+03  0.7818609E-02  0.9333388E-01
       -1   -1    0    0    0  501  0.00000000000E+00  0.00000000000E+00  0.69843892400E+03  0.69843892402E+03  0.50400001928E-02 0. -1.
        1   -1    0    0  501    0  0.00000000000E+00  0.00000000000E+00 -0.34212962907E+03  0.34212962911E+03  0.50400001928E-02 0.  1.
    10030    2    1    2    0    0  0.00000000000E+00  0.00000000000E+00  0.35630929493E+03  0.10405685531E+04  0.97766384821E+03 0.  0.
        1    1    3    3  502    0 -0.55624689876E+02  0.34619072562E+03  0.54067911601E+03  0.64441914244E+03  0.50400001928E-02 0. -1.
       -1    1    3    3    0  502  0.55624689876E+02 -0.34619072562E+03 -0.18436982109E+03  0.39614941068E+03  0.50400001928E-02 0.  1.
</event>
<event>
 5   0  0.1617721E-02  0.1060208E+04  0.7818609E-02  0.9244868E-01
       -2   -1    0    0    0  501  0.00000000000E+00  0.00000000000E+00  0.96704437635E+03  0.96704437636E+03  0.25500000920E-02 0. -1.
        2   -1    0    0  501    0  0.00000000000E+00  0.00000000000E+00 -0.29058658928E+03  0.29058658930E+03  0.25500000920E-02 0.  1.
    10030    2    1    2    0    0  0.00000000000E+00  0.00000000000E+00  0.67645778707E+03  0.12576309657E+04  0.10602077665E+04 0.  0.
        5    1    3    3  502    0  0.17741883718E+02  0.41144025165E+03 -0.57671284831E+02  0.41586767391E+03  0.46999998093E+01 0.  1.
       -5    1    3    3    0  502 -0.17741883718E+02 -0.41144025165E+03  0.73412907190E+03  0.84176329174E+03  0.46999998093E+01 0. -1.
</event>
<event>
 5   0  0.9471140E-03  0.1005089E+04  0.7818609E-02  0.9302981E-01
        1   -1    0    0  501    0  0.00000000000E+00  0.00000000000E+00  0.64779308429E+03  0.64779308431E+03  0.50400001928E-02 0. -1.
       -1   -1    0    0    0  501  0.00000000000E+00  0.00000000000E+00 -0.38986340240E+03  0.38986340244E+03  0.50400001928E-02 0.  1.
    10030    2    1    2    0    0  0.00000000000E+00  0.00000000000E+00  0.25792968189E+03  0.10376564867E+04  0.10050886845E+04 0.  0.
        4    1    3    3  502    0 -0.59430345122E+02  0.20063496586E+03  0.60067564970E+03  0.63608113043E+03  0.12699999809E+01 0. -1.
       -4    1    3    3    0  502  0.59430345122E+02 -0.20063496586E+03 -0.34274596782E+03  0.40157535631E+03  0.12699999809E+01 0.  1.
</event>
<event>
 5   0  0.9396660E-03  0.1007474E+04  0.7818609E-02  0.9300385E-01
        1   -1    0    0  501    0  0.00000000000E+00  0.00000000000E+00  0.83973947161E+03  0.83973947162E+03  0.50400001928E-02 0. -1.
       -1   -1    0    0    0  501  0.00000000000E+00  0.00000000000E+00 -0.30217850304E+03  0.30217850308E+03  0.50400001928E-02 0.  1.
    10030    2    1    2    0    0  0.00000000000E+00  0.00000000000E+00  0.53756096857E+03  0.11419179747E+04  0.10074744989E+04 0.  0.
        5    1    3    3  502    0 -0.13437106163E+03  0.25565179435E+03 -0.19898502343E+03  0.35075711212E+03  0.46999998093E+01 0.  1.
       -5    1    3    3    0  502  0.13437106163E+03 -0.25565179435E+03  0.73654599199E+03  0.79116086258E+03  0.46999998093E+01 0. -1.
</event>
<event>
 5   0  0.1571895E-02  0.1045064E+04  0.7818609E-02  0.9260455E-01
       -2   -1    0    0    0  501  0.00000000000E+00  0.00000000000E+00  0.33097712056E+03  0.33097712057E+03  0.25500000920E-02 0. -1.
        2   -1    0    0  501    0  0.00000000000E+00  0.00000000000E+00 -0.82494997476E+03  0.82494997477E+03  0.25500000920E-02 0.  1.
    10030    2    1    2    0    0  0.00000000000E+00  0.00000000000E+00 -0.49397285420E+03  0.11559270953E+04  0.10450637632E+04 0.  0.
        2    1    3    3  502    0 -0.48578870868E+03 -0.14092253897E+03 -0.39200454203E+03  0.63993545959E+03  0.25500000920E-02 0.  1.
       -2    1    3    3    0  502  0.48578870868E+03  0.14092253897E+03 -0.10196831218E+03  0.51599163575E+03  0.25500000920E-02 0. -1.
</event>
<event>
 5   0  0.9507815E-03  0.9360332E+03  0.7818609E-02  0.9381626E-01
       -1   -1    0    0    0  501  0.00000000000E+00  0.00000000000E+00  0.16742430796E+04  0.16742430796E+04  0.50400001928E-02 0. -1.
        1   -1    0    0  501    0  0.00000000000E+00  0.00000000000E+00 -0.13082898640E+03  0.13082898649E+03  0.50400001928E-02 0.  1.
    10030    2    1    2    0    0  0.00000000000E+00  0.00000000000E+00  0.15434140932E+04  0.18050720661E+04  0.93603317287E+03 0.  0.
        1    1    3    3  502    0  0.40052450655E+03  0.21918884225E+03  0.57338915544E+03  0.73296572397E+03  0.50400001928E-02 0.  1.
       -1    1    3    3    0  502 -0.40052450655E+03 -0.21918884225E+03  0.97002493775E+03  0.10721063421E+04  0.50400001928E-02 0. -1.
</event>
<event>
 5   0  0.9759443E-03  0.1010462E+04  0.7818609E-02  0.9297144E-01
       -1   -1    0    0    0  501  0.00000000000E+00  0.00000000000E+00  0.24454340644E+03  0.24454340649E+03  0.50400001928E-02 0.  1.
        1   -1    0    0  501    0  0.00000000000E+00  0.00000000000E+00 -0.10438168632E+04  0.10438168632E+04  0.50400001928E-02 0. -1.
    10030    2    1    2    0    0  0.00000000000E+00  0.00000000000E+00 -0.79927345672E+03  0.12883602697E+04  0.10104623327E+04 0.  0.
        2    1    3    3  502    0  0.26239644981E+03  0.40369826836E+03 -0.20445301191E+03  0.52309198315E+03  0.25500000920E-02 0.  1.
       -2    1    3    3    0  502 -0.26239644981E+03 -0.40369826836E+03 -0.59482044481E+03  0.76526828650E+03  0.25500000920E-02 0. -1.
</event>
<event>
 5   0  0.1617721E-02  0.1001998E+04  0.7818609E-02  0.9306356E-01
       -2   -1    0    0    0  501  0.00000000000E+00  0.00000000000E+00  0.92343201932E+02  0.92343201967E+02  0.25500000920E-02 0.  1.
        2   -1    0    0  501    0  0.00000000000E+00  0.00000000000E+00 -0.27181235223E+04  0.27181235223E+04  0.25500000920E-02 0. -1.
    10030    2    1    2    0    0  0.00000000000E+00  0.00000000000E+00 -0.26257803203E+04  0.28104667242E+04  0.10019984618E+04 0.  0.
        5    1    3    3  502    0  0.22453504640E+03 -0.41571107700E+03 -0.17801033847E+04  0.18417442376E+04  0.46999998093E+01 0. -1.
       -5    1    3    3    0  502 -0.22453504640E+03  0.41571107700E+03 -0.84567693565E+03  0.96872248662E+03  0.46999998093E+01 0.  1.
</event>
<event>
 5   0  0.1656859E-02  0.1004920E+04  0.7818609E-02  0.9303166E-01
       -2   -1    0    0    0  501  0.00000000000E+00  0.00000000000E+00  0.39130781980E+03  0.39130781981E+03  0.25500000920E-02 0. -1.
        2   -1    0    0  501    0  0.00000000000E+00  0.00000000000E+00 -0.64518468551E+03  0.64518468551E+03  0.25500000920E-02 0.  1.
    10030    2    1    2    0    0  0.00000000000E+00  0.00000000000E+00 -0.25387686571E+03  0.10364925053E+04  0.10049195245E+04 0.  0.
        4    1    3    3  502    0 -0.23035193314E+03 -0.30717401641E+03 -0.46122989385E+03  0.60012708433E+03  0.12699999809E+01 0.  1.
       -4    1    3    3    0  502  0.23035193314E+03  0.30717401641E+03  0.20735302814E+03  0.43636542100E+03  0.12699999809E+01 0. -1.
</event>
<event>
 5   0  0.9759443E-03  0.9270451E+03  0.7818609E-02  0.9392391E-01
        1   -1    0    0  501    0  0.00000000000E+00  0.00000000000E+00  0.41851258840E+03  0.41851258843E+03  0.50400001928E-02 0.  1.
       -1   -1    0    0    0  501  0.00000000000E+00  0.00000000000E+00 -0.51337316987E+03  0.51337316990E+03  0.50400001928E-02 0. -1.
    10030    2    1    2    0    0  0.00000000000E+00  0.00000000000E+00 -0.94860581475E+02  0.93188575832E+03  0.92704505643E+03 0.  0.
        2    1    3    3  502    0  0.14264761805E+03 -0.39430760933E+03  0.15115200363E+03  0.44572834992E+03  0.25500000920E-02 0.  1.
       -2    1    3    3    0  502 -0.14264761805E+03  0.39430760933E+03 -0.24601258511E+03  0.48615740841E+03  0.25500000920E-02 0. -1.
</event>
<event>
 5   0  0.1000773E-02  0.1084663E+04  0.7818609E-02  0.9220270E-01
        1   -1    0    0  501    0  0.00000000000E+00  0.00000000000E+00  0.42427762791E+03  0.42427762794E+03  0.50400001928E-02 0. -1.
       -1   -1    0    0    0  501  0.00000000000E+00  0.00000000000E+00 -0.69323382191E+03  0.69323382193E+03  0.50400001928E-02 0.  1.
    10030    2    1    2    0    0  0.00000000000E+00  0.00000000000E+00 -0.26895619400E+03  0.11175114499E+04  0.10846632686E+04 0.  0.
        3    1    3    3  502    0  0.62989789867E+02 -0.52861299714E+03 -0.27784333442E+02  0.53307728685E+03  0.10100000352E+00 0. -1.
       -3    1    3    3    0  502 -0.62989789867E+02  0.52861299714E+03 -0.24117186056E+03  0.58443416302E+03  0.10100000352E+00 0.  1.
</event>
<event>
 5   0  0.9759443E-03  0.1057884E+04  0.7818609E-02  0.9247242E-01
       -1   -1    0    0    0  501  0.00000000000E+00  0.00000000000E+00  0.84893964812E+03  0.84893964814E+03  0.50400001928E-02 0.  1.
        1   -1    0    0  501    0  0.00000000000E+00  0.00000000000E+00 -0.32956362859E+03  0.32956362863E+03  0.50400001928E-02 0. -1.
    10030    2    1    2    0    0  0.00000000000E+00  0.00000000000E+00  0.51937601953E+03  0.11785032768E+04  0.10578839840E+04 0.  0.
        2    1    3    3  502    0  0.91422804025E+02 -0.45722576174E+03  0.53789437469E+03  0.71185945566E+03  0.25500000920E-02 0.  1.
       -2    1    3    3    0  502 -0.91422804025E+02  0.45722576174E+03 -0.18518355157E+02  0.46664382111E+03  0.25500000920E-02 0. -1.
</event>
<event>
 5   0  0.1598986E-02  0.9824706E+03  0.7818609E-02  0.9327982E-01
       -2   -1    0    0    0  501  0.00000000000E+00  0.00000000000E+00  0.64356899741E+03  0.64356899742E+03  0.25500000920E-02 0. -1.
        2   -1    0    0  501    0  0.00000000000E+00  0.00000000000E+00 -0.37495918846E+03  0.37495918846E+03  0.25500000920E-02 0.  1.
    10030    2    1    2    0    0  0.00000000000E+00  0.00000000000E+00  0.26860980896E+03  0.10185281859E+04  0.98247057766E+03 0.  0.
        3    1    3    3  502    0 -0.30415881727E+03 -0.66150247562E+01 -0.26553891325E+03  0.40381588544E+03  0.10100000352E+00 0.  1.
       -3    1    3    3    0  502  0.30415881727E+03  0.66150247562E+01  0.53414872221E+03  0.61471230044E+03  0.10100000352E+00 0. -1.
</event>
<event>
 5   0  0.9396660E-03  0.9942156E+03  0.7818609E-02  0.9314912E-01
       -1   -1    0    0    0  501  0.00000000000E+00  0.00000000000E+00  0.26936971038E+03  0.26936971043E+03  0.50400001928E-02 0.  1.
        1   -1    0    0  501    0  0.00000000000E+00  0.00000000000E+00 -0.91738660492E+03  0.91738660493E+03  0.50400001928E-02 0. -1.
    10030    2    1    2    0    0  0.00000000000E+00  0.00000000000E+00 -0.64801689453E+03  0.11867563154E+04  0.99421559857E+03 0.  0.
        5    1    3    3  502    0  0.25723610951E+03 -0.41881613416E+03 -0.23534985856E+03  0.54496698634E+03  0.46999998093E+01 0.  1.
       -5    1    3    3    0  502 -0.25723610951E+03  0.41881613416E+03 -0.41266703597E+03  0.64178932902E+03  0.46999998093E+01 0. -1.
</event>
<event>
 5   0  0.9471140E-03  0.1045869E+04  0.7818609E-02  0.9259620E-01
       -1   -1    0    0    0  501  0.00000000000E+00  0.00000000000E+00  0.24161540889E+03  0.24161540894E+03  0.50400001928E-02 0.  1.
        1   -1    0    0  501    0  0.00000000000E+00  0.00000000000E+00 -0.11317998239E+04  0.11317998240E+04  0.50400001928E-02 0. -1.
    10030    2    1    2    0    0  0.00000000000E+00  0.00000000000E+00 -0.89018441505E+03  0.13734152329E+04  0.10458685908E+04 0.  0.
        4    1    3    3  502    0  0.29787729822E+03  0.43740985323E+02 -0.10065667446E+04  0.10506295174E+04  0.12699999809E+01 0. -1.
       -4    1    3    3    0  502 -0.29787729822E+03 -0.43740985323E+02  0.11638232956E+03  0.32278571549E+03  0.12699999809E+01 0.  1.
</event>
<event>
 5   0  0.1000773E-02  0.9992622E+03  0.7818609E-02  0.9309354E-01
       -1   -1    0    0    0  501  0.00000000000E+00  0.00000000000E+00  0.79545023405E+03  0.79545023406E+03  0.50400001928E-02 0.  1.
        1   -1    0    0  501    0  0.00000000000E+00  0.00000000000E+00 -0.31382384467E+03  0.31382384471E+03  0.50400001928E-02 0. -1.
    10030    2    1    2    0    0  0.00000000000E+00  0.00000000000E+00  0.48162638938E+03  0.11092740788E+04  0.99926222930E+03 0.  0.
        3    1    3    3  502    0  0.14026827302E+03  0.19108577182E+02  0.77272146320E+03  0.78558182007E+03  0.10100000352E+00 0.  1.
       -3    1    3    3    0  502 -0.14026827302E+03 -0.19108577182E+02 -0.29109507383E+03  0.32369225870E+03  0.10100000352E+00 0. -1.
</event>
<event>
 5   0  0.1663497E-02  0.9923868E+03  0.7818609E-02  0.9316934E-01
       -2   -1    0    0    0  501  0.00000000000E+00  0.00000000000E+00  0.34060465650E+03  0.34060465651E+03  0.25500000920E-02 0.  1.
        2   -1    0    0  501    0  0.00000000000E+00  0.00000000000E+00 -0.72285533831E+03  0.72285533832E+03  0.25500000920E-02 0. -1.
    10030    2    1    2    0    0  0.00000000000E+00  0.00000000000E+00 -0.38225068181E+03  0.10634599948E+04  0.99238680808E+03 0.  0.
        1    1    3    3  502    0  0.22471764104E+03  0.12431571070E+03  0.26384639006E+03  0.36819469264E+03  0.50400001928E-02 0.  1.
       -1    1    3    3    0  502 -0.22471764104E+03 -0.12431571070E+03 -0.64609707187E+03  0.69526530219E+03  0.50400001928E-02 0. -1.
</event>
<event>
 5   0  0.9507815E-03  0.9721219E+03  0.7818609E-02  0.9339661E-01
        1   -1    0    0  501    0  0.00000000000E+00  0.00000000000E+00  0.72922852321E+03  0.72922852323E+03  0.50400001928E-02 0.  1.
       -1   -1    0    0    0  501  0.00000000000E+00  0.00000000000E+00 -0.32397969247E+03  0.32397969251E+03  0.50400001928E-02 0. -1.
    10030    2    1    2    0    0  0.00000000000E+00  0.00000000000E+00  0.40524883074E+03  0.10532082157E+04  0.97212187038E+03 0.  0.
        1    1    3    3  502    0  0.40994651773E+03  0.25761886906E+03  0.15625738639E+03  0.50876320614E+03  0.50400001928E-02 0. -1.
       -1    1    3    3    0  502 -0.40994651773E+03 -0.25761886906E+03  0.24899144435E+03  0.54444500960E+03  0.50400001928E-02 0.  1.
</event>
<event>
 5   0  0.1598986E-02  0.9937795E+03  0.7818609E-02  0.9315394E-01
        2   -1    0    0  501    0  0.00000000000E+00  0.00000000000E+00  0.18206877022E+04  0.18206877022E+04  0.25500000920E-02 0.  1.
       -2   -1    0    0    0  501  0.00000000000E+00  0.00000000000E+00 -0.13560778670E+03  0.13560778673E+03  0.25500000920E-02 0. -1.
    10030    2    1    2    0    0  0.00000000000E+00  0.00000000000E+00  0.16850799155E+04  0.19562954889E+04  0.99377951196E+03 0.  0.
        3    1    3    3  502    0  0.22974187822E+03  0.28724062041E+03  0.15001943854E+04  0.15446267215E+04  0.10100000352E+00 0.  1.
       -3    1    3    3    0  502 -0.22974187822E+03 -0.28724062041E+03  0.18488553010E+03  0.41166876741E+03  0.10100000352E+00 0. -1.
</event>
<event>
 5   0  0.1598986E-02  0.1071731E+04  0.7818609E-02  0.9233192E-01
        2   -1    0    0  501    0  0.00000000000E+00  0.00000000000E+00  0.10371695739E+04  0.10371695739E+04  0.25500000920E-02 0. -1.
       -2   -1    0    0    0  501  0.00000000000E+00  0.00000000000E+00 -0.27686091865E+03  0.27686091866E+03  0.25500000920E-02 0.  1.
    10030    2    1    2    0    0  0.00000000000E+00  0.00000000000E+00  0.76030865520E+03  0.13140304925E+04  0.10717307890E+04 0.  0.
        3    1    3    3  502    0 -0.17481680356E+02  0.16241583399E+03 -0.24558904035E+03  0.29495508000E+03  0.10100000352E+00 0.  1.
       -3    1    3    3    0  502  0.17481680356E+02 -0.16241583399E+03  0.10058976955E+04  0.10190754125E+04  0.10100000352E+00 0. -1.
</event>
<event>
 5   0  0.1656859E-02  0.9672844E+03  0.7818609E-02  0.9345173E-01
       -2   -1    0    0    0  501  0.00000000000E+00  0.00000000000E+00  0.56380823422E+03  0.56380823423E+03  0.25500000920E-02 0. -1.
        2   -1    0    0  501    0  0.00000000000E+00  0.00000000000E+00 -0.41487472967E+03  0.41487472967E+03  0.25500000920E-02 0.  1.
    10030    2    1    2    0    0  0.00000000000E+00  0.00000000000E+00  0.14893350456E+03  0.97868296390E+03  0.96728442304E+03 0.  0.
        4    1    3    3  502    0  0.18241696436E+03  0.50279102917E+02 -0.37586722839E+03  0.42081079282E+03  0.12699999809E+01 0.  1.
       -4    1    3    3    0  502 -0.18241696436E+03 -0.50279102917E+02  0.52480073294E+03  0.55787217109E+03  0.12699999809E+01 0. -1.
</event>
<event>
 5   0  0.1000773E-02  0.9637732E+03  0.7818609E-02  0.9349195E-01
        1   -1    0    0  501    0  0.00000000000E+00  0.00000000000E+00  0.19033613358E+04  0.19033613358E+04  0.50400001928E-02 0.  1.
       -1   -1    0    0    0  501  0.00000000000E+00  0.00000000000E+00 -0.12200243489E+03  0.12200243500E+03  0.50400001928E-02 0. -1.
    10030    2    1    2    0    0  0.00000000000E+00  0.00000000000E+00  0.17813589009E+04  0.20253637708E+04  0.96377324627E+03 0.  0.
        3    1    3    3  502    0 -0.15324158043E+03  0.39786169130E+03  0.13626405870E+04  0.14277836975E+04  0.10100000352E+00 0.  1.
       -3    1    3    3    0  502  0.15324158043E+03 -0.39786169130E+03  0.41871831391E+03  0.59758007328E+03  0.10100000352E+00 0. -1.
</event>
<event>
 5   0  0.1656859E-02  0.1002730E+04  0.7818609E-02  0.9305556E-01
        2   -1    0    0  501    0  0.00000000000E+00  0.00000000000E+00  0.17942527450E+04  0.17942527450E+04  0.25500000920E-02 0. -1.
       -2   -1    0    0    0  501  0.00000000000E+00  0.00000000000E+00 -0.14009557125E+03  0.14009557128E+03  0.25500000920E-02 0.  1.
    10030    2    1    2    0    0  0.00000000000E+00  0.00000000000E+00  0.16541571737E+04  0.19343483163E+04  0.10027300002E+04 0.  0.
        4    1    3    3  502    0  0.19514446202E+03 -0.24124027640E+03  0.67385114945E+02  0.31752259546E+03  0.12699999809E+01 0.  1.
       -4    1    3    3    0  502 -0.19514446202E+03  0.24124027640E+03  0.15867720588E+04  0.16168257208E+04  0.12699999809E+01 0. -1.
</event>
<event>
 5   0  0.9396660E-03  0.9938276E+03  0.7818609E-02  0.9315341E-01
       -1   -1    0    0    0  501  0.00000000000E+00  0.00000000000E+00  0.42970368367E+03  0.42970368370E+03  0.50400001928E-02 0. -1.
        1   -1    0    0  501    0  0.00000000000E+00  0.00000000000E+00 -0.57463632249E+03  0.57463632251E+03  0.50400001928E-02 0.  1.
    10030    2    1    2    0    0  0.00000000000E+00  0.00000000000E+00 -0.14493263882E+03  0.10043400062E+04  0.99382764013E+03 0.  0.
        5    1    3    3  502    0  0.11936182191E+03  0.14917642451E+03 -0.53601246738E+03  0.56906265502E+03  0.46999998093E+01 0.  1.
       -5    1    3    3    0  502 -0.11936182191E+03 -0.14917642451E+03  0.39107982856E+03  0.43527735119E+03  0.46999998093E+01 0. -1.
</event>
<event>
 5   0  0.1663497E-02  0.9826336E+03  0.7818609E-02  0.9327800E-01
        2   -1    0    0  501    0  0.00000000000E+00  0.00000000000E+00  0.60253985940E+03  0.60253985940E+03  0.25500000920E-02 0. -1.
       -2   -1    0    0    0  501  0.00000000000E+00  0.00000000000E+00 -0.40062446443E+03  0.40062446444E+03  0.25500000920E-02 0.  1.
    10030    2    1    2    0    0  0.00000000000E+00  0.00000000000E+00  0.20191539497E+03  0.10031643238E+04  0.98263362140E+03 0.  0.
        1    1    3    3  502    0  0.78441645226E+02 -0.17938769631E+03  0.56099363916E+03  0.59417749915E+03  0.50400001928E-02 0. -1.
       -1    1    3    3    0  502 -0.78441645226E+02  0.17938769631E+03 -0.35907824420E+03  0.40898682469E+03  0.50400001928E-02 0.  1.
</event>
<event>
 5   0  0.9759443E-03  0.1024418E+04  0.7818609E-02  0.9282162E-01
       -1   -1    0    0    0  501  0.00000000000E+00  0.00000000000E+00  0.33639497068E+03  0.33639497071E+03  0.50400001928E-02 0.  1.
        1   -1    0    0  501    0  0.00000000000E+00  0.00000000000E+00 -0.77991093810E+03  0.77991093811E+03  0.50400001928E-02 0. -1.
    10030    2    1    2    0    0  0.00000000000E+00  0.00000000000E+00 -0.44351596742E+03  0.11163059088E+04  0.10244181123E+04 0.  0.
        2    1    3    3  502    0  0.39478290877E+03 -0.24489277429E+03 -0.45681991887E+03  0.65154466788E+03  0.25500000920E-02 0. -1.
       -2    1    3    3    0  502 -0.39478290877E+03  0.24489277429E+03  0.13303951448E+02  0.46476124095E+03  0.25500000920E-02 0.  1.
</event>
<event>
 5   0  0.1617721E-02  0.1032389E+04  0.7818609E-02  0.9273717E-01
       -2   -1    0    0    0  501  0.00000000000E+00  0.00000000000E+00  0.25321768243E+03  0.25321768245E+03  0.25500000920E-02 0.  1.
        2   -1    0    0  501    0  0.00000000000E+00  0.00000000000E+00 -0.10522836366E+04  0.10522836366E+04  0.25500000920E-02 0. -1.
    10030    2    1    2    0    0  0.00000000000E+00  0.00000000000E+00 -0.79906595416E+03  0.13055013190E+04  0.10323891199E+04 0.  0.
        5    1    3    3  502    0 -0.34223467534E+03 -0.37359256035E+03 -0.52432468203E+03  0.72913266031E+03  0.46999998093E+01 0.  1.
       -5    1    3    3    0  502  0.34223467534E+03  0.37359256035E+03 -0.27474127213E+03  0.57636865872E+03  0.46999998093E+01 0. -1.
</event>
<event>
 5   0  0.1000773E-02  0.1034031E+04  0.7818609E-02  0.9271988E-01
        1   -1    0    0  501    0  0.00000000000E+00  0.00000000000E+00  0.18615832678E+03  0.18615832685E+03  0.50400001928E-02 0. -1.
       -1   -1    0    0    0  501  0.00000000000E+00  0.00000000000E+00 -0.14359010318E+04  0.14359010318E+04  0.50400001928E-02 0.  1.
    10030    2    1    2    0    0  0.00000000000E+00  0.00000000000E+00 -0.12497427050E+04  0.16220593586E+04  0.10340308188E+04 0.  0.
        3    1    3    3  502    0  0.32823007290E+03  0.39797710224E+03 -0.57089046184E+03  0.76943920117E+03  0.10100000352E+00 0.  1.
       -3    1    3    3    0  502 -0.32823007290E+03 -0.39797710224E+03 -0.67885224314E+03  0.85262015745E+03  0.10100000352E+00 0. -1.
</event>
<event>
 5   0  0.1000773E-02  0.9311355E+03  0.7818609E-02  0.9387476E-01
       -1   -1    0    0    0  501  0.00000000000E+00  0.00000000000E+00  0.27714480312E+03  0.27714480317E+03  0.50400001928E-02 0. -1.
        1   -1    0    0  501    0  0.00000000000E+00  0.00000000000E+00 -0.78209406956E+03  0.78209406958E+03  0.50400001928E-02 0.  1.
    10030    2    1    2    0    0  0.00000000000E+00  0.00000000000E+00 -0.50494926644E+03  0.10592388727E+04  0.93113545086E+03 0.  0.
        3    1    3    3  502    0 -0.30429141042E+03  0.16589313079E+03 -0.60611219994E+03  0.69820183501E+03  0.10100000352E+00 0.  1.
       -3    1    3    3    0  502  0.30429141042E+03 -0.16589313079E+03  0.10116293350E+03  0.36103703773E+03  0.10100000352E+00 0. -1.
</event>
<event>
 5   0  0.6314750E-03  0.1027965E+04  0.7818609E-02  0.9278395E-01
        3   -1    0    0  501    0  0.00000000000E+00  0.00000000000E+00  0.56370007882E+03  0.56370008787E+03  0.10100000352E+00 0.  1.
       -3   -1    0    0    0  501  0.00000000000E+00  0.00000000000E+00 -0.46864948745E+03  0.46864949833E+03  0.10100000352E+00 0. -1.
    10030    2    1    2    0    0  0.00000000000E+00  0.00000000000E+00  0.95050591373E+02  0.10323495862E+04  0.10279645194E+04 0.  0.
        2    1    3    3  502    0 -0.37672030590E+03  0.12347668663E+03  0.37604929379E+03  0.54642268656E+03  0.25500000920E-02 0.  1.
       -2    1    3    3    0  502  0.37672030590E+03 -0.12347668663E+03 -0.28099870242E+03  0.48592689963E+03  0.25500000920E-02 0. -1.
</event>
<event>
 5   0  0.9507815E-03  0.1069014E+04  0.7818609E-02  0.9235931E-01
       -1   -1    0    0    0  501  0.00000000000E+00  0.00000000000E+00  0.13621958408E+04  0.13621958408E+04  0.50400001928E-02 0.  1.
        1   -1    0    0  501    0  0.00000000000E+00  0.00000000000E+00 -0.20973311425E+03  0.20973311431E+03  0.50400001928E-02 0. -1.
    10030    2    1    2    0    0  0.00000000000E+00  0.00000000000E+00  0.11524627266E+04  0.15719289551E+04  0.10690137061E+04 0.  0.
        1    1    3    3  502    0  0.24637802386E+03 -0.24805608453E+03  0.11707427843E+04  0.12218316655E+04  0.50400001928E-02 0.  1.
       -1    1    3    3    0  502 -0.24637802386E+03  0.24805608453E+03 -0.18280057722E+02  0.35009728969E+03  0.50400001928E-02 0. -1.
</event>
<event>
 5   0  0.9759443E-03  0.9932970E+03  0.7818609E-02  0.9315927E-01
       -1   -1    0    0    0  501  0.00000000000E+00  0.00000000000E+00  0.17895717169E+03  0.17895717176E+03  0.50400001928E-02 0.  1.
        1   -1    0    0  501    0  0.00000000000E+00  0.00000000000E+00 -0.13783172172E+04  0.13783172172E+04  0.50400001928E-02 0. -1.
    10030    2    1    2    0    0  0.00000000000E+00  0.00000000000E+00 -0.11993600455E+04  0.15572743890E+04  0.99329703703E+03 0.  0.
        2    1    3    3  502    0 -0.27618872525E+02  0.48852557733E+03 -0.46628287010E+03  0.67589922087E+03  0.25500000920E-02 0.  1.
       -2    1    3    3    0  502  0.27618872525E+02 -0.48852557733E+03 -0.73307717543E+03  0.88137516811E+03  0.25500000920E-02 0. -1.
</event>
<event>
 5   0  0.9396660E-03  0.1192657E+04  0.7818609E-02  0.9119308E-01
        1   -1    0    0  501    0  0.00000000000E+00  0.00000000000E+00  0.10173173851E+04  0.10173173851E+04  0.50400001928E-02 0.  1.
       -1   -1    0    0    0  501  0.00000000000E+00  0.00000000000E+00 -0.34955450292E+03  0.34955450295E+03  0.50400001928E-02 0. -1.
    10030    2    1    2    0    0  0.00000000000E+00  0.00000000000E+00  0.66776288214E+03  0.13668718880E+04  0.11926573236E+04 0.  0.
        5    1    3    3  502    0 -0.29672149225E+03 -0.23952494973E+03  0.85929034661E+03  0.94011586269E+03  0.46999998093E+01 0.  1.
       -5    1    3    3    0  502  0.29672149225E+03  0.23952494973E+03 -0.19152746448E+03  0.42675602533E+03  0.46999998093E+01 0. -1.
</event>
<event>
 5   0  0.1617721E-02  0.1042537E+04  0.7818609E-02  0.9263084E-01
        2   -1    0    0  501    0  0.00000000000E+00  0.00000000000E+00  0.10033119641E+04  0.10033119642E+04  0.25500000920E-02 0. -1.
       -2   -1    0    0    0  501  0.00000000000E+00  0.00000000000E+00 -0.27082366727E+03  0.27082366729E+03  0.25500000920E-02 0.  1.
    10030    2    1    2    0    0  0.00000000000E+00  0.00000000000E+00  0.73248829687E+03  0.12741356314E+04  0.10425365712E+04 0.  0.
        5    1    3    3  502    0 -0.16363635362E+03 -0.49176290455E+03  0.43419088447E+03  0.67612973953E+03  0.46999998093E+01 0. -1.
       -5    1    3    3    0  502  0.16363635362E+03  0.49176290455E+03  0.29829741240E+03  0.59800589191E+03  0.46999998093E+01 0.  1.
</event>
<event>
 5   0  0.9396660E-03  0.9442746E+03  0.7818609E-02  0.9371868E-01
       -1   -1    0    0    0  501  0.00000000000E+00  0.00000000000E+00  0.49003501582E+03  0.49003501584E+03  0.50400001928E-02 0. -1.
        1   -1    0    0  501    0  0.00000000000E+00  0.00000000000E+00 -0.45489324685E+03  0.45489324688E+03  0.50400001928E-02 0.  1.
    10030    2    1    2    0    0  0.00000000000E+00  0.00000000000E+00  0.35141768966E+02  0.94492826272E+03  0.94427457753E+03 0.  0.
        5    1    3    3  502    0  0.44397288481E+02  0.46750147141E+03  0.66213015527E+02  0.47427312639E+03  0.46999998093E+01 0. -1.
       -5    1    3    3    0  502 -0.44397288481E+02 -0.46750147141E+03 -0.31071246561E+02  0.47065513633E+03  0.46999998093E+01 0.  1.
</event>
<event>
 5   0  0.1663497E-02  0.9953993E+03  0.7818609E-02  0.9313605E-01
        2   -1    0    0  501    0  0.00000000000E+00  0.00000000000E+00  0.27345607446E+04  0.27345607446E+04  0.25500000920E-02 0. -1.
       -2   -1    0    0    0  501  0.00000000000E+00  0.00000000000E+00 -0.90583090401E+02  0.90583090437E+02  0.25500000920E-02 0.  1.
    10030    2    1    2    0    0  0.00000000000E+00  0.00000000000E+00  0.26439776542E+04  0.28251438350E+04  0.99539934335E+03 0.  0.
        1    1    3    3  502    0 -0.42089575113E+03  0.14791009990E+03  0.19481602085E+04  0.19985892096E+04  0.50400001928E-02 0.  1.
       -1    1    3    3    0  502  0.42089575113E+03 -0.14791009990E+03  0.69581744572E+03  0.82655462540E+03  0.50400001928E-02 0. -1.
</event>
<event>
 5   0  0.9507815E-03  0.9362048E+03  0.7818609E-02  0.9381422E-01
       -1   -1    0    0    0  501  0.00000000000E+00  0.00000000000E+00  0.26368126606E+03  0.26368126611E+03  0.50400001928E-02 0.  1.
        1   -1    0    0  501    0  0.00000000000E+00  0.00000000000E+00 -0.83100273081E+03  0.83100273083E+03  0.50400001928E-02 0. -1.
    10030    2    1    2    0    0  0.00000000000E+00  0.00000000000E+00 -0.56732146475E+03  0.10946839969E+04  0.93620478998E+03 0.  0.
        1    1    3    3  502    0  0.22420420226E+03  0.20746478117E+03 -0.69840146139E+03  0.76228194327E+03  0.50400001928E-02 0. -1.
       -1    1    3    3    0  502 -0.22420420226E+03 -0.20746478117E+03  0.13107999664E+03  0.33240205367E+03  0.50400001928E-02 0.  1.
</event>
<event>
 5   0  0.1656859E-02  0.1003894E+04  0.7818609E-02  0.9304284E-01
        2   -1    0    0  501    0  0.00000000000E+00  0.00000000000E+00  0.96759001200E+03  0.96759001200E+03  0.25500000920E-02 0.  1.
       -2   -1    0    0    0  501  0.00000000000E+00  0.00000000000E+00 -0.26039018167E+03  0.26039018169E+03  0.25500000920E-02 0. -1.
    10030    2    1    2    0    0  0.00000000000E+00  0.00000000000E+00  0.70719983033E+03  0.12279801937E+04  0.10038942953E+04 0.  0.
        4    1    3    3  502    0  0.25726668362E+03  0.30418564228E+03 -0.19900573143E+02  0.39888932949E+03  0.12699999809E+01 0. -1.
       -4    1    3    3    0  502 -0.25726668362E+03 -0.30418564228E+03  0.72710040347E+03  0.82909086420E+03  0.12699999809E+01 0.  1.
</event>
<event>
 5   0  0.1598986E-02  0.9882147E+03  0.7818609E-02  0.9321566E-01
        2   -1    0    0  501    0  0.00000000000E+00  0.00000000000E+00  0.19749884967E+03  0.19749884968E+03  0.25500000920E-02 0. -1.
       -2   -1    0    0    0  501  0.00000000000E+00  0.00000000000E+00 -0.12361695472E+04  0.12361695472E+04  0.25500000920E-02 0.  1.
    10030    2    1    2    0    0  0.00000000000E+00  0.00000000000E+00 -0.10386706975E+04  0.14336683969E+04  0.98821468027E+03 0.  0.
        3    1    3    3  502    0  0.22704658418E+03 -0.33437295837E+03 -0.10698425784E+03  0.41809217680E+03  0.10100000352E+00 0. -1.
       -3    1    3    3    0  502 -0.22704658418E+03  0.33437295837E+03 -0.93168643968E+03  0.10155762201E+04  0.10100000352E+00 0.  1.
</event>
<event>
 5   0  0.1000773E-02  0.9110688E+03  0.7818609E-02  0.9411850E-01
        1   -1    0    0  501    0  0.00000000000E+00  0.00000000000E+00  0.16750486764E+04  0.16750486764E+04  0.50400001928E-02 0. -1.
       -1   -1    0    0    0  501  0.00000000000E+00  0.00000000000E+00 -0.12388391562E+03  0.12388391572E+03  0.50400001928E-02 0.  1.
    10030    2    1    2    0    0  0.00000000000E+00  0.00000000000E+00  0.15511647608E+04  0.17989325922E+04  0.91106879870E+03 0.  0.
        3    1    3    3  502    0  0.38594254174E+03  0.18902104018E+03  0.10739323445E+04  0.11567243794E+04  0.10100000352E+00 0. -1.
       -3    1    3    3    0  502 -0.38594254174E+03 -0.18902104018E+03  0.47723241634E+03  0.64220821278E+03  0.10100000352E+00 0.  1.
</event>
<event>
 5   0  0.9396660E-03  0.9655120E+03  0.7818609E-02  0.9347201E-01
        1   -1    0    0  501    0  0.00000000000E+00  0.00000000000E+00  0.97776362054E+03  0.97776362055E+03  0.50400001928E-02 0. -1.
       -1   -1    0    0    0  501  0.00000000000E+00  0.00000000000E+00 -0.23835347590E+03  0.23835347596E+03  0.50400001928E-02 0.  1.
    10030    2    1    2    0    0  0.00000000000E+00  0.00000000000E+00  0.73941014464E+03  0.12161170965E+04  0.96551200429E+03 0.  0.
        5    1    3    3  502    0  0.35110636934E+02  0.37652254104E+01 -0.23669571384E+03  0.23936141021E+03  0.46999998093E+01 0.  1.
       -5    1    3    3    0  502 -0.35110636934E+02 -0.37652254104E+01  0.97610585848E+03  0.97675568630E+03  0.46999998093E+01 0. -1.
</event>
<event>
 5   0  0.6314750E-03  0.1023965E+04  0.7818609E-02  0.9282644E-01
        3   -1    0    0  501    0  0.00000000000E+00  0.00000000000E+00  0.68544151694E+03  0.68544152438E+03  0.10100000352E+00 0.  1.
       -3   -1    0    0    0  501  0.00000000000E+00  0.00000000000E+00 -0.38241929251E+03  0.38241930584E+03  0.10100000352E+00 0. -1.
    10030    2    1    2    0    0  0.00000000000E+00  0.00000000000E+00  0.30302222444E+03  0.10678608302E+04  0.10239649819E+04 0.  0.
        1    1    3    3  502    0  0.72246257648E+01 -0.31971887656E+03 -0.26544555231E+03  0.41561243546E+03  0.50400001928E-02 0. -1.
       -1    1    3    3    0  502 -0.72246257648E+01  0.31971887656E+03  0.56846777675E+03  0.65224839476E+03  0.50400001928E-02 0.  1.
</event>
<event>
 5   0  0.9759443E-03  0.1447749E+04  0.7818609E-02  0.8919962E-01
        1   -1    0    0  501    0  0.00000000000E+00  0.00000000000E+00  0.18876351303E+04  0.18876351303E+04  0.50400001928E-02 0.  1.
       -1   -1    0    0    0  501  0.00000000000E+00  0.00000000000E+00 -0.27759304345E+03  0.27759304349E+03  0.50400001928E-02 0. -1.
    10030    2    1    2    0    0  0.00000000000E+00  0.00000000000E+00  0.16100420868E+04  0.21652281738E+04  0.14477491230E+04 0.  0.
        2    1    3    3  502    0  0.70406561668E+02 -0.60182288678E+03  0.13973293025E+04  0.15230486042E+04  0.25500000920E-02 0. -1.
       -2    1    3    3    0  502 -0.70406561668E+02  0.60182288678E+03  0.21271278429E+03  0.64217956958E+03  0.25500000920E-02 0.  1.
</event>
<event>
 5   0  0.1598986E-02  0.1004863E+04  0.7818609E-02  0.9303227E-01
       -2   -1    0    0    0  501  0.00000000000E+00  0.00000000000E+00  0.22800249578E+03  0.22800249580E+03  0.25500000920E-02 0.  1.
        2   -1    0    0  501    0  0.00000000000E+00  0.00000000000E+00 -0.11071700946E+04  0.11071700946E+04  0.25500000920E-02 0. -1.
    10030    2    1    2    0    0  0.00000000000E+00  0.00000000000E+00 -0.87916759878E+03  0.13351725904E+04  0.10048632640E+04 0.  0.
        3    1    3    3  502    0 -0.36627676108E+03 -0.34197731077E+03 -0.39111976404E+03  0.63567430875E+03  0.10100000352E+00 0.  1.
       -3    1    3    3    0  502  0.36627676108E+03  0.34197731077E+03 -0.48804783474E+03  0.69949828161E+03  0.10100000352E+00 0. -1.
</event>
<event>
 5   0  0.1571895E-02  0.1005871E+04  0.7818609E-02  0.9302129E-01
        2   -1    0    0  501    0  0.00000000000E+00  0.00000000000E+00  0.13627796725E+04  0.13627796725E+04  0.25500000920E-02 0. -1.
       -2   -1    0    0    0  501  0.00000000000E+00  0.00000000000E+00 -0.18560901265E+03  0.18560901267E+03  0.25500000920E-02 0.  1.
    10030    2    1    2    0    0  0.00000000000E+00  0.00000000000E+00  0.11771706599E+04  0.15483886852E+04  0.10058711438E+04 0.  0.
        2    1    3    3  502    0 -0.20069449067E+03  0.28284609183E+03  0.11492641907E+04  0.12004534020E+04  0.25500000920E-02 0. -1.
       -2    1    3    3    0  502  0.20069449067E+03 -0.28284609183E+03  0.27906469116E+02  0.34793528317E+03  0.25500000920E-02 0.  1.
</event>
<event>
 5   0  0.1598986E-02  0.9933857E+03  0.7818609E-02  0.9315829E-01
        2   -1    0    0  501    0  0.00000000000E+00  0.00000000000E+00  0.12430907850E+04  0.12430907850E+04  0.25500000920E-02 0. -1.
       -2   -1    0    0    0  501  0.00000000000E+00  0.00000000000E+00 -0.19845999982E+03  0.19845999983E+03  0.25500000920E-02 0.  1.
    10030    2    1    2    0    0  0.00000000000E+00  0.00000000000E+00  0.10446307852E+04  0.14415507848E+04  0.99338571959E+03 0.  0.
        3    1    3    3  502    0 -0.74078679246E+02  0.26550226721E+02 -0.18935632408E+03  0.20505704798E+03  0.10100000352E+00 0.  1.
       -3    1    3    3    0  502  0.74078679246E+02 -0.26550226721E+02  0.12339871092E+04  0.12364937368E+04  0.10100000352E+00 0. -1.
</event>
<event>
 5   0  0.1571895E-02  0.9476266E+03  0.7818609E-02  0.9367929E-01
        2   -1    0    0  501    0  0.00000000000E+00  0.00000000000E+00  0.84186635409E+03  0.84186635410E+03  0.25500000920E-02 0.  1.
       -2   -1    0    0    0  501  0.00000000000E+00  0.00000000000E+00 -0.26666828340E+03  0.26666828342E+03  0.25500000920E-02 0. -1.
    10030    2    1    2    0    0  0.00000000000E+00  0.00000000000E+00  0.57519807069E+03  0.11085346375E+04  0.94762662586E+03 0.  0.
        2    1    3    3  502    0  0.38423161738E+02  0.87572779812E+02  0.83045949043E+03  0.83594754403E+03  0.25500000920E-02 0.  1.
       -2    1    3    3    0  502 -0.38423161738E+02 -0.87572779812E+02 -0.25526141974E+03  0.27258709348E+03  0.25500000920E-02 0. -1.
</event>
<event>
 5   0  0.1598986E-02  0.9915628E+03  0.7818609E-02  0.9317847E-01
       -2   -1    0    0    0  501  0.00000000000E+00  0.00000000000E+00  0.57114682679E+03  0.57114682680E+03  0.25500000920E-02 0.  1.
        2   -1    0    0  501    0  0.00000000000E+00  0.00000000000E+00 -0.43036079931E+03  0.43036079932E+03  0.25500000920E-02 0. -1.
    10030    2    1    2    0    0  0.00000000000E+00  0.00000000000E+00  0.14078602748E+03  0.10015076261E+04  0.99156281679E+03 0.  0.
        3    1    3    3  502    0  0.16898908839E+03  0.45253276569E+03 -0.42332690303E+02  0.48490749931E+03  0.10100000352E+00 0. -1.
       -3    1    3    3    0  502 -0.16898908839E+03 -0.45253276569E+03  0.18311871779E+03  0.51660012681E+03  0.10100000352E+00 0.  1.
</event>
<event>
 5   0  0.1617721E-02  0.6888412E+03  0.7818609E-02  0.9736508E-01
        2   -1    0    0  501    0  0.00000000000E+00  0.00000000000E+00  0.31347223335E+03  0.31347223336E+03  0.25500000920E-02 0.  1.
       -2   -1    0    0    0  501  0.00000000000E+00  0.00000000000E+00 -0.37842444301E+03  0.37842444302E+03  0.25500000920E-02 0. -1.
    10030    2    1    2    0    0  0.00000000000E+00  0.00000000000E+00 -0.64952209664E+02  0.69189667638E+03  0.68884121628E+03 0.  0.
        5    1    3    3  502    0 -0.15660350700E+03 -0.28587565100E+03 -0.14411730472E+03  0.35642872185E+03  0.46999998093E+01 0. -1.
       -5    1    3    3    0  502  0.15660350700E+03  0.28587565100E+03  0.79165095058E+02  0.33546795453E+03  0.46999998093E+01 0.  1.
</event>
<event>
 5   0  0.1656859E-02  0.9694342E+03  0.7818609E-02  0.9342719E-01
       -2   -1    0    0    0  501  0.00000000000E+00  0.00000000000E+00  0.13396293842E+03  0.13396293844E+03  0.25500000920E-02 0. -1.
        2   -1    0    0  501    0  0.00000000000E+00  0.00000000000E+00 -0.17538481107E+04  0.17538481107E+04  0.25500000920E-02 0.  1.
    10030    2    1    2    0    0  0.00000000000E+00  0.00000000000E+00 -0.16198851723E+04  0.18878110491E+04  0.96943415758E+03 0.  0.
        4    1    3    3  502    0 -0.48202981124E+03  0.48214661288E+02 -0.84203762734E+03  0.97144550606E+03  0.12699999809E+01 0.  1.
       -4    1    3    3    0  502  0.48202981124E+03 -0.48214661288E+02 -0.77784754495E+03  0.91636554309E+03  0.12699999809E+01 0. -1.
</event>
<event>
 5   0  0.1656859E-02  0.8030982E+03  0.7818609E-02  0.9555543E-01
        2   -1    0    0  501    0  0.00000000000E+00  0.00000000000E+00  0.95323474380E+03  0.95323474380E+03  0.25500000920E-02 0.  1.
       -2   -1    0    0    0  501  0.00000000000E+00  0.00000000000E+00 -0.16915213812E+03  0.16915213814E+03  0.25500000920E-02 0. -1.
    10030    2    1    2    0    0  0.00000000000E+00  0.00000000000E+00  0.78408260568E+03  0.11223868819E+04  0.80309823821E+03 0.  0.
        4    1    3    3  502    0 -0.35262029523E+03 -0.19012869500E+03  0.35376497439E+03  0.53445417322E+03  0.12699999809E+01 0. -1.
       -4    1    3    3    0  502  0.35262029523E+03  0.19012869500E+03  0.43031763130E+03  0.58793270872E+03  0.12699999809E+01 0.  1.
</event>
<event>
 5   0  0.9507815E-03  0.9944443E+03  0.7818609E-02  0.9314659E-01
       -1   -1    0    0    0  501  0.00000000000E+00  0.00000000000E+00  0.57108165593E+03  0.57108165595E+03  0.50400001928E-02 0.  1.
        1   -1    0    0  501    0  0.00000000000E+00  0.00000000000E+00 -0.43291505910E+03  0.43291505913E+03  0.50400001928E-02 0. -1.
    10030    2    1    2    0    0  0.00000000000E+00  0.00000000000E+00  0.13816659683E+03  0.10039967151E+04  0.99444426460E+03 0.  0.
        1    1    3    3  502    0 -0.25270725136E+03  0.42803030138E+03  0.56354453700E+02  0.50024665743E+03  0.50400001928E-02 0.  1.
       -1    1    3    3    0  502  0.25270725136E+03 -0.42803030138E+03  0.81812143131E+02  0.50375005765E+03  0.50400001928E-02 0. -1.
</event>
<event>
 5   0  0.1571895E-02  0.1003066E+04  0.7818609E-02  0.9305188E-01
       -2   -1    0    0    0  501  0.00000000000E+00  0.00000000000E+00  0.41204556654E+03  0.41204556654E+03  0.25500000920E-02 0. -1.
        2   -1    0    0  501    0  0.00000000000E+00  0.00000000000E+00 -0.61045514676E+03  0.61045514677E+03  0.25500000920E-02 0.  1.
    10030    2    1    2    0    0  0.00000000000E+00  0.00000000000E+00 -0.19840958022E+03  0.10225007133E+04  0.10030659735E+04 0.  0.
        2    1    3    3  502    0 -0.59364238810E+02 -0.49427312014E+03 -0.16125542066E+03  0.52329087594E+03  0.25500000920E-02 0.  1.
       -2    1    3    3    0  502  0.59364238810E+02  0.49427312014E+03 -0.37154159566E+02  0.49920983737E+03  0.25500000920E-02 0. -1.
</event>
<event>
 5   0  0.9396660E-03  0.9725234E+03  0.7818609E-02  0.9339205E-01
        1   -1    0    0  501    0  0.00000000000E+00  0.00000000000E+00  0.14765682454E+04  0.14765682454E+04  0.50400001928E-02 0.  1.
       -1   -1    0    0    0  501  0.00000000000E+00  0.00000000000E+00 -0.16013512758E+03  0.16013512765E+03  0.50400001928E-02 0. -1.
    10030    2    1    2    0    0  0.00000000000E+00  0.00000000000E+00  0.13164331178E+04  0.16367033731E+04  0.97252340728E+03 0.  0.
        5    1    3    3  502    0 -0.14775990975E+03 -0.25130809617E+02  0.14366833161E+04  0.14444880025E+04  0.46999998093E+01 0.  1.
       -5    1    3    3    0  502  0.14775990975E+03  0.25130809617E+02 -0.12025019826E+03  0.19221537061E+03  0.46999998093E+01 0. -1.
</event>
<event>
 5   0  0.9471140E-03  0.9735077E+03  0.7818609E-02  0.9338088E-01
       -1   -1    0    0    0  501  0.00000000000E+00  0.00000000000E+00  0.16208618199E+03  0.16208618207E+03  0.50400001928E-02 0. -1.
        1   -1    0    0  501    0  0.00000000000E+00  0.00000000000E+00 -0.14617490308E+04  0.14617490308E+04  0.50400001928E-02 0.  1.
    10030    2    1    2    0    0  0.00000000000E+00  0.00000000000E+00 -0.12996628488E+04  0.16238352128E+04  0.97350771851E+03 0.  0.
        4    1    3    3  502    0  0.10500381916E+03  0.32378740602E+03 -0.69455505787E+02  0.34740432715E+03  0.12699999809E+01 0. -1.
       -4    1    3    3    0  502 -0.10500381916E+03 -0.32378740602E+03 -0.12302073430E+04  0.12764308857E+04  0.12699999809E+01 0.  1.
</event>
<event>
 5   0  0.9396660E-03  0.9999045E+03  0.7818609E-02  0.9308650E-01
       -1   -1    0    0    0  501  0.00000000000E+00  0.00000000000E+00  0.13089358054E+04  0.13089358054E+04  0.50400001928E-02 0. -1.
        1   -1    0    0  501    0  0.00000000000E+00  0.00000000000E+00 -0.19095837376E+03  0.19095837382E+03  0.50400001928E-02 0.  1.
    10030    2    1    2    0    0  0.00000000000E+00  0.00000000000E+00  0.11179774317E+04  0.14998941793E+04  0.99990450107E+03 0.  0.
        5    1    3    3  502    0 -0.37866823527E+03 -0.31594394439E+03  0.68195477643E+03  0.84160240939E+03  0.46999998093E+01 0. -1.
       -5    1    3    3    0  502  0.37866823527E+03  0.31594394439E+03  0.43602265525E+03  0.65829176988E+03  0.46999998093E+01 0.  1.
</event>
<event>
 5   0  0.1663497E-02  0.9824423E+03  0.7818609E-02  0.9328014E-01
        2   -1    0    0  501    0  0.00000000000E+00  0.00000000000E+00  0.29353952388E+03  0.29353952389E+03  0.25500000920E-02 0. -1.
       -2   -1    0    0    0  501  0.00000000000E+00  0.00000000000E+00 -0.82202977324E+03  0.82202977324E+03  0.25500000920E-02 0.  1.
    10030    2    1    2    0    0  0.00000000000E+00  0.00000000000E+00 -0.52849024936E+03  0.11155692971E+04  0.98244232046E+03 0.  0.
        1    1    3    3  502    0  0.12690498411E+02 -0.21116850425E+03 -0.76765361692E+03  0.79626959099E+03  0.50400001928E-02 0.  1.
       -1    1    3    3    0  502 -0.12690498411E+02  0.21116850425E+03  0.23916336756E+03  0.31929970615E+03  0.50400001928E-02 0. -1.
</event>
<event>
 5   0  0.1598986E-02  0.9980612E+03  0.7818609E-02  0.9310674E-01
        2   -1    0    0  501    0  0.00000000000E+00  0.00000000000E+00  0.16309215395E+04  0.16309215396E+04  0.25500000920E-02 0.  1.
       -2   -1    0    0    0  501  0.00000000000E+00  0.00000000000E+00 -0.15269377316E+03  0.15269377318E+03  0.25500000920E-02 0. -1.
    10030    2    1    2    0    0  0.00000000000E+00  0.00000000000E+00  0.14782277664E+04  0.17836153127E+04  0.99806124786E+03 0.  0.
        3    1    3    3  502    0  0.18458669777E+03  0.22138619522E+03  0.11117369338E+02  0.28845745359E+03  0.10100000352E+00 0. -1.
       -3    1    3    3    0  502 -0.18458669777E+03 -0.22138619522E+03  0.14671103971E+04  0.14951578591E+04  0.10100000352E+00 0.  1.
</event>
<event>
 5   0  0.1617721E-02  0.6915441E+03  0.7818609E-02  0.9731803E-01
        2   -1    0    0  501    0  0.00000000000E+00  0.00000000000E+00  0.47717987570E+03  0.47717987570E+03  0.25500000920E-02 0.  1.
       -2   -1    0    0    0  501  0.00000000000E+00  0.00000000000E+00 -0.25055186914E+03  0.25055186915E+03  0.25500000920E-02 0. -1.
    10030    2    1    2    0    0  0.00000000000E+00  0.00000000000E+00  0.22662800656E+03  0.72773174485E+03  0.69154409773E+03 0.  0.
        5    1    3    3  502    0  0.31880727990E+03 -0.29459829587E+02  0.25064293305E+03  0.40663243004E+03  0.46999998093E+01 0. -1.
       -5    1    3    3    0  502 -0.31880727990E+03  0.29459829587E+02 -0.24014926491E+02  0.32109931481E+03  0.46999998093E+01 0.  1.
</event>
<event>
 5   0  0.9396660E-03  0.9496603E+03  0.7818609E-02  0.9365548E-01
        1   -1    0    0  501    0  0.00000000000E+00  0.00000000000E+00  0.57939762811E+03  0.57939762814E+03  0.50400001928E-02 0.  1.
       -1   -1    0    0    0  501  0.00000000000E+00  0.00000000000E+00 -0.38913464038E+03  0.38913464042E+03  0.50400001928E-02 0. -1.
    10030    2    1    2    0    0  0.00000000000E+00  0.00000000000E+00  0.19026298773E+03  0.96853226855E+03  0.94966033440E+03 0.  0.
        5    1    3    3  502    0  0.21513381193E+03  0.22578725710E+03 -0.27000437563E+03  0.41253714422E+03  0.46999998093E+01 0. -1.
       -5    1    3    3    0  502 -0.21513381193E+03 -0.22578725710E+03  0.46026736336E+03  0.55599512433E+03  0.46999998093E+01 0.  1.
</event>
<event>
 5   0  0.1598986E-02  0.1040088E+04  0.7818609E-02  0.9265637E-01
       -2   -1    0    0    0  501  0.00000000000E+00  0.00000000000E+00  0.44412567274E+03  0.44412567275E+03  0.25500000920E-02 0.  1.
        2   -1    0    0  501    0  0.00000000000E+00  0.00000000000E+00 -0.60894019991E+03  0.60894019991E+03  0.25500000920E-02 0. -1.
    10030    2    1    2    0    0  0.00000000000E+00  0.00000000000E+00 -0.16481452717E+03  0.10530658727E+04  0.10400884115E+04 0.  0.
        3    1    3    3  502    0  0.52824386149E+02 -0.30208105304E+03  0.34283630731E+03  0.45997839318E+03  0.10100000352E+00 0.  1.
       -3    1    3    3    0  502 -0.52824386149E+02  0.30208105304E+03 -0.50765083447E+03  0.59308747948E+03  0.10100000352E+00 0. -1.
</event>
<event>
 5   0  0.1656859E-02  0.1006594E+04  0.7818609E-02  0.9301342E-01
       -2   -1    0    0    0  501  0.00000000000E+00  0.00000000000E+00  0.22010525811E+03  0.22010525812E+03  0.25500000920E-02 0.  1.
        2   -1    0    0  501    0  0.00000000000E+00  0.00000000000E+00 -0.11508492357E+04  0.11508492357E+04  0.25500000920E-02 0. -1.
    10030    2    1    2    0    0  0.00000000000E+00  0.00000000000E+00 -0.93074397760E+03  0.13709544938E+04  0.10065941945E+04 0.  0.
        4    1    3    3  502    0  0.13781307349E+03 -0.12138233280E+03 -0.11035844023E+04  0.11187610378E+04  0.12699999809E+01 0. -1.
       -4    1    3    3    0  502 -0.13781307349E+03  0.12138233280E+03  0.17284042468E+03  0.25219345599E+03  0.12699999809E+01 0.  1.
</event>
<event>
 5   0  0.1617721E-02  0.1007815E+04  0.7818609E-02  0.9300015E-01
        2   -1    0    0  501    0  0.00000000000E+00  0.00000000000E+00  0.58126614180E+03  0.58126614181E+03  0.25500000920E-02 0.  1.
       -2   -1    0    0    0  501  0.00000000000E+00  0.00000000000E+00 -0.43684419452E+03  0.43684419452E+03  0.25500000920E-02 0. -1.
    10030    2    1    2    0    0  0.00000000000E+00  0.00000000000E+00  0.14442194728E+03  0.10181103363E+04  0.10078149424E+04 0.  0.
        5    1    3    3  502    0  0.81607326720E+02 -0.10971169810E+03  0.56214389596E+03  0.57855359496E+03  0.46999998093E+01 0.  1.
       -5    1    3    3    0  502 -0.81607326720E+02  0.10971169810E+03 -0.41772194868E+03  0.43955674137E+03  0.46999998093E+01 0. -1.
</event>
<event>
 5   0  0.9396660E-03  0.1015742E+04  0.7818609E-02  0.9291445E-01
       -1   -1    0    0    0  501  0.00000000000E+00  0.00000000000E+00  0.46141196427E+03  0.46141196430E+03  0.50400001928E-02 0. -1.
        1   -1    0    0  501    0  0.00000000000E+00  0.00000000000E+00 -0.55900837727E+03  0.55900837729E+03  0.50400001928E-02 0.  1.
    10030    2    1    2    0    0  0.00000000000E+00  0.00000000000E+00 -0.97596412994E+02  0.10204203416E+04  0.10157423953E+04 0.  0.
        5    1    3    3  502    0 -0.33581399918E+03 -0.30608128264E+03  0.17908180758E+03  0.48841496439E+03  0.46999998093E+01 0. -1.
       -5    1    3    3    0  502  0.33581399918E+03  0.30608128264E+03 -0.27667822058E+03  0.53200537720E+03  0.46999998093E+01 0.  1.
</event>
<event>
 5   0  0.1598986E-02  0.1115825E+04  0.7818609E-02  0.9189904E-01
       -2   -1    0    0    0  501  0.00000000000E+00  0.00000000000E+00  0.48849217899E+03  0.48849217900E+03  0.25500000920E-02 0. -1.
        2   -1    0    0  501    0  0.00000000000E+00  0.00000000000E+00 -0.63719819089E+03  0.63719819090E+03  0.25500000920E-02 0.  1.
    10030    2    1    2    0    0  0.00000000000E+00  0.00000000000E+00 -0.14870601190E+03  0.11256903699E+04  0.11158249553E+04 0.  0.
        3    1    3    3  502    0 -0.45659393762E+03  0.44626218672E+02  0.24593911213E+03  0.52053393774E+03  0.10100000352E+00 0.  1.
       -3    1    3    3    0  502  0.45659393762E+03 -0.44626218672E+02 -0.39464512403E+03  0.60515643216E+03  0.10100000352E+00 0. -1.
</event>
<event>
 5   0  0.1663497E-02  0.9583988E+03  0.7818609E-02  0.9355387E-01
        2   -1    0    0  501    0  0.00000000000E+00  0.00000000000E+00  0.12893183622E+04  0.12893183622E+04  0.25500000920E-02 0.  1.
       -2   -1    0    0    0  501  0.00000000000E+00  0.00000000000E+00 -0.17810346259E+03  0.17810346261E+03  0.25500000920E-02 0. -1.
    10030    2    1    2    0    0  0.00000000000E+00  0.00000000000E+00  0.11112148996E+04  0.14674218248E+04  0.95839879948E+03 0.  0.
        1    1    3    3  502    0 -0.29345353771E+02  0.47645053079E+03  0.49126756465E+03  0.68498910808E+03  0.50400001928E-02 0. -1.
       -1    1    3    3    0  502  0.29345353771E+02 -0.47645053079E+03  0.61994733499E+03  0.78243271677E+03  0.50400001928E-02 0.  1.
</event>
<event>
 5   0  0.1656859E-02  0.9765742E+03  0.7818609E-02  0.9334618E-01
       -2   -1    0    0    0  501  0.00000000000E+00  0.00000000000E+00  0.72461030778E+03  0.72461030778E+03  0.25500000920E-02 0.  1.
        2   -1    0    0  501    0  0.00000000000E+00  0.00000000000E+00 -0.32903798292E+03  0.32903798293E+03  0.25500000920E-02 0. -1.
    10030    2    1    2    0    0  0.00000000000E+00  0.00000000000E+00  0.39557232485E+03  0.10536482907E+04  0.97657424517E+03 0.  0.
        4    1    3    3  502    0  0.37823241816E+03 -0.18967214314E+03 -0.65142310545E+02  0.42811262251E+03  0.12699999809E+01 0. -1.
       -4    1    3    3    0  502 -0.37823241816E+03  0.18967214314E+03  0.46071463540E+03  0.62553566821E+03  0.12699999809E+01 0.  1.
</event>
<event>
 5   0  0.1663497E-02  0.1022394E+04  0.7818609E-02  0.9284319E-01
        2   -1    0    0  501    0  0.00000000000E+00  0.00000000000E+00  0.20864430727E+04  0.20864430727E+04  0.25500000920E-02 0. -1.
       -2   -1    0    0    0  501  0.00000000000E+00  0.00000000000E+00 -0.12524775697E+03  0.12524775700E+03  0.25500000920E-02 0.  1.
    10030    2    1    2    0    0  0.00000000000E+00  0.00000000000E+00  0.19611953157E+04  0.22116908297E+04  0.10223938868E+04 0.  0.
        1    1    3    3  502    0 -0.43392231461E+03  0.25675099320E+03  0.11630386477E+04  0.12676231868E+04  0.50400001928E-02 0.  1.
       -1    1    3    3    0  502  0.43392231461E+03 -0.25675099320E+03  0.79815666801E+03  0.94406764288E+03  0.50400001928E-02 0. -1.
</event>
<event>
 5   0  0.1598986E-02  0.1002868E+04  0.7818609E-02  0.9305405E-01
       -2   -1    0    0    0  501  0.00000000000E+00  0.00000000000E+00  0.34388439236E+03  0.34388439237E+03  0.25500000920E-02 0. -1.
        2   -1    0    0  501    0  0.00000000000E+00  0.00000000000E+00 -0.73116406320E+03  0.73116406320E+03  0.25500000920E-02 0.  1.
    10030    2    1    2    0    0  0.00000000000E+00  0.00000000000E+00 -0.38727967084E+03  0.10750484556E+04  0.10028677073E+04 0.  0.
        3    1    3    3  502    0  0.40220169791E+03 -0.29297412892E+03 -0.12724789046E+03  0.51360693322E+03  0.10100000352E+00 0. -1.
       -3    1    3    3    0  502 -0.40220169791E+03  0.29297412892E+03 -0.26003178037E+03  0.56144152236E+03  0.10100000352E+00 0.  1.
</event>
<event>
 5   0  0.1571895E-02  0.9069377E+03  0.7818609E-02  0.9416950E-01
        2   -1    0    0  501    0  0.00000000000E+00  0.00000000000E+00  0.27298648303E+04  0.27298648303E+04  0.25500000920E-02 0. -1.
       -2   -1    0    0    0  501  0.00000000000E+00  0.00000000000E+00 -0.75327535305E+02  0.75327535348E+02  0.25500000920E-02 0.  1.
    10030    2    1    2    0    0  0.00000000000E+00  0.00000000000E+00  0.26545372950E+04  0.28051923657E+04  0.90693768131E+03 0.  0.
        2    1    3    3  502    0  0.33758704369E+03 -0.17958670194E+03  0.20812189720E+04  0.21160550099E+04  0.25500000920E-02 0. -1.
       -2    1    3    3    0  502 -0.33758704369E+03  0.17958670194E+03  0.57331832299E+03  0.68913735573E+03  0.25500000920E-02 0.  1.
</event>
<event>
 5   0  0.1663497E-02  0.7859692E+03  0.7818609E-02  0.9580551E-01
        2   -1    0    0  501    0  0.00000000000E+00  0.00000000000E+00  0.10100728283E+04  0.10100728283E+04  0.25500000920E-02 0. -1.
       -2   -1    0    0    0  501  0.00000000000E+00  0.00000000000E+00 -0.15289679581E+03  0.15289679583E+03  0.25500000920E-02 0.  1.
    10030    2    1    2    0    0  0.00000000000E+00  0.00000000000E+00  0.85717603253E+03  0.11629696242E+04  0.78596920806E+03 0.  0.
        1    1    3    3  502    0  0.30114275285E+03 -0.19381367595E+03  0.66802932800E+03  0.75796693969E+03  0.50400001928E-02 0. -1.
       -1    1    3    3    0  502 -0.30114275285E+03  0.19381367595E+03  0.18914670453E+03  0.40500268448E+03  0.50400001928E-02 0.  1.
</event>
<event>
 5   0  0.1571895E-02  0.1015217E+04  0.7818609E-02  0.9292011E-01
       -2   -1    0    0    0  501  0.00000000000E+00  0.00000000000E+00  0.72679634759E+03  0.72679634760E+03  0.25500000920E-02 0.  1.
        2   -1    0    0  501    0  0.00000000000E+00  0.00000000000E+00 -0.35452356975E+03  0.35452356976E+03  0.25500000920E-02 0. -1.
    10030    2    1    2    0    0  0.00000000000E+00  0.00000000000E+00  0.37227277785E+03  0.10813199174E+04  0.10152170913E+04 0.  0.
        2    1    3    3  502    0 -0.44209310647E+03  0.17497298905E+03  0.37548854384E+03  0.60584941054E+03  0.25500000920E-02 0.  1.
       -2    1    3    3    0  502  0.44209310647E+03 -0.17497298905E+03 -0.32157659966E+01  0.47547050681E+03  0.25500000920E-02 0. -1.
</event>
<event>
 5   0  0.9507815E-03  0.9734805E+03  0.7818609E-02  0.9338119E-01
        1   -1    0    0  501    0  0.00000000000E+00  0.00000000000E+00  0.10473545648E+04  0.10473545648E+04  0.50400001928E-02 0.  1.
       -1   -1    0    0    0  501  0.00000000000E+00  0.00000000000E+00 -0.22620428710E+03  0.22620428715E+03  0.50400001928E-02 0. -1.
    10030    2    1    2    0    0  0.00000000000E+00  0.00000000000E+00  0.82115027767E+03  0.12735588519E+04  0.97348054465E+03 0.  0.
        1    1    3    3  502    0 -0.43284364609E+03 -0.19365278447E+03  0.55425128076E+03  0.72941723666E+03  0.50400001928E-02 0. -1.
       -1    1    3    3    0  502  0.43284364609E+03  0.19365278447E+03  0.26689899691E+03  0.54414161527E+03  0.50400001928E-02 0.  1.
</event>
<event>
 5   0  0.9759443E-03  0.1005781E+04  0.7818609E-02  0.9302227E-01
       -1   -1    0    0    0  501  0.00000000000E+00  0.00000000000E+00  0.26676637113E+03  0.26676637118E+03  0.50400001928E-02 0. -1.
        1   -1    0    0  501    0  0.00000000000E+00  0.00000000000E+00 -0.94801564136E+03  0.94801564137E+03  0.50400001928E-02 0.  1.
    10030    2    1    2    0    0  0.00000000000E+00  0.00000000000E+00 -0.68124927023E+03  0.12147820126E+04  0.10057806768E+04 0.  0.
        2    1    3    3  502    0 -0.40545113554E+03  0.35636696990E+02 -0.69736163170E+03  0.80744897230E+03  0.25500000920E-02 0.  1.
       -2    1    3    3    0  502  0.40545113554E+03 -0.35636696990E+02  0.16112361475E+02  0.40733304026E+03  0.25500000920E-02 0. -1.
</event>
<event>
 5   0  0.9471140E-03  0.1005040E+04  0.7818609E-02  0.9303034E-01
       -1   -1    0    0    0  501  0.00000000000E+00  0.00000000000E+00  0.64612511404E+03  0.64612511406E+03  0.50400001928E-02 0. -1.
        1   -1    0    0  501    0  0.00000000000E+00  0.00000000000E+00 -0.39083212854E+03  0.39083212857E+03  0.50400001928E-02 0.  1.
    10030    2    1    2    0    0  0.00000000000E+00  0.00000000000E+00  0.25529298550E+03  0.10369572426E+04  0.10050402055E+04 0.  0.
        4    1    3    3  502    0  0.27686843756E+03  0.26515199100E+03  0.46286928913E+03  0.60100857046E+03  0.12699999809E+01 0. -1.
       -4    1    3    3    0  502 -0.27686843756E+03 -0.26515199100E+03 -0.20757630363E+03  0.43594867218E+03  0.12699999809E+01 0.  1.
</event>
<event>
 5   0  0.9396660E-03  0.8105826E+03  0.7818609E-02  0.9544824E-01
        1   -1    0    0  501    0  0.00000000000E+00  0.00000000000E+00  0.34355708278E+03  0.34355708282E+03  0.50400001928E-02 0. -1.
       -1   -1    0    0    0  501  0.00000000000E+00  0.00000000000E+00 -0.47811859436E+03  0.47811859439E+03  0.50400001928E-02 0.  1.
    10030    2    1    2    0    0  0.00000000000E+00  0.00000000000E+00 -0.13456151158E+03  0.82167567721E+03  0.81058257946E+03 0.  0.
        5    1    3    3  502    0 -0.82268213417E+02 -0.35893848876E+03  0.10425098434E+03  0.38274698613E+03  0.46999998093E+01 0. -1.
       -5    1    3    3    0  502  0.82268213417E+02  0.35893848876E+03 -0.23881249591E+03  0.43892869109E+03  0.46999998093E+01 0.  1.
</event>
<event>
 5   0  0.1598986E-02  0.1016539E+04  0.7818609E-02  0.9290589E-01
        2   -1    0    0  501    0  0.00000000000E+00  0.00000000000E+00  0.18789318488E+04  0.18789318488E+04  0.25500000920E-02 0. -1.
       -2   -1    0    0    0  501  0.00000000000E+00  0.00000000000E+00 -0.13749193966E+03  0.13749193968E+03  0.25500000920E-02 0.  1.
    10030    2    1    2    0    0  0.00000000000E+00  0.00000000000E+00  0.17414399091E+04  0.20164237885E+04  0.10165391963E+04 0.  0.
        3    1    3    3  502    0  0.14268158383E+03 -0.48691731709E+03  0.92994564249E+03  0.10593608527E+04  0.10100000352E+00 0. -1.
       -3    1    3    3    0  502 -0.14268158383E+03  0.48691731709E+03  0.81149426662E+03  0.95706293576E+03  0.10100000352E+00 0.  1.
</event>
<event>
 5   0  0.6314750E-03  0.9876407E+03  0.7818609E-02  0.9322205E-01
        3   -1    0    0  501    0  0.00000000000E+00  0.00000000000E+00  0.59435528171E+03  0.59435529029E+03  0.10100000352E+00 0. -1.
       -3   -1    0    0    0  501  0.00000000000E+00  0.00000000000E+00 -0.41029086891E+03  0.41029088135E+03  0.10100000352E+00 0.  1.
    10030    2    1    2    0    0  0.00000000000E+00  0.00000000000E+00  0.18406441279E+03  0.10046461716E+04  0.98764073535E+03 0.  0.
        1    1    3    3  502    0  0.25374439016E+03 -0.33752773843E+01  0.52295465369E+03  0.58127375468E+03  0.50400001928E-02 0. -1.
       -1    1    3    3    0  502 -0.25374439016E+03  0.33752773843E+01 -0.33889024090E+03  0.42337241695E+03  0.50400001928E-02 0.  1.
</event>
<event>
 5   0  0.1598986E-02  0.1011189E+04  0.7818609E-02  0.9296357E-01
       -2   -1    0    0    0  501  0.00000000000E+00  0.00000000000E+00  0.22379615163E+03  0.22379615164E+03  0.25500000920E-02 0.  1.
        2   -1    0    0  501    0  0.00000000000E+00  0.00000000000E+00 -0.11422260760E+04  0.11422260760E+04  0.25500000920E-02 0. -1.
    10030    2    1    2    0    0  0.00000000000E+00  0.00000000000E+00 -0.91842992435E+03  0.13660222276E+04  0.10111890033E+04 0.  0.
        3    1    3    3  502    0 -0.57499509111E+02  0.41098346689E+03 -0.84937266040E+03  0.94532932359E+03  0.10100000352E+00 0. -1.
       -3    1    3    3    0  502  0.57499509111E+02 -0.41098346689E+03 -0.69057263949E+02  0.42069290404E+03  0.10100000352E+00 0.  1.
</event>
<event>
 5   0  0.1000773E-02  0.9912297E+03  0.7818609E-02  0.9318217E-01
       -1   -1    0    0    0  501  0.00000000000E+00  0.00000000000E+00  0.75720213673E+03  0.75720213675E+03  0.50400001928E-02 0. -1.
        1   -1    0    0  501    0  0.00000000000E+00  0.00000000000E+00 -0.32439694855E+03  0.32439694859E+03  0.50400001928E-02 0.  1.
    10030    2    1    2    0    0  0.00000000000E+00  0.00000000000E+00  0.43280518819E+03  0.10815990853E+04  0.99122966586E+03 0.  0.
        3    1    3    3  502    0 -0.37895230611E+03  0.90049767889E+02  0.55080671462E+03  0.67461237616E+03  0.10100000352E+00 0. -1.
       -3    1    3    3    0  502  0.37895230611E+03 -0.90049767889E+02 -0.11800152643E+03  0.40698670917E+03  0.10100000352E+00 0.  1.
</event>
<event>
 5   0  0.9471140E-03  0.9968117E+03  0.7818609E-02  0.9312049E-01
       -1   -1    0    0    0  501  0.00000000000E+00  0.00000000000E+00  0.33992055873E+03  0.33992055877E+03  0.50400001928E-02 0. -1.
        1   -1    0    0  501    0  0.00000000000E+00  0.00000000000E+00 -0.73078365229E+03  0.73078365230E+03  0.50400001928E-02 0.  1.
    10030    2    1    2    0    0  0.00000000000E+00  0.00000000000E+00 -0.39086309355E+03  0.10707042111E+04  0.99681169220E+03 0.  0.
        4    1    3    3  502    0 -0.31035182050E+01 -0.49149362601E+03 -0.10665391372E+03  0.50294362154E+03  0.12699999809E+01 0. -1.
       -4    1    3    3    0  502  0.31035182050E+01  0.49149362601E+03 -0.28420917983E+03  0.56776058954E+03  0.12699999809E+01 0.  1.
</event>
<event>
 5   0  0.9396660E-03  0.1024325E+04  0.7818609E-02  0.9282261E-01
       -1   -1    0    0    0  501  0.00000000000E+00  0.00000000000E+00  0.68841389244E+03  0.68841389245E+03  0.50400001928E-02 0. -1.
        1   -1    0    0  501    0  0.00000000000E+00  0.00000000000E+00 -0.38103591381E+03  0.38103591384E+03  0.50400001928E-02 0.  1.
    10030    2    1    2    0    0  0.00000000000E+00  0.00000000000E+00  0.30737797863E+03  0.10694498063E+04  0.10243249809E+04 0.  0.
        5    1    3    3  502    0  0.22260036214E+03 -0.38402102708E+03 -0.11303597477E+03  0.45806363319E+03  0.46999998093E+01 0.  1.
       -5    1    3    3    0  502 -0.22260036214E+03  0.38402102708E+03  0.42041395339E+03  0.61138617311E+03  0.46999998093E+01 0. -1.
</event>
<event>
 5   0  0.1656859E-02  0.9833059E+03  0.7818609E-02  0.9327046E-01
       -2   -1    0    0    0  501  0.00000000000E+00  0.00000000000E+00  0.28424867198E+03  0.28424867199E+03  0.25500000920E-02 0.  1.
        2   -1    0    0  501    0  0.00000000000E+00  0.00000000000E+00 -0.85039137819E+03  0.85039137820E+03  0.25500000920E-02 0. -1.
    10030    2    1    2    0    0  0.00000000000E+00  0.00000000000E+00 -0.56614270622E+03  0.11346400502E+04  0.98330589324E+03 0.  0.
        4    1    3    3  502    0 -0.47287658187E+03 -0.12151956369E+03 -0.34977596462E+03  0.60060311718E+03  0.12699999809E+01 0. -1.
       -4    1    3    3    0  502  0.47287658187E+03  0.12151956369E+03 -0.21636674160E+03  0.53403693301E+03  0.12699999809E+01 0.  1.
</event>
<event>
 5   0  0.1656859E-02  0.9940629E+03  0.7818609E-02  0.9315081E-01
       -2   -1    0    0    0  501  0.00000000000E+00  0.00000000000E+00  0.12072769554E+03  0.12072769557E+03  0.25500000920E-02 0.  1.
        2   -1    0    0  501    0  0.00000000000E+00  0.00000000000E+00 -0.20462602013E+04  0.20462602013E+04  0.25500000920E-02 0. -1.
    10030    2    1    2    0    0  0.00000000000E+00  0.00000000000E+00 -0.19255325057E+04  0.21669878968E+04  0.99406293282E+03 0.  0.
        4    1    3    3  502    0 -0.49624635746E+03  0.21067485317E+02 -0.92290394771E+03  0.10480732779E+04  0.12699999809E+01 0. -1.
       -4    1    3    3    0  502  0.49624635746E+03 -0.21067485317E+02 -0.10026285580E+04  0.11189146190E+04  0.12699999809E+01 0.  1.
</event>
<event>
 5   0  0.1598986E-02  0.1004919E+04  0.7818609E-02  0.9303166E-01
       -2   -1    0    0    0  501  0.00000000000E+00  0.00000000000E+00  0.23686425945E+03  0.23686425947E+03  0.25500000920E-02 0.  1.
        2   -1    0    0  501    0  0.00000000000E+00  0.00000000000E+00 -0.10658657394E+04  0.10658657394E+04  0.25500000920E-02 0. -1.
    10030    2    1    2    0    0  0.00000000000E+00  0.00000000000E+00 -0.82900147992E+03  0.13027299988E+04  0.10049189003E+04 0.  0.
        3    1    3    3  502    0 -0.66348527978E+02 -0.76017321141E+02 -0.10525973247E+04  0.10574222895E+04  0.10100000352E+00 0. -1.
       -3    1    3    3    0  502  0.66348527978E+02  0.76017321141E+02  0.22359584473E+03  0.24530770934E+03  0.10100000352E+00 0.  1.
</event>
<event>
 5   0  0.9507815E-03  0.1010125E+04  0.7818609E-02  0.9297509E-01
        1   -1    0    0  501    0  0.00000000000E+00  0.00000000000E+00  0.22924995248E+03  0.22924995254E+03  0.50400001928E-02 0. -1.
       -1   -1    0    0    0  501  0.00000000000E+00  0.00000000000E+00 -0.11127084050E+04  0.11127084050E+04  0.50400001928E-02 0.  1.
    10030    2    1    2    0    0  0.00000000000E+00  0.00000000000E+00 -0.88345845248E+03  0.13419583575E+04  0.10101254358E+04 0.  0.
        1    1    3    3  502    0  0.22267329226E+03 -0.93514177120E+02 -0.10310234677E+04  0.10589323337E+04  0.50400001928E-02 0.  1.
       -1    1    3    3    0  502 -0.22267329226E+03  0.93514177120E+02  0.14756501522E+03  0.28302602380E+03  0.50400001928E-02 0. -1.
</event>
<event>
 5   0  0.1656859E-02  0.1003390E+04  0.7818609E-02  0.9304835E-01
        2   -1    0    0  501    0  0.00000000000E+00  0.00000000000E+00  0.15161291327E+04  0.15161291327E+04  0.25500000920E-02 0.  1.
       -2   -1    0    0    0  501  0.00000000000E+00  0.00000000000E+00 -0.16601334548E+03  0.16601334550E+03  0.25500000920E-02 0. -1.
    10030    2    1    2    0    0  0.00000000000E+00  0.00000000000E+00  0.13501157872E+04  0.16821424782E+04  0.10033895943E+04 0.  0.
        4    1    3    3  502    0 -0.27581760107E+03  0.21927454271E+03  0.12737662779E+04  0.13216046374E+04  0.12699999809E+01 0.  1.
       -4    1    3    3    0  502  0.27581760107E+03 -0.21927454271E+03  0.76349509345E+02  0.36053784076E+03  0.12699999809E+01 0. -1.
</event>
<event>
 5   0  0.9471140E-03  0.1014003E+04  0.7818609E-02  0.9293318E-01
        1   -1    0    0  501    0  0.00000000000E+00  0.00000000000E+00  0.24304432821E+04  0.24304432821E+04  0.50400001928E-02 0. -1.
       -1   -1    0    0    0  501  0.00000000000E+00  0.00000000000E+00 -0.10576283215E+03  0.10576283227E+03  0.50400001928E-02 0.  1.
    10030    2    1    2    0    0  0.00000000000E+00  0.00000000000E+00  0.23246804500E+04  0.25362061144E+04  0.10140030869E+04 0.  0.
        4    1    3    3  502    0 -0.14354016150E+03  0.11897513978E+03 -0.16908239087E+02  0.18720673946E+03  0.12699999809E+01 0.  1.
       -4    1    3    3    0  502  0.14354016150E+03 -0.11897513978E+03  0.23415886891E+04  0.23489993749E+04  0.12699999809E+01 0. -1.
</event>
<event>
 5   0  0.1663497E-02  0.9825476E+03  0.7818609E-02  0.9327896E-01
       -2   -1    0    0    0  501  0.00000000000E+00  0.00000000000E+00  0.25468283908E+03  0.25468283909E+03  0.25500000920E-02 0.  1.
        2   -1    0    0  501    0  0.00000000000E+00  0.00000000000E+00 -0.94764912346E+03  0.94764912346E+03  0.25500000920E-02 0. -1.
    10030    2    1    2    0    0  0.00000000000E+00  0.00000000000E+00 -0.69296628438E+03  0.12023319626E+04  0.98254764612E+03 0.  0.
        1    1    3    3  502    0 -0.98728128092E+02 -0.26392408663E+03 -0.83892726841E+03  0.88498707814E+03  0.50400001928E-02 0. -1.
       -1    1    3    3    0  502  0.98728128092E+02  0.26392408663E+03  0.14596098403E+03  0.31734488441E+03  0.50400001928E-02 0.  1.
</event>
<event>
 5   0  0.1617721E-02  0.1024793E+04  0.7818609E-02  0.9281762E-01
       -2   -1    0    0    0  501  0.00000000000E+00  0.00000000000E+00  0.11941257863E+03  0.11941257866E+03  0.25500000920E-02 0. -1.
        2   -1    0    0  501    0  0.00000000000E+00  0.00000000000E+00 -0.21986828793E+04  0.21986828793E+04  0.25500000920E-02 0.  1.
    10030    2    1    2    0    0  0.00000000000E+00  0.00000000000E+00 -0.20792703007E+04  0.23180954580E+04  0.10247934275E+04 0.  0.
        5    1    3    3  502    0  0.53279141885E+02 -0.87616226352E+02  0.95915432373E+02  0.14048889723E+03  0.46999998093E+01 0. -1.
       -5    1    3    3    0  502 -0.53279141885E+02  0.87616226352E+02 -0.21751857331E+04  0.21776065608E+04  0.46999998093E+01 0.  1.
</event>
<event>
 5   0  0.9471140E-03  0.1045880E+04  0.7818609E-02  0.9259608E-01
        1   -1    0    0  501    0  0.00000000000E+00  0.00000000000E+00  0.14972956058E+04  0.14972956058E+04  0.50400001928E-02 0. -1.
       -1   -1    0    0    0  501  0.00000000000E+00  0.00000000000E+00 -0.18263997935E+03  0.18263997942E+03  0.50400001928E-02 0.  1.
    10030    2    1    2    0    0  0.00000000000E+00  0.00000000000E+00  0.13146556265E+04  0.16799355853E+04  0.10458796080E+04 0.  0.
        4    1    3    3  502    0 -0.38978952451E+03 -0.83689108126E+02  0.11375154469E+03  0.41458505407E+03  0.12699999809E+01 0. -1.
       -4    1    3    3    0  502  0.38978952451E+03  0.83689108126E+02  0.12009040818E+04  0.12653505312E+04  0.12699999809E+01 0.  1.
</event>
<event>
 5   0  0.9507815E-03  0.1218879E+04  0.7818609E-02  0.9096490E-01
       -1   -1    0    0    0  501  0.00000000000E+00  0.00000000000E+00  0.23361701073E+03  0.23361701078E+03  0.50400001928E-02 0.  1.
        1   -1    0    0  501    0  0.00000000000E+00  0.00000000000E+00 -0.15898524779E+04  0.15898524779E+04  0.50400001928E-02 0. -1.
    10030    2    1    2    0    0  0.00000000000E+00  0.00000000000E+00 -0.13562354672E+04  0.18234694887E+04  0.12188791301E+04 0.  0.
        1    1    3    3  502    0 -0.98602286275E-01  0.33110277556E+03 -0.14435598140E+04  0.14810448995E+04  0.50400001928E-02 0. -1.
       -1    1    3    3    0  502  0.98602286275E-01 -0.33110277556E+03  0.87324346831E+02  0.34242458919E+03  0.50400001928E-02 0.  1.
</event>
<event>
 5   0  0.9471140E-03  0.9860111E+03  0.7818609E-02  0.9324022E-01
       -1   -1    0    0    0  501  0.00000000000E+00  0.00000000000E+00  0.66778021839E+03  0.66778021841E+03  0.50400001928E-02 0.  1.
        1   -1    0    0  501    0  0.00000000000E+00  0.00000000000E+00 -0.36397374983E+03  0.36397374987E+03  0.50400001928E-02 0. -1.
    10030    2    1    2    0    0  0.00000000000E+00  0.00000000000E+00  0.30380646856E+03  0.10317539683E+04  0.98601109564E+03 0.  0.
        4    1    3    3  502    0  0.67201450733E+00  0.21836970593E+03  0.61441207168E+03  0.65206563074E+03  0.12699999809E+01 0.  1.
       -4    1    3    3    0  502 -0.67201450733E+00 -0.21836970593E+03 -0.31060560312E+03  0.37968833754E+03  0.12699999809E+01 0. -1.
</event>
<event>
 5   0  0.1656859E-02  0.1036989E+04  0.7818609E-02  0.9268882E-01
       -2   -1    0    0    0  501  0.00000000000E+00  0.00000000000E+00  0.27455634545E+03  0.27455634546E+03  0.25500000920E-02 0. -1.
        2   -1    0    0  501    0  0.00000000000E+00  0.00000000000E+00 -0.97916632286E+03  0.97916632286E+03  0.25500000920E-02 0.  1.
    10030    2    1    2    0    0  0.00000000000E+00  0.00000000000E+00 -0.70460997741E+03  0.12537226683E+04  0.10369885770E+04 0.  0.
        4    1    3    3  502    0 -0.67268707010E+02 -0.12610204187E+03 -0.95487875004E+03  0.96551636138E+03  0.12699999809E+01 0.  1.
       -4    1    3    3    0  502  0.67268707010E+02  0.12610204187E+03  0.25026877263E+03  0.28820630694E+03  0.12699999809E+01 0. -1.
</event>
<event>
 5   0  0.9507815E-03  0.1044685E+04  0.7818609E-02  0.9260848E-01
       -1   -1    0    0    0  501  0.00000000000E+00  0.00000000000E+00  0.27839535714E+03  0.27839535719E+03  0.50400001928E-02 0.  1.
        1   -1    0    0  501    0  0.00000000000E+00  0.00000000000E+00 -0.98005199809E+03  0.98005199810E+03  0.50400001928E-02 0. -1.
    10030    2    1    2    0    0  0.00000000000E+00  0.00000000000E+00 -0.70165664095E+03  0.12584473553E+04  0.10446854571E+04 0.  0.
        1    1    3    3  502    0  0.39437500728E+03 -0.17182540661E+03  0.60851168275E+01  0.43022394796E+03  0.50400001928E-02 0.  1.
       -1    1    3    3    0  502 -0.39437500728E+03  0.17182540661E+03 -0.70774175778E+03  0.82822340733E+03  0.50400001928E-02 0. -1.
</event>
<event>
 5   0  0.1663497E-02  0.9963428E+03  0.7818609E-02  0.9312565E-01
        2   -1    0    0  501    0  0.00000000000E+00  0.00000000000E+00  0.15485103916E+04  0.15485103916E+04  0.25500000920E-02 0.  1.
       -2   -1    0    0    0  501  0.00000000000E+00  0.00000000000E+00 -0.16026676803E+03  0.16026676805E+03  0.25500000920E-02 0. -1.
    10030    2    1    2    0    0  0.00000000000E+00  0.00000000000E+00  0.13882436236E+04  0.17087771596E+04  0.99634282400E+03 0.  0.
        1    1    3    3  502    0  0.57862361322E+02  0.42139257103E+03  0.24934828037E+03  0.49304595803E+03  0.50400001928E-02 0. -1.
       -1    1    3    3    0  502 -0.57862361322E+02 -0.42139257103E+03  0.11388953432E+04  0.12157312016E+04  0.50400001928E-02 0.  1.
</event>
<event>
 5   0  0.6314750E-03  0.9879814E+03  0.7818609E-02  0.9321826E-01
       -3   -1    0    0    0  501  0.00000000000E+00  0.00000000000E+00  0.79900220109E+03  0.79900220747E+03  0.10100000352E+00 0. -1.
        3   -1    0    0  501    0  0.00000000000E+00  0.00000000000E+00 -0.30541441717E+03  0.30541443387E+03  0.10100000352E+00 0.  1.
    10030    2    1    2    0    0  0.00000000000E+00  0.00000000000E+00  0.49358778392E+03  0.11044166413E+04  0.98798138507E+03 0.  0.
        4    1    3    3  502    0 -0.32096871689E+03  0.32850761516E+03  0.43458483102E+02  0.46133331020E+03  0.12699999809E+01 0.  1.
       -4    1    3    3    0  502  0.32096871689E+03 -0.32850761516E+03  0.45012930082E+03  0.64308333115E+03  0.12699999809E+01 0. -1.
</event>
<event>
 5   0  0.9396660E-03  0.9953586E+03  0.7818609E-02  0.9313650E-01
        1   -1    0    0  501    0  0.00000000000E+00  0.00000000000E+00  0.12204671593E+04  0.12204671593E+04  0.50400001928E-02 0.  1.
       -1   -1    0    0    0  501  0.00000000000E+00  0.00000000000E+00 -0.20294252363E+03  0.20294252370E+03  0.50400001928E-02 0. -1.
    10030    2    1    2    0    0  0.00000000000E+00  0.00000000000E+00  0.10175246357E+04  0.14234096830E+04  0.99535859945E+03 0.  0.
        5    1    3    3  502    0  0.25174146823E+03 -0.91507392615E+02  0.11085562361E+04  0.11404676183E+04  0.46999998093E+01 0.  1.
       -5    1    3    3    0  502 -0.25174146823E+03  0.91507392615E+02 -0.91031600422E+02  0.28294206475E+03  0.46999998093E+01 0. -1.
</event>
<event>
 5   0  0.1598986E-02  0.1033490E+04  0.7818609E-02  0.9272558E-01
       -2   -1    0    0    0  501  0.00000000000E+00  0.00000000000E+00  0.18566696953E+03  0.18566696955E+03  0.25500000920E-02 0.  1.
        2   -1    0    0  501    0  0.00000000000E+00  0.00000000000E+00 -0.14381944873E+04  0.14381944873E+04  0.25500000920E-02 0. -1.
    10030    2    1    2    0    0  0.00000000000E+00  0.00000000000E+00 -0.12525275177E+04  0.16238614568E+04  0.10334896459E+04 0.  0.
        3    1    3    3  502    0  0.77422270080E+02 -0.35833921039E+02  0.17452515181E+03  0.19426094980E+03  0.10100000352E+00 0.  1.
       -3    1    3    3    0  502 -0.77422270080E+02  0.35833921039E+02 -0.14270526695E+04  0.14296005070E+04  0.10100000352E+00 0. -1.
</event>
<event>
 5   0  0.9507815E-03  0.9889094E+03  0.7818609E-02  0.9320793E-01
       -1   -1    0    0    0  501  0.00000000000E+00  0.00000000000E+00  0.42931617902E+03  0.42931617905E+03  0.50400001928E-02 0.  1.
        1   -1    0    0  501    0  0.00000000000E+00  0.00000000000E+00 -0.56947649727E+03  0.56947649729E+03  0.50400001928E-02 0. -1.
    10030    2    1    2    0    0  0.00000000000E+00  0.00000000000E+00 -0.14016031825E+03  0.99879267633E+03  0.98890944757E+03 0.  0.
        1    1    3    3  502    0 -0.88307958387E+02  0.13749901705E+03  0.40125410801E+03  0.43325412222E+03  0.50400001928E-02 0.  1.
       -1    1    3    3    0  502  0.88307958387E+02 -0.13749901705E+03 -0.54141442626E+03  0.56553855411E+03  0.50400001928E-02 0. -1.
</event>
<event>
 5   0  0.9396660E-03  0.1008920E+04  0.7818609E-02  0.9298815E-01
       -1   -1    0    0    0  501  0.00000000000E+00  0.00000000000E+00  0.61942145611E+03  0.61942145613E+03  0.50400001928E-02 0. -1.
        1   -1    0    0  501    0  0.00000000000E+00  0.00000000000E+00 -0.41083486886E+03  0.41083486889E+03  0.50400001928E-02 0.  1.
    10030    2    1    2    0    0  0.00000000000E+00  0.00000000000E+00  0.20858658725E+03  0.10302563250E+04  0.10089200815E+04 0.  0.
        5    1    3    3  502    0  0.31965983033E+03  0.37850212258E+03  0.20123015755E+03  0.53475408388E+03  0.46999998093E+01 0.  1.
       -5    1    3    3    0  502 -0.31965983033E+03 -0.37850212258E+03  0.73564296995E+01  0.49550224114E+03  0.46999998093E+01 0. -1.
</event>
<event>
 5   0  0.6314750E-03  0.9062647E+03  0.7818609E-02  0.9417784E-01
       -3   -1    0    0    0  501  0.00000000000E+00  0.00000000000E+00  0.54495415924E+03  0.54495416860E+03  0.10100000352E+00 0. -1.
        3   -1    0    0  501    0  0.00000000000E+00  0.00000000000E+00 -0.37678202307E+03  0.37678203661E+03  0.10100000352E+00 0.  1.
    10030    2    1    2    0    0  0.00000000000E+00  0.00000000000E+00  0.16817213617E+03  0.92173620521E+03  0.90626473208E+03 0.  0.
        3    1    3    3  502    0 -0.33622795299E+03 -0.57653760146E+02  0.38743226323E+03  0.51621406531E+03  0.10100000352E+00 0. -1.
       -3    1    3    3    0  502  0.33622795299E+03  0.57653760146E+02 -0.21926012706E+03  0.40552213990E+03  0.10100000352E+00 0.  1.
</event>
<event>
 5   0  0.1617721E-02  0.9913446E+03  0.7818609E-02  0.9318089E-01
        2   -1    0    0  501    0  0.00000000000E+00  0.00000000000E+00  0.51917593709E+03  0.51917593709E+03  0.25500000920E-02 0. -1.
       -2   -1    0    0    0  501  0.00000000000E+00  0.00000000000E+00 -0.47323273028E+03  0.47323273029E+03  0.25500000920E-02 0.  1.
    10030    2    1    2    0    0  0.00000000000E+00  0.00000000000E+00  0.45943206809E+02  0.99240866738E+03  0.99134463475E+03 0.  0.
        5    1    3    3  502    0 -0.26044508977E+03 -0.39475448485E+03 -0.12553251437E+03  0.48932938830E+03  0.46999998093E+01 0.  1.
       -5    1    3    3    0  502  0.26044508977E+03  0.39475448485E+03  0.17147572118E+03  0.50307927908E+03  0.46999998093E+01 0. -1.
</event>
<event>
 5   0  0.9507815E-03  0.1088029E+04  0.7818609E-02  0.9216938E-01
       -1   -1    0    0    0  501  0.00000000000E+00  0.00000000000E+00  0.15471645254E+03  0.15471645262E+03  0.50400001928E-02 0. -1.
        1   -1    0    0  501    0  0.00000000000E+00  0.00000000000E+00 -0.19128671747E+04  0.19128671747E+04  0.50400001928E-02 0.  1.
    10030    2    1    2    0    0  0.00000000000E+00  0.00000000000E+00 -0.17581507222E+04  0.20675836274E+04  0.10880294547E+04 0.  0.
        1    1    3    3  502    0 -0.17478239775E+03  0.12367484008E+03 -0.18294305228E+04  0.18419175851E+04  0.50400001928E-02 0.  1.
       -1    1    3    3    0  502  0.17478239775E+03 -0.12367484008E+03  0.71279800589E+02  0.22566604226E+03  0.50400001928E-02 0. -1.
</event>
<event>
 5   0  0.9396660E-03  0.1008200E+04  0.7818609E-02  0.9299597E-01
        1   -1    0    0  501    0  0.00000000000E+00  0.00000000000E+00  0.51301965837E+03  0.51301965840E+03  0.50400001928E-02 0. -1.
       -1   -1    0    0    0  501  0.00000000000E+00  0.00000000000E+00 -0.49533529557E+03  0.49533529560E+03  0.50400001928E-02 0.  1.
    10030    2    1    2    0    0  0.00000000000E+00  0.00000000000E+00  0.17684362801E+02  0.10083549540E+04  0.10081998694E+04 0.  0.
        5    1    3    3  502    0 -0.40623232075E+02  0.31424476816E+03 -0.38325719391E+03  0.49730090285E+03  0.46999998093E+01 0.  1.
       -5    1    3    3    0  502  0.40623232075E+02 -0.31424476816E+03  0.40094155671E+03  0.51105405114E+03  0.46999998093E+01 0. -1.
</event>
<event>
 5   0  0.1000773E-02  0.9580205E+03  0.7818609E-02  0.9355825E-01
       -1   -1    0    0    0  501  0.00000000000E+00  0.00000000000E+00  0.11600068717E+04  0.11600068717E+04  0.50400001928E-02 0.  1.
        1   -1    0    0  501    0  0.00000000000E+00  0.00000000000E+00 -0.19780127669E+03  0.19780127675E+03  0.50400001928E-02 0. -1.
    10030    2    1    2    0    0  0.00000000000E+00  0.00000000000E+00  0.96220559503E+03  0.13578081485E+04  0.95802054309E+03 0.  0.
        3    1    3    3  502    0  0.38670323999E+03  0.25876951580E+03  0.64238804631E+03  0.79319825414E+03  0.10100000352E+00 0.  1.
       -3    1    3    3    0  502 -0.38670323999E+03 -0.25876951580E+03  0.31981754872E+03  0.56460989435E+03  0.10100000352E+00 0. -1.
</event>
<event>
 5   0  0.1656859E-02  0.1008830E+04  0.7818609E-02  0.9298913E-01
        2   -1    0    0  501    0  0.00000000000E+00  0.00000000000E+00  0.67622793808E+03  0.67622793809E+03  0.25500000920E-02 0.  1.
       -2   -1    0    0    0  501  0.00000000000E+00  0.00000000000E+00 -0.37625557237E+03  0.37625557238E+03  0.25500000920E-02 0. -1.
    10030    2    1    2    0    0  0.00000000000E+00  0.00000000000E+00  0.29997236572E+03  0.10524835105E+04  0.10088300747E+04 0.  0.
        4    1    3    3  502    0  0.42177205903E+03  0.16402141848E+03 -0.82450883770E+02  0.45999397456E+03  0.12699999809E+01 0. -1.
       -4    1    3    3    0  502 -0.42177205903E+03 -0.16402141848E+03  0.38242324949E+03  0.59248953590E+03  0.12699999809E+01 0.  1.
</event>
<event>
 5   0  0.9759443E-03  0.1012972E+04  0.7818609E-02  0.9294430E-01
       -1   -1    0    0    0  501  0.00000000000E+00  0.00000000000E+00  0.11396634260E+03  0.11396634272E+03  0.50400001928E-02 0.  1.
        1   -1    0    0  501    0  0.00000000000E+00  0.00000000000E+00 -0.22509117472E+04  0.22509117472E+04  0.50400001928E-02 0. -1.
    10030    2    1    2    0    0  0.00000000000E+00  0.00000000000E+00 -0.21369454045E+04  0.23648780899E+04  0.10129722197E+04 0.  0.
        2    1    3    3  502    0  0.11048706049E+03  0.48622041830E+03 -0.86083174663E+03  0.99481102814E+03  0.25500000920E-02 0. -1.
       -2    1    3    3    0  502 -0.11048706049E+03 -0.48622041830E+03 -0.12761136579E+04  0.13700670617E+04  0.25500000920E-02 0.  1.
</event>
<event>
 5   0  0.6314750E-03  0.9300282E+03  0.7818609E-02  0.9388804E-01
        3   -1    0    0  501    0  0.00000000000E+00  0.00000000000E+00  0.94656042338E+03  0.94656042877E+03  0.10100000352E+00 0. -1.
       -3   -1    0    0    0  501  0.00000000000E+00  0.00000000000E+00 -0.22844617541E+03  0.22844619774E+03  0.10100000352E+00 0.  1.
    10030    2    1    2    0    0  0.00000000000E+00  0.00000000000E+00  0.71811424797E+03  0.11750066265E+04  0.93002822495E+03 0.  0.
        2    1    3    3  502    0  0.42124027814E+03  0.17154664834E+03  0.48133077011E+03  0.66223178325E+03  0.25500000920E-02 0.  1.
       -2    1    3    3    0  502 -0.42124027814E+03 -0.17154664834E+03  0.23678347786E+03  0.51277484326E+03  0.25500000920E-02 0. -1.
</event>
<event>
 5   0  0.1663497E-02  0.9783146E+03  0.7818609E-02  0.9332654E-01
        2   -1    0    0  501    0  0.00000000000E+00  0.00000000000E+00  0.46380474859E+03  0.46380474859E+03  0.25500000920E-02 0.  1.
       -2   -1    0    0    0  501  0.00000000000E+00  0.00000000000E+00 -0.51589565370E+03  0.51589565370E+03  0.25500000920E-02 0. -1.
    10030    2    1    2    0    0  0.00000000000E+00  0.00000000000E+00 -0.52090905112E+02  0.97970040230E+03  0.97831457919E+03 0.  0.
        1    1    3    3  502    0 -0.97616959079E+02 -0.46491042460E+03  0.90756298826E+02  0.48363982404E+03  0.50400001928E-02 0.  1.
       -1    1    3    3    0  502  0.97616959079E+02  0.46491042460E+03 -0.14284720394E+03  0.49606057825E+03  0.50400001928E-02 0. -1.
</event>
<event>
 5   0  0.1656859E-02  0.1001966E+04  0.7818609E-02  0.9306391E-01
        2   -1    0    0  501    0  0.00000000000E+00  0.00000000000E+00  0.19285893098E+04  0.19285893098E+04  0.25500000920E-02 0.  1.
       -2   -1    0    0    0  501  0.00000000000E+00  0.00000000000E+00 -0.13013856334E+03  0.13013856336E+03  0.25500000920E-02 0. -1.
    10030    2    1    2    0    0  0.00000000000E+00  0.00000000000E+00  0.17984507464E+04  0.20587278731E+04  0.10019657521E+04 0.  0.
        4    1    3    3  502    0 -0.20846189852E+03 -0.30772167196E+03  0.20904183892E+03  0.42643767874E+03  0.12699999809E+01 0. -1.
       -4    1    3    3    0  502  0.20846189852E+03  0.30772167196E+03  0.15894089075E+04  0.16322901944E+04  0.12699999809E+01 0.  1.
</event>
<event>
 5   0  0.1656859E-02  0.9929987E+03  0.7818609E-02  0.9316257E-01
        2   -1    0    0  501    0  0.00000000000E+00  0.00000000000E+00  0.98887057293E+03  0.98887057293E+03  0.25500000920E-02 0.  1.
       -2   -1    0    0    0  501  0.00000000000E+00  0.00000000000E+00 -0.24928603125E+03  0.24928603126E+03  0.25500000920E-02 0. -1.
    10030    2    1    2    0    0  0.00000000000E+00  0.00000000000E+00  0.73958454168E+03  0.12381566042E+04  0.99299873224E+03 0.  0.
        4    1    3    3  502    0 -0.38289109106E+03 -0.23806004421E+03  0.62904821426E+03  0.77393891298E+03  0.12699999809E+01 0.  1.
       -4    1    3    3    0  502  0.38289109106E+03  0.23806004421E+03  0.11053632742E+03  0.46421769122E+03  0.12699999809E+01 0. -1.
</event>
<event>
 5   0  0.1571895E-02  0.9811790E+03  0.7818609E-02  0.9329432E-01
       -2   -1    0    0    0  501  0.00000000000E+00  0.00000000000E+00  0.22638344241E+03  0.22638344243E+03  0.25500000920E-02 0.  1.
        2   -1    0    0  501    0  0.00000000000E+00  0.00000000000E+00 -0.10631433248E+04  0.10631433248E+04  0.25500000920E-02 0. -1.
    10030    2    1    2    0    0  0.00000000000E+00  0.00000000000E+00 -0.83675988237E+03  0.12895267672E+04  0.98117897583E+03 0.  0.
        2    1    3    3  502    0 -0.27262429937E+03 -0.19821746117E+03  0.50102346329E+02  0.34077032681E+03  0.25500000920E-02 0.  1.
       -2    1    3    3    0  502  0.27262429937E+03  0.19821746117E+03 -0.88686222870E+03  0.94875644041E+03  0.25500000920E-02 0. -1.
</event>
<event>
 5   0  0.1598986E-02  0.9931044E+03  0.7818609E-02  0.9316140E-01
       -2   -1    0    0    0  501  0.00000000000E+00  0.00000000000E+00  0.80402032543E+03  0.80402032544E+03  0.25500000920E-02 0. -1.
        2   -1    0    0  501    0  0.00000000000E+00  0.00000000000E+00 -0.30666402066E+03  0.30666402067E+03  0.25500000920E-02 0.  1.
    10030    2    1    2    0    0  0.00000000000E+00  0.00000000000E+00  0.49735630477E+03  0.11106843461E+04  0.99310443700E+03 0.  0.
        3    1    3    3  502    0 -0.49901674725E+02  0.23931730452E+03 -0.23469830781E+03  0.33888973911E+03  0.10100000352E+00 0.  1.
       -3    1    3    3    0  502  0.49901674725E+02 -0.23931730452E+03  0.73205461259E+03  0.77179460700E+03  0.10100000352E+00 0. -1.
</event>
<event>
 5   0  0.1000773E-02  0.9920882E+03  0.7818609E-02  0.9317265E-01
       -1   -1    0    0    0  501  0.00000000000E+00  0.00000000000E+00  0.48662383770E+03  0.48662383773E+03  0.50400001928E-02 0.  1.
        1   -1    0    0  501    0  0.00000000000E+00  0.00000000000E+00 -0.50564671867E+03  0.50564671870E+03  0.50400001928E-02 0. -1.
    10030    2    1    2    0    0  0.00000000000E+00  0.00000000000E+00 -0.19022880973E+02  0.99227055643E+03  0.99208819525E+03 0.  0.
        3    1    3    3  502    0  0.28463493753E+02 -0.35233152717E+03 -0.35758699221E+03  0.50280825641E+03  0.10100000352E+00 0. -1.
       -3    1    3    3    0  502 -0.28463493753E+02  0.35233152717E+03  0.33856411124E+03  0.48946230001E+03  0.10100000352E+00 0.  1.
</event>
<event>
 5   0  0.9471140E-03  0.1010929E+04  0.7818609E-02  0.9296639E-01
       -1   -1    0    0    0  501  0.00000000000E+00  0.00000000000E+00  0.42298265295E+03  0.42298265298E+03  0.50400001928E-02 0.  1.
        1   -1    0    0  501    0  0.00000000000E+00  0.00000000000E+00 -0.60402997497E+03  0.60402997499E+03  0.50400001928E-02 0. -1.
    10030    2    1    2    0    0  0.00000000000E+00  0.00000000000E+00 -0.18104732201E+03  0.10270126280E+04  0.10109286845E+04 0.  0.
        4    1    3    3  502    0  0.10767831147E+03  0.26055003044E+03  0.33568863304E+03  0.43837131336E+03  0.12699999809E+01 0.  1.
       -4    1    3    3    0  502 -0.10767831147E+03 -0.26055003044E+03 -0.51673595505E+03  0.58864131461E+03  0.12699999809E+01 0. -1.
</event>
<event>
 5   0  0.1598986E-02  0.9847943E+03  0.7818609E-02  0.9325381E-01
        2   -1    0    0  501    0  0.00000000000E+00  0.00000000000E+00  0.12056842151E+04  0.12056842151E+04  0.25500000920E-02 0.  1.
       -2   -1    0    0    0  501  0.00000000000E+00  0.00000000000E+00 -0.20109323852E+03  0.20109323854E+03  0.25500000920E-02 0. -1.
    10030    2    1    2    0    0  0.00000000000E+00  0.00000000000E+00  0.10045909765E+04  0.14067774536E+04  0.98479427995E+03 0.  0.
        3    1    3    3  502    0 -0.74614642836E+02 -0.38084156756E+03  0.93522087373E+03  0.10125441903E+04  0.10100000352E+00 0.  1.
       -3    1    3    3    0  502  0.74614642836E+02  0.38084156756E+03  0.69370102801E+02  0.39423326327E+03  0.10100000352E+00 0. -1.
</event>
<event>
 5   0  0.1571895E-02  0.9393507E+03  0.7818609E-02  0.9377685E-01
       -2   -1    0    0    0  501  0.00000000000E+00  0.00000000000E+00  0.15865032112E+03  0.15865032114E+03  0.25500000920E-02 0. -1.
        2   -1    0    0  501    0  0.00000000000E+00  0.00000000000E+00 -0.13904473134E+04  0.13904473134E+04  0.25500000920E-02 0.  1.
    10030    2    1    2    0    0  0.00000000000E+00  0.00000000000E+00 -0.12317969922E+04  0.15490976345E+04  0.93935065400E+03 0.  0.
        2    1    3    3  502    0 -0.22811240995E+03  0.40572133889E+03 -0.71954164550E+03  0.85696280901E+03  0.25500000920E-02 0.  1.
       -2    1    3    3    0  502  0.22811240995E+03 -0.40572133889E+03 -0.51225534675E+03  0.69213482551E+03  0.25500000920E-02 0. -1.
</event>
<event>
 5   0  0.9507815E-03  0.9313117E+03  0.7818609E-02  0.9387265E-01
       -1   -1    0    0    0  501  0.00000000000E+00  0.00000000000E+00  0.98830757243E+03  0.98830757244E+03  0.50400001928E-02 0.  1.
        1   -1    0    0  501    0  0.00000000000E+00  0.00000000000E+00 -0.21940069258E+03  0.21940069264E+03  0.50400001928E-02 0. -1.
    10030    2    1    2    0    0  0.00000000000E+00  0.00000000000E+00  0.76890687985E+03  0.12077082651E+04  0.93131168986E+03 0.  0.
        1    1    3    3  502    0 -0.22477217022E+02 -0.41014079286E+03  0.66890331201E+03  0.78495371590E+03  0.50400001928E-02 0.  1.
       -1    1    3    3    0  502  0.22477217022E+02  0.41014079286E+03  0.10000356783E+03  0.42275454919E+03  0.50400001928E-02 0. -1.
</event>
<event>
 5   0  0.1663497E-02  0.9794647E+03  0.7818609E-02  0.9331359E-01
       -2   -1    0    0    0  501  0.00000000000E+00  0.00000000000E+00  0.14042228731E+03  0.14042228733E+03  0.25500000920E-02 0.  1.
        2   -1    0    0  501    0  0.00000000000E+00  0.00000000000E+00 -0.17079751022E+04  0.17079751022E+04  0.25500000920E-02 0. -1.
    10030    2    1    2    0    0  0.00000000000E+00  0.00000000000E+00 -0.15675528149E+04  0.18483973896E+04  0.97946469164E+03 0.  0.
        1    1    3    3  502    0  0.80681409506E+02  0.35423158481E+03 -0.16403124851E+03  0.39861730523E+03  0.50400001928E-02 0.  1.
       -1    1    3    3    0  502 -0.80681409506E+02 -0.35423158481E+03 -0.14035215664E+04  0.14497800843E+04  0.50400001928E-02 0. -1.
</event>
<event>
 5   0  0.9759443E-03  0.9878705E+03  0.7818609E-02  0.9321949E-01
       -1   -1    0    0    0  501  0.00000000000E+00  0.00000000000E+00  0.23443444169E+03  0.23443444174E+03  0.50400001928E-02 0. -1.
        1   -1    0    0  501    0  0.00000000000E+00  0.00000000000E+00 -0.10406834075E+04  0.10406834075E+04  0.50400001928E-02 0.  1.
    10030    2    1    2    0    0  0.00000000000E+00  0.00000000000E+00 -0.80624896576E+03  0.12751178492E+04  0.98787050496E+03 0.  0.
        2    1    3    3  502    0 -0.97267270075E+02 -0.87718032245E+02 -0.10178592564E+04  0.10262518408E+04  0.25500000920E-02 0.  1.
       -2    1    3    3    0  502  0.97267270075E+02  0.87718032245E+02  0.21161029063E+03  0.24886600836E+03  0.25500000920E-02 0. -1.
</event>
<event>
 5   0  0.1617721E-02  0.1003781E+04  0.7818609E-02  0.9304408E-01
       -2   -1    0    0    0  501  0.00000000000E+00  0.00000000000E+00  0.14499529731E+03  0.14499529733E+03  0.25500000920E-02 0.  1.
        2   -1    0    0  501    0  0.00000000000E+00  0.00000000000E+00 -0.17372562965E+04  0.17372562965E+04  0.25500000920E-02 0. -1.
    10030    2    1    2    0    0  0.00000000000E+00  0.00000000000E+00 -0.15922609992E+04  0.18822515938E+04  0.10037808391E+04 0.  0.
        5    1    3    3  502    0 -0.21511230778E+03 -0.33251787068E+03 -0.13741868772E+04  0.14301234572E+04  0.46999998093E+01 0. -1.
       -5    1    3    3    0  502  0.21511230778E+03  0.33251787068E+03 -0.21807412199E+03  0.45212813666E+03  0.46999998093E+01 0.  1.
</event>
<event>
 5   0  0.9759443E-03  0.9998582E+03  0.7818609E-02  0.9308700E-01
       -1   -1    0    0    0  501  0.00000000000E+00  0.00000000000E+00  0.22677964201E+03  0.22677964206E+03  0.50400001928E-02 0. -1.
        1   -1    0    0  501    0  0.00000000000E+00  0.00000000000E+00 -0.11020791685E+04  0.11020791685E+04  0.50400001928E-02 0.  1.
    10030    2    1    2    0    0  0.00000000000E+00  0.00000000000E+00 -0.87529952653E+03  0.13288588106E+04  0.99985822864E+03 0.  0.
        2    1    3    3  502    0  0.19822396345E+03  0.96142408863E+02  0.15878454751E+03  0.27156699911E+03  0.25500000920E-02 0. -1.
       -2    1    3    3    0  502 -0.19822396345E+03 -0.96142408863E+02 -0.10340840740E+04  0.10572918115E+04  0.25500000920E-02 0.  1.
</event>
<event>
 5   0  0.1000773E-02  0.1025020E+04  0.7818609E-02  0.9281521E-01
        1   -1    0    0  501    0  0.00000000000E+00  0.00000000000E+00  0.10889536006E+04  0.10889536006E+04  0.50400001928E-02 0.  1.
       -1   -1    0    0    0  501  0.00000000000E+00  0.00000000000E+00 -0.24121018829E+03  0.24121018834E+03  0.50400001928E-02 0. -1.
    10030    2    1    2    0    0  0.00000000000E+00  0.00000000000E+00  0.84774341229E+03  0.13301637889E+04  0.10250203960E+04 0.  0.
        3    1    3    3  502    0  0.28714366787E+03  0.85184169464E+02 -0.11581786505E+03  0.32112554678E+03  0.10100000352E+00 0. -1.
       -3    1    3    3    0  502 -0.28714366787E+03 -0.85184169464E+02  0.96356127734E+03  0.10090382421E+04  0.10100000352E+00 0.  1.
</event>
<event>
 5   0  0.9396660E-03  0.5149615E+03  0.7818609E-02  0.1009946E+00
        1   -1    0    0  501    0  0.00000000000E+00  0.00000000000E+00  0.88697591346E+02  0.88697591489E+02  0.50400001928E-02 0.  1.
       -1   -1    0    0    0  501  0.00000000000E+00  0.00000000000E+00 -0.74744243017E+03  0.74744243019E+03  0.50400001928E-02 0. -1.
    10030    2    1    2    0    0  0.00000000000E+00  0.00000000000E+00 -0.65874483883E+03  0.83614002168E+03  0.51496152591E+03 0.  0.
        5    1    3    3  502    0 -0.48177894871E+02 -0.66087979283E+02 -0.72571853406E+03  0.73032746849E+03  0.46999998093E+01 0. -1.
       -5    1    3    3    0  502  0.48177894871E+02  0.66087979283E+02  0.66973695234E+02  0.10581255318E+03  0.46999998093E+01 0.  1.
</event>
<event>
 5   0  0.1663497E-02  0.1037092E+04  0.7818609E-02  0.9268773E-01
        2   -1    0    0  501    0  0.00000000000E+00  0.00000000000E+00  0.11264667960E+04  0.11264667960E+04  0.25500000920E-02 0. -1.
       -2   -1    0    0    0  501  0.00000000000E+00  0.00000000000E+00 -0.23870217571E+03  0.23870217572E+03  0.25500000920E-02 0.  1.
    10030    2    1    2    0    0  0.00000000000E+00  0.00000000000E+00  0.88776462025E+03  0.13651689717E+04  0.10370922333E+04 0.  0.
        1    1    3    3  502    0  0.38443403889E+03  0.59310570950E+02 -0.74962508740E+01  0.38905458214E+03  0.50400001928E-02 0.  1.
       -1    1    3    3    0  502 -0.38443403889E+03 -0.59310570950E+02  0.89526087112E+03  0.97611438954E+03  0.50400001928E-02 0. -1.
</event>
<event>
 5   0  0.1000773E-02  0.9871496E+03  0.7818609E-02  0.9322752E-01
        1   -1    0    0  501    0  0.00000000000E+00  0.00000000000E+00  0.17235410944E+03  0.17235410951E+03  0.50400001928E-02 0. -1.
       -1   -1    0    0    0  501  0.00000000000E+00  0.00000000000E+00 -0.14134625075E+04  0.14134625075E+04  0.50400001928E-02 0.  1.
    10030    2    1    2    0    0  0.00000000000E+00  0.00000000000E+00 -0.12411083981E+04  0.15858166171E+04  0.98714957686E+03 0.  0.
        3    1    3    3  502    0  0.14793029045E+03 -0.48049708285E+02 -0.13730636898E+04  0.13818451620E+04  0.10100000352E+00 0.  1.
       -3    1    3    3    0  502 -0.14793029045E+03  0.48049708285E+02  0.13195529165E+03  0.20397145510E+03  0.10100000352E+00 0. -1.
</event>
<event>
 5   0  0.1571895E-02  0.1009804E+04  0.7818609E-02  0.9297857E-01
       -2   -1    0    0    0  501  0.00000000000E+00  0.00000000000E+00  0.12862978695E+03  0.12862978698E+03  0.25500000920E-02 0.  1.
        2   -1    0    0  501    0  0.00000000000E+00  0.00000000000E+00 -0.19818578214E+04  0.19818578214E+04  0.25500000920E-02 0. -1.
    10030    2    1    2    0    0  0.00000000000E+00  0.00000000000E+00 -0.18532280345E+04  0.21104876084E+04  0.10098038411E+04 0.  0.
        2    1    3    3  502    0 -0.33434536803E+03  0.17736595267E+03 -0.16250624584E+04  0.16685543143E+04  0.25500000920E-02 0. -1.
       -2    1    3    3    0  502  0.33434536803E+03 -0.17736595267E+03 -0.22816557612E+03  0.44193329409E+03  0.25500000920E-02 0.  1.
</event>
<event>
 5   0  0.9471140E-03  0.9834686E+03  0.7818609E-02  0.9326864E-01
       -1   -1    0    0    0  501  0.00000000000E+00  0.00000000000E+00  0.68673418004E+03  0.68673418005E+03  0.50400001928E-02 0. -1.
        1   -1    0    0  501    0  0.00000000000E+00  0.00000000000E+00 -0.35210509326E+03  0.35210509330E+03  0.50400001928E-02 0.  1.
    10030    2    1    2    0    0  0.00000000000E+00  0.00000000000E+00  0.33462908678E+03  0.10388392734E+04  0.98346856083E+03 0.  0.
        4    1    3    3  502    0  0.11189045002E+03 -0.45520287319E+03  0.32424504236E+03  0.56996981407E+03  0.12699999809E+01 0. -1.
       -4    1    3    3    0  502 -0.11189045002E+03  0.45520287319E+03  0.10384044420E+02  0.46886945928E+03  0.12699999809E+01 0.  1.
</event>
<event>
 5   0  0.9396660E-03  0.1048466E+04  0.7818609E-02  0.9256929E-01
       -1   -1    0    0    0  501  0.00000000000E+00  0.00000000000E+00  0.52709757715E+03  0.52709757717E+03  0.50400001928E-02 0.  1.
        1   -1    0    0  501    0  0.00000000000E+00  0.00000000000E+00 -0.52138412134E+03  0.52138412137E+03  0.50400001928E-02 0. -1.
    10030    2    1    2    0    0  0.00000000000E+00  0.00000000000E+00  0.57134558088E+01  0.10484816985E+04  0.10484661314E+04 0.  0.
        5    1    3    3  502    0  0.40760766708E+03  0.26951816552E+03  0.19263353049E+03  0.52527499357E+03  0.46999998093E+01 0. -1.
       -5    1    3    3    0  502 -0.40760766708E+03 -0.26951816552E+03 -0.18692007468E+03  0.52320670497E+03  0.46999998093E+01 0.  1.
</event>
<event>
 5   0  0.1617721E-02  0.9831810E+03  0.7818609E-02  0.9327186E-01
        2   -1    0    0  501    0  0.00000000000E+00  0.00000000000E+00  0.14406991386E+03  0.14406991388E+03  0.25500000920E-02 0. -1.
       -2   -1    0    0    0  501  0.00000000000E+00  0.00000000000E+00 -0.16773886064E+04  0.16773886064E+04  0.25500000920E-02 0.  1.
    10030    2    1    2    0    0  0.00000000000E+00  0.00000000000E+00 -0.15333186925E+04  0.18214585203E+04  0.98318102514E+03 0.  0.
        5    1    3    3  502    0  0.47988266294E+03 -0.59029104239E+02 -0.93098284239E+03  0.10490581243E+04  0.46999998093E+01 0.  1.
       -5    1    3    3    0  502 -0.47988266294E+03  0.59029104239E+02 -0.60233585014E+03  0.77240039597E+03  0.46999998093E+01 0. -1.
</event>
<event>
 5   0  0.9396660E-03  0.1020533E+04  0.7818609E-02  0.9286307E-01
        1   -1    0    0  501    0  0.00000000000E+00  0.00000000000E+00  0.27346597764E+03  0.27346597769E+03  0.50400001928E-02 0. -1.
       -1   -1    0    0    0  501  0.00000000000E+00  0.00000000000E+00 -0.95211747181E+03  0.95211747182E+03  0.50400001928E-02 0.  1.
    10030    2    1    2    0    0  0.00000000000E+00  0.00000000000E+00 -0.67865149417E+03  0.12255834495E+04  0.10205326752E+04 0.  0.
        5    1    3    3  502    0 -0.31766159524E+03  0.22503966584E+02  0.13944193592E+03  0.34768011317E+03  0.46999998093E+01 0.  1.
       -5    1    3    3    0  502  0.31766159524E+03 -0.22503966584E+02 -0.81809343009E+03  0.87790333634E+03  0.46999998093E+01 0. -1.
</event>
<event>
 5   0  0.9759443E-03  0.9855473E+03  0.7818609E-02  0.9324540E-01
       -1   -1    0    0    0  501  0.00000000000E+00  0.00000000000E+00  0.20244028360E+03  0.20244028366E+03  0.50400001928E-02 0.  1.
        1   -1    0    0  501    0  0.00000000000E+00  0.00000000000E+00 -0.11994937106E+04  0.11994937106E+04  0.50400001928E-02 0. -1.
    10030    2    1    2    0    0  0.00000000000E+00  0.00000000000E+00 -0.99705342701E+03  0.14019339943E+04  0.98554725306E+03 0.  0.
        2    1    3    3  502    0 -0.41950701516E+03  0.48107655851E+02 -0.13718728880E+03  0.44398292144E+03  0.25500000920E-02 0.  1.
       -2    1    3    3    0  502  0.41950701516E+03 -0.48107655851E+02 -0.85986613821E+03  0.95795107284E+03  0.25500000920E-02 0. -1.
</event>
<event>
 5   0  0.1663497E-02  0.9904418E+03  0.7818609E-02  0.9319091E-01
       -2   -1    0    0    0  501  0.00000000000E+00  0.00000000000E+00  0.11468570131E+03  0.11468570134E+03  0.25500000920E-02 0.  1.
        2   -1    0    0  501    0  0.00000000000E+00  0.00000000000E+00 -0.21383984735E+04  0.21383984735E+04  0.25500000920E-02 0. -1.
    10030    2    1    2    0    0  0.00000000000E+00  0.00000000000E+00 -0.20237127722E+04  0.22530841749E+04  0.99044177748E+03 0.  0.
        1    1    3    3  502    0 -0.36063589036E+03  0.28919619215E+03 -0.14159252111E+04  0.14894753729E+04  0.50400001928E-02 0. -1.
       -1    1    3    3    0  502  0.36063589036E+03 -0.28919619215E+03 -0.60778756109E+03  0.76360880195E+03  0.50400001928E-02 0.  1.
</event>
<event>
 5   0  0.9471140E-03  0.1003988E+04  0.7818609E-02  0.9304182E-01
       -1   -1    0    0    0  501  0.00000000000E+00  0.00000000000E+00  0.69498451830E+03  0.69498451831E+03  0.50400001928E-02 0. -1.
        1   -1    0    0  501    0  0.00000000000E+00  0.00000000000E+00 -0.36259512223E+03  0.36259512227E+03  0.50400001928E-02 0.  1.
    10030    2    1    2    0    0  0.00000000000E+00  0.00000000000E+00  0.33238939606E+03  0.10575796406E+04  0.10039880405E+04 0.  0.
        4    1    3    3  502    0 -0.42266961985E+03 -0.40272700646E+01 -0.11905620904E+03  0.43913758694E+03  0.12699999809E+01 0.  1.
       -4    1    3    3    0  502  0.42266961985E+03  0.40272700646E+01  0.45144560510E+03  0.61844205364E+03  0.12699999809E+01 0. -1.
</event>
<event>
 5   0  0.1663497E-02  0.9855883E+03  0.7818609E-02  0.9324494E-01
        2   -1    0    0  501    0  0.00000000000E+00  0.00000000000E+00  0.61268845861E+03  0.61268845862E+03  0.25500000920E-02 0. -1.
       -2   -1    0    0    0  501  0.00000000000E+00  0.00000000000E+00 -0.39636144326E+03  0.39636144327E+03  0.25500000920E-02 0.  1.
    10030    2    1    2    0    0  0.00000000000E+00  0.00000000000E+00  0.21632701535E+03  0.10090499019E+04  0.98558831514E+03 0.  0.
        1    1    3    3  502    0  0.14884474608E+03 -0.46488829685E+02  0.58676356102E+03  0.60713050186E+03  0.50400001928E-02 0. -1.
       -1    1    3    3    0  502 -0.14884474608E+03  0.46488829685E+02 -0.37043654567E+03  0.40191940003E+03  0.50400001928E-02 0.  1.
</event>
<event>
 5   0  0.1663497E-02  0.9554808E+03  0.7818609E-02  0.9358767E-01
        2   -1    0    0  501    0  0.00000000000E+00  0.00000000000E+00  0.84500472734E+03  0.84500472734E+03  0.25500000920E-02 0. -1.
       -2   -1    0    0    0  501  0.00000000000E+00  0.00000000000E+00 -0.27010012370E+03  0.27010012372E+03  0.25500000920E-02 0.  1.
    10030    2    1    2    0    0  0.00000000000E+00  0.00000000000E+00  0.57490460363E+03  0.11151048511E+04  0.95548078242E+03 0.  0.
        1    1    3    3  502    0 -0.22564371439E+03  0.34633350464E+03  0.56699678846E+03  0.70167466851E+03  0.50400001928E-02 0. -1.
       -1    1    3    3    0  502  0.22564371439E+03 -0.34633350464E+03  0.79078151729E+01  0.41343018255E+03  0.50400001928E-02 0.  1.
</event>
<event>
 5   0  0.9471140E-03  0.1025392E+04  0.7818609E-02  0.9281126E-01
       -1   -1    0    0    0  501  0.00000000000E+00  0.00000000000E+00  0.35688012148E+03  0.35688012151E+03  0.50400001928E-02 0. -1.
        1   -1    0    0  501    0  0.00000000000E+00  0.00000000000E+00 -0.73654129632E+03  0.73654129633E+03  0.50400001928E-02 0.  1.
    10030    2    1    2    0    0  0.00000000000E+00  0.00000000000E+00 -0.37966117484E+03  0.10934214178E+04  0.10253915298E+04 0.  0.
        4    1    3    3  502    0 -0.12338634399E+03 -0.41286039006E+03  0.10640896534E+03  0.44384949293E+03  0.12699999809E+01 0. -1.
       -4    1    3    3    0  502  0.12338634399E+03  0.41286039006E+03 -0.48607014018E+03  0.64957192492E+03  0.12699999809E+01 0.  1.
</event>
<event>
 5   0  0.1000773E-02  0.9861389E+03  0.7818609E-02  0.9323879E-01
       -1   -1    0    0    0  501  0.00000000000E+00  0.00000000000E+00  0.51062137551E+03  0.51062137554E+03  0.50400001928E-02 0. -1.
        1   -1    0    0  501    0  0.00000000000E+00  0.00000000000E+00 -0.47612083692E+03  0.47612083695E+03  0.50400001928E-02 0.  1.
    10030    2    1    2    0    0  0.00000000000E+00  0.00000000000E+00  0.34500538594E+02  0.98674221249E+03  0.98613888816E+03 0.  0.
        3    1    3    3  502    0 -0.16475089685E+03  0.70202448356E+02 -0.44242846833E+03  0.47729885979E+03  0.10100000352E+00 0.  1.
       -3    1    3    3    0  502  0.16475089685E+03 -0.70202448356E+02  0.47692900692E+03  0.50944335270E+03  0.10100000352E+00 0. -1.
</event>
<event>
 5   0  0.1656859E-02  0.9493646E+03  0.7818609E-02  0.9365894E-01
       -2   -1    0    0    0  501  0.00000000000E+00  0.00000000000E+00  0.14719709928E+03  0.14719709930E+03  0.25500000920E-02 0. -1.
        2   -1    0    0  501    0  0.00000000000E+00  0.00000000000E+00 -0.15307589787E+04  0.15307589787E+04  0.25500000920E-02 0.  1.
    10030    2    1    2    0    0  0.00000000000E+00  0.00000000000E+00 -0.13835618794E+04  0.16779560780E+04  0.94936459039E+03 0.  0.
        4    1    3    3  502    0 -0.14143756425E+03  0.29220059388E+03 -0.13038806202E+04  0.13436859961E+04  0.12699999809E+01 0.  1.
       -4    1    3    3    0  502  0.14143756425E+03 -0.29220059388E+03 -0.79681259228E+02  0.33427008184E+03  0.12699999809E+01 0. -1.
</event>
<event>
 5   0  0.9471140E-03  0.1001482E+04  0.7818609E-02  0.9306921E-01
       -1   -1    0    0    0  501  0.00000000000E+00  0.00000000000E+00  0.20884104277E+03  0.20884104283E+03  0.50400001928E-02 0.  1.
        1   -1    0    0  501    0  0.00000000000E+00  0.00000000000E+00 -0.12006342720E+04  0.12006342720E+04  0.50400001928E-02 0. -1.
    10030    2    1    2    0    0  0.00000000000E+00  0.00000000000E+00 -0.99179322923E+03  0.14094753148E+04  0.10014823282E+04 0.  0.
        4    1    3    3  502    0 -0.32518162826E+03 -0.13524003478E+03  0.50768601095E+01  0.35222201205E+03  0.12699999809E+01 0.  1.
       -4    1    3    3    0  502  0.32518162826E+03  0.13524003478E+03 -0.99687008934E+03  0.10572533028E+04  0.12699999809E+01 0. -1.
</event>
<event>
 5   0  0.9507815E-03  0.1042695E+04  0.7818609E-02  0.9262918E-01
        1   -1    0    0  501    0  0.00000000000E+00  0.00000000000E+00  0.10460737814E+04  0.10460737814E+04  0.50400001928E-02 0. -1.
       -1   -1    0    0    0  501  0.00000000000E+00  0.00000000000E+00 -0.25983196886E+03  0.25983196891E+03  0.50400001928E-02 0.  1.
    10030    2    1    2    0    0  0.00000000000E+00  0.00000000000E+00  0.78624181258E+03  0.13059057504E+04  0.10426953730E+04 0.  0.
        1    1    3    3  502    0 -0.14732413145E+03  0.22817998613E+03 -0.16422275523E+03  0.31739505216E+03  0.50400001928E-02 0.  1.
       -1    1    3    3    0  502  0.14732413145E+03 -0.22817998613E+03  0.95046456780E+03  0.98851069819E+03  0.50400001928E-02 0. -1.
</event>
<event>
 5   0  0.9396660E-03  0.1094484E+04  0.7818609E-02  0.9210585E-01
        1   -1    0    0  501    0  0.00000000000E+00  0.00000000000E+00  0.44113678855E+03  0.44113678858E+03  0.50400001928E-02 0.  1.
       -1   -1    0    0    0  501  0.00000000000E+00  0.00000000000E+00 -0.67886818068E+03  0.67886818070E+03  0.50400001928E-02 0. -1.
    10030    2    1    2    0    0  0.00000000000E+00  0.00000000000E+00 -0.23773139213E+03  0.11200049693E+04  0.10944838585E+04 0.  0.
        5    1    3    3  502    0 -0.54311950202E+03 -0.48073589809E+02 -0.71286632140E+02  0.54990338918E+03  0.46999998093E+01 0.  1.
       -5    1    3    3    0  502  0.54311950202E+03  0.48073589809E+02 -0.16644475999E+03  0.57010158011E+03  0.46999998093E+01 0. -1.
</event>
<event>
 5   0  0.1656859E-02  0.9544241E+03  0.7818609E-02  0.9359994E-01
       -2   -1    0    0    0  501  0.00000000000E+00  0.00000000000E+00  0.20315855996E+03  0.20315855997E+03  0.25500000920E-02 0. -1.
        2   -1    0    0  501    0  0.00000000000E+00  0.00000000000E+00 -0.11209538145E+04  0.11209538145E+04  0.25500000920E-02 0.  1.
    10030    2    1    2    0    0  0.00000000000E+00  0.00000000000E+00 -0.91779525452E+03  0.13241123745E+04  0.95442414626E+03 0.  0.
        4    1    3    3  502    0 -0.23313156952E+03 -0.13471808350E+03  0.87705229433E+02  0.28318388178E+03  0.12699999809E+01 0. -1.
       -4    1    3    3    0  502  0.23313156952E+03  0.13471808350E+03 -0.10055004839E+04  0.10409284927E+04  0.12699999809E+01 0.  1.
</event>
<event>
 5   0  0.1571895E-02  0.9916929E+03  0.7818609E-02  0.9317703E-01
        2   -1    0    0  501    0  0.00000000000E+00  0.00000000000E+00  0.44450345164E+03  0.44450345165E+03  0.25500000920E-02 0. -1.
       -2   -1    0    0    0  501  0.00000000000E+00  0.00000000000E+00 -0.55311990791E+03  0.55311990791E+03  0.25500000920E-02 0.  1.
    10030    2    1    2    0    0  0.00000000000E+00  0.00000000000E+00 -0.10861645626E+03  0.99762335956E+03  0.99169291264E+03 0.  0.
        2    1    3    3  502    0 -0.21331711245E+03 -0.69012928623E+02  0.39059975554E+03  0.45037222807E+03  0.25500000920E-02 0. -1.
       -2    1    3    3    0  502  0.21331711245E+03  0.69012928623E+02 -0.49921621180E+03  0.54725113149E+03  0.25500000920E-02 0.  1.
</event>
<event>
 5   0  0.9396660E-03  0.9904841E+03  0.7818609E-02  0.9319044E-01
        1   -1    0    0  501    0  0.00000000000E+00  0.00000000000E+00  0.68357611807E+03  0.68357611809E+03  0.50400001928E-02 0.  1.
       -1   -1    0    0    0  501  0.00000000000E+00  0.00000000000E+00 -0.35879648083E+03  0.35879648086E+03  0.50400001928E-02 0. -1.
    10030    2    1    2    0    0  0.00000000000E+00  0.00000000000E+00  0.32477963724E+03  0.10423725990E+04  0.99048413530E+03 0.  0.
        5    1    3    3  502    0  0.21961924721E+03 -0.28684393538E+03 -0.19407364008E+03  0.41012037840E+03  0.46999998093E+01 0. -1.
       -5    1    3    3    0  502 -0.21961924721E+03  0.28684393538E+03  0.51885327732E+03  0.63225222055E+03  0.46999998093E+01 0.  1.
</event>
<event>
 5   0  0.9507815E-03  0.9930236E+03  0.7818609E-02  0.9316230E-01
       -1   -1    0    0    0  501  0.00000000000E+00  0.00000000000E+00  0.38416673399E+03  0.38416673402E+03  0.50400001928E-02 0. -1.
        1   -1    0    0  501    0  0.00000000000E+00  0.00000000000E+00 -0.64171091379E+03  0.64171091381E+03  0.50400001928E-02 0.  1.
    10030    2    1    2    0    0  0.00000000000E+00  0.00000000000E+00 -0.25754417980E+03  0.10258776478E+04  0.99302363707E+03 0.  0.
        1    1    3    3  502    0  0.27748875409E+03 -0.38751025541E+02 -0.55223900919E+03  0.61924920180E+03  0.50400001928E-02 0.  1.
       -1    1    3    3    0  502 -0.27748875409E+03  0.38751025541E+02  0.29469482939E+03  0.40662844603E+03  0.50400001928E-02 0. -1.
</event>
<event>
 5   0  0.1598986E-02  0.9714021E+03  0.7818609E-02  0.9340479E-01
        2   -1    0    0  501    0  0.00000000000E+00  0.00000000000E+00  0.75913058791E+03  0.75913058791E+03  0.25500000920E-02 0.  1.
       -2   -1    0    0    0  501  0.00000000000E+00  0.00000000000E+00 -0.31075747370E+03  0.31075747371E+03  0.25500000920E-02 0. -1.
    10030    2    1    2    0    0  0.00000000000E+00  0.00000000000E+00  0.44837311421E+03  0.10698880616E+04  0.97140208712E+03 0.  0.
        3    1    3    3  502    0 -0.48039477619E+03  0.71556275296E+02  0.22147706145E+03  0.53380852417E+03  0.10100000352E+00 0. -1.
       -3    1    3    3    0  502  0.48039477619E+03 -0.71556275296E+02  0.22689605276E+03  0.53607953746E+03  0.10100000352E+00 0.  1.
</event>
<event>
 5   0  0.1656859E-02  0.9715980E+03  0.7818609E-02  0.9340256E-01
        2   -1    0    0  501    0  0.00000000000E+00  0.00000000000E+00  0.10156331042E+04  0.10156331042E+04  0.25500000920E-02 0. -1.
       -2   -1    0    0    0  501  0.00000000000E+00  0.00000000000E+00 -0.23236802094E+03  0.23236802096E+03  0.25500000920E-02 0.  1.
    10030    2    1    2    0    0  0.00000000000E+00  0.00000000000E+00  0.78326508323E+03  0.12480011251E+04  0.97159797124E+03 0.  0.
        4    1    3    3  502    0  0.20444320573E+03 -0.69621054585E+02  0.95057446017E+03  0.97480127864E+03  0.12699999809E+01 0. -1.
       -4    1    3    3    0  502 -0.20444320573E+03  0.69621054585E+02 -0.16730937694E+03  0.27319984649E+03  0.12699999809E+01 0.  1.
</event>
<event>
 5   0  0.1656859E-02  0.8664358E+03  0.7818609E-02  0.9468539E-01
        2   -1    0    0  501    0  0.00000000000E+00  0.00000000000E+00  0.78754787534E+03  0.78754787534E+03  0.25500000920E-02 0. -1.
       -2   -1    0    0    0  501  0.00000000000E+00  0.00000000000E+00 -0.23830648624E+03  0.23830648626E+03  0.25500000920E-02 0.  1.
    10030    2    1    2    0    0  0.00000000000E+00  0.00000000000E+00  0.54924138909E+03  0.10258543616E+04  0.86643584166E+03 0.  0.
        4    1    3    3  502    0 -0.11435831596E+03  0.32368216349E+03  0.58749124189E+03  0.68043775585E+03  0.12699999809E+01 0. -1.
       -4    1    3    3    0  502  0.11435831596E+03 -0.32368216349E+03 -0.38249852793E+02  0.34541660575E+03  0.12699999809E+01 0.  1.
</event>
<event>
 5   0  0.1000773E-02  0.1010090E+04  0.7818609E-02  0.9297547E-01
       -1   -1    0    0    0  501  0.00000000000E+00  0.00000000000E+00  0.45626816141E+03  0.45626816144E+03  0.50400001928E-02 0.  1.
        1   -1    0    0  501    0  0.00000000000E+00  0.00000000000E+00 -0.55903637744E+03  0.55903637746E+03  0.50400001928E-02 0. -1.
    10030    2    1    2    0    0  0.00000000000E+00  0.00000000000E+00 -0.10276821602E+03  0.10153045389E+04  0.10100900952E+04 0.  0.
        3    1    3    3  502    0  0.43135781286E+03  0.20858677154E+03  0.10910379758E+03  0.49140782739E+03  0.10100000352E+00 0.  1.
       -3    1    3    3    0  502 -0.43135781286E+03 -0.20858677154E+03 -0.21187201360E+03  0.52389671150E+03  0.10100000352E+00 0. -1.
</event>
<event>
 5   0  0.1000773E-02  0.1047082E+04  0.7818609E-02  0.9258362E-01
       -1   -1    0    0    0  501  0.00000000000E+00  0.00000000000E+00  0.28429584981E+03  0.28429584985E+03  0.50400001928E-02 0. -1.
        1   -1    0    0  501    0  0.00000000000E+00  0.00000000000E+00 -0.96411972312E+03  0.96411972313E+03  0.50400001928E-02 0.  1.
    10030    2    1    2    0    0  0.00000000000E+00  0.00000000000E+00 -0.67982387331E+03  0.12484155730E+04  0.10470821095E+04 0.  0.
        3    1    3    3  502    0  0.19622809571E+03  0.23434535421E+03 -0.84669708905E+03  0.90017730553E+03  0.10100000352E+00 0.  1.
       -3    1    3    3    0  502 -0.19622809571E+03 -0.23434535421E+03  0.16687321574E+03  0.34823826745E+03  0.10100000352E+00 0. -1.
</event>
<event>
 5   0  0.9507815E-03  0.9916129E+03  0.7818609E-02  0.9317792E-01
       -1   -1    0    0    0  501  0.00000000000E+00  0.00000000000E+00  0.10627338467E+04  0.10627338468E+04  0.50400001928E-02 0. -1.
        1   -1    0    0  501    0  0.00000000000E+00  0.00000000000E+00 -0.23131287015E+03  0.23131287020E+03  0.50400001928E-02 0.  1.
    10030    2    1    2    0    0  0.00000000000E+00  0.00000000000E+00  0.83142097660E+03  0.12940467170E+04  0.99161286061E+03 0.  0.
        1    1    3    3  502    0  0.26605831220E+03 -0.19305598419E+03  0.90008292833E+03  0.95823113935E+03  0.50400001928E-02 0. -1.
       -1    1    3    3    0  502 -0.26605831220E+03  0.19305598419E+03 -0.68661951729E+02  0.33581557761E+03  0.50400001928E-02 0.  1.
</event>
<event>
 5   0  0.6314750E-03  0.9968176E+03  0.7818609E-02  0.9312042E-01
       -4   -1    0    0    0  501  0.00000000000E+00  0.00000000000E+00  0.67081601448E+03  0.67081721667E+03  0.12699999809E+01 0.  1.
        4   -1    0    0  501    0  0.00000000000E+00  0.00000000000E+00 -0.37030957304E+03  0.37031175080E+03  0.12699999809E+01 0. -1.
    10030    2    1    2    0    0  0.00000000000E+00  0.00000000000E+00  0.30050644144E+03  0.10411289675E+04  0.99681763907E+03 0.  0.
        5    1    3    3  502    0  0.40569561044E+03 -0.28589178129E+03  0.10277686726E+03  0.50686113816E+03  0.46999998093E+01 0. -1.
       -5    1    3    3    0  502 -0.40569561044E+03  0.28589178129E+03  0.19772957419E+03  0.53426782931E+03  0.46999998093E+01 0.  1.
</event>
<event>
 5   0  0.1598986E-02  0.1017695E+04  0.7818609E-02  0.9289347E-01
        2   -1    0    0  501    0  0.00000000000E+00  0.00000000000E+00  0.81864524147E+03  0.81864524147E+03  0.25500000920E-02 0.  1.
       -2   -1    0    0    0  501  0.00000000000E+00  0.00000000000E+00 -0.31628573253E+03  0.31628573254E+03  0.25500000920E-02 0. -1.
    10030    2    1    2    0    0  0.00000000000E+00  0.00000000000E+00  0.50235950894E+03  0.11349309740E+04  0.10176950622E+04 0.  0.
        3    1    3    3  502    0 -0.63026683916E+01 -0.70017691694E+02  0.81320343902E+03  0.81623651242E+03  0.10100000352E+00 0.  1.
       -3    1    3    3    0  502  0.63026683916E+01  0.70017691694E+02 -0.31084393008E+03  0.31869446159E+03  0.10100000352E+00 0. -1.
</event>
<event>
 5   0  0.1598986E-02  0.1010598E+04  0.7818609E-02  0.9296997E-01
       -2   -1    0    0    0  501  0.00000000000E+00  0.00000000000E+00  0.58856362319E+03  0.58856362319E+03  0.25500000920E-02 0. -1.
        2   -1    0    0  501    0  0.00000000000E+00  0.00000000000E+00 -0.43381416058E+03  0.43381416059E+03  0.25500000920E-02 0.  1.
    10030    2    1    2    0    0  0.00000000000E+00  0.00000000000E+00  0.15474946261E+03  0.10223777838E+04  0.10105983063E+04 0.  0.
        3    1    3    3  502    0 -0.19899777875E+03 -0.43471084083E+03 -0.88097031877E+02  0.48614270365E+03  0.10100000352E+00 0.  1.
       -3    1    3    3    0  502  0.19899777875E+03  0.43471084083E+03  0.24284649448E+03  0.53623508014E+03  0.10100000352E+00 0. -1.
</event>
<event>
 5   0  0.1000773E-02  0.9896898E+03  0.7818609E-02  0.9319926E-01
       -1   -1    0    0    0  501  0.00000000000E+00  0.00000000000E+00  0.10232912390E+04  0.10232912390E+04  0.50400001928E-02 0. -1.
        1   -1    0    0  501    0  0.00000000000E+00  0.00000000000E+00 -0.23929794209E+03  0.23929794214E+03  0.50400001928E-02 0.  1.
    10030    2    1    2    0    0  0.00000000000E+00  0.00000000000E+00  0.78399329687E+03  0.12625891811E+04  0.98968982552E+03 0.  0.
        3    1    3    3  502    0 -0.14200524244E+03 -0.49540444154E+02 -0.20943397296E+03  0.25784170283E+03  0.10100000352E+00 0.  1.
       -3    1    3    3    0  502  0.14200524244E+03  0.49540444154E+02  0.99342726983E+03  0.10047474783E+04  0.10100000352E+00 0. -1.
</event>
<event>
 5   0  0.1571895E-02  0.1003581E+04  0.7818609E-02  0.9304625E-01
       -2   -1    0    0    0  501  0.00000000000E+00  0.00000000000E+00  0.19708422385E+03  0.19708422387E+03  0.25500000920E-02 0.  1.
        2   -1    0    0  501    0  0.00000000000E+00  0.00000000000E+00 -0.12775954798E+04  0.12775954798E+04  0.25500000920E-02 0. -1.
    10030    2    1    2    0    0  0.00000000000E+00  0.00000000000E+00 -0.10805112559E+04  0.14746797037E+04  0.10035814138E+04 0.  0.
        2    1    3    3  502    0  0.16479278565E+03 -0.27298584396E+03  0.29067145983E+02  0.32019186777E+03  0.25500000920E-02 0.  1.
       -2    1    3    3    0  502 -0.16479278565E+03  0.27298584396E+03 -0.11095784019E+04  0.11544878359E+04  0.25500000920E-02 0. -1.
</event>
<event>
 5   0  0.1663497E-02  0.9898041E+03  0.7818609E-02  0.9319799E-01
       -2   -1    0    0    0  501  0.00000000000E+00  0.00000000000E+00  0.37391424956E+03  0.37391424957E+03  0.25500000920E-02 0.  1.
        2   -1    0    0  501    0  0.00000000000E+00  0.00000000000E+00 -0.65503805432E+03  0.65503805433E+03  0.25500000920E-02 0. -1.
    10030    2    1    2    0    0  0.00000000000E+00  0.00000000000E+00 -0.28112380476E+03  0.10289523039E+04  0.98980414734E+03 0.  0.
        1    1    3    3  502    0  0.15716822060E+03 -0.18096536187E+03 -0.59067416205E+03  0.63745296101E+03  0.50400001928E-02 0. -1.
       -1    1    3    3    0  502 -0.15716822060E+03  0.18096536187E+03  0.30955035728E+03  0.39149934289E+03  0.50400001928E-02 0.  1.
</event>
<event>
 5   0  0.1656859E-02  0.9984980E+03  0.7818609E-02  0.9310194E-01
       -2   -1    0    0    0  501  0.00000000000E+00  0.00000000000E+00  0.19126398550E+03  0.19126398552E+03  0.25500000920E-02 0. -1.
        2   -1    0    0  501    0  0.00000000000E+00  0.00000000000E+00 -0.13031702850E+04  0.13031702850E+04  0.25500000920E-02 0.  1.
    10030    2    1    2    0    0  0.00000000000E+00  0.00000000000E+00 -0.11119062995E+04  0.14944342705E+04  0.99849795694E+03 0.  0.
        4    1    3    3  502    0  0.62931182023E+02  0.43138153602E+03 -0.19180210184E+03  0.47627725377E+03  0.12699999809E+01 0. -1.
       -4    1    3    3    0  502 -0.62931182023E+02 -0.43138153602E+03 -0.92010419762E+03  0.10181570167E+04  0.12699999809E+01 0.  1.
</event>
<event>
 5   0  0.9396660E-03  0.9121228E+03  0.7818609E-02  0.9410553E-01
        1   -1    0    0  501    0  0.00000000000E+00  0.00000000000E+00  0.81588873465E+03  0.81588873467E+03  0.50400001928E-02 0.  1.
       -1   -1    0    0    0  501  0.00000000000E+00  0.00000000000E+00 -0.25492689803E+03  0.25492689808E+03  0.50400001928E-02 0. -1.
    10030    2    1    2    0    0  0.00000000000E+00  0.00000000000E+00  0.56096183662E+03  0.10708156327E+04  0.91212276432E+03 0.  0.
        5    1    3    3  502    0 -0.21859956025E+03  0.19697026980E+03 -0.12854159199E+03  0.32113561901E+03  0.46999998093E+01 0. -1.
       -5    1    3    3    0  502  0.21859956025E+03 -0.19697026980E+03  0.68950342861E+03  0.74968001374E+03  0.46999998093E+01 0.  1.
</event>
<event>
 5   0  0.1663497E-02  0.1020799E+04  0.7818609E-02  0.9286023E-01
       -2   -1    0    0    0  501  0.00000000000E+00  0.00000000000E+00  0.14014971426E+03  0.14014971429E+03  0.25500000920E-02 0.  1.
        2   -1    0    0  501    0  0.00000000000E+00  0.00000000000E+00 -0.18587809300E+04  0.18587809300E+04  0.25500000920E-02 0. -1.
    10030    2    1    2    0    0  0.00000000000E+00  0.00000000000E+00 -0.17186312158E+04  0.19989306443E+04  0.10207989347E+04 0.  0.
        1    1    3    3  502    0 -0.23446614136E+03 -0.20489711782E+02  0.27543339821E+02  0.23696589486E+03  0.50400001928E-02 0.  1.
       -1    1    3    3    0  502  0.23446614136E+03  0.20489711782E+02 -0.17461745556E+04  0.17619647495E+04  0.50400001928E-02 0. -1.
</event>
<event>
 5   0  0.1598986E-02  0.1002007E+04  0.7818609E-02  0.9306346E-01
        2   -1    0    0  501    0  0.00000000000E+00  0.00000000000E+00  0.72585278834E+03  0.72585278835E+03  0.25500000920E-02 0. -1.
       -2   -1    0    0    0  501  0.00000000000E+00  0.00000000000E+00 -0.34580659024E+03  0.34580659025E+03  0.25500000920E-02 0.  1.
    10030    2    1    2    0    0  0.00000000000E+00  0.00000000000E+00  0.38004619810E+03  0.10716593786E+04  0.10020073408E+04 0.  0.
        3    1    3    3  502    0  0.48882048847E+03 -0.10177064468E+03  0.14590089912E+03  0.52018248397E+03  0.10100000352E+00 0.  1.
       -3    1    3    3    0  502 -0.48882048847E+03  0.10177064468E+03  0.23414529898E+03  0.55147689462E+03  0.10100000352E+00 0. -1.
</event>
<event>
 5   0  0.9471140E-03  0.6915346E+03  0.7818609E-02  0.9731820E-01
       -1   -1    0    0    0  501  0.00000000000E+00  0.00000000000E+00  0.91330654958E+03  0.91330654959E+03  0.50400001928E-02 0. -1.
        1   -1    0    0  501    0  0.00000000000E+00  0.00000000000E+00 -0.13090350607E+03  0.13090350617E+03  0.50400001928E-02 0.  1.
    10030    2    1    2    0    0  0.00000000000E+00  0.00000000000E+00  0.78240304351E+03  0.10442100558E+04  0.69153461089E+03 0.  0.
        4    1    3    3  502    0  0.42420659654E+02  0.88907188595E+02  0.89166550285E+03  0.89709140137E+03  0.12699999809E+01 0. -1.
       -4    1    3    3    0  502 -0.42420659654E+02 -0.88907188595E+02 -0.10926245934E+03  0.14711865439E+03  0.12699999809E+01 0.  1.
</event>
<event>
 5   0  0.1617721E-02  0.9991632E+03  0.7818609E-02  0.9309463E-01
       -2   -1    0    0    0  501  0.00000000000E+00  0.00000000000E+00  0.97337327513E+03  0.97337327513E+03  0.25500000920E-02 0.  1.
        2   -1    0    0  501    0  0.00000000000E+00  0.00000000000E+00 -0.25640909507E+03  0.25640909508E+03  0.25500000920E-02 0. -1.
    10030    2    1    2    0    0  0.00000000000E+00  0.00000000000E+00  0.71696418006E+03  0.12297823702E+04  0.99916317116E+03 0.  0.
        5    1    3    3  502    0  0.43939535930E+03  0.10207250307E+03  0.94294037893E+02  0.46086932338E+03  0.46999998093E+01 0. -1.
       -5    1    3    3    0  502 -0.43939535930E+03 -0.10207250307E+03  0.62267014216E+03  0.76891304684E+03  0.46999998093E+01 0.  1.
</event>
<event>
 5   0  0.1571895E-02  0.9115690E+03  0.7818609E-02  0.9411234E-01
       -2   -1    0    0    0  501  0.00000000000E+00  0.00000000000E+00  0.25186865267E+03  0.25186865269E+03  0.25500000920E-02 0.  1.
        2   -1    0    0  501    0  0.00000000000E+00  0.00000000000E+00 -0.82479295062E+03  0.82479295062E+03  0.25500000920E-02 0. -1.
    10030    2    1    2    0    0  0.00000000000E+00  0.00000000000E+00 -0.57292429794E+03  0.10766616033E+04  0.91156895343E+03 0.  0.
        2    1    3    3  502    0  0.42150459118E+03 -0.12658291499E+03 -0.14646153509E+03  0.46383222831E+03  0.25500000920E-02 0.  1.
       -2    1    3    3    0  502 -0.42150459118E+03  0.12658291499E+03 -0.42646276285E+03  0.61282937499E+03  0.25500000920E-02 0. -1.
</event>
<event>
 5   0  0.1571895E-02  0.9829809E+03  0.7818609E-02  0.9327411E-01
        2   -1    0    0  501    0  0.00000000000E+00  0.00000000000E+00  0.77993476352E+03  0.77993476353E+03  0.25500000920E-02 0. -1.
       -2   -1    0    0    0  501  0.00000000000E+00  0.00000000000E+00 -0.30972186008E+03  0.30972186009E+03  0.25500000920E-02 0.  1.
    10030    2    1    2    0    0  0.00000000000E+00  0.00000000000E+00  0.47021290344E+03  0.10896566236E+04  0.98298086595E+03 0.  0.
        2    1    3    3  502    0  0.17879140275E+02  0.10202762706E+03 -0.29748483845E+03  0.31500242770E+03  0.25500000920E-02 0.  1.
       -2    1    3    3    0  502 -0.17879140275E+02 -0.10202762706E+03  0.76769774189E+03  0.77465419592E+03  0.25500000920E-02 0. -1.
</event>
<event>
 5   0  0.1000773E-02  0.1061846E+04  0.7818609E-02  0.9243199E-01
        1   -1    0    0  501    0  0.00000000000E+00  0.00000000000E+00  0.11531363440E+04  0.11531363440E+04  0.50400001928E-02 0. -1.
       -1   -1    0    0    0  501  0.00000000000E+00  0.00000000000E+00 -0.24444567062E+03  0.24444567067E+03  0.50400001928E-02 0.  1.
    10030    2    1    2    0    0  0.00000000000E+00  0.00000000000E+00  0.90869067335E+03  0.13975820146E+04  0.10618459153E+04 0.  0.
        3    1    3    3  502    0 -0.42308731608E+02  0.29985307285E+03 -0.11963249761E+03  0.32559766392E+03  0.10100000352E+00 0.  1.
       -3    1    3    3    0  502  0.42308731608E+02 -0.29985307285E+03  0.10283231710E+04  0.10719843507E+04  0.10100000352E+00 0. -1.
</event>
<event>
 5   0  0.9759443E-03  0.9987781E+03  0.7818609E-02  0.9309886E-01
       -1   -1    0    0    0  501  0.00000000000E+00  0.00000000000E+00  0.49309550497E+03  0.49309550499E+03  0.50400001928E-02 0. -1.
        1   -1    0    0  501    0  0.00000000000E+00  0.00000000000E+00 -0.50576289570E+03  0.50576289573E+03  0.50400001928E-02 0.  1.
    10030    2    1    2    0    0  0.00000000000E+00  0.00000000000E+00 -0.12667390738E+02  0.99885840072E+03  0.99877807440E+03 0.  0.
        2    1    3    3  502    0 -0.30812419969E+03  0.38450669639E+03 -0.87602082058E+02  0.50045983534E+03  0.25500000920E-02 0.  1.
       -2    1    3    3    0  502  0.30812419969E+03 -0.38450669639E+03  0.74934691320E+02  0.49839856538E+03  0.25500000920E-02 0. -1.
</event>
<event>
 5   0  0.1663497E-02  0.9891565E+03  0.7818609E-02  0.9320518E-01
       -2   -1    0    0    0  501  0.00000000000E+00  0.00000000000E+00  0.16451840864E+03  0.16451840866E+03  0.25500000920E-02 0.  1.
        2   -1    0    0  501    0  0.00000000000E+00  0.00000000000E+00 -0.14868100825E+04  0.14868100825E+04  0.25500000920E-02 0. -1.
    10030    2    1    2    0    0  0.00000000000E+00  0.00000000000E+00 -0.13222916739E+04  0.16513284912E+04  0.98915646638E+03 0.  0.
        1    1    3    3  502    0 -0.30341571518E+03  0.22431610931E+02 -0.13121026881E+04  0.13469141537E+04  0.50400001928E-02 0. -1.
       -1    1    3    3    0  502  0.30341571518E+03 -0.22431610931E+02 -0.10188985780E+02  0.30441433745E+03  0.50400001928E-02 0.  1.
</event>
<event>
 5   0  0.6314750E-03  0.1057356E+04  0.7818609E-02  0.9247782E-01
        4   -1    0    0  501    0  0.00000000000E+00  0.00000000000E+00  0.67221658910E+03  0.67221778879E+03  0.12699999809E+01 0.  1.
       -4   -1    0    0    0  501  0.00000000000E+00  0.00000000000E+00 -0.41578699048E+03  0.41578893005E+03  0.12699999809E+01 0. -1.
    10030    2    1    2    0    0  0.00000000000E+00  0.00000000000E+00  0.25642959862E+03  0.10880067188E+04  0.10573563643E+04 0.  0.
        1    1    3    3  502    0 -0.79834294845E+02 -0.10141426598E+03 -0.39932810215E+03  0.41966808452E+03  0.50400001928E-02 0. -1.
       -1    1    3    3    0  502  0.79834294845E+02  0.10141426598E+03  0.65575770077E+03  0.66833863432E+03  0.50400001928E-02 0.  1.
</event>
<event>
 5   0  0.9396660E-03  0.9911321E+03  0.7818609E-02  0.9318325E-01
       -1   -1    0    0    0  501  0.00000000000E+00  0.00000000000E+00  0.15773432050E+04  0.15773432051E+04  0.50400001928E-02 0. -1.
        1   -1    0    0  501    0  0.00000000000E+00  0.00000000000E+00 -0.15569579496E+03  0.15569579504E+03  0.50400001928E-02 0.  1.
    10030    2    1    2    0    0  0.00000000000E+00  0.00000000000E+00  0.14216474101E+04  0.17330390001E+04  0.99113208870E+03 0.  0.
        5    1    3    3  502    0  0.39379016454E+03  0.29482351536E+03  0.81532783684E+03  0.95224638116E+03  0.46999998093E+01 0. -1.
       -5    1    3    3    0  502 -0.39379016454E+03 -0.29482351536E+03  0.60631957325E+03  0.78079261894E+03  0.46999998093E+01 0.  1.
</event>
<event>
 5   0  0.1617721E-02  0.9879557E+03  0.7818609E-02  0.9321854E-01
        2   -1    0    0  501    0  0.00000000000E+00  0.00000000000E+00  0.87583333965E+03  0.87583333965E+03  0.25500000920E-02 0. -1.
       -2   -1    0    0    0  501  0.00000000000E+00  0.00000000000E+00 -0.27860791231E+03  0.27860791232E+03  0.25500000920E-02 0.  1.
    10030    2    1    2    0    0  0.00000000000E+00  0.00000000000E+00  0.59722542734E+03  0.11544412520E+04  0.98795566357E+03 0.  0.
        5    1    3    3  502    0 -0.18452741884E+03  0.16376072346E+02  0.83367718846E+03  0.85402475877E+03  0.46999998093E+01 0. -1.
       -5    1    3    3    0  502  0.18452741884E+03 -0.16376072346E+02 -0.23645176112E+03  0.30041649319E+03  0.46999998093E+01 0.  1.
</event>
<event>
 5   0  0.6314750E-03  0.1019015E+04  0.7818609E-02  0.9287932E-01
        4   -1    0    0  501    0  0.00000000000E+00  0.00000000000E+00  0.62632839650E+03  0.62632968409E+03  0.12699999809E+01 0. -1.
       -4   -1    0    0    0  501  0.00000000000E+00  0.00000000000E+00 -0.41447324080E+03  0.41447518652E+03  0.12699999809E+01 0.  1.
    10030    2    1    2    0    0  0.00000000000E+00  0.00000000000E+00  0.21185515570E+03  0.10408048706E+04  0.10190152951E+04 0.  0.
        5    1    3    3  502    0 -0.12331316791E+03  0.44669908612E+03  0.32218535415E+03  0.56442156527E+03  0.46999998093E+01 0. -1.
       -5    1    3    3    0  502  0.12331316791E+03 -0.44669908612E+03 -0.11033019844E+03  0.47638330534E+03  0.46999998093E+01 0.  1.
</event>
<event>
 5   0  0.1000773E-02  0.1004201E+04  0.7818609E-02  0.9303949E-01
       -1   -1    0    0    0  501  0.00000000000E+00  0.00000000000E+00  0.57925657787E+03  0.57925657789E+03  0.50400001928E-02 0.  1.
        1   -1    0    0  501    0  0.00000000000E+00  0.00000000000E+00 -0.43522190499E+03  0.43522190502E+03  0.50400001928E-02 0. -1.
    10030    2    1    2    0    0  0.00000000000E+00  0.00000000000E+00  0.14403467288E+03  0.10144784829E+04  0.10042014764E+04 0.  0.
        3    1    3    3  502    0  0.33409383939E+03  0.21235081404E+03 -0.24000203448E+03  0.46293903324E+03  0.10100000352E+00 0. -1.
       -3    1    3    3    0  502 -0.33409383939E+03 -0.21235081404E+03  0.38403670737E+03  0.55153944967E+03  0.10100000352E+00 0.  1.
</event>
<event>
 5   0  0.1000773E-02  0.9749347E+03  0.7818609E-02  0.9336471E-01
        1   -1    0    0  501    0  0.00000000000E+00  0.00000000000E+00  0.28337371923E+03  0.28337371927E+03  0.50400001928E-02 0. -1.
       -1   -1    0    0    0  501  0.00000000000E+00  0.00000000000E+00 -0.83855480314E+03  0.83855480315E+03  0.50400001928E-02 0.  1.
    10030    2    1    2    0    0  0.00000000000E+00  0.00000000000E+00 -0.55518108391E+03  0.11219285224E+04  0.97493465089E+03 0.  0.
        3    1    3    3  502    0  0.47358380418E+03 -0.11077053734E+03 -0.31527992553E+03  0.57961467647E+03  0.10100000352E+00 0.  1.
       -3    1    3    3    0  502 -0.47358380418E+03  0.11077053734E+03 -0.23990115837E+03  0.54231384596E+03  0.10100000352E+00 0. -1.
</event>
<event>
 5   0  0.1571895E-02  0.1071452E+04  0.7818609E-02  0.9233472E-01
        2   -1    0    0  501    0  0.00000000000E+00  0.00000000000E+00  0.15398387441E+04  0.15398387441E+04  0.25500000920E-02 0.  1.
       -2   -1    0    0    0  501  0.00000000000E+00  0.00000000000E+00 -0.18638460747E+03  0.18638460749E+03  0.25500000920E-02 0. -1.
    10030    2    1    2    0    0  0.00000000000E+00  0.00000000000E+00  0.13534541367E+04  0.17262233516E+04  0.10714518000E+04 0.  0.
        2    1    3    3  502    0 -0.18075245029E+02 -0.13602339609E+03  0.15110458191E+04  0.15172635059E+04  0.25500000920E-02 0.  1.
       -2    1    3    3    0  502  0.18075245029E+02  0.13602339609E+03 -0.15759168244E+03  0.20895984578E+03  0.25500000920E-02 0. -1.
</event>
<event>
 5   0  0.1663497E-02  0.1051538E+04  0.7818609E-02  0.9253757E-01
       -2   -1    0    0    0  501  0.00000000000E+00  0.00000000000E+00  0.16342422230E+03  0.16342422232E+03  0.25500000920E-02 0. -1.
        2   -1    0    0  501    0  0.00000000000E+00  0.00000000000E+00 -0.16915065365E+04  0.16915065365E+04  0.25500000920E-02 0.  1.
    10030    2    1    2    0    0  0.00000000000E+00  0.00000000000E+00 -0.15280823142E+04  0.18549307588E+04  0.10515381881E+04 0.  0.
        1    1    3    3  502    0 -0.48048504496E+03 -0.16358477761E+03 -0.52212455403E+03  0.72817573967E+03  0.50400001928E-02 0. -1.
       -1    1    3    3    0  502  0.48048504496E+03  0.16358477761E+03 -0.10059577602E+04  0.11267550192E+04  0.50400001928E-02 0.  1.
</event>
<event>
 5   0  0.9507815E-03  0.1011799E+04  0.7818609E-02  0.9295698E-01
       -1   -1    0    0    0  501  0.00000000000E+00  0.00000000000E+00  0.79812821977E+03  0.79812821979E+03  0.50400001928E-02 0.  1.
        1   -1    0    0  501    0  0.00000000000E+00  0.00000000000E+00 -0.32066787062E+03  0.32066787066E+03  0.50400001928E-02 0. -1.
    10030    2    1    2    0    0  0.00000000000E+00  0.00000000000E+00  0.47746034915E+03  0.11187960905E+04  0.10117985506E+04 0.  0.
        1    1    3    3  502    0  0.30171882216E+03  0.68664459407E+02 -0.20382542332E+03  0.37053185943E+03  0.50400001928E-02 0. -1.
       -1    1    3    3    0  502 -0.30171882216E+03 -0.68664459407E+02  0.68128577247E+03  0.74826423103E+03  0.50400001928E-02 0.  1.
</event>
<event>
 5   0  0.1663497E-02  0.1019301E+04  0.7818609E-02  0.9287625E-01
       -2   -1    0    0    0  501  0.00000000000E+00  0.00000000000E+00  0.50868246376E+03  0.50868246376E+03  0.25500000920E-02 0.  1.
        2   -1    0    0  501    0  0.00000000000E+00  0.00000000000E+00 -0.51062050142E+03  0.51062050142E+03  0.25500000920E-02 0. -1.
    10030    2    1    2    0    0  0.00000000000E+00  0.00000000000E+00 -0.19380376600E+01  0.10193029652E+04  0.10193011228E+04 0.  0.
        1    1    3    3  502    0 -0.29906328232E+03 -0.32146504392E+03  0.25780755561E+03  0.50915946131E+03  0.50400001928E-02 0. -1.
       -1    1    3    3    0  502  0.29906328232E+03  0.32146504392E+03 -0.25974559327E+03  0.51014350387E+03  0.50400001928E-02 0.  1.
</event>
<event>
 5   0  0.1663497E-02  0.9936623E+03  0.7818609E-02  0.9315523E-01
       -2   -1    0    0    0  501  0.00000000000E+00  0.00000000000E+00  0.81896480432E+03  0.81896480433E+03  0.25500000920E-02 0.  1.
        2   -1    0    0  501    0  0.00000000000E+00  0.00000000000E+00 -0.30140637123E+03  0.30140637125E+03  0.25500000920E-02 0. -1.
    10030    2    1    2    0    0  0.00000000000E+00  0.00000000000E+00  0.51755843309E+03  0.11203711756E+04  0.99366233671E+03 0.  0.
        1    1    3    3  502    0 -0.28719034347E+03 -0.41076492449E+02 -0.19598298233E+03  0.35010698508E+03  0.50400001928E-02 0. -1.
       -1    1    3    3    0  502  0.28719034347E+03  0.41076492449E+02  0.71354141541E+03  0.77026419049E+03  0.50400001928E-02 0.  1.
</event>
<event>
 5   0  0.1617721E-02  0.1000205E+04  0.7818609E-02  0.9308320E-01
       -2   -1    0    0    0  501  0.00000000000E+00  0.00000000000E+00  0.28483768371E+03  0.28483768372E+03  0.25500000920E-02 0. -1.
        2   -1    0    0  501    0  0.00000000000E+00  0.00000000000E+00 -0.87805194851E+03  0.87805194852E+03  0.25500000920E-02 0.  1.
    10030    2    1    2    0    0  0.00000000000E+00  0.00000000000E+00 -0.59321426481E+03  0.11628896322E+04  0.10002045455E+04 0.  0.
        5    1    3    3  502    0  0.11093584272E+03  0.25584974905E+03  0.18601849869E+03  0.33524741183E+03  0.46999998093E+01 0. -1.
       -5    1    3    3    0  502 -0.11093584272E+03 -0.25584974905E+03 -0.77923276350E+03  0.82764222040E+03  0.46999998093E+01 0.  1.
</event>
<event>
 5   0  0.1598986E-02  0.9969254E+03  0.7818609E-02  0.9311923E-01
       -2   -1    0    0    0  501  0.00000000000E+00  0.00000000000E+00  0.53929528210E+03  0.53929528210E+03  0.25500000920E-02 0.  1.
        2   -1    0    0  501    0  0.00000000000E+00  0.00000000000E+00 -0.46072172150E+03  0.46072172151E+03  0.25500000920E-02 0. -1.
    10030    2    1    2    0    0  0.00000000000E+00  0.00000000000E+00  0.78573560599E+02  0.10000170036E+04  0.99692537488E+03 0.  0.
        3    1    3    3  502    0 -0.40895945324E+03 -0.16794203145E+03  0.27024563395E+03  0.51815545273E+03  0.10100000352E+00 0. -1.
       -3    1    3    3    0  502  0.40895945324E+03  0.16794203145E+03 -0.19167207335E+03  0.48186155089E+03  0.10100000352E+00 0.  1.
</event>
<event>
 5   0  0.9471140E-03  0.1021442E+04  0.7818609E-02  0.9285335E-01
        1   -1    0    0  501    0  0.00000000000E+00  0.00000000000E+00  0.26859846661E+03  0.26859846665E+03  0.50400001928E-02 0.  1.
       -1   -1    0    0    0  501  0.00000000000E+00  0.00000000000E+00 -0.97110026906E+03  0.97110026907E+03  0.50400001928E-02 0. -1.
    10030    2    1    2    0    0  0.00000000000E+00  0.00000000000E+00 -0.70250180245E+03  0.12396987357E+04  0.10214422024E+04 0.  0.
        4    1    3    3  502    0  0.12040027133E+03 -0.30136606060E+03  0.12736914067E+03  0.34862908472E+03  0.12699999809E+01 0.  1.
       -4    1    3    3    0  502 -0.12040027133E+03  0.30136606060E+03 -0.82987094312E+03  0.89106965101E+03  0.12699999809E+01 0. -1.
</event>
<event>
 5   0  0.9507815E-03  0.9397588E+03  0.7818609E-02  0.9377202E-01
        1   -1    0    0  501    0  0.00000000000E+00  0.00000000000E+00  0.62541670994E+03  0.62541670996E+03  0.50400001928E-02 0.  1.
       -1   -1    0    0    0  501  0.00000000000E+00  0.00000000000E+00 -0.35302323779E+03  0.35302323783E+03  0.50400001928E-02 0. -1.
    10030    2    1    2    0    0  0.00000000000E+00  0.00000000000E+00  0.27239347215E+03  0.97843994779E+03  0.93975876041E+03 0.  0.
        1    1    3    3  502    0 -0.19348353223E+03 -0.26676680811E+03 -0.21253185863E+03  0.39213543338E+03  0.50400001928E-02 0. -1.
       -1    1    3    3    0  502  0.19348353223E+03  0.26676680811E+03  0.48492533078E+03  0.58630451441E+03  0.50400001928E-02 0.  1.
</event>
<event>
 5   0  0.9507815E-03  0.9516885E+03  0.7818609E-02  0.9363179E-01
       -1   -1    0    0    0  501  0.00000000000E+00  0.00000000000E+00  0.69775598213E+03  0.69775598215E+03  0.50400001928E-02 0. -1.
        1   -1    0    0  501    0  0.00000000000E+00  0.00000000000E+00 -0.32450851442E+03  0.32450851446E+03  0.50400001928E-02 0.  1.
    10030    2    1    2    0    0  0.00000000000E+00  0.00000000000E+00  0.37324746771E+03  0.10222644966E+04  0.95168851462E+03 0.  0.
        1    1    3    3  502    0 -0.30510061822E+02 -0.10054241786E+03  0.68513998233E+03  0.69314964984E+03  0.50400001928E-02 0. -1.
       -1    1    3    3    0  502  0.30510061822E+02  0.10054241786E+03 -0.31189251461E+03  0.32911484676E+03  0.50400001928E-02 0.  1.
</event>
<event>
 5   0  0.1617721E-02  0.1008879E+04  0.7818609E-02  0.9298860E-01
       -2   -1    0    0    0  501  0.00000000000E+00  0.00000000000E+00  0.14581710684E+03  0.14581710687E+03  0.25500000920E-02 0. -1.
        2   -1    0    0  501    0  0.00000000000E+00  0.00000000000E+00 -0.17450577119E+04  0.17450577119E+04  0.25500000920E-02 0.  1.
    10030    2    1    2    0    0  0.00000000000E+00  0.00000000000E+00 -0.15992406050E+04  0.18908748188E+04  0.10088791144E+04 0.  0.
        5    1    3    3  502    0 -0.39020594348E+03  0.18005349296E+03 -0.30460538621E+03  0.52676984534E+03  0.46999998093E+01 0. -1.
       -5    1    3    3    0  502  0.39020594348E+03 -0.18005349296E+03 -0.12946352188E+04  0.13641049734E+04  0.46999998093E+01 0.  1.
</event>
<event>
 5   0  0.1663497E-02  0.9923492E+03  0.7818609E-02  0.9316976E-01
       -2   -1    0    0    0  501  0.00000000000E+00  0.00000000000E+00  0.43281075628E+03  0.43281075629E+03  0.25500000920E-02 0.  1.
        2   -1    0    0  501    0  0.00000000000E+00  0.00000000000E+00 -0.56881493064E+03  0.56881493065E+03  0.25500000920E-02 0. -1.
    10030    2    1    2    0    0  0.00000000000E+00  0.00000000000E+00 -0.13600417436E+03  0.10016256869E+04  0.99234917306E+03 0.  0.
        1    1    3    3  502    0  0.35985339127E+03  0.22117790731E+02 -0.41207809942E+03  0.54753266562E+03  0.50400001928E-02 0. -1.
       -1    1    3    3    0  502 -0.35985339127E+03 -0.22117790731E+02  0.27607392506E+03  0.45409302131E+03  0.50400001928E-02 0.  1.
</event>
<event>
 5   0  0.9396660E-03  0.9579316E+03  0.7818609E-02  0.9355927E-01
       -1   -1    0    0    0  501  0.00000000000E+00  0.00000000000E+00  0.29704414257E+03  0.29704414262E+03  0.50400001928E-02 0. -1.
        1   -1    0    0  501    0  0.00000000000E+00  0.00000000000E+00 -0.77230358281E+03  0.77230358283E+03  0.50400001928E-02 0.  1.
    10030    2    1    2    0    0  0.00000000000E+00  0.00000000000E+00 -0.47525944024E+03  0.10693477254E+04  0.95793163764E+03 0.  0.
        5    1    3    3  502    0  0.35118420938E+03  0.12319582337E+03  0.98893674313E+02  0.38510986566E+03  0.46999998093E+01 0. -1.
       -5    1    3    3    0  502 -0.35118420938E+03 -0.12319582337E+03 -0.57415311455E+03  0.68423785978E+03  0.46999998093E+01 0.  1.
</event>
<event>
 5   0  0.1000773E-02  0.9715215E+03  0.7818609E-02  0.9340343E-01
       -1   -1    0    0    0  501  0.00000000000E+00  0.00000000000E+00  0.46460009378E+03  0.46460009380E+03  0.50400001928E-02 0.  1.
        1   -1    0    0  501    0  0.00000000000E+00  0.00000000000E+00 -0.50788520211E+03  0.50788520213E+03  0.50400001928E-02 0. -1.
    10030    2    1    2    0    0  0.00000000000E+00  0.00000000000E+00 -0.43285108328E+02  0.97248529593E+03  0.97152151299E+03 0.  0.
        3    1    3    3  502    0  0.34340247965E+03  0.20530267770E+03  0.25411040350E+03  0.47396894399E+03  0.10100000352E+00 0.  1.
       -3    1    3    3    0  502 -0.34340247965E+03 -0.20530267770E+03 -0.29739551182E+03  0.49851635194E+03  0.10100000352E+00 0. -1.
</event>
<event>
 5   0  0.1663497E-02  0.9950908E+03  0.7818609E-02  0.9313946E-01
        2   -1    0    0  501    0  0.00000000000E+00  0.00000000000E+00  0.50939146500E+03  0.50939146501E+03  0.25500000920E-02 0.  1.
       -2   -1    0    0    0  501  0.00000000000E+00  0.00000000000E+00 -0.48597480171E+03  0.48597480171E+03  0.25500000920E-02 0. -1.
    10030    2    1    2    0    0  0.00000000000E+00  0.00000000000E+00  0.23416663298E+02  0.99536626672E+03  0.99509078219E+03 0.  0.
        1    1    3    3  502    0 -0.39905614739E+03  0.29710293065E+03  0.17664474808E+02  0.49782325565E+03  0.50400001928E-02 0. -1.
       -1    1    3    3    0  502  0.39905614739E+03 -0.29710293065E+03  0.57521884905E+01  0.49754301107E+03  0.50400001928E-02 0.  1.
</event>
<event>
 5   0  0.9507815E-03  0.1013497E+04  0.7818609E-02  0.9293864E-01
        1   -1    0    0  501    0  0.00000000000E+00  0.00000000000E+00  0.71138499425E+03  0.71138499426E+03  0.50400001928E-02 0.  1.
       -1   -1    0    0    0  501  0.00000000000E+00  0.00000000000E+00 -0.36097793587E+03  0.36097793590E+03  0.50400001928E-02 0. -1.
    10030    2    1    2    0    0  0.00000000000E+00  0.00000000000E+00  0.35040705838E+03  0.10723629302E+04  0.10134974827E+04 0.  0.
        1    1    3    3  502    0  0.42274681367E+03  0.26055318878E+03  0.68387311312E+02  0.50127802368E+03  0.50400001928E-02 0. -1.
       -1    1    3    3    0  502 -0.42274681367E+03 -0.26055318878E+03  0.28201974707E+03  0.57108490648E+03  0.50400001928E-02 0.  1.
</event>
<event>
 5   0  0.9759443E-03  0.1025801E+04  0.7818609E-02  0.9280690E-01
       -1   -1    0    0    0  501  0.00000000000E+00  0.00000000000E+00  0.20008803925E+03  0.20008803931E+03  0.50400001928E-02 0.  1.
        1   -1    0    0  501    0  0.00000000000E+00  0.00000000000E+00 -0.13147567223E+04  0.13147567223E+04  0.50400001928E-02 0. -1.
    10030    2    1    2    0    0  0.00000000000E+00  0.00000000000E+00 -0.11146686831E+04  0.15148447616E+04  0.10258013350E+04 0.  0.
        2    1    3    3  502    0 -0.45670328495E+03  0.56088167501E+01 -0.90194975505E+03  0.10110008457E+04  0.25500000920E-02 0. -1.
       -2    1    3    3    0  502  0.45670328495E+03 -0.56088167501E+01 -0.21271892802E+03  0.50384391597E+03  0.25500000920E-02 0.  1.
</event>
<event>
 5   0  0.9471140E-03  0.9786817E+03  0.7818609E-02  0.9332240E-01
        1   -1    0    0  501    0  0.00000000000E+00  0.00000000000E+00  0.14906030155E+04  0.14906030155E+04  0.50400001928E-02 0. -1.
       -1   -1    0    0    0  501  0.00000000000E+00  0.00000000000E+00 -0.16064268461E+03  0.16064268468E+03  0.50400001928E-02 0.  1.
    10030    2    1    2    0    0  0.00000000000E+00  0.00000000000E+00  0.13299603308E+04  0.16512457001E+04  0.97868170547E+03 0.  0.
        4    1    3    3  502    0 -0.16701041131E+03 -0.68081935861E+02  0.14324776357E+04  0.14437871786E+04  0.12699999809E+01 0. -1.
       -4    1    3    3    0  502  0.16701041131E+03  0.68081935861E+02 -0.10251730482E+03  0.20745852155E+03  0.12699999809E+01 0.  1.
</event>
<event>
 5   0  0.9759443E-03  0.7432530E+03  0.7818609E-02  0.9645995E-01
       -1   -1    0    0    0  501  0.00000000000E+00  0.00000000000E+00  0.54528980162E+03  0.54528980165E+03  0.50400001928E-02 0.  1.
        1   -1    0    0  501    0  0.00000000000E+00  0.00000000000E+00 -0.25327130975E+03  0.25327130980E+03  0.50400001928E-02 0. -1.
    10030    2    1    2    0    0  0.00000000000E+00  0.00000000000E+00  0.29201849187E+03  0.79856111145E+03  0.74325301824E+03 0.  0.
        2    1    3    3  502    0 -0.14377071399E+03  0.37137325592E+02 -0.22001281636E+03  0.26543330335E+03  0.25500000920E-02 0. -1.
       -2    1    3    3    0  502  0.14377071399E+03 -0.37137325592E+02  0.51203130823E+03  0.53312780810E+03  0.25500000920E-02 0.  1.
</event>
<event>
 5   0  0.9507815E-03  0.9968468E+03  0.7818609E-02  0.9312010E-01
        1   -1    0    0  501    0  0.00000000000E+00  0.00000000000E+00  0.19749500899E+04  0.19749500899E+04  0.50400001928E-02 0. -1.
       -1   -1    0    0    0  501  0.00000000000E+00  0.00000000000E+00 -0.12578842777E+03  0.12578842788E+03  0.50400001928E-02 0.  1.
    10030    2    1    2    0    0  0.00000000000E+00  0.00000000000E+00  0.18491616621E+04  0.21007385178E+04  0.99684676225E+03 0.  0.
        1    1    3    3  502    0  0.57905168560E+02  0.37537072868E+03  0.24441587987E+03  0.45165840505E+03  0.50400001928E-02 0.  1.
       -1    1    3    3    0  502 -0.57905168560E+02 -0.37537072868E+03  0.16047457822E+04  0.16490801127E+04  0.50400001928E-02 0. -1.
</event>
<event>
 5   0  0.1000773E-02  0.9822360E+03  0.7818609E-02  0.9328245E-01
       -1   -1    0    0    0  501  0.00000000000E+00  0.00000000000E+00  0.13504705069E+03  0.13504705078E+03  0.50400001928E-02 0. -1.
        1   -1    0    0  501    0  0.00000000000E+00  0.00000000000E+00 -0.17860211352E+04  0.17860211352E+04  0.50400001928E-02 0.  1.
    10030    2    1    2    0    0  0.00000000000E+00  0.00000000000E+00 -0.16509740845E+04  0.19210681860E+04  0.98223599378E+03 0.  0.
        3    1    3    3  502    0  0.78155889244E+02  0.25842176693E+03 -0.23111525103E+02  0.27096919648E+03  0.10100000352E+00 0. -1.
       -3    1    3    3    0  502 -0.78155889244E+02 -0.25842176693E+03 -0.16278625594E+04  0.16500989895E+04  0.10100000352E+00 0.  1.
</event>
<event>
 5   0  0.9471140E-03  0.9684494E+03  0.7818609E-02  0.9343842E-01
       -1   -1    0    0    0  501  0.00000000000E+00  0.00000000000E+00  0.46217597678E+03  0.46217597681E+03  0.50400001928E-02 0.  1.
        1   -1    0    0  501    0  0.00000000000E+00  0.00000000000E+00 -0.50732532314E+03  0.50732532317E+03  0.50400001928E-02 0. -1.
    10030    2    1    2    0    0  0.00000000000E+00  0.00000000000E+00 -0.45149346364E+02  0.96950129998E+03  0.96844943450E+03 0.  0.
        4    1    3    3  502    0 -0.43976168854E+03  0.20054474251E+03  0.68413777503E+01  0.48338075448E+03  0.12699999809E+01 0.  1.
       -4    1    3    3    0  502  0.43976168854E+03 -0.20054474251E+03 -0.51990724114E+02  0.48612054549E+03  0.12699999809E+01 0. -1.
</event>
<event>
 5   0  0.1598986E-02  0.9624613E+03  0.7818609E-02  0.9350703E-01
       -2   -1    0    0    0  501  0.00000000000E+00  0.00000000000E+00  0.79979022361E+03  0.79979022362E+03  0.25500000920E-02 0.  1.
        2   -1    0    0  501    0  0.00000000000E+00  0.00000000000E+00 -0.28955462386E+03  0.28955462388E+03  0.25500000920E-02 0. -1.
    10030    2    1    2    0    0  0.00000000000E+00  0.00000000000E+00  0.51023559975E+03  0.10893448475E+04  0.96246133923E+03 0.  0.
        3    1    3    3  502    0  0.40260068070E+03  0.15892162528E+03  0.17057229196E+02  0.43316780853E+03  0.10100000352E+00 0.  1.
       -3    1    3    3    0  502 -0.40260068070E+03 -0.15892162528E+03  0.49317837055E+03  0.65617703896E+03  0.10100000352E+00 0. -1.
</event>
<event>
 5   0  0.9759443E-03  0.7523150E+03  0.7818609E-02  0.9631725E-01
        1   -1    0    0  501    0  0.00000000000E+00  0.00000000000E+00  0.69036749408E+03  0.69036749410E+03  0.50400001928E-02 0. -1.
       -1   -1    0    0    0  501  0.00000000000E+00  0.00000000000E+00 -0.20495530153E+03  0.20495530159E+03  0.50400001928E-02 0.  1.
    10030    2    1    2    0    0  0.00000000000E+00  0.00000000000E+00  0.48541219255E+03  0.89532279569E+03  0.75231503495E+03 0.  0.
        2    1    3    3  502    0  0.12823981659E+03 -0.16365266263E+03  0.61577012991E+03  0.64992345506E+03  0.25500000920E-02 0. -1.
       -2    1    3    3    0  502 -0.12823981659E+03  0.16365266263E+03 -0.13035793735E+03  0.24539934063E+03  0.25500000920E-02 0.  1.
</event>
<event>
 5   0  0.1000773E-02  0.9922385E+03  0.7818609E-02  0.9317099E-01
        1   -1    0    0  501    0  0.00000000000E+00  0.00000000000E+00  0.39441951410E+03  0.39441951414E+03  0.50400001928E-02 0. -1.
       -1   -1    0    0    0  501  0.00000000000E+00  0.00000000000E+00 -0.62404192198E+03  0.62404192200E+03  0.50400001928E-02 0.  1.
    10030    2    1    2    0    0  0.00000000000E+00  0.00000000000E+00 -0.22962240787E+03  0.10184614361E+04  0.99223850293E+03 0.  0.
        3    1    3    3  502    0  0.23449622386E+03  0.22881739224E+03  0.26757757098E+03  0.42301731015E+03  0.10100000352E+00 0. -1.
       -3    1    3    3    0  502 -0.23449622386E+03 -0.22881739224E+03 -0.49719997885E+03  0.59544412598E+03  0.10100000352E+00 0.  1.
</event>
<event>
 5   0  0.6314750E-03  0.1004473E+04  0.7818609E-02  0.9303653E-01
        4   -1    0    0  501    0  0.00000000000E+00  0.00000000000E+00  0.69359279235E+03  0.69359395507E+03  0.12699999809E+01 0. -1.
       -4   -1    0    0    0  501  0.00000000000E+00  0.00000000000E+00 -0.36367090897E+03  0.36367312649E+03  0.12699999809E+01 0.  1.
    10030    2    1    2    0    0  0.00000000000E+00  0.00000000000E+00  0.32992188338E+03  0.10572670816E+04  0.10044726142E+04 0.  0.
        5    1    3    3  502    0  0.21052254847E+03  0.17072761005E+02 -0.31462743335E+03  0.37897722148E+03  0.46999998093E+01 0.  1.
       -5    1    3    3    0  502 -0.21052254847E+03 -0.17072761005E+02  0.64454931674E+03  0.67828986008E+03  0.46999998093E+01 0. -1.
</event>
<event>
 5   0  0.1663497E-02  0.9942056E+03  0.7818609E-02  0.9314923E-01
        2   -1    0    0  501    0  0.00000000000E+00  0.00000000000E+00  0.56561765236E+03  0.56561765236E+03  0.25500000920E-02 0.  1.
       -2   -1    0    0    0  501  0.00000000000E+00  0.00000000000E+00 -0.43688732093E+03  0.43688732094E+03  0.25500000920E-02 0. -1.
    10030    2    1    2    0    0  0.00000000000E+00  0.00000000000E+00  0.12873033142E+03  0.10025049733E+04  0.99420557395E+03 0.  0.
        1    1    3    3  502    0 -0.11219592177E+03 -0.19372641972E+02  0.55229292661E+03  0.56390664204E+03  0.50400001928E-02 0.  1.
       -1    1    3    3    0  502  0.11219592177E+03  0.19372641972E+02 -0.42356259519E+03  0.43859833127E+03  0.50400001928E-02 0. -1.
</event>
<event>
 5   0  0.9507815E-03  0.9893420E+03  0.7818609E-02  0.9320312E-01
       -1   -1    0    0    0  501  0.00000000000E+00  0.00000000000E+00  0.24402187830E+03  0.24402187835E+03  0.50400001928E-02 0.  1.
        1   -1    0    0  501    0  0.00000000000E+00  0.00000000000E+00 -0.10027765095E+04  0.10027765095E+04  0.50400001928E-02 0. -1.
    10030    2    1    2    0    0  0.00000000000E+00  0.00000000000E+00 -0.75875463116E+03  0.12467983878E+04  0.98934201850E+03 0.  0.
        1    1    3    3  502    0  0.14174678738E+03  0.42641656830E+03 -0.11873153108E+03  0.46477996725E+03  0.50400001928E-02 0.  1.
       -1    1    3    3    0  502 -0.14174678738E+03 -0.42641656830E+03 -0.64002310008E+03  0.78201842058E+03  0.50400001928E-02 0. -1.
</event>
<event>
 5   0  0.1571895E-02  0.9806728E+03  0.7818609E-02  0.9330000E-01
       -2   -1    0    0    0  501  0.00000000000E+00  0.00000000000E+00  0.25640271341E+03  0.25640271342E+03  0.25500000920E-02 0. -1.
        2   -1    0    0  501    0  0.00000000000E+00  0.00000000000E+00 -0.93770380103E+03  0.93770380103E+03  0.25500000920E-02 0.  1.
    10030    2    1    2    0    0  0.00000000000E+00  0.00000000000E+00 -0.68130108762E+03  0.11941065145E+04  0.98067282814E+03 0.  0.
        2    1    3    3  502    0 -0.86585257494E+02 -0.22118729438E+03  0.18167158541E+03  0.29904078479E+03  0.25500000920E-02 0. -1.
       -2    1    3    3    0  502  0.86585257494E+02  0.22118729438E+03 -0.86297267303E+03  0.89506572967E+03  0.25500000920E-02 0.  1.
</event>
<event>
 5   0  0.9396660E-03  0.1013002E+04  0.7818609E-02  0.9294398E-01
        1   -1    0    0  501    0  0.00000000000E+00  0.00000000000E+00  0.17682332330E+03  0.17682332338E+03  0.50400001928E-02 0. -1.
       -1   -1    0    0    0  501  0.00000000000E+00  0.00000000000E+00 -0.14508463488E+04  0.14508463488E+04  0.50400001928E-02 0.  1.
    10030    2    1    2    0    0  0.00000000000E+00  0.00000000000E+00 -0.12740230255E+04  0.16276696721E+04  0.10130024147E+04 0.  0.
        5    1    3    3  502    0  0.40906868133E+03 -0.27693210459E+03 -0.81660302058E+03  0.95440618178E+03  0.46999998093E+01 0.  1.
       -5    1    3    3    0  502 -0.40906868133E+03  0.27693210459E+03 -0.45742000488E+03  0.67326349037E+03  0.46999998093E+01 0. -1.
</event>
<event>
 5   0  0.9471140E-03  0.9920074E+03  0.7818609E-02  0.9317355E-01
       -1   -1    0    0    0  501  0.00000000000E+00  0.00000000000E+00  0.21538241076E+03  0.21538241082E+03  0.50400001928E-02 0. -1.
        1   -1    0    0  501    0  0.00000000000E+00  0.00000000000E+00 -0.11422458231E+04  0.11422458232E+04  0.50400001928E-02 0.  1.
    10030    2    1    2    0    0  0.00000000000E+00  0.00000000000E+00 -0.92686341239E+03  0.13576282340E+04  0.99200737723E+03 0.  0.
        4    1    3    3  502    0  0.34989194873E+02 -0.29136199685E+03 -0.10106906812E+04  0.10524320989E+04  0.12699999809E+01 0.  1.
       -4    1    3    3    0  502 -0.34989194873E+02  0.29136199685E+03  0.83827268766E+02  0.30519613506E+03  0.12699999809E+01 0. -1.
</event>
<event>
 5   0  0.1000773E-02  0.1009240E+04  0.7818609E-02  0.9298468E-01
        1   -1    0    0  501    0  0.00000000000E+00  0.00000000000E+00  0.44188459688E+03  0.44188459690E+03  0.50400001928E-02 0.  1.
       -1   -1    0    0    0  501  0.00000000000E+00  0.00000000000E+00 -0.57626244044E+03  0.57626244046E+03  0.50400001928E-02 0. -1.
    10030    2    1    2    0    0  0.00000000000E+00  0.00000000000E+00 -0.13437784357E+03  0.10181470374E+04  0.10092403008E+04 0.  0.
        3    1    3    3  502    0  0.71155951537E+02 -0.27502528065E+03 -0.48793000021E+03  0.56460408229E+03  0.10100000352E+00 0. -1.
       -3    1    3    3    0  502 -0.71155951537E+02  0.27502528065E+03  0.35355215664E+03  0.45354295508E+03  0.10100000352E+00 0.  1.
</event>
<event>
 5   0  0.6314750E-03  0.1011338E+04  0.7818609E-02  0.9296196E-01
        3   -1    0    0  501    0  0.00000000000E+00  0.00000000000E+00  0.10000646142E+04  0.10000646193E+04  0.10100000352E+00 0.  1.
       -3   -1    0    0    0  501  0.00000000000E+00  0.00000000000E+00 -0.25568467580E+03  0.25568469574E+03  0.10100000352E+00 0. -1.
    10030    2    1    2    0    0  0.00000000000E+00  0.00000000000E+00  0.74437993844E+03  0.12557493151E+04  0.10113381480E+04 0.  0.
        1    1    3    3  502    0  0.22734782585E+03  0.37497355121E+03  0.59522958279E+02  0.44253268876E+03  0.50400001928E-02 0. -1.
       -1    1    3    3    0  502 -0.22734782585E+03 -0.37497355121E+03  0.68485698016E+03  0.81321662633E+03  0.50400001928E-02 0.  1.
</event>
<event>
 5   0  0.1598986E-02  0.9930175E+03  0.7818609E-02  0.9316236E-01
        2   -1    0    0  501    0  0.00000000000E+00  0.00000000000E+00  0.56591173641E+03  0.56591173642E+03  0.25500000920E-02 0.  1.
       -2   -1    0    0    0  501  0.00000000000E+00  0.00000000000E+00 -0.43561728044E+03  0.43561728045E+03  0.25500000920E-02 0. -1.
    10030    2    1    2    0    0  0.00000000000E+00  0.00000000000E+00  0.13029445597E+03  0.10015290169E+04  0.99301748543E+03 0.  0.
        3    1    3    3  502    0  0.16675425238E+03 -0.80138166338E+02 -0.39955340676E+03  0.44030902949E+03  0.10100000352E+00 0. -1.
       -3    1    3    3    0  502 -0.16675425238E+03  0.80138166338E+02  0.52984786273E+03  0.56121998738E+03  0.10100000352E+00 0.  1.
</event>
<event>
 5   0  0.1656859E-02  0.1035006E+04  0.7818609E-02  0.9270963E-01
        2   -1    0    0  501    0  0.00000000000E+00  0.00000000000E+00  0.15758531900E+04  0.15758531900E+04  0.25500000920E-02 0. -1.
       -2   -1    0    0    0  501  0.00000000000E+00  0.00000000000E+00 -0.16994568806E+03  0.16994568807E+03  0.25500000920E-02 0.  1.
    10030    2    1    2    0    0  0.00000000000E+00  0.00000000000E+00  0.14059075019E+04  0.17457988780E+04  0.10350061926E+04 0.  0.
        4    1    3    3  502    0  0.32652507309E+03  0.15499335038E+01  0.25755199863E+02  0.32754536918E+03  0.12699999809E+01 0.  1.
       -4    1    3    3    0  502 -0.32652507309E+03 -0.15499335038E+01  0.13801523020E+04  0.14182535089E+04  0.12699999809E+01 0. -1.
</event>
<event>
 5   0  0.9471140E-03  0.1240330E+04  0.7818609E-02  0.9078270E-01
        1   -1    0    0  501    0  0.00000000000E+00  0.00000000000E+00  0.65209944679E+03  0.65209944681E+03  0.50400001928E-02 0. -1.
       -1   -1    0    0    0  501  0.00000000000E+00  0.00000000000E+00 -0.58979469616E+03  0.58979469619E+03  0.50400001928E-02 0.  1.
    10030    2    1    2    0    0  0.00000000000E+00  0.00000000000E+00  0.62304750628E+02  0.12418941430E+04  0.12403302707E+04 0.  0.
        4    1    3    3  502    0  0.55957774428E+03  0.26655342458E+03  0.51798805412E+02  0.62198288497E+03  0.12699999809E+01 0. -1.
       -4    1    3    3    0  502 -0.55957774428E+03 -0.26655342458E+03  0.10505945216E+02  0.61991125803E+03  0.12699999809E+01 0.  1.
</event>
<event>
 5   0  0.9396660E-03  0.9692155E+03  0.7818609E-02  0.9342968E-01
        1   -1    0    0  501    0  0.00000000000E+00  0.00000000000E+00  0.14740008049E+04  0.14740008049E+04  0.50400001928E-02 0.  1.
       -1   -1    0    0    0  501  0.00000000000E+00  0.00000000000E+00 -0.15932467180E+03  0.15932467188E+03  0.50400001928E-02 0. -1.
    10030    2    1    2    0    0  0.00000000000E+00  0.00000000000E+00  0.13146761331E+04  0.16333254768E+04  0.96921554786E+03 0.  0.
        5    1    3    3  502    0 -0.51754098198E+02 -0.31168618274E+03  0.12765118492E+04  0.13150404383E+04  0.46999998093E+01 0.  1.
       -5    1    3    3    0  502  0.51754098198E+02  0.31168618274E+03  0.38164283946E+02  0.31828503854E+03  0.46999998093E+01 0. -1.
</event>
<event>
 5   0  0.1598986E-02  0.1007837E+04  0.7818609E-02  0.9299991E-01
        2   -1    0    0  501    0  0.00000000000E+00  0.00000000000E+00  0.56084279906E+03  0.56084279907E+03  0.25500000920E-02 0. -1.
       -2   -1    0    0    0  501  0.00000000000E+00  0.00000000000E+00 -0.45277172448E+03  0.45277172449E+03  0.25500000920E-02 0.  1.
    10030    2    1    2    0    0  0.00000000000E+00  0.00000000000E+00  0.10807107458E+03  0.10136145236E+04  0.10078368148E+04 0.  0.
        3    1    3    3  502    0  0.10388165243E+02  0.41346880313E+03  0.34355626833E+03  0.53767581762E+03  0.10100000352E+00 0. -1.
       -3    1    3    3    0  502 -0.10388165243E+02 -0.41346880313E+03 -0.23548519375E+03  0.47593870594E+03  0.10100000352E+00 0.  1.
</event>
<event>
 5   0  0.9471140E-03  0.9442530E+03  0.7818609E-02  0.9371893E-01
        1   -1    0    0  501    0  0.00000000000E+00  0.00000000000E+00  0.71319827841E+03  0.71319827843E+03  0.50400001928E-02 0. -1.
       -1   -1    0    0    0  501  0.00000000000E+00  0.00000000000E+00 -0.31254063474E+03  0.31254063478E+03  0.50400001928E-02 0.  1.
    10030    2    1    2    0    0  0.00000000000E+00  0.00000000000E+00  0.40065764367E+03  0.10257389132E+04  0.94425302258E+03 0.  0.
        4    1    3    3  502    0 -0.81344494808E+01  0.33060502196E+03 -0.16569993283E+03  0.36989718903E+03  0.12699999809E+01 0.  1.
       -4    1    3    3    0  502  0.81344494808E+01 -0.33060502196E+03  0.56635757650E+03  0.65584172418E+03  0.12699999809E+01 0. -1.
</event>
<event>
 5   0  0.1598986E-02  0.9521758E+03  0.7818609E-02  0.9362611E-01
       -2   -1    0    0    0  501  0.00000000000E+00  0.00000000000E+00  0.23548905468E+03  0.23548905469E+03  0.25500000920E-02 0. -1.
        2   -1    0    0  501    0  0.00000000000E+00  0.00000000000E+00 -0.96250617642E+03  0.96250617643E+03  0.25500000920E-02 0.  1.
    10030    2    1    2    0    0  0.00000000000E+00  0.00000000000E+00 -0.72701712174E+03  0.11979952311E+04  0.95217576029E+03 0.  0.
        3    1    3    3  502    0 -0.87979783931E+02  0.35970395553E+03 -0.73997632389E+03  0.82746138769E+03  0.10100000352E+00 0.  1.
       -3    1    3    3    0  502  0.87979783931E+02 -0.35970395553E+03  0.12959202148E+02  0.37053384343E+03  0.10100000352E+00 0. -1.
</event>
<event>
 5   0  0.9396660E-03  0.1038379E+04  0.7818609E-02  0.9267425E-01
        1   -1    0    0  501    0  0.00000000000E+00  0.00000000000E+00  0.82515628278E+03  0.82515628280E+03  0.50400001928E-02 0.  1.
       -1   -1    0    0    0  501  0.00000000000E+00  0.00000000000E+00 -0.32667472793E+03  0.32667472797E+03  0.50400001928E-02 0. -1.
    10030    2    1    2    0    0  0.00000000000E+00  0.00000000000E+00  0.49848155485E+03  0.11518310108E+04  0.10383789370E+04 0.  0.
        5    1    3    3  502    0  0.16361382665E+03  0.37291057791E+02  0.79421943679E+03  0.81176764597E+03  0.46999998093E+01 0.  1.
       -5    1    3    3    0  502 -0.16361382665E+03 -0.37291057791E+02 -0.29573788195E+03  0.34006336480E+03  0.46999998093E+01 0. -1.
</event>
<event>
 5   0  0.9759443E-03  0.1022363E+04  0.7818609E-02  0.9284352E-01
       -1   -1    0    0    0  501  0.00000000000E+00  0.00000000000E+00  0.36002926720E+03  0.36002926724E+03  0.50400001928E-02 0. -1.
        1   -1    0    0  501    0  0.00000000000E+00  0.00000000000E+00 -0.72579274013E+03  0.72579274015E+03  0.50400001928E-02 0.  1.
    10030    2    1    2    0    0  0.00000000000E+00  0.00000000000E+00 -0.36576347293E+03  0.10858220074E+04  0.10223632004E+04 0.  0.
        2    1    3    3  502    0 -0.14968760418E+02 -0.47975298834E+03  0.38725628349E+01  0.48000207329E+03  0.25500000920E-02 0. -1.
       -2    1    3    3    0  502  0.14968760418E+02  0.47975298834E+03 -0.36963603576E+03  0.60581993410E+03  0.25500000920E-02 0.  1.
</event>
<event>
 5   0  0.1617721E-02  0.9585634E+03  0.7818609E-02  0.9355197E-01
        2   -1    0    0  501    0  0.00000000000E+00  0.00000000000E+00  0.10116673135E+04  0.10116673135E+04  0.25500000920E-02 0.  1.
       -2   -1    0    0    0  501  0.00000000000E+00  0.00000000000E+00 -0.22706175385E+03  0.22706175386E+03  0.25500000920E-02 0. -1.
    10030    2    1    2    0    0  0.00000000000E+00  0.00000000000E+00  0.78460555968E+03  0.12387290674E+04  0.95856341373E+03 0.  0.
        5    1    3    3  502    0  0.40662340651E+02 -0.11307777243E+03 -0.20724790819E+03  0.23961175683E+03  0.46999998093E+01 0. -1.
       -5    1    3    3    0  502 -0.40662340651E+02  0.11307777243E+03  0.99185346786E+03  0.99911731057E+03  0.46999998093E+01 0.  1.
</event>
<event>
 5   0  0.9507815E-03  0.1035067E+04  0.7818609E-02  0.9270899E-01
       -1   -1    0    0    0  501  0.00000000000E+00  0.00000000000E+00  0.46672776040E+03  0.46672776042E+03  0.50400001928E-02 0.  1.
        1   -1    0    0  501    0  0.00000000000E+00  0.00000000000E+00 -0.57386981594E+03  0.57386981597E+03  0.50400001928E-02 0. -1.
    10030    2    1    2    0    0  0.00000000000E+00  0.00000000000E+00 -0.10714205555E+03  0.10405975764E+04  0.10350670973E+04 0.  0.
        1    1    3    3  502    0 -0.31845426997E+03 -0.92061033104E+02 -0.45312708691E+03  0.56143789754E+03  0.50400001928E-02 0. -1.
       -1    1    3    3    0  502  0.31845426997E+03  0.92061033104E+02  0.34598503137E+03  0.47915967885E+03  0.50400001928E-02 0.  1.
</event>
<event>
 5   0  0.9507815E-03  0.9349566E+03  0.7818609E-02  0.9382909E-01
       -1   -1    0    0    0  501  0.00000000000E+00  0.00000000000E+00  0.53253052287E+03  0.53253052289E+03  0.50400001928E-02 0.  1.
        1   -1    0    0  501    0  0.00000000000E+00  0.00000000000E+00 -0.41037266373E+03  0.41037266376E+03  0.50400001928E-02 0. -1.
    10030    2    1    2    0    0  0.00000000000E+00  0.00000000000E+00  0.12215785914E+03  0.94290318665E+03  0.93495661763E+03 0.  0.
        1    1    3    3  502    0 -0.44708464359E+03 -0.92615167774E+02  0.16229992652E+03  0.48456528354E+03  0.50400001928E-02 0.  1.
       -1    1    3    3    0  502  0.44708464359E+03  0.92615167774E+02 -0.40142067383E+02  0.45833790311E+03  0.50400001928E-02 0. -1.
</event>
<event>
 5   0  0.1598986E-02  0.9965127E+03  0.7818609E-02  0.9312378E-01
        2   -1    0    0  501    0  0.00000000000E+00  0.00000000000E+00  0.53275660467E+03  0.53275660467E+03  0.25500000920E-02 0.  1.
       -2   -1    0    0    0  501  0.00000000000E+00  0.00000000000E+00 -0.46599030318E+03  0.46599030319E+03  0.25500000920E-02 0. -1.
    10030    2    1    2    0    0  0.00000000000E+00  0.00000000000E+00  0.66766301486E+02  0.99874690786E+03  0.99651274299E+03 0.  0.
        3    1    3    3  502    0  0.44076107444E+03 -0.14592671883E+03 -0.14783835671E+03  0.48725878333E+03  0.10100000352E+00 0. -1.
       -3    1    3    3    0  502 -0.44076107444E+03  0.14592671883E+03  0.21460465820E+03  0.51148812453E+03  0.10100000352E+00 0.  1.
</event>
<event>
 5   0  0.9471140E-03  0.1003563E+04  0.7818609E-02  0.9304645E-01
       -1   -1    0    0    0  501  0.00000000000E+00  0.00000000000E+00  0.80347849802E+03  0.80347849804E+03  0.50400001928E-02 0. -1.
        1   -1    0    0  501    0  0.00000000000E+00  0.00000000000E+00 -0.31336840841E+03  0.31336840845E+03  0.50400001928E-02 0.  1.
    10030    2    1    2    0    0  0.00000000000E+00  0.00000000000E+00  0.49011008961E+03  0.11168469065E+04  0.10035632081E+04 0.  0.
        4    1    3    3  502    0  0.31993151094E+03  0.32522754487E+03  0.47757547813E+03  0.66046126143E+03  0.12699999809E+01 0. -1.
       -4    1    3    3    0  502 -0.31993151094E+03 -0.32522754487E+03  0.12534611477E+02  0.45638564506E+03  0.12699999809E+01 0.  1.
</event>
<event>
 5   0  0.9507815E-03  0.1013647E+04  0.7818609E-02  0.9293703E-01
        1   -1    0    0  501    0  0.00000000000E+00  0.00000000000E+00  0.80948248486E+03  0.80948248488E+03  0.50400001928E-02 0.  1.
       -1   -1    0    0    0  501  0.00000000000E+00  0.00000000000E+00 -0.31732596291E+03  0.31732596295E+03  0.50400001928E-02 0. -1.
    10030    2    1    2    0    0  0.00000000000E+00  0.00000000000E+00  0.49215652195E+03  0.11268084478E+04  0.10136465045E+04 0.  0.
        1    1    3    3  502    0  0.52038739857E+02 -0.49850994829E+03  0.16252319219E+03  0.52690984715E+03  0.50400001928E-02 0. -1.
       -1    1    3    3    0  502 -0.52038739857E+02  0.49850994829E+03  0.32963332976E+03  0.59989860069E+03  0.50400001928E-02 0.  1.
</event>
<event>
 5   0  0.1617721E-02  0.1026363E+04  0.7818609E-02  0.9280094E-01
       -2   -1    0    0    0  501  0.00000000000E+00  0.00000000000E+00  0.17989663609E+03  0.17989663611E+03  0.25500000920E-02 0.  1.
        2   -1    0    0  501    0  0.00000000000E+00  0.00000000000E+00 -0.14639253457E+04  0.14639253457E+04  0.25500000920E-02 0. -1.
    10030    2    1    2    0    0  0.00000000000E+00  0.00000000000E+00 -0.12840287096E+04  0.16438219818E+04  0.10263629869E+04 0.  0.
        5    1    3    3  502    0  0.50689107314E+03 -0.65745519498E+02 -0.71492004823E+03  0.87885937369E+03  0.46999998093E+01 0. -1.
       -5    1    3    3    0  502 -0.50689107314E+03  0.65745519498E+02 -0.56910866140E+03  0.76496260814E+03  0.46999998093E+01 0.  1.
</event>
<event>
 5   0  0.9396660E-03  0.9957425E+03  0.7818609E-02  0.9313227E-01
        1   -1    0    0  501    0  0.00000000000E+00  0.00000000000E+00  0.16590148297E+03  0.16590148304E+03  0.50400001928E-02 0.  1.
       -1   -1    0    0    0  501  0.00000000000E+00  0.00000000000E+00 -0.14941142683E+04  0.14941142683E+04  0.50400001928E-02 0. -1.
    10030    2    1    2    0    0  0.00000000000E+00  0.00000000000E+00 -0.13282127853E+04  0.16600157513E+04  0.99574248258E+03 0.  0.
        5    1    3    3  502    0  0.29455275173E+03 -0.25024599135E+03 -0.11872435942E+04  0.12485807230E+04  0.46999998093E+01 0. -1.
       -5    1    3    3    0  502 -0.29455275173E+03  0.25024599135E+03 -0.14096919110E+03  0.41143502837E+03  0.46999998093E+01 0.  1.
</event>
<event>
 5   0  0.1598986E-02  0.9768604E+03  0.7818609E-02  0.9334294E-01
       -2   -1    0    0    0  501  0.00000000000E+00  0.00000000000E+00  0.39067706860E+03  0.39067706860E+03  0.25500000920E-02 0.  1.
        2   -1    0    0  501    0  0.00000000000E+00  0.00000000000E+00 -0.61064260315E+03  0.61064260315E+03  0.25500000920E-02 0. -1.
    10030    2    1    2    0    0  0.00000000000E+00  0.00000000000E+00 -0.21996553455E+03  0.10013196718E+04  0.97686040387E+03 0.  0.
        3    1    3    3  502    0  0.47755103041E+02  0.16038007154E+03 -0.58034231822E+03  0.60398636882E+03  0.10100000352E+00 0. -1.
       -3    1    3    3    0  502 -0.47755103041E+02 -0.16038007154E+03  0.36037678366E+03  0.39733330293E+03  0.10100000352E+00 0.  1.
</event>
<event>
 5   0  0.9759443E-03  0.9943439E+03  0.7818609E-02  0.9314770E-01
        1   -1    0    0  501    0  0.00000000000E+00  0.00000000000E+00  0.13487426102E+04  0.13487426102E+04  0.50400001928E-02 0. -1.
       -1   -1    0    0    0  501  0.00000000000E+00  0.00000000000E+00 -0.18326695143E+03  0.18326695150E+03  0.50400001928E-02 0.  1.
    10030    2    1    2    0    0  0.00000000000E+00  0.00000000000E+00  0.11654756588E+04  0.15320095617E+04  0.99434389725E+03 0.  0.
        2    1    3    3  502    0 -0.58349562770E+02 -0.13613187082E+03 -0.14848693220E+03  0.20972583715E+03  0.25500000920E-02 0.  1.
       -2    1    3    3    0  502  0.58349562770E+02  0.13613187082E+03  0.13139625910E+04  0.13222837246E+04  0.25500000920E-02 0. -1.
</event>
<event>
 5   0  0.9471140E-03  0.1012004E+04  0.7818609E-02  0.9295476E-01
       -1   -1    0    0    0  501  0.00000000000E+00  0.00000000000E+00  0.79570724252E+03  0.79570724254E+03  0.50400001928E-02 0. -1.
        1   -1    0    0  501    0  0.00000000000E+00  0.00000000000E+00 -0.32177414664E+03  0.32177414668E+03  0.50400001928E-02 0.  1.
    10030    2    1    2    0    0  0.00000000000E+00  0.00000000000E+00  0.47393309588E+03  0.11174813892E+04  0.10120039901E+04 0.  0.
        4    1    3    3  502    0 -0.28544862286E+03 -0.23897825899E+03  0.61538745403E+03  0.71923212946E+03  0.12699999809E+01 0. -1.
       -4    1    3    3    0  502  0.28544862286E+03  0.23897825899E+03 -0.14145435815E+03  0.39824925976E+03  0.12699999809E+01 0.  1.
</event>
<event>
 5   0  0.9507815E-03  0.9725507E+03  0.7818609E-02  0.9339174E-01
        1   -1    0    0  501    0  0.00000000000E+00  0.00000000000E+00  0.17433857369E+04  0.17433857370E+04  0.50400001928E-02 0. -1.
       -1   -1    0    0    0  501  0.00000000000E+00  0.00000000000E+00 -0.13563475279E+03  0.13563475289E+03  0.50400001928E-02 0.  1.
    10030    2    1    2    0    0  0.00000000000E+00  0.00000000000E+00  0.16077509842E+04  0.18790204898E+04  0.97255065379E+03 0.  0.
        1    1    3    3  502    0 -0.16268494659E+03  0.72039862682E+02  0.16782395106E+04  0.16876445090E+04  0.50400001928E-02 0. -1.
       -1    1    3    3    0  502  0.16268494659E+03 -0.72039862682E+02 -0.70488526465E+02  0.19137598086E+03  0.50400001928E-02 0.  1.
</event>
<event>
 5   0  0.9471140E-03  0.1007286E+04  0.7818609E-02  0.9300589E-01
       -1   -1    0    0    0  501  0.00000000000E+00  0.00000000000E+00  0.50452444795E+03  0.50452444797E+03  0.50400001928E-02 0. -1.
        1   -1    0    0  501    0  0.00000000000E+00  0.00000000000E+00 -0.50276352319E+03  0.50276352321E+03  0.50400001928E-02 0.  1.
    10030    2    1    2    0    0  0.00000000000E+00  0.00000000000E+00  0.17609247606E+01  0.10072879712E+04  0.10072864320E+04 0.  0.
        4    1    3    3  502    0  0.18777305187E+03  0.90629119831E+02  0.45933783454E+03  0.50444545346E+03  0.12699999809E+01 0. -1.
       -4    1    3    3    0  502 -0.18777305187E+03 -0.90629119831E+02 -0.45757690978E+03  0.50284251773E+03  0.12699999809E+01 0.  1.
</event>
<event>
 5   0  0.1571895E-02  0.9918239E+03  0.7818609E-02  0.9317558E-01
        2   -1    0    0  501    0  0.00000000000E+00  0.00000000000E+00  0.55820425504E+03  0.55820425504E+03  0.25500000920E-02 0. -1.
       -2   -1    0    0    0  501  0.00000000000E+00  0.00000000000E+00 -0.44057111945E+03  0.44057111946E+03  0.25500000920E-02 0.  1.
    10030    2    1    2    0    0  0.00000000000E+00  0.00000000000E+00  0.11763313559E+03  0.99877537450E+03  0.99182392294E+03 0.  0.
        2    1    3    3  502    0 -0.31859609326E+03 -0.29592996485E+03  0.29892145363E+03  0.52766660893E+03  0.25500000920E-02 0.  1.
       -2    1    3    3    0  502  0.31859609326E+03  0.29592996485E+03 -0.18128831804E+03  0.47110876557E+03  0.25500000920E-02 0. -1.
</event>
<event>
 5   0  0.1663497E-02  0.9890216E+03  0.7818609E-02  0.9320668E-01
        2   -1    0    0  501    0  0.00000000000E+00  0.00000000000E+00  0.96154272913E+03  0.96154272913E+03  0.25500000920E-02 0. -1.
       -2   -1    0    0    0  501  0.00000000000E+00  0.00000000000E+00 -0.25432144313E+03  0.25432144314E+03  0.25500000920E-02 0.  1.
    10030    2    1    2    0    0  0.00000000000E+00  0.00000000000E+00  0.70722128600E+03  0.12158641723E+04  0.98902160646E+03 0.  0.
        1    1    3    3  502    0 -0.47703558692E+03 -0.62086948324E+01  0.19360741390E+03  0.51486438003E+03  0.50400001928E-02 0.  1.
       -1    1    3    3    0  502  0.47703558692E+03  0.62086948324E+01  0.51361387210E+03  0.70099979224E+03  0.50400001928E-02 0. -1.
</event>
<event>
 5   0  0.1598986E-02  0.1024314E+04  0.7818609E-02  0.9282272E-01
       -2   -1    0    0    0  501  0.00000000000E+00  0.00000000000E+00  0.17936952842E+03  0.17936952844E+03  0.25500000920E-02 0. -1.
        2   -1    0    0  501    0  0.00000000000E+00  0.00000000000E+00 -0.14623710432E+04  0.14623710432E+04  0.25500000920E-02 0.  1.
    10030    2    1    2    0    0  0.00000000000E+00  0.00000000000E+00 -0.12830015148E+04  0.16417405717E+04  0.10243140230E+04 0.  0.
        3    1    3    3  502    0  0.53691488563E+02 -0.12173959944E+03 -0.14341863414E+04  0.14403450205E+04  0.10100000352E+00 0.  1.
       -3    1    3    3    0  502 -0.53691488563E+02  0.12173959944E+03  0.15118482662E+03  0.20139555114E+03  0.10100000352E+00 0. -1.
</event>
<event>
 5   0  0.1663497E-02  0.9323304E+03  0.7818609E-02  0.9386045E-01
        2   -1    0    0  501    0  0.00000000000E+00  0.00000000000E+00  0.13988722318E+04  0.13988722318E+04  0.25500000920E-02 0. -1.
       -2   -1    0    0    0  501  0.00000000000E+00  0.00000000000E+00 -0.15534655393E+03  0.15534655395E+03  0.25500000920E-02 0.  1.
    10030    2    1    2    0    0  0.00000000000E+00  0.00000000000E+00  0.12435256778E+04  0.15542187857E+04  0.93233037194E+03 0.  0.
        1    1    3    3  502    0  0.33224506646E+03  0.27911446122E+03  0.33778894990E+03  0.54990275627E+03  0.50400001928E-02 0.  1.
       -1    1    3    3    0  502 -0.33224506646E+03 -0.27911446122E+03  0.90573672794E+03  0.10043160295E+04  0.50400001928E-02 0. -1.
</event>
<event>
 5   0  0.1656859E-02  0.1010202E+04  0.7818609E-02  0.9297426E-01
       -2   -1    0    0    0  501  0.00000000000E+00  0.00000000000E+00  0.67912790283E+03  0.67912790283E+03  0.25500000920E-02 0.  1.
        2   -1    0    0  501    0  0.00000000000E+00  0.00000000000E+00 -0.37566849210E+03  0.37566849211E+03  0.25500000920E-02 0. -1.
    10030    2    1    2    0    0  0.00000000000E+00  0.00000000000E+00  0.30345941072E+03  0.10547963949E+04  0.10102018713E+04 0.  0.
        4    1    3    3  502    0 -0.21155268053E+03 -0.36717954252E+03  0.43872691316E+03  0.60996579438E+03  0.12699999809E+01 0. -1.
       -4    1    3    3    0  502  0.21155268053E+03  0.36717954252E+03 -0.13526750244E+03  0.44483060056E+03  0.12699999809E+01 0.  1.
</event>
<event>
 5   0  0.1000773E-02  0.1023744E+04  0.7818609E-02  0.9282880E-01
       -1   -1    0    0    0  501  0.00000000000E+00  0.00000000000E+00  0.29590522445E+03  0.29590522449E+03  0.50400001928E-02 0.  1.
        1   -1    0    0  501    0  0.00000000000E+00  0.00000000000E+00 -0.88546212802E+03  0.88546212804E+03  0.50400001928E-02 0. -1.
    10030    2    1    2    0    0  0.00000000000E+00  0.00000000000E+00 -0.58955690358E+03  0.11813673525E+04  0.10237438542E+04 0.  0.
        3    1    3    3  502    0  0.35313617398E+03 -0.86403081192E+02 -0.71059484423E+03  0.79819527226E+03  0.10100000352E+00 0. -1.
       -3    1    3    3    0  502 -0.35313617398E+03  0.86403081192E+02  0.12103794065E+03  0.38317208026E+03  0.10100000352E+00 0.  1.
</event>
<event>
 5   0  0.9507815E-03  0.9778335E+03  0.7818609E-02  0.9333196E-01
        1   -1    0    0  501    0  0.00000000000E+00  0.00000000000E+00  0.55179731473E+03  0.55179731475E+03  0.50400001928E-02 0.  1.
       -1   -1    0    0    0  501  0.00000000000E+00  0.00000000000E+00 -0.43320183256E+03  0.43320183259E+03  0.50400001928E-02 0. -1.
    10030    2    1    2    0    0  0.00000000000E+00  0.00000000000E+00  0.11859548217E+03  0.98499914734E+03  0.97783353996E+03 0.  0.
        1    1    3    3  502    0  0.24836191972E+03 -0.26065247118E+03  0.39250299916E+03  0.53261802286E+03  0.50400001928E-02 0.  1.
       -1    1    3    3    0  502 -0.24836191972E+03  0.26065247118E+03 -0.27390751699E+03  0.45238112448E+03  0.50400001928E-02 0. -1.
</event>
<event>
 5   0  0.9396660E-03  0.8430768E+03  0.7818609E-02  0.9499676E-01
        1   -1    0    0  501    0  0.00000000000E+00  0.00000000000E+00  0.26961689888E+03  0.26961689892E+03  0.50400001928E-02 0.  1.
       -1   -1    0    0    0  501  0.00000000000E+00  0.00000000000E+00 -0.65906340924E+03  0.65906340926E+03  0.50400001928E-02 0. -1.
    10030    2    1    2    0    0  0.00000000000E+00  0.00000000000E+00 -0.38944651037E+03  0.92868030818E+03  0.84307682353E+03 0.  0.
        5    1    3    3  502    0 -0.40830323607E+03 -0.31862464514E+02 -0.30457799563E+03  0.51040826272E+03  0.46999998093E+01 0. -1.
       -5    1    3    3    0  502  0.40830323607E+03  0.31862464514E+02 -0.84868514735E+02  0.41827204547E+03  0.46999998093E+01 0.  1.
</event>
<event>
 5   0  0.9507815E-03  0.9572468E+03  0.7818609E-02  0.9356720E-01
       -1   -1    0    0    0  501  0.00000000000E+00  0.00000000000E+00  0.13863768002E+03  0.13863768011E+03  0.50400001928E-02 0.  1.
        1   -1    0    0  501    0  0.00000000000E+00  0.00000000000E+00 -0.16523673130E+04  0.16523673131E+04  0.50400001928E-02 0. -1.
    10030    2    1    2    0    0  0.00000000000E+00  0.00000000000E+00 -0.15137296330E+04  0.17910049932E+04  0.95724682481E+03 0.  0.
        1    1    3    3  502    0 -0.11105364416E+03  0.36953227703E+03 -0.22702809547E+03  0.44769272030E+03  0.50400001928E-02 0.  1.
       -1    1    3    3    0  502  0.11105364416E+03 -0.36953227703E+03 -0.12867015376E+04  0.13433122729E+04  0.50400001928E-02 0. -1.
</event>
<event>
 5   0  0.9471140E-03  0.1004355E+04  0.7818609E-02  0.9303781E-01
        1   -1    0    0  501    0  0.00000000000E+00  0.00000000000E+00  0.89305053715E+03  0.89305053717E+03  0.50400001928E-02 0.  1.
       -1   -1    0    0    0  501  0.00000000000E+00  0.00000000000E+00 -0.28238297580E+03  0.28238297584E+03  0.50400001928E-02 0. -1.
    10030    2    1    2    0    0  0.00000000000E+00  0.00000000000E+00  0.61066756136E+03  0.11754335130E+04  0.10043550533E+04 0.  0.
        4    1    3    3  502    0 -0.48666316824E+03 -0.10921834998E+03  0.37368552881E+03  0.62322722552E+03  0.12699999809E+01 0. -1.
       -4    1    3    3    0  502  0.48666316824E+03  0.10921834998E+03  0.23698203255E+03  0.55220628749E+03  0.12699999809E+01 0.  1.
</event>
<event>
 5   0  0.1000773E-02  0.9920748E+03  0.7818609E-02  0.9317280E-01
       -1   -1    0    0    0  501  0.00000000000E+00  0.00000000000E+00  0.76924251538E+03  0.76924251539E+03  0.50400001928E-02 0.  1.
        1   -1    0    0  501    0  0.00000000000E+00  0.00000000000E+00 -0.31986417668E+03  0.31986417672E+03  0.50400001928E-02 0. -1.
    10030    2    1    2    0    0  0.00000000000E+00  0.00000000000E+00  0.44937833870E+03  0.10891066921E+04  0.99207484370E+03 0.  0.
        3    1    3    3  502    0 -0.24408763716E+03  0.39365626045E+03  0.29819654641E+02  0.46414787300E+03  0.10100000352E+00 0.  1.
       -3    1    3    3    0  502  0.24408763716E+03 -0.39365626045E+03  0.41955868406E+03  0.62495881911E+03  0.10100000352E+00 0. -1.
</event>
<event>
 5   0  0.1656859E-02  0.7606227E+03  0.7818609E-02  0.9618831E-01
       -2   -1    0    0    0  501  0.00000000000E+00  0.00000000000E+00  0.17549505244E+03  0.17549505246E+03  0.25500000920E-02 0. -1.
        2   -1    0    0  501    0  0.00000000000E+00  0.00000000000E+00 -0.82416412151E+03  0.82416412151E+03  0.25500000920E-02 0.  1.
    10030    2    1    2    0    0  0.00000000000E+00  0.00000000000E+00 -0.64866906907E+03  0.99965917398E+03  0.76062270736E+03 0.  0.
        4    1    3    3  502    0 -0.14124445910E+03  0.14817595404E+03  0.96905077800E+02  0.22649131901E+03  0.12699999809E+01 0. -1.
       -4    1    3    3    0  502  0.14124445910E+03 -0.14817595404E+03 -0.74557414687E+03  0.77316785497E+03  0.12699999809E+01 0.  1.
</event>
<event>
 5   0  0.9759443E-03  0.8708563E+03  0.7818609E-02  0.9462764E-01
       -1   -1    0    0    0  501  0.00000000000E+00  0.00000000000E+00  0.65174286360E+03  0.65174286362E+03  0.50400001928E-02 0.  1.
        1   -1    0    0  501    0  0.00000000000E+00  0.00000000000E+00 -0.29090867757E+03  0.29090867761E+03  0.50400001928E-02 0. -1.
    10030    2    1    2    0    0  0.00000000000E+00  0.00000000000E+00  0.36083418603E+03  0.94265154123E+03  0.87085625586E+03 0.  0.
        2    1    3    3  502    0 -0.41736398791E+03  0.84489693236E+02  0.27883274478E+03  0.50899794325E+03  0.25500000920E-02 0.  1.
       -2    1    3    3    0  502  0.41736398791E+03 -0.84489693236E+02  0.82001441244E+02  0.43365359798E+03  0.25500000920E-02 0. -1.
</event>
<event>
 5   0  0.1000773E-02  0.9771418E+03  0.7818609E-02  0.9333977E-01
        1   -1    0    0  501    0  0.00000000000E+00  0.00000000000E+00  0.84967211309E+03  0.84967211310E+03  0.50400001928E-02 0.  1.
       -1   -1    0    0    0  501  0.00000000000E+00  0.00000000000E+00 -0.28093369535E+03  0.28093369540E+03  0.50400001928E-02 0. -1.
    10030    2    1    2    0    0  0.00000000000E+00  0.00000000000E+00  0.56873841773E+03  0.11306058085E+04  0.97714180465E+03 0.  0.
        3    1    3    3  502    0 -0.38451854863E+03  0.59510740820E+02 -0.57511310781E+02  0.39332378974E+03  0.10100000352E+00 0. -1.
       -3    1    3    3    0  502  0.38451854863E+03 -0.59510740820E+02  0.62624972852E+03  0.73728201875E+03  0.10100000352E+00 0.  1.
</event>
<event>
 5   0  0.1617721E-02  0.1004297E+04  0.7818609E-02  0.9303845E-01
        2   -1    0    0  501    0  0.00000000000E+00  0.00000000000E+00  0.33422089755E+03  0.33422089756E+03  0.25500000920E-02 0.  1.
       -2   -1    0    0    0  501  0.00000000000E+00  0.00000000000E+00 -0.75445014972E+03  0.75445014972E+03  0.25500000920E-02 0. -1.
    10030    2    1    2    0    0  0.00000000000E+00  0.00000000000E+00 -0.42022925216E+03  0.10886710473E+04  0.10042967812E+04 0.  0.
        5    1    3    3  502    0 -0.48401574833E+03 -0.12199230339E+03 -0.15096335297E+03  0.52150301117E+03  0.46999998093E+01 0. -1.
       -5    1    3    3    0  502  0.48401574833E+03  0.12199230339E+03 -0.26926589920E+03  0.56716803612E+03  0.46999998093E+01 0.  1.
</event>
<event>
 5   0  0.9759443E-03  0.9572529E+03  0.7818609E-02  0.9356713E-01
       -1   -1    0    0    0  501  0.00000000000E+00  0.00000000000E+00  0.32522475116E+03  0.32522475120E+03  0.50400001928E-02 0. -1.
        1   -1    0    0  501    0  0.00000000000E+00  0.00000000000E+00 -0.70438449300E+03  0.70438449302E+03  0.50400001928E-02 0.  1.
    10030    2    1    2    0    0  0.00000000000E+00  0.00000000000E+00 -0.37915974184E+03  0.10296092442E+04  0.95725288506E+03 0.  0.
        2    1    3    3  502    0  0.12671690749E+03  0.33209206547E+03 -0.53434041099E+03  0.64176474616E+03  0.25500000920E-02 0.  1.
       -2    1    3    3    0  502 -0.12671690749E+03 -0.33209206547E+03  0.15518066915E+03  0.38784449806E+03  0.25500000920E-02 0. -1.
</event>
<event>
 5   0  0.9396660E-03  0.9780979E+03  0.7818609E-02  0.9332898E-01
       -1   -1    0    0    0  501  0.00000000000E+00  0.00000000000E+00  0.56544252181E+03  0.56544252183E+03  0.50400001928E-02 0.  1.
        1   -1    0    0  501    0  0.00000000000E+00  0.00000000000E+00 -0.42297646459E+03  0.42297646462E+03  0.50400001928E-02 0. -1.
    10030    2    1    2    0    0  0.00000000000E+00  0.00000000000E+00  0.14246605721E+03  0.98841898646E+03  0.97809790682E+03 0.  0.
        5    1    3    3  502    0  0.29733726506E+03 -0.38687355664E+03  0.38235894902E+02  0.48945344179E+03  0.46999998093E+01 0. -1.
       -5    1    3    3    0  502 -0.29733726506E+03  0.38687355664E+03  0.10423016231E+03  0.49896554466E+03  0.46999998093E+01 0.  1.
</event>
<event>
 5   0  0.9396660E-03  0.1007971E+04  0.7818609E-02  0.9299845E-01
        1   -1    0    0  501    0  0.00000000000E+00  0.00000000000E+00  0.35737978436E+03  0.35737978439E+03  0.50400001928E-02 0. -1.
       -1   -1    0    0    0  501  0.00000000000E+00  0.00000000000E+00 -0.71073288834E+03  0.71073288836E+03  0.50400001928E-02 0.  1.
    10030    2    1    2    0    0  0.00000000000E+00  0.00000000000E+00 -0.35335310398E+03  0.10681126727E+04  0.10079713615E+04 0.  0.
        5    1    3    3  502    0  0.35370115573E+03  0.26507212892E+03  0.79867036059E+02  0.44918656986E+03  0.46999998093E+01 0. -1.
       -5    1    3    3    0  502 -0.35370115573E+03 -0.26507212892E+03 -0.43322014004E+03  0.61892610288E+03  0.46999998093E+01 0.  1.
</event>
<event>
 5   0  0.1571895E-02  0.1057142E+04  0.7818609E-02  0.9248002E-01
        2   -1    0    0  501    0  0.00000000000E+00  0.00000000000E+00  0.37330079220E+03  0.37330079220E+03  0.25500000920E-02 0.  1.
       -2   -1    0    0    0  501  0.00000000000E+00  0.00000000000E+00 -0.74842375629E+03  0.74842375629E+03  0.25500000920E-02 0. -1.
    10030    2    1    2    0    0  0.00000000000E+00  0.00000000000E+00 -0.37512296409E+03  0.11217245485E+04  0.10571417712E+04 0.  0.
        2    1    3    3  502    0 -0.14170167484E+03  0.50641967353E+03 -0.24417777646E+03  0.57979568549E+03  0.25500000920E-02 0. -1.
       -2    1    3    3    0  502  0.14170167484E+03 -0.50641967353E+03 -0.13094518763E+03  0.54192886301E+03  0.25500000920E-02 0.  1.
</event>
<event>
 5   0  0.1571895E-02  0.1050822E+04  0.7818609E-02  0.9254495E-01
        2   -1    0    0  501    0  0.00000000000E+00  0.00000000000E+00  0.20701930516E+03  0.20701930518E+03  0.25500000920E-02 0. -1.
       -2   -1    0    0    0  501  0.00000000000E+00  0.00000000000E+00 -0.13334836981E+04  0.13334836981E+04  0.25500000920E-02 0.  1.
    10030    2    1    2    0    0  0.00000000000E+00  0.00000000000E+00 -0.11264643930E+04  0.15405030033E+04  0.10508222850E+04 0.  0.
        2    1    3    3  502    0  0.49862672201E+03 -0.13662843479E+03 -0.42601503903E+03  0.66991398745E+03  0.25500000920E-02 0. -1.
       -2    1    3    3    0  502 -0.49862672201E+03  0.13662843479E+03 -0.70044935394E+03  0.87058901587E+03  0.25500000920E-02 0.  1.
</event>
<event>
 5   0  0.1617721E-02  0.1011789E+04  0.7818609E-02  0.9295708E-01
        2   -1    0    0  501    0  0.00000000000E+00  0.00000000000E+00  0.72789329164E+03  0.72789329164E+03  0.25500000920E-02 0.  1.
       -2   -1    0    0    0  501  0.00000000000E+00  0.00000000000E+00 -0.35160276136E+03  0.35160276137E+03  0.25500000920E-02 0. -1.
    10030    2    1    2    0    0  0.00000000000E+00  0.00000000000E+00  0.37629053028E+03  0.10794960530E+04  0.10117890913E+04 0.  0.
        5    1    3    3  502    0 -0.16379278852E+03 -0.68133616143E+01 -0.32245356360E+03  0.36176358322E+03  0.46999998093E+01 0. -1.
       -5    1    3    3    0  502  0.16379278852E+03  0.68133616143E+01  0.69874409387E+03  0.71773246979E+03  0.46999998093E+01 0.  1.
</event>
<event>
 5   0  0.1656859E-02  0.1007150E+04  0.7818609E-02  0.9300737E-01
       -2   -1    0    0    0  501  0.00000000000E+00  0.00000000000E+00  0.26287013564E+03  0.26287013565E+03  0.25500000920E-02 0.  1.
        2   -1    0    0  501    0  0.00000000000E+00  0.00000000000E+00 -0.96468835659E+03  0.96468835660E+03  0.25500000920E-02 0. -1.
    10030    2    1    2    0    0  0.00000000000E+00  0.00000000000E+00 -0.70181822095E+03  0.12275584922E+04  0.10071499574E+04 0.  0.
        4    1    3    3  502    0  0.54242724971E+02  0.41363145444E+02 -0.95902907410E+03  0.96145283862E+03  0.12699999809E+01 0. -1.
       -4    1    3    3    0  502 -0.54242724971E+02 -0.41363145444E+02  0.25721085315E+03  0.26610565363E+03  0.12699999809E+01 0.  1.
</event>
<event>
 5   0  0.9507815E-03  0.1015691E+04  0.7818609E-02  0.9291501E-01
        1   -1    0    0  501    0  0.00000000000E+00  0.00000000000E+00  0.63737649357E+03  0.63737649359E+03  0.50400001928E-02 0. -1.
       -1   -1    0    0    0  501  0.00000000000E+00  0.00000000000E+00 -0.40463854843E+03  0.40463854846E+03  0.50400001928E-02 0.  1.
    10030    2    1    2    0    0  0.00000000000E+00  0.00000000000E+00  0.23273794514E+03  0.10420150421E+04  0.10156910932E+04 0.  0.
        1    1    3    3  502    0 -0.11216007457E+03  0.12561759072E+03 -0.37515937421E+03  0.41122283195E+03  0.50400001928E-02 0.  1.
       -1    1    3    3    0  502  0.11216007457E+03 -0.12561759072E+03  0.60789731936E+03  0.63079221011E+03  0.50400001928E-02 0. -1.
</event>
<event>
 5   0  0.1656859E-02  0.1019153E+04  0.7818609E-02  0.9287784E-01
        2   -1    0    0  501    0  0.00000000000E+00  0.00000000000E+00  0.40792784315E+03  0.40792784316E+03  0.25500000920E-02 0. -1.
       -2   -1    0    0    0  501  0.00000000000E+00  0.00000000000E+00 -0.63655477309E+03  0.63655477310E+03  0.25500000920E-02 0.  1.
    10030    2    1    2    0    0  0.00000000000E+00  0.00000000000E+00 -0.22862692994E+03  0.10444826163E+04  0.10191534048E+04 0.  0.
        4    1    3    3  502    0 -0.23070372022E+03 -0.19235800391E+03 -0.53617594600E+03  0.61458283914E+03  0.12699999809E+01 0.  1.
       -4    1    3    3    0  502  0.23070372022E+03  0.19235800391E+03  0.30754901606E+03  0.42989977712E+03  0.12699999809E+01 0. -1.
</event>
<event>
 5   0  0.9471140E-03  0.9470555E+03  0.7818609E-02  0.9368599E-01
       -1   -1    0    0    0  501  0.00000000000E+00  0.00000000000E+00  0.50136873391E+03  0.50136873394E+03  0.50400001928E-02 0. -1.
        1   -1    0    0  501    0  0.00000000000E+00  0.00000000000E+00 -0.44723278864E+03  0.44723278867E+03  0.50400001928E-02 0.  1.
    10030    2    1    2    0    0  0.00000000000E+00  0.00000000000E+00  0.54135945268E+02  0.94860152261E+03  0.94705551480E+03 0.  0.
        4    1    3    3  502    0 -0.29582181648E+02  0.26540709716E+03 -0.36460859483E+03  0.45194808664E+03  0.12699999809E+01 0.  1.
       -4    1    3    3    0  502  0.29582181648E+02 -0.26540709716E+03  0.41874454010E+03  0.49665343597E+03  0.12699999809E+01 0. -1.
</event>
<event>
 5   0  0.1663497E-02  0.9514497E+03  0.7818609E-02  0.9363458E-01
       -2   -1    0    0    0  501  0.00000000000E+00  0.00000000000E+00  0.68734965413E+03  0.68734965414E+03  0.25500000920E-02 0. -1.
        2   -1    0    0  501    0  0.00000000000E+00  0.00000000000E+00 -0.32925616599E+03  0.32925616600E+03  0.25500000920E-02 0.  1.
    10030    2    1    2    0    0  0.00000000000E+00  0.00000000000E+00  0.35809348814E+03  0.10166058201E+04  0.95144965568E+03 0.  0.
        1    1    3    3  502    0 -0.35785686099E+03 -0.29037323206E+03  0.52911834242E+02  0.46387262161E+03  0.50400001928E-02 0.  1.
       -1    1    3    3    0  502  0.35785686099E+03  0.29037323206E+03  0.30518165390E+03  0.55273319853E+03  0.50400001928E-02 0. -1.
</event>
<event>
 5   0  0.1000773E-02  0.8222668E+03  0.7818609E-02  0.9528335E-01
       -1   -1    0    0    0  501  0.00000000000E+00  0.00000000000E+00  0.13048193103E+03  0.13048193113E+03  0.50400001928E-02 0. -1.
        1   -1    0    0  501    0  0.00000000000E+00  0.00000000000E+00 -0.12954334695E+04  0.12954334695E+04  0.50400001928E-02 0.  1.
    10030    2    1    2    0    0  0.00000000000E+00  0.00000000000E+00 -0.11649515384E+04  0.14259154006E+04  0.82226677104E+03 0.  0.
        3    1    3    3  502    0  0.25066006422E+03  0.67815584757E+01 -0.17474275024E+02  0.25135993678E+03  0.10100000352E+00 0. -1.
       -3    1    3    3    0  502 -0.25066006422E+03 -0.67815584757E+01 -0.11474772634E+04  0.11745554638E+04  0.10100000352E+00 0.  1.
</event>
<event>
 5   0  0.1598986E-02  0.1005992E+04  0.7818609E-02  0.9301997E-01
       -2   -1    0    0    0  501  0.00000000000E+00  0.00000000000E+00  0.29051744293E+03  0.29051744294E+03  0.25500000920E-02 0.  1.
        2   -1    0    0  501    0  0.00000000000E+00  0.00000000000E+00 -0.87087708979E+03  0.87087708980E+03  0.25500000920E-02 0. -1.
    10030    2    1    2    0    0  0.00000000000E+00  0.00000000000E+00 -0.58035964686E+03  0.11613945327E+04  0.10059920183E+04 0.  0.
        3    1    3    3  502    0 -0.11282226688E+03 -0.16758257968E+03  0.24162214432E+03  0.31495087830E+03  0.10100000352E+00 0.  1.
       -3    1    3    3    0  502  0.11282226688E+03  0.16758257968E+03 -0.82198179118E+03  0.84644365444E+03  0.10100000352E+00 0. -1.
</event>
<event>
 5   0  0.9396660E-03  0.1012763E+04  0.7818609E-02  0.9294656E-01
       -1   -1    0    0    0  501  0.00000000000E+00  0.00000000000E+00  0.75333755806E+03  0.75333755808E+03  0.50400001928E-02 0.  1.
        1   -1    0    0  501    0  0.00000000000E+00  0.00000000000E+00 -0.34038180700E+03  0.34038180704E+03  0.50400001928E-02 0. -1.
    10030    2    1    2    0    0  0.00000000000E+00  0.00000000000E+00  0.41295575106E+03  0.10937193651E+04  0.10127633471E+04 0.  0.
        5    1    3    3  502    0  0.63413536324E+02 -0.45780634089E+03 -0.16921102686E+02  0.46251090373E+03  0.46999998093E+01 0. -1.
       -5    1    3    3    0  502 -0.63413536324E+02  0.45780634089E+03  0.42987685374E+03  0.63120846139E+03  0.46999998093E+01 0.  1.
</event>
<event>
 5   0  0.1663497E-02  0.1049299E+04  0.7818609E-02  0.9256068E-01
       -2   -1    0    0    0  501  0.00000000000E+00  0.00000000000E+00  0.47854248080E+03  0.47854248080E+03  0.25500000920E-02 0. -1.
        2   -1    0    0  501    0  0.00000000000E+00  0.00000000000E+00 -0.57519886443E+03  0.57519886444E+03  0.25500000920E-02 0.  1.
    10030    2    1    2    0    0  0.00000000000E+00  0.00000000000E+00 -0.96656383639E+02  0.10537413452E+04  0.10492989880E+04 0.  0.
        1    1    3    3  502    0 -0.26784579794E+03 -0.43798913047E+03 -0.15686555597E+03  0.53682646410E+03  0.50400001928E-02 0. -1.
       -1    1    3    3    0  502  0.26784579794E+03  0.43798913047E+03  0.60209172331E+02  0.51691488114E+03  0.50400001928E-02 0.  1.
</event>
<event>
 5   0  0.1598986E-02  0.1154774E+04  0.7818609E-02  0.9153390E-01
       -2   -1    0    0    0  501  0.00000000000E+00  0.00000000000E+00  0.27808944953E+03  0.27808944954E+03  0.25500000920E-02 0. -1.
        2   -1    0    0  501    0  0.00000000000E+00  0.00000000000E+00 -0.11988086293E+04  0.11988086293E+04  0.25500000920E-02 0.  1.
    10030    2    1    2    0    0  0.00000000000E+00  0.00000000000E+00 -0.92071917978E+03  0.14768980789E+04  0.11547744920E+04 0.  0.
        3    1    3    3  502    0 -0.26943031676E+03 -0.16015987303E+03  0.15980839495E+03  0.35182753419E+03  0.10100000352E+00 0. -1.
       -3    1    3    3    0  502  0.26943031676E+03  0.16015987303E+03 -0.10805275747E+04  0.11250705447E+04  0.10100000352E+00 0.  1.
</event>
<event>
 5   0  0.9396660E-03  0.1002015E+04  0.7818609E-02  0.9306337E-01
       -1   -1    0    0    0  501  0.00000000000E+00  0.00000000000E+00  0.64610283215E+03  0.64610283217E+03  0.50400001928E-02 0. -1.
        1   -1    0    0  501    0  0.00000000000E+00  0.00000000000E+00 -0.38849649849E+03  0.38849649853E+03  0.50400001928E-02 0.  1.
    10030    2    1    2    0    0  0.00000000000E+00  0.00000000000E+00  0.25760633366E+03  0.10345993307E+04  0.10020153452E+04 0.  0.
        5    1    3    3  502    0 -0.55708355518E+02  0.16809914626E+03 -0.35507892827E+03  0.39681718605E+03  0.46999998093E+01 0.  1.
       -5    1    3    3    0  502  0.55708355518E+02 -0.16809914626E+03  0.61268526192E+03  0.63778214464E+03  0.46999998093E+01 0. -1.
</event>
<event>
 5   0  0.9471140E-03  0.1015627E+04  0.7818609E-02  0.9291570E-01
        1   -1    0    0  501    0  0.00000000000E+00  0.00000000000E+00  0.68045571800E+03  0.68045571802E+03  0.50400001928E-02 0. -1.
       -1   -1    0    0    0  501  0.00000000000E+00  0.00000000000E+00 -0.37897319688E+03  0.37897319692E+03  0.50400001928E-02 0.  1.
    10030    2    1    2    0    0  0.00000000000E+00  0.00000000000E+00  0.30148252112E+03  0.10594289149E+04  0.10156268583E+04 0.  0.
        4    1    3    3  502    0  0.29333917159E+03  0.35217821116E+03 -0.77309312046E+02  0.46481792633E+03  0.12699999809E+01 0.  1.
       -4    1    3    3    0  502 -0.29333917159E+03 -0.35217821116E+03  0.37879183316E+03  0.59461098861E+03  0.12699999809E+01 0. -1.
</event>
<event>
 5   0  0.9759443E-03  0.9971658E+03  0.7818609E-02  0.9311659E-01
       -1   -1    0    0    0  501  0.00000000000E+00  0.00000000000E+00  0.38323888842E+03  0.38323888845E+03  0.50400001928E-02 0.  1.
        1   -1    0    0  501    0  0.00000000000E+00  0.00000000000E+00 -0.64864216351E+03  0.64864216353E+03  0.50400001928E-02 0. -1.
    10030    2    1    2    0    0  0.00000000000E+00  0.00000000000E+00 -0.26540327509E+03  0.10318810520E+04  0.99716578712E+03 0.  0.
        2    1    3    3  502    0  0.43368975790E+03 -0.15101310158E+03 -0.33360787493E+03  0.56761428556E+03  0.25500000920E-02 0. -1.
       -2    1    3    3    0  502 -0.43368975790E+03  0.15101310158E+03  0.68204599841E+02  0.46426676642E+03  0.25500000920E-02 0.  1.
</event>
<event>
 5   0  0.1656859E-02  0.1001238E+04  0.7818609E-02  0.9307188E-01
        2   -1    0    0  501    0  0.00000000000E+00  0.00000000000E+00  0.88609736444E+03  0.88609736445E+03  0.25500000920E-02 0. -1.
       -2   -1    0    0    0  501  0.00000000000E+00  0.00000000000E+00 -0.28283489556E+03  0.28283489557E+03  0.25500000920E-02 0.  1.
    10030    2    1    2    0    0  0.00000000000E+00  0.00000000000E+00  0.60326246888E+03  0.11689322600E+04  0.10012377451E+04 0.  0.
        4    1    3    3  502    0  0.45127494764E+02  0.36483087850E+03  0.69837008656E+03  0.78921508563E+03  0.12699999809E+01 0. -1.
       -4    1    3    3    0  502 -0.45127494764E+02 -0.36483087850E+03 -0.95107617674E+02  0.37971717439E+03  0.12699999809E+01 0.  1.
</event>
<event>
 5   0  0.1663497E-02  0.1042388E+04  0.7818609E-02  0.9263239E-01
        2   -1    0    0  501    0  0.00000000000E+00  0.00000000000E+00  0.74684267563E+03  0.74684267563E+03  0.25500000920E-02 0.  1.
       -2   -1    0    0    0  501  0.00000000000E+00  0.00000000000E+00 -0.36372175505E+03  0.36372175506E+03  0.25500000920E-02 0. -1.
    10030    2    1    2    0    0  0.00000000000E+00  0.00000000000E+00  0.38312092058E+03  0.11105644307E+04  0.10423875071E+04 0.  0.
        1    1    3    3  502    0 -0.21514629454E+03 -0.27984965742E+03 -0.21697624589E+03  0.41434580982E+03  0.50400001928E-02 0. -1.
       -1    1    3    3    0  502  0.21514629454E+03  0.27984965742E+03  0.60009716647E+03  0.69621862087E+03  0.50400001928E-02 0.  1.
</event>
<event>
 5   0  0.9507815E-03  0.1040750E+04  0.7818609E-02  0.9264946E-01
       -1   -1    0    0    0  501  0.00000000000E+00  0.00000000000E+00  0.70757313468E+03  0.70757313470E+03  0.50400001928E-02 0. -1.
        1   -1    0    0  501    0  0.00000000000E+00  0.00000000000E+00 -0.38270276072E+03  0.38270276075E+03  0.50400001928E-02 0.  1.
    10030    2    1    2    0    0  0.00000000000E+00  0.00000000000E+00  0.32487037397E+03  0.10902758955E+04  0.10407500989E+04 0.  0.
        1    1    3    3  502    0 -0.23773180128E+03  0.31662661396E+03 -0.19130392173E+03  0.43973402473E+03  0.50400001928E-02 0.  1.
       -1    1    3    3    0  502  0.23773180128E+03 -0.31662661396E+03  0.51617429569E+03  0.65054187073E+03  0.50400001928E-02 0. -1.
</event>
<event>
 5   0  0.1617721E-02  0.9331819E+03  0.7818609E-02  0.9385027E-01
       -2   -1    0    0    0  501  0.00000000000E+00  0.00000000000E+00  0.17529410568E+03  0.17529410570E+03  0.25500000920E-02 0.  1.
        2   -1    0    0  501    0  0.00000000000E+00  0.00000000000E+00 -0.12419533072E+04  0.12419533072E+04  0.25500000920E-02 0. -1.
    10030    2    1    2    0    0  0.00000000000E+00  0.00000000000E+00 -0.10666592015E+04  0.14172474129E+04  0.93318185643E+03 0.  0.
        5    1    3    3  502    0  0.43765702206E+03 -0.21103998127E+02 -0.77678072341E+03  0.89185168607E+03  0.46999998093E+01 0. -1.
       -5    1    3    3    0  502 -0.43765702206E+03  0.21103998127E+02 -0.28987847811E+03  0.52539572682E+03  0.46999998093E+01 0.  1.
</event>
<event>
 5   0  0.9471140E-03  0.9917868E+03  0.7818609E-02  0.9317599E-01
       -1   -1    0    0    0  501  0.00000000000E+00  0.00000000000E+00  0.95369453279E+02  0.95369453412E+02  0.50400001928E-02 0. -1.
        1   -1    0    0  501    0  0.00000000000E+00  0.00000000000E+00 -0.25785011451E+04  0.25785011451E+04  0.50400001928E-02 0.  1.
    10030    2    1    2    0    0  0.00000000000E+00  0.00000000000E+00 -0.24831316918E+04  0.26738705985E+04  0.99178676069E+03 0.  0.
        4    1    3    3  502    0  0.19789079559E+03 -0.40649933364E+03 -0.69230538238E+03  0.82685599145E+03  0.12699999809E+01 0.  1.
       -4    1    3    3    0  502 -0.19789079559E+03  0.40649933364E+03 -0.17908263094E+04  0.18470146070E+04  0.12699999809E+01 0. -1.
</event>
<event>
 5   0  0.1000773E-02  0.6278005E+03  0.7818609E-02  0.9849350E-01
        1   -1    0    0  501    0  0.00000000000E+00  0.00000000000E+00  0.32756097391E+03  0.32756097394E+03  0.50400001928E-02 0. -1.
       -1   -1    0    0    0  501  0.00000000000E+00  0.00000000000E+00 -0.30080920944E+03  0.30080920948E+03  0.50400001928E-02 0.  1.
    10030    2    1    2    0    0  0.00000000000E+00  0.00000000000E+00  0.26751764470E+02  0.62837018342E+03  0.62780047030E+03 0.  0.
        3    1    3    3  502    0  0.91064780653E+02 -0.21813308554E+03 -0.19335091410E+03  0.30538405896E+03  0.10100000352E+00 0.  1.
       -3    1    3    3    0  502 -0.91064780653E+02  0.21813308554E+03  0.22010267857E+03  0.32298612446E+03  0.10100000352E+00 0. -1.
</event>
<event>
 5   0  0.6314750E-03  0.9150442E+03  0.7818609E-02  0.9406968E-01
       -3   -1    0    0    0  501  0.00000000000E+00  0.00000000000E+00  0.15585117399E+03  0.15585120672E+03  0.10100000352E+00 0. -1.
        3   -1    0    0  501    0  0.00000000000E+00  0.00000000000E+00 -0.13431175662E+04  0.13431175700E+04  0.10100000352E+00 0.  1.
    10030    2    1    2    0    0  0.00000000000E+00  0.00000000000E+00 -0.11872663922E+04  0.14989687767E+04  0.91504421070E+03 0.  0.
        3    1    3    3  502    0  0.20749818088E+03  0.27914078981E+03 -0.10671365407E+03  0.36381711033E+03  0.10100000352E+00 0. -1.
       -3    1    3    3    0  502 -0.20749818088E+03 -0.27914078981E+03 -0.10805527382E+04  0.11351516664E+04  0.10100000352E+00 0.  1.
</event>
<event>
 5   0  0.9759443E-03  0.1026152E+04  0.7818609E-02  0.9280318E-01
       -1   -1    0    0    0  501  0.00000000000E+00  0.00000000000E+00  0.22658722364E+03  0.22658722369E+03  0.50400001928E-02 0.  1.
        1   -1    0    0  501    0  0.00000000000E+00  0.00000000000E+00 -0.11617902361E+04  0.11617902362E+04  0.50400001928E-02 0. -1.
    10030    2    1    2    0    0  0.00000000000E+00  0.00000000000E+00 -0.93520301251E+03  0.13883774598E+04  0.10261516927E+04 0.  0.
        2    1    3    3  502    0 -0.17033011647E+03 -0.27716112844E+03  0.69208594632E+02  0.33259655632E+03  0.25500000920E-02 0.  1.
       -2    1    3    3    0  502  0.17033011647E+03  0.27716112844E+03 -0.10044116071E+04  0.10557809035E+04  0.25500000920E-02 0. -1.
</event>
<event>
 5   0  0.6314750E-03  0.9675935E+03  0.7818609E-02  0.9344820E-01
        3   -1    0    0  501    0  0.00000000000E+00  0.00000000000E+00  0.12912670837E+03  0.12912674787E+03  0.10100000352E+00 0.  1.
       -3   -1    0    0    0  501  0.00000000000E+00  0.00000000000E+00 -0.18126322355E+04  0.18126322384E+04  0.10100000352E+00 0. -1.
    10030    2    1    2    0    0  0.00000000000E+00  0.00000000000E+00 -0.16835055272E+04  0.19417589862E+04  0.96759345830E+03 0.  0.
        5    1    3    3  502    0 -0.98919012999E+02 -0.71389490122E+02 -0.17812139449E+04  0.17853925725E+04  0.46999998093E+01 0. -1.
       -5    1    3    3    0  502  0.98919012999E+02  0.71389490122E+02  0.97708417757E+02  0.15636641369E+03  0.46999998093E+01 0.  1.
</event>
<event>
 5   0  0.1656859E-02  0.1009751E+04  0.7818609E-02  0.9297914E-01
       -2   -1    0    0    0  501  0.00000000000E+00  0.00000000000E+00  0.12956099485E+03  0.12956099487E+03  0.25500000920E-02 0. -1.
        2   -1    0    0  501    0  0.00000000000E+00  0.00000000000E+00 -0.19674080672E+04  0.19674080672E+04  0.25500000920E-02 0.  1.
    10030    2    1    2    0    0  0.00000000000E+00  0.00000000000E+00 -0.18378470724E+04  0.20969690621E+04  0.10097511505E+04 0.  0.
        4    1    3    3  502    0  0.14080522489E+03 -0.46402253620E+03 -0.12108093414E+04  0.13043020737E+04  0.12699999809E+01 0.  1.
       -4    1    3    3    0  502 -0.14080522489E+03  0.46402253620E+03 -0.62703773097E+03  0.79266698835E+03  0.12699999809E+01 0. -1.
</event>
<event>
 5   0  0.9507815E-03  0.1013400E+04  0.7818609E-02  0.9293969E-01
        1   -1    0    0  501    0  0.00000000000E+00  0.00000000000E+00  0.38014705164E+03  0.38014705168E+03  0.50400001928E-02 0. -1.
       -1   -1    0    0    0  501  0.00000000000E+00  0.00000000000E+00 -0.67538291677E+03  0.67538291679E+03  0.50400001928E-02 0.  1.
    10030    2    1    2    0    0  0.00000000000E+00  0.00000000000E+00 -0.29523586513E+03  0.10555299685E+04  0.10133998709E+04 0.  0.
        1    1    3    3  502    0  0.29618209393E+03  0.21040261351E+03 -0.51550372472E+03  0.63066408076E+03  0.50400001928E-02 0.  1.
       -1    1    3    3    0  502 -0.29618209393E+03 -0.21040261351E+03  0.22026785959E+03  0.42486588770E+03  0.50400001928E-02 0. -1.
</event>
<event>
 5   0  0.1000773E-02  0.9863986E+03  0.7818609E-02  0.9323590E-01
        1   -1    0    0  501    0  0.00000000000E+00  0.00000000000E+00  0.43622586167E+03  0.43622586170E+03  0.50400001928E-02 0.  1.
       -1   -1    0    0    0  501  0.00000000000E+00  0.00000000000E+00 -0.55761380769E+03  0.55761380771E+03  0.50400001928E-02 0. -1.
    10030    2    1    2    0    0  0.00000000000E+00  0.00000000000E+00 -0.12138794601E+03  0.99383966942E+03  0.98639862889E+03 0.  0.
        3    1    3    3  502    0 -0.91421431347E+02  0.65461037635E+02  0.42313948776E+03  0.43782423627E+03  0.10100000352E+00 0.  1.
       -3    1    3    3    0  502  0.91421431347E+02 -0.65461037635E+02 -0.54452743378E+03  0.55601543315E+03  0.10100000352E+00 0. -1.
</event>
<event>
 5   0  0.1571895E-02  0.9898382E+03  0.7818609E-02  0.9319761E-01
       -2   -1    0    0    0  501  0.00000000000E+00  0.00000000000E+00  0.11670930648E+03  0.11670930651E+03  0.25500000920E-02 0. -1.
        2   -1    0    0  501    0  0.00000000000E+00  0.00000000000E+00 -0.20987606780E+04  0.20987606780E+04  0.25500000920E-02 0.  1.
    10030    2    1    2    0    0  0.00000000000E+00  0.00000000000E+00 -0.19820513715E+04  0.22154699845E+04  0.98983817511E+03 0.  0.
        2    1    3    3  502    0 -0.22481628052E+03  0.60778210992E+02 -0.13593229477E+02  0.23328336163E+03  0.25500000920E-02 0. -1.
       -2    1    3    3    0  502  0.22481628052E+03 -0.60778210992E+02 -0.19684581420E+04  0.19821866229E+04  0.25500000920E-02 0.  1.
</event>
<event>
 5   0  0.1656859E-02  0.1007190E+04  0.7818609E-02  0.9300694E-01
        2   -1    0    0  501    0  0.00000000000E+00  0.00000000000E+00  0.94672435326E+03  0.94672435326E+03  0.25500000920E-02 0. -1.
       -2   -1    0    0    0  501  0.00000000000E+00  0.00000000000E+00 -0.26787923997E+03  0.26787923998E+03  0.25500000920E-02 0.  1.
    10030    2    1    2    0    0  0.00000000000E+00  0.00000000000E+00  0.67884511328E+03  0.12146035932E+04  0.10071897542E+04 0.  0.
        4    1    3    3  502    0  0.36571218936E+03 -0.16042154139E+02 -0.77634123488E+02  0.37420773133E+03  0.12699999809E+01 0.  1.
       -4    1    3    3    0  502 -0.36571218936E+03  0.16042154139E+02  0.75647923677E+03  0.84039586191E+03  0.12699999809E+01 0. -1.
</event>
<event>
 5   0  0.9396660E-03  0.1000171E+04  0.7818609E-02  0.9308357E-01
        1   -1    0    0  501    0  0.00000000000E+00  0.00000000000E+00  0.78043485518E+03  0.78043485520E+03  0.50400001928E-02 0.  1.
       -1   -1    0    0    0  501  0.00000000000E+00  0.00000000000E+00 -0.32044384041E+03  0.32044384045E+03  0.50400001928E-02 0. -1.
    10030    2    1    2    0    0  0.00000000000E+00  0.00000000000E+00  0.45999101477E+03  0.11008786956E+04  0.10001710698E+04 0.  0.
        5    1    3    3  502    0 -0.49661511428E+03  0.40464607302E+02  0.18330370632E+03  0.53092965158E+03  0.46999998093E+01 0.  1.
       -5    1    3    3    0  502  0.49661511428E+03 -0.40464607302E+02  0.27668730845E+03  0.56994904407E+03  0.46999998093E+01 0. -1.
</event>
<event>
 5   0  0.1656859E-02  0.9797636E+03  0.7818609E-02  0.9331022E-01
        2   -1    0    0  501    0  0.00000000000E+00  0.00000000000E+00  0.64140066325E+03  0.64140066326E+03  0.25500000920E-02 0.  1.
       -2   -1    0    0    0  501  0.00000000000E+00  0.00000000000E+00 -0.37415644608E+03  0.37415644609E+03  0.25500000920E-02 0. -1.
    10030    2    1    2    0    0  0.00000000000E+00  0.00000000000E+00  0.26724421717E+03  0.10155571093E+04  0.97976363003E+03 0.  0.
        4    1    3    3  502    0  0.41471571793E+03  0.20829640092E+03 -0.28971735094E+02  0.46499192646E+03  0.12699999809E+01 0.  1.
       -4    1    3    3    0  502 -0.41471571793E+03 -0.20829640092E+03  0.29621595226E+03  0.55056518289E+03  0.12699999809E+01 0. -1.
</event>
<event>
 5   0  0.9759443E-03  0.1027562E+04  0.7818609E-02  0.9278822E-01
       -1   -1    0    0    0  501  0.00000000000E+00  0.00000000000E+00  0.39400541171E+03  0.39400541175E+03  0.50400001928E-02 0. -1.
        1   -1    0    0  501    0  0.00000000000E+00  0.00000000000E+00 -0.66996723767E+03  0.66996723769E+03  0.50400001928E-02 0.  1.
    10030    2    1    2    0    0  0.00000000000E+00  0.00000000000E+00 -0.27596182596E+03  0.10639726494E+04  0.10275616134E+04 0.  0.
        2    1    3    3  502    0 -0.41184768322E+03  0.15436877798E+03 -0.41295159521E+03  0.60330527412E+03  0.25500000920E-02 0.  1.
       -2    1    3    3    0  502  0.41184768322E+03 -0.15436877798E+03  0.13698976925E+03  0.46066737531E+03  0.25500000920E-02 0. -1.
</event>
<event>
 5   0  0.1617721E-02  0.9879145E+03  0.7818609E-02  0.9321900E-01
        2   -1    0    0  501    0  0.00000000000E+00  0.00000000000E+00  0.67041009669E+03  0.67041009670E+03  0.25500000920E-02 0. -1.
       -2   -1    0    0    0  501  0.00000000000E+00  0.00000000000E+00 -0.36394703754E+03  0.36394703755E+03  0.25500000920E-02 0.  1.
    10030    2    1    2    0    0  0.00000000000E+00  0.00000000000E+00  0.30646305915E+03  0.10343571342E+04  0.98791450771E+03 0.  0.
        5    1    3    3  502    0 -0.11555881899E+03  0.23633524338E+03 -0.28446842993E+03  0.38749524582E+03  0.46999998093E+01 0.  1.
       -5    1    3    3    0  502  0.11555881899E+03 -0.23633524338E+03  0.59093148908E+03  0.64686188843E+03  0.46999998093E+01 0. -1.
</event>
<event>
 5   0  0.9759443E-03  0.9769386E+03  0.7818609E-02  0.9334206E-01
        1   -1    0    0  501    0  0.00000000000E+00  0.00000000000E+00  0.61028692701E+03  0.61028692703E+03  0.50400001928E-02 0.  1.
       -1   -1    0    0    0  501  0.00000000000E+00  0.00000000000E+00 -0.39096735910E+03  0.39096735913E+03  0.50400001928E-02 0. -1.
    10030    2    1    2    0    0  0.00000000000E+00  0.00000000000E+00  0.21931956791E+03  0.10012542862E+04  0.97693862278E+03 0.  0.
        2    1    3    3  502    0 -0.37258051804E+03  0.12966021768E+03  0.40488183019E+03  0.56529400395E+03  0.25500000920E-02 0. -1.
       -2    1    3    3    0  502  0.37258051804E+03 -0.12966021768E+03 -0.18556226228E+03  0.43596028221E+03  0.25500000920E-02 0.  1.
</event>
<event>
 5   0  0.1598986E-02  0.1024636E+04  0.7818609E-02  0.9281930E-01
        2   -1    0    0  501    0  0.00000000000E+00  0.00000000000E+00  0.40278437457E+03  0.40278437457E+03  0.25500000920E-02 0.  1.
       -2   -1    0    0    0  501  0.00000000000E+00  0.00000000000E+00 -0.65163790432E+03  0.65163790432E+03  0.25500000920E-02 0. -1.
    10030    2    1    2    0    0  0.00000000000E+00  0.00000000000E+00 -0.24885352975E+03  0.10544222789E+04  0.10246356733E+04 0.  0.
        3    1    3    3  502    0 -0.28490787339E+03  0.73982149504E+01  0.31367491117E+03  0.42381504221E+03  0.10100000352E+00 0.  1.
       -3    1    3    3    0  502  0.28490787339E+03 -0.73982149504E+01 -0.56252844093E+03  0.63060723669E+03  0.10100000352E+00 0. -1.
</event>
<event>
 5   0  0.6314750E-03  0.9902976E+03  0.7818609E-02  0.9319251E-01
        4   -1    0    0  501    0  0.00000000000E+00  0.00000000000E+00  0.57746690589E+03  0.57746830242E+03  0.12699999809E+01 0. -1.
       -4   -1    0    0    0  501  0.00000000000E+00  0.00000000000E+00 -0.42456232728E+03  0.42456422677E+03  0.12699999809E+01 0.  1.
    10030    2    1    2    0    0  0.00000000000E+00  0.00000000000E+00  0.15290457861E+03  0.10020325292E+04  0.99029762162E+03 0.  0.
        4    1    3    3  502    0 -0.33947492799E+02  0.42097813422E+03  0.33796353546E+03  0.54092142309E+03  0.12699999809E+01 0. -1.
       -4    1    3    3    0  502  0.33947492799E+02 -0.42097813422E+03 -0.18505895685E+03  0.46111110610E+03  0.12699999809E+01 0.  1.
</event>
<event>
 5   0  0.1571895E-02  0.1054765E+04  0.7818609E-02  0.9250438E-01
       -2   -1    0    0    0  501  0.00000000000E+00  0.00000000000E+00  0.18021554375E+03  0.18021554377E+03  0.25500000920E-02 0. -1.
        2   -1    0    0  501    0  0.00000000000E+00  0.00000000000E+00 -0.15433311941E+04  0.15433311941E+04  0.25500000920E-02 0.  1.
    10030    2    1    2    0    0  0.00000000000E+00  0.00000000000E+00 -0.13631156504E+04  0.17235467379E+04  0.10547649413E+04 0.  0.
        2    1    3    3  502    0 -0.50428158311E+03 -0.13549602231E+03 -0.56066866171E+03  0.76616475731E+03  0.25500000920E-02 0. -1.
       -2    1    3    3    0  502  0.50428158311E+03  0.13549602231E+03 -0.80244698867E+03  0.95738198059E+03  0.25500000920E-02 0.  1.
</event>
<event>
 5   0  0.6314750E-03  0.1005202E+04  0.7818609E-02  0.9302858E-01
       -3   -1    0    0    0  501  0.00000000000E+00  0.00000000000E+00  0.50567405555E+03  0.50567406564E+03  0.10100000352E+00 0.  1.
        3   -1    0    0  501    0  0.00000000000E+00  0.00000000000E+00 -0.49954658223E+03  0.49954659244E+03  0.10100000352E+00 0. -1.
    10030    2    1    2    0    0  0.00000000000E+00  0.00000000000E+00  0.61274733164E+01  0.10052206581E+04  0.10052019824E+04 0.  0.
        2    1    3    3  502    0 -0.27402317518E+03 -0.40021261948E+03  0.13478146400E+03  0.50341323421E+03  0.25500000920E-02 0.  1.
       -2    1    3    3    0  502  0.27402317518E+03  0.40021261948E+03 -0.12865399069E+03  0.50180742387E+03  0.25500000920E-02 0. -1.
</event>
<event>
 5   0  0.1656859E-02  0.1026154E+04  0.7818609E-02  0.9280316E-01
       -2   -1    0    0    0  501  0.00000000000E+00  0.00000000000E+00  0.16435678962E+03  0.16435678964E+03  0.25500000920E-02 0.  1.
        2   -1    0    0  501    0  0.00000000000E+00  0.00000000000E+00 -0.16016848867E+04  0.16016848867E+04  0.25500000920E-02 0. -1.
    10030    2    1    2    0    0  0.00000000000E+00  0.00000000000E+00 -0.14373280971E+04  0.17660416764E+04  0.10261535674E+04 0.  0.
        4    1    3    3  502    0 -0.57602393121E+02 -0.39428478005E+03 -0.16240191047E+03  0.43029584811E+03  0.12699999809E+01 0.  1.
       -4    1    3    3    0  502  0.57602393121E+02  0.39428478005E+03 -0.12749261866E+04  0.13357458283E+04  0.12699999809E+01 0. -1.
</event>
<event>
 5   0  0.1617721E-02  0.9761999E+03  0.7818609E-02  0.9335041E-01
        2   -1    0    0  501    0  0.00000000000E+00  0.00000000000E+00  0.12203785906E+04  0.12203785906E+04  0.25500000920E-02 0. -1.
       -2   -1    0    0    0  501  0.00000000000E+00  0.00000000000E+00 -0.19521937044E+03  0.19521937046E+03  0.25500000920E-02 0.  1.
    10030    2    1    2    0    0  0.00000000000E+00  0.00000000000E+00  0.10251592202E+04  0.14155979611E+04  0.97619985696E+03 0.  0.
        5    1    3    3  502    0 -0.16523370241E+03  0.56177521815E+02 -0.14839317518E+03  0.22913034458E+03  0.46999998093E+01 0.  1.
       -5    1    3    3    0  502  0.16523370241E+03 -0.56177521815E+02  0.11735523954E+04  0.11864676165E+04  0.46999998093E+01 0. -1.
</event>
<event>
 5   0  0.9471140E-03  0.1002805E+04  0.7818609E-02  0.9305474E-01
       -1   -1    0    0    0  501  0.00000000000E+00  0.00000000000E+00  0.21514689579E+03  0.21514689585E+03  0.50400001928E-02 0.  1.
        1   -1    0    0  501    0  0.00000000000E+00  0.00000000000E+00 -0.11685236333E+04  0.11685236333E+04  0.50400001928E-02 0. -1.
    10030    2    1    2    0    0  0.00000000000E+00  0.00000000000E+00 -0.95337673751E+03  0.13836705292E+04  0.10028045321E+04 0.  0.
        4    1    3    3  502    0  0.40589631175E+03  0.15006133231E+03 -0.82611431490E+03  0.93259674754E+03  0.12699999809E+01 0. -1.
       -4    1    3    3    0  502 -0.40589631175E+03 -0.15006133231E+03 -0.12726242261E+03  0.45107378161E+03  0.12699999809E+01 0.  1.
</event>
<event>
 5   0  0.6314750E-03  0.1055496E+04  0.7818609E-02  0.9249688E-01
        4   -1    0    0  501    0  0.00000000000E+00  0.00000000000E+00  0.39219683361E+03  0.39219888984E+03  0.12699999809E+01 0. -1.
       -4   -1    0    0    0  501  0.00000000000E+00  0.00000000000E+00 -0.71014421219E+03  0.71014534781E+03  0.12699999809E+01 0.  1.
    10030    2    1    2    0    0  0.00000000000E+00  0.00000000000E+00 -0.31794737858E+03  0.11023442377E+04  0.10554962258E+04 0.  0.
        1    1    3    3  502    0 -0.41082942941E+03  0.15454349718E+03 -0.46498656546E+03  0.63943492138E+03  0.50400001928E-02 0.  1.
       -1    1    3    3    0  502  0.41082942941E+03 -0.15454349718E+03  0.14703918688E+03  0.46290931627E+03  0.50400001928E-02 0. -1.
</event>
<event>
 5   0  0.1617721E-02  0.1004233E+04  0.7818609E-02  0.9303914E-01
        2   -1    0    0  501    0  0.00000000000E+00  0.00000000000E+00  0.15512488769E+04  0.15512488769E+04  0.25500000920E-02 0. -1.
       -2   -1    0    0    0  501  0.00000000000E+00  0.00000000000E+00 -0.16252770960E+03  0.16252770962E+03  0.25500000920E-02 0.  1.
    10030    2    1    2    0    0  0.00000000000E+00  0.00000000000E+00  0.13887211673E+04  0.17137765866E+04  0.10042328953E+04 0.  0.
        5    1    3    3  502    0 -0.29925968982E+03  0.61067788451E+02  0.13744453715E+04  0.14079800446E+04  0.46999998093E+01 0. -1.
       -5    1    3    3    0  502  0.29925968982E+03 -0.61067788451E+02  0.14275795837E+02  0.30579654197E+03  0.46999998093E+01 0.  1.
</event>
<event>
 5   0  0.1000773E-02  0.1022996E+04  0.7818609E-02  0.9283677E-01
        1   -1    0    0  501    0  0.00000000000E+00  0.00000000000E+00  0.49894646724E+03  0.49894646727E+03  0.50400001928E-02 0. -1.
       -1   -1    0    0    0  501  0.00000000000E+00  0.00000000000E+00 -0.52436499804E+03  0.52436499807E+03  0.50400001928E-02 0.  1.
    10030    2    1    2    0    0  0.00000000000E+00  0.00000000000E+00 -0.25418530799E+02  0.10233114653E+04  0.10229957250E+04 0.  0.
        3    1    3    3  502    0  0.12362870032E+03 -0.31639590658E+03 -0.39524019679E+03  0.52115760438E+03  0.10100000352E+00 0.  1.
       -3    1    3    3    0  502 -0.12362870032E+03  0.31639590658E+03  0.36982166599E+03  0.50215386096E+03  0.10100000352E+00 0. -1.
</event>
<event>
 5   0  0.1663497E-02  0.9255210E+03  0.7818609E-02  0.9394230E-01
       -2   -1    0    0    0  501  0.00000000000E+00  0.00000000000E+00  0.87562689714E+02  0.87562689751E+02  0.25500000920E-02 0. -1.
        2   -1    0    0  501    0  0.00000000000E+00  0.00000000000E+00 -0.24456450872E+04  0.24456450872E+04  0.25500000920E-02 0.  1.
    10030    2    1    2    0    0  0.00000000000E+00  0.00000000000E+00 -0.23580823975E+04  0.25332077770E+04  0.92552096026E+03 0.  0.
        1    1    3    3  502    0 -0.11076583418E+03  0.16219664607E+03 -0.32181603030E+02  0.19902883615E+03  0.50400001928E-02 0. -1.
       -1    1    3    3    0  502  0.11076583418E+03 -0.16219664607E+03 -0.23259007945E+04  0.23341789408E+04  0.50400001928E-02 0.  1.
</event>
<event>
 5   0  0.9507815E-03  0.1028052E+04  0.7818609E-02  0.9278301E-01
        1   -1    0    0  501    0  0.00000000000E+00  0.00000000000E+00  0.31983116237E+03  0.31983116241E+03  0.50400001928E-02 0. -1.
       -1   -1    0    0    0  501  0.00000000000E+00  0.00000000000E+00 -0.82613266459E+03  0.82613266461E+03  0.50400001928E-02 0.  1.
    10030    2    1    2    0    0  0.00000000000E+00  0.00000000000E+00 -0.50630150222E+03  0.11459638270E+04  0.10280524703E+04 0.  0.
        1    1    3    3  502    0 -0.42078018225E+03  0.24894897744E+03 -0.76228722042E+02  0.49481549413E+03  0.50400001928E-02 0. -1.
       -1    1    3    3    0  502  0.42078018225E+03 -0.24894897744E+03 -0.43007278018E+03  0.65114833289E+03  0.50400001928E-02 0.  1.
</event>
<event>
 5   0  0.1663497E-02  0.7279360E+03  0.7818609E-02  0.9670616E-01
        2   -1    0    0  501    0  0.00000000000E+00  0.00000000000E+00  0.24206085726E+04  0.24206085726E+04  0.25500000920E-02 0. -1.
       -2   -1    0    0    0  501  0.00000000000E+00  0.00000000000E+00 -0.54727021441E+02  0.54727021500E+02  0.25500000920E-02 0.  1.
    10030    2    1    2    0    0  0.00000000000E+00  0.00000000000E+00  0.23658815512E+04  0.24753355941E+04  0.72793597886E+03 0.  0.
        1    1    3    3  502    0 -0.29630347694E+03  0.18932286110E+03  0.86333493263E+03  0.93219424055E+03  0.50400001928E-02 0. -1.
       -1    1    3    3    0  502  0.29630347694E+03 -0.18932286110E+03  0.15025466186E+04  0.15431413536E+04  0.50400001928E-02 0.  1.
</event>
<event>
 5   0  0.1663497E-02  0.9752072E+03  0.7818609E-02  0.9336163E-01
       -2   -1    0    0    0  501  0.00000000000E+00  0.00000000000E+00  0.49102253736E+03  0.49102253737E+03  0.25500000920E-02 0. -1.
        2   -1    0    0  501    0  0.00000000000E+00  0.00000000000E+00 -0.48420848535E+03  0.48420848536E+03  0.25500000920E-02 0.  1.
    10030    2    1    2    0    0  0.00000000000E+00  0.00000000000E+00  0.68140520085E+01  0.97523102273E+03  0.97520721715E+03 0.  0.
        1    1    3    3  502    0 -0.10628853050E+01  0.43019399934E+03 -0.22614001641E+03  0.48601163962E+03  0.50400001928E-02 0. -1.
       -1    1    3    3    0  502  0.10628853050E+01 -0.43019399934E+03  0.23295406842E+03  0.48921938311E+03  0.50400001928E-02 0.  1.
</event>
<event>
 5   0  0.1617721E-02  0.1025896E+04  0.7818609E-02  0.9280590E-01
        2   -1    0    0  501    0  0.00000000000E+00  0.00000000000E+00  0.40944935502E+03  0.40944935503E+03  0.25500000920E-02 0.  1.
       -2   -1    0    0    0  501  0.00000000000E+00  0.00000000000E+00 -0.64260805115E+03  0.64260805116E+03  0.25500000920E-02 0. -1.
    10030    2    1    2    0    0  0.00000000000E+00  0.00000000000E+00 -0.23315869614E+03  0.10520574062E+04  0.10258956128E+04 0.  0.
        5    1    3    3  502    0  0.34503684614E+02 -0.18556592294E+03 -0.60567810547E+03  0.63442357574E+03  0.46999998093E+01 0. -1.
       -5    1    3    3    0  502 -0.34503684614E+02  0.18556592294E+03  0.37251940933E+03  0.41763383045E+03  0.46999998093E+01 0.  1.
</event>
<event>
 5   0  0.1598986E-02  0.9068552E+03  0.7818609E-02  0.9417052E-01
       -2   -1    0    0    0  501  0.00000000000E+00  0.00000000000E+00  0.20891817491E+03  0.20891817493E+03  0.25500000920E-02 0.  1.
        2   -1    0    0  501    0  0.00000000000E+00  0.00000000000E+00 -0.98410100701E+03  0.98410100701E+03  0.25500000920E-02 0. -1.
    10030    2    1    2    0    0  0.00000000000E+00  0.00000000000E+00 -0.77518283209E+03  0.11930191819E+04  0.90685519533E+03 0.  0.
        3    1    3    3  502    0  0.11829615108E+03  0.23951348299E+03  0.94404991735E+02  0.28332490283E+03  0.10100000352E+00 0.  1.
       -3    1    3    3    0  502 -0.11829615108E+03 -0.23951348299E+03 -0.86958782383E+03  0.90969427911E+03  0.10100000352E+00 0. -1.
</event>
<event>
 5   0  0.9759443E-03  0.9896659E+03  0.7818609E-02  0.9319952E-01
        1   -1    0    0  501    0  0.00000000000E+00  0.00000000000E+00  0.17449488108E+04  0.17449488108E+04  0.50400001928E-02 0.  1.
       -1   -1    0    0    0  501  0.00000000000E+00  0.00000000000E+00 -0.14032482573E+03  0.14032482582E+03  0.50400001928E-02 0. -1.
    10030    2    1    2    0    0  0.00000000000E+00  0.00000000000E+00  0.16046239850E+04  0.18852736366E+04  0.98966587872E+03 0.  0.
        2    1    3    3  502    0  0.67445474840E+02  0.26487666503E+03  0.15880959816E+04  0.16114457442E+04  0.25500000920E-02 0.  1.
       -2    1    3    3    0  502 -0.67445474840E+02 -0.26487666503E+03  0.16528003446E+02  0.27382789240E+03  0.25500000920E-02 0. -1.
</event>
<event>
 5   0  0.1000773E-02  0.9951887E+03  0.7818609E-02  0.9313838E-01
       -1   -1    0    0    0  501  0.00000000000E+00  0.00000000000E+00  0.33737199539E+03  0.33737199543E+03  0.50400001928E-02 0.  1.
        1   -1    0    0  501    0  0.00000000000E+00  0.00000000000E+00 -0.73390838139E+03  0.73390838141E+03  0.50400001928E-02 0. -1.
    10030    2    1    2    0    0  0.00000000000E+00  0.00000000000E+00 -0.39653638601E+03  0.10712803768E+04  0.99518869586E+03 0.  0.
        3    1    3    3  502    0  0.20399633237E+03  0.36123974179E+03  0.97496723713E+02  0.42616226488E+03  0.10100000352E+00 0.  1.
       -3    1    3    3    0  502 -0.20399633237E+03 -0.36123974179E+03 -0.49403310972E+03  0.64511811196E+03  0.10100000352E+00 0. -1.
</event>
<event>
 5   0  0.6314750E-03  0.9801817E+03  0.7818609E-02  0.9330552E-01
       -3   -1    0    0    0  501  0.00000000000E+00  0.00000000000E+00  0.14242446777E+03  0.14242450358E+03  0.10100000352E+00 0. -1.
        3   -1    0    0  501    0  0.00000000000E+00  0.00000000000E+00 -0.16864306293E+04  0.16864306323E+04  0.10100000352E+00 0.  1.
    10030    2    1    2    0    0  0.00000000000E+00  0.00000000000E+00 -0.15440061615E+04  0.18288551359E+04  0.98018165729E+03 0.  0.
        4    1    3    3  502    0  0.16776556524E+03  0.45697207813E+03 -0.87785752490E+03  0.10037949053E+04  0.12699999809E+01 0. -1.
       -4    1    3    3    0  502 -0.16776556524E+03 -0.45697207813E+03 -0.66614863660E+03  0.82506023054E+03  0.12699999809E+01 0.  1.
</event>
<event>
 5   0  0.9759443E-03  0.1021057E+04  0.7818609E-02  0.9285747E-01
        1   -1    0    0  501    0  0.00000000000E+00  0.00000000000E+00  0.20244392196E+04  0.20244392196E+04  0.50400001928E-02 0. -1.
       -1   -1    0    0    0  501  0.00000000000E+00  0.00000000000E+00 -0.12874647364E+03  0.12874647373E+03  0.50400001928E-02 0.  1.
    10030    2    1    2    0    0  0.00000000000E+00  0.00000000000E+00  0.18956927459E+04  0.21531856933E+04  0.10210571203E+04 0.  0.
        2    1    3    3  502    0  0.31157734127E+03 -0.10455582695E+03  0.17716945834E+04  0.18019195480E+04  0.25500000920E-02 0. -1.
       -2    1    3    3    0  502 -0.31157734127E+03  0.10455582695E+03  0.12399816254E+03  0.35126614534E+03  0.25500000920E-02 0.  1.
</event>
<event>
 5   0  0.9507815E-03  0.9902860E+03  0.7818609E-02  0.9319264E-01
       -1   -1    0    0    0  501  0.00000000000E+00  0.00000000000E+00  0.29359506899E+03  0.29359506903E+03  0.50400001928E-02 0.  1.
        1   -1    0    0  501    0  0.00000000000E+00  0.00000000000E+00 -0.83505015858E+03  0.83505015859E+03  0.50400001928E-02 0. -1.
    10030    2    1    2    0    0  0.00000000000E+00  0.00000000000E+00 -0.54145508959E+03  0.11286452276E+04  0.99028603736E+03 0.  0.
        1    1    3    3  502    0  0.85586410126E+02  0.16355228028E+03  0.25291257628E+03  0.31311204584E+03  0.50400001928E-02 0.  1.
       -1    1    3    3    0  502 -0.85586410126E+02 -0.16355228028E+03 -0.79436766587E+03  0.81553318178E+03  0.50400001928E-02 0. -1.
</event>
<event>
 5   0  0.1656859E-02  0.1026951E+04  0.7818609E-02  0.9279470E-01
       -2   -1    0    0    0  501  0.00000000000E+00  0.00000000000E+00  0.53422434301E+03  0.53422434301E+03  0.25500000920E-02 0.  1.
        2   -1    0    0  501    0  0.00000000000E+00  0.00000000000E+00 -0.49353207153E+03  0.49353207154E+03  0.25500000920E-02 0. -1.
    10030    2    1    2    0    0  0.00000000000E+00  0.00000000000E+00  0.40692271480E+02  0.10277564145E+04  0.10269505279E+04 0.  0.
        4    1    3    3  502    0 -0.47288498568E+03  0.38642153578E+02 -0.17612860107E+03  0.50609912342E+03  0.12699999809E+01 0. -1.
       -4    1    3    3    0  502  0.47288498568E+03 -0.38642153578E+02  0.21682087255E+03  0.52165729113E+03  0.12699999809E+01 0.  1.
</event>
<event>
 5   0  0.1000773E-02  0.1016645E+04  0.7818609E-02  0.9290475E-01
        1   -1    0    0  501    0  0.00000000000E+00  0.00000000000E+00  0.13560205311E+04  0.13560205311E+04  0.50400001928E-02 0. -1.
       -1   -1    0    0    0  501  0.00000000000E+00  0.00000000000E+00 -0.19055161352E+03  0.19055161359E+03  0.50400001928E-02 0.  1.
    10030    2    1    2    0    0  0.00000000000E+00  0.00000000000E+00  0.11654689175E+04  0.15465721447E+04  0.10166452680E+04 0.  0.
        3    1    3    3  502    0 -0.87505522699E+02 -0.34610859342E+03  0.32252946663E+02  0.35845311788E+03  0.10100000352E+00 0.  1.
       -3    1    3    3    0  502  0.87505522699E+02  0.34610859342E+03  0.11332159709E+04  0.11881190268E+04  0.10100000352E+00 0. -1.
</event>
<event>
 5   0  0.1571895E-02  0.9921909E+03  0.7818609E-02  0.9317151E-01
        2   -1    0    0  501    0  0.00000000000E+00  0.00000000000E+00  0.48490724251E+03  0.48490724251E+03  0.25500000920E-02 0. -1.
       -2   -1    0    0    0  501  0.00000000000E+00  0.00000000000E+00 -0.50754180902E+03  0.50754180903E+03  0.25500000920E-02 0.  1.
    10030    2    1    2    0    0  0.00000000000E+00  0.00000000000E+00 -0.22634566516E+02  0.99244905154E+03  0.99219090719E+03 0.  0.
        2    1    3    3  502    0 -0.29033546074E+03 -0.22979225860E+03  0.31893757131E+03  0.48869247618E+03  0.25500000920E-02 0. -1.
       -2    1    3    3    0  502  0.29033546074E+03  0.22979225860E+03 -0.34157213783E+03  0.50375657536E+03  0.25500000920E-02 0.  1.
</event>
<event>
 5   0  0.9396660E-03  0.9985440E+03  0.7818609E-02  0.9310143E-01
        1   -1    0    0  501    0  0.00000000000E+00  0.00000000000E+00  0.69643160884E+03  0.69643160886E+03  0.50400001928E-02 0. -1.
       -1   -1    0    0    0  501  0.00000000000E+00  0.00000000000E+00 -0.35792821154E+03  0.35792821157E+03  0.50400001928E-02 0.  1.
    10030    2    1    2    0    0  0.00000000000E+00  0.00000000000E+00  0.33850339730E+03  0.10543598204E+04  0.99854398048E+03 0.  0.
        5    1    3    3  502    0 -0.38627648927E+02  0.94538805019E+02 -0.34675777823E+03  0.36151449166E+03  0.46999998093E+01 0.  1.
       -5    1    3    3    0  502  0.38627648927E+02 -0.94538805019E+02  0.68526117553E+03  0.69284532877E+03  0.46999998093E+01 0. -1.
</event>
<event>
 5   0  0.1656859E-02  0.1011905E+04  0.7818609E-02  0.9295583E-01
        2   -1    0    0  501    0  0.00000000000E+00  0.00000000000E+00  0.63797241518E+03  0.63797241519E+03  0.25500000920E-02 0. -1.
       -2   -1    0    0    0  501  0.00000000000E+00  0.00000000000E+00 -0.40125264254E+03  0.40125264255E+03  0.25500000920E-02 0.  1.
    10030    2    1    2    0    0  0.00000000000E+00  0.00000000000E+00  0.23671977264E+03  0.10392250577E+04  0.10119053661E+04 0.  0.
        4    1    3    3  502    0 -0.19741902823E+03 -0.28953824397E+03 -0.25643093867E+03  0.43424083944E+03  0.12699999809E+01 0.  1.
       -4    1    3    3    0  502  0.19741902823E+03  0.28953824397E+03  0.49315071130E+03  0.60498421830E+03  0.12699999809E+01 0. -1.
</event>
<event>
 5   0  0.1663497E-02  0.1016887E+04  0.7818609E-02  0.9290215E-01
        2   -1    0    0  501    0  0.00000000000E+00  0.00000000000E+00  0.28353617124E+03  0.28353617126E+03  0.25500000920E-02 0.  1.
       -2   -1    0    0    0  501  0.00000000000E+00  0.00000000000E+00 -0.91175293111E+03  0.91175293111E+03  0.25500000920E-02 0. -1.
    10030    2    1    2    0    0  0.00000000000E+00  0.00000000000E+00 -0.62821675986E+03  0.11952891024E+04  0.10168872803E+04 0.  0.
        1    1    3    3  502    0  0.10721861458E+03 -0.48331831008E+03 -0.45028956034E+03  0.66921828154E+03  0.50400001928E-02 0. -1.
       -1    1    3    3    0  502 -0.10721861458E+03  0.48331831008E+03 -0.17792719953E+03  0.52607082083E+03  0.50400001928E-02 0.  1.
</event>
<event>
 5   0  0.1663497E-02  0.1027253E+04  0.7818609E-02  0.9279150E-01
       -2   -1    0    0    0  501  0.00000000000E+00  0.00000000000E+00  0.14913316018E+03  0.14913316020E+03  0.25500000920E-02 0.  1.
        2   -1    0    0  501    0  0.00000000000E+00  0.00000000000E+00 -0.17689692537E+04  0.17689692537E+04  0.25500000920E-02 0. -1.
    10030    2    1    2    0    0  0.00000000000E+00  0.00000000000E+00 -0.16198360935E+04  0.19181024139E+04  0.10272525981E+04 0.  0.
        1    1    3    3  502    0  0.66729835546E+02  0.15659739973E+03  0.94933248112E+02  0.19490494652E+03  0.50400001928E-02 0.  1.
       -1    1    3    3    0  502 -0.66729835546E+02 -0.15659739973E+03 -0.17147693416E+04  0.17231974674E+04  0.50400001928E-02 0. -1.
</event>
<event>
 5   0  0.9471140E-03  0.9703606E+03  0.7818609E-02  0.9341664E-01
        1   -1    0    0  501    0  0.00000000000E+00  0.00000000000E+00  0.58197767958E+03  0.58197767960E+03  0.50400001928E-02 0.  1.
       -1   -1    0    0    0  501  0.00000000000E+00  0.00000000000E+00 -0.40448271638E+03  0.40448271642E+03  0.50400001928E-02 0. -1.
    10030    2    1    2    0    0  0.00000000000E+00  0.00000000000E+00  0.17749496320E+03  0.98646039602E+03  0.97036057780E+03 0.  0.
        4    1    3    3  502    0 -0.33225367587E+03  0.35323053064E+03  0.10429790828E+03  0.49602820432E+03  0.12699999809E+01 0. -1.
       -4    1    3    3    0  502  0.33225367587E+03 -0.35323053064E+03  0.73197054921E+02  0.49043219170E+03  0.12699999809E+01 0.  1.
</event>
<event>
 5   0  0.1656859E-02  0.9768522E+03  0.7818609E-02  0.9334304E-01
        2   -1    0    0  501    0  0.00000000000E+00  0.00000000000E+00  0.49361303985E+03  0.49361303986E+03  0.25500000920E-02 0.  1.
       -2   -1    0    0    0  501  0.00000000000E+00  0.00000000000E+00 -0.48329369867E+03  0.48329369867E+03  0.25500000920E-02 0. -1.
    10030    2    1    2    0    0  0.00000000000E+00  0.00000000000E+00  0.10319341183E+02  0.97690673853E+03  0.97685223396E+03 0.  0.
        4    1    3    3  502    0  0.47854734824E+03  0.62190150563E+02 -0.70232064647E+02  0.48765698512E+03  0.12699999809E+01 0. -1.
       -4    1    3    3    0  502 -0.47854734824E+03 -0.62190150563E+02  0.80551405830E+02  0.48924975341E+03  0.12699999809E+01 0.  1.
</event>
<event>
 5   0  0.1656859E-02  0.1008842E+04  0.7818609E-02  0.9298900E-01
       -2   -1    0    0    0  501  0.00000000000E+00  0.00000000000E+00  0.28055709421E+03  0.28055709422E+03  0.25500000920E-02 0. -1.
        2   -1    0    0  501    0  0.00000000000E+00  0.00000000000E+00 -0.90691195120E+03  0.90691195121E+03  0.25500000920E-02 0.  1.
    10030    2    1    2    0    0  0.00000000000E+00  0.00000000000E+00 -0.62635485699E+03  0.11874690454E+04  0.10088420724E+04 0.  0.
        4    1    3    3  502    0  0.43294341294E+03 -0.25881050961E+03 -0.31789892036E+03  0.59622497025E+03  0.12699999809E+01 0. -1.
       -4    1    3    3    0  502 -0.43294341294E+03  0.25881050961E+03 -0.30845593663E+03  0.59124407518E+03  0.12699999809E+01 0.  1.
</event>
<event>
 5   0  0.6314750E-03  0.1018849E+04  0.7818609E-02  0.9288110E-01
        4   -1    0    0  501    0  0.00000000000E+00  0.00000000000E+00  0.51692511067E+03  0.51692667076E+03  0.12699999809E+01 0.  1.
       -4   -1    0    0    0  501  0.00000000000E+00  0.00000000000E+00 -0.50202955041E+03  0.50203115679E+03  0.12699999809E+01 0. -1.
    10030    2    1    2    0    0  0.00000000000E+00  0.00000000000E+00  0.14895560259E+02  0.10189578275E+04  0.10188489469E+04 0.  0.
        3    1    3    3  502    0  0.21112746734E+03 -0.33038174939E+03  0.33273071446E+03  0.51423403849E+03  0.10100000352E+00 0.  1.
       -3    1    3    3    0  502 -0.21112746734E+03  0.33038174939E+03 -0.31783515420E+03  0.50472378906E+03  0.10100000352E+00 0. -1.
</event>
<event>
 5   0  0.1663497E-02  0.1003745E+04  0.7818609E-02  0.9304447E-01
       -2   -1    0    0    0  501  0.00000000000E+00  0.00000000000E+00  0.11958696722E+03  0.11958696725E+03  0.25500000920E-02 0. -1.
        2   -1    0    0  501    0  0.00000000000E+00  0.00000000000E+00 -0.21062149998E+04  0.21062149998E+04  0.25500000920E-02 0.  1.
    10030    2    1    2    0    0  0.00000000000E+00  0.00000000000E+00 -0.19866280326E+04  0.22258019671E+04  0.10037447169E+04 0.  0.
        1    1    3    3  502    0  0.39280234636E+03 -0.30593007603E+03 -0.85326063359E+03  0.98789706123E+03  0.50400001928E-02 0.  1.
       -1    1    3    3    0  502 -0.39280234636E+03  0.30593007603E+03 -0.11333673990E+04  0.12379049058E+04  0.50400001928E-02 0. -1.
</event>
<event>
 5   0  0.9396660E-03  0.1076240E+04  0.7818609E-02  0.9228664E-01
       -1   -1    0    0    0  501  0.00000000000E+00  0.00000000000E+00  0.47645921494E+03  0.47645921497E+03  0.50400001928E-02 0. -1.
        1   -1    0    0  501    0  0.00000000000E+00  0.00000000000E+00 -0.60776063955E+03  0.60776063958E+03  0.50400001928E-02 0.  1.
    10030    2    1    2    0    0  0.00000000000E+00  0.00000000000E+00 -0.13130142461E+03  0.10842198545E+04  0.10762400424E+04 0.  0.
        5    1    3    3  502    0  0.19196486847E+03 -0.49956528347E+03 -0.92437381339E+01  0.53527891783E+03  0.46999998093E+01 0. -1.
       -5    1    3    3    0  502 -0.19196486847E+03  0.49956528347E+03 -0.12205768648E+03  0.54894093672E+03  0.46999998093E+01 0.  1.
</event>
<event>
 5   0  0.9396660E-03  0.5729212E+03  0.7818609E-02  0.9963235E-01
        1   -1    0    0  501    0  0.00000000000E+00  0.00000000000E+00  0.67790704680E+02  0.67790704867E+02  0.50400001928E-02 0. -1.
       -1   -1    0    0    0  501  0.00000000000E+00  0.00000000000E+00 -0.12104857518E+04  0.12104857518E+04  0.50400001928E-02 0.  1.
    10030    2    1    2    0    0  0.00000000000E+00  0.00000000000E+00 -0.11426950471E+04  0.12782764567E+04  0.57292122407E+03 0.  0.
        5    1    3    3  502    0  0.13912859720E+03  0.15977580821E+03 -0.10014025209E+04  0.10235791002E+04  0.46999998093E+01 0.  1.
       -5    1    3    3    0  502 -0.13912859720E+03 -0.15977580821E+03 -0.14129252622E+03  0.25469735651E+03  0.46999998093E+01 0. -1.
</event>
<event>
 5   0  0.9396660E-03  0.9940581E+03  0.7818609E-02  0.9315086E-01
        1   -1    0    0  501    0  0.00000000000E+00  0.00000000000E+00  0.12536934755E+04  0.12536934755E+04  0.50400001928E-02 0. -1.
       -1   -1    0    0    0  501  0.00000000000E+00  0.00000000000E+00 -0.19704806111E+03  0.19704806117E+03  0.50400001928E-02 0.  1.
    10030    2    1    2    0    0  0.00000000000E+00  0.00000000000E+00  0.10566454144E+04  0.14507415367E+04  0.99405808409E+03 0.  0.
        5    1    3    3  502    0 -0.58665006245E+02  0.22912308499E+03  0.11662662891E+04  0.11900160159E+04  0.46999998093E+01 0. -1.
       -5    1    3    3    0  502  0.58665006245E+02 -0.22912308499E+03 -0.10962087468E+03  0.26072552080E+03  0.46999998093E+01 0.  1.
</event>
<event>
 5   0  0.9759443E-03  0.1021043E+04  0.7818609E-02  0.9285761E-01
        1   -1    0    0  501    0  0.00000000000E+00  0.00000000000E+00  0.55509026376E+03  0.55509026379E+03  0.50400001928E-02 0.  1.
       -1   -1    0    0    0  501  0.00000000000E+00  0.00000000000E+00 -0.46953146290E+03  0.46953146293E+03  0.50400001928E-02 0. -1.
    10030    2    1    2    0    0  0.00000000000E+00  0.00000000000E+00  0.85558800861E+02  0.10246217267E+04  0.10210432775E+04 0.  0.
        2    1    3    3  502    0 -0.41819306874E+03  0.25360628435E+03  0.18968492555E+03  0.52457788858E+03  0.25500000920E-02 0.  1.
       -2    1    3    3    0  502  0.41819306874E+03 -0.25360628435E+03 -0.10412612469E+03  0.50004383813E+03  0.25500000920E-02 0. -1.
</event>
<event>
 5   0  0.1598986E-02  0.9549204E+03  0.7818609E-02  0.9359418E-01
       -2   -1    0    0    0  501  0.00000000000E+00  0.00000000000E+00  0.15643860045E+03  0.15643860047E+03  0.25500000920E-02 0. -1.
        2   -1    0    0  501    0  0.00000000000E+00  0.00000000000E+00 -0.14572378399E+04  0.14572378399E+04  0.25500000920E-02 0.  1.
    10030    2    1    2    0    0  0.00000000000E+00  0.00000000000E+00 -0.13007992394E+04  0.16136764404E+04  0.95492041179E+03 0.  0.
        3    1    3    3  502    0  0.22905886148E+03 -0.24810466631E+02  0.56284302306E+02  0.23717389014E+03  0.10100000352E+00 0. -1.
       -3    1    3    3    0  502 -0.22905886148E+03  0.24810466631E+02 -0.13570835417E+04  0.13765025502E+04  0.10100000352E+00 0.  1.
</event>
<event>
 5   0  0.1617721E-02  0.1000400E+04  0.7818609E-02  0.9308107E-01
       -2   -1    0    0    0  501  0.00000000000E+00  0.00000000000E+00  0.99871511241E+03  0.99871511242E+03  0.25500000920E-02 0. -1.
        2   -1    0    0  501    0  0.00000000000E+00  0.00000000000E+00 -0.25052175981E+03  0.25052175982E+03  0.25500000920E-02 0.  1.
    10030    2    1    2    0    0  0.00000000000E+00  0.00000000000E+00  0.74819335260E+03  0.12492368722E+04  0.10003996552E+04 0.  0.
        5    1    3    3  502    0  0.28956268671E+03  0.31598514080E+03  0.69607886809E+03  0.81746011483E+03  0.46999998093E+01 0. -1.
       -5    1    3    3    0  502 -0.28956268671E+03 -0.31598514080E+03  0.52114484511E+02  0.43177675740E+03  0.46999998093E+01 0.  1.
</event>
<event>
 5   0  0.1571895E-02  0.1033900E+04  0.7818609E-02  0.9272126E-01
       -2   -1    0    0    0  501  0.00000000000E+00  0.00000000000E+00  0.13229690237E+03  0.13229690239E+03  0.25500000920E-02 0. -1.
        2   -1    0    0  501    0  0.00000000000E+00  0.00000000000E+00 -0.20199822470E+04  0.20199822470E+04  0.25500000920E-02 0.  1.
    10030    2    1    2    0    0  0.00000000000E+00  0.00000000000E+00 -0.18876853446E+04  0.21522791494E+04  0.10339001773E+04 0.  0.
        2    1    3    3  502    0  0.34945925829E+03 -0.36495463051E+03 -0.71652865787E+03  0.87677076428E+03  0.25500000920E-02 0. -1.
       -2    1    3    3    0  502 -0.34945925829E+03  0.36495463051E+03 -0.11711566867E+04  0.12755083851E+04  0.25500000920E-02 0.  1.
</event>
<event>
 5   0  0.9759443E-03  0.1024031E+04  0.7818609E-02  0.9282574E-01
        1   -1    0    0  501    0  0.00000000000E+00  0.00000000000E+00  0.60734024602E+03  0.60734024604E+03  0.50400001928E-02 0.  1.
       -1   -1    0    0    0  501  0.00000000000E+00  0.00000000000E+00 -0.43165235542E+03  0.43165235545E+03  0.50400001928E-02 0. -1.
    10030    2    1    2    0    0  0.00000000000E+00  0.00000000000E+00  0.17568789060E+03  0.10389926015E+04  0.10240309522E+04 0.  0.
        2    1    3    3  502    0  0.14040830142E+03  0.41697573823E+03  0.35354135189E+03  0.56442425965E+03  0.25500000920E-02 0.  1.
       -2    1    3    3    0  502 -0.14040830142E+03 -0.41697573823E+03 -0.17785346129E+03  0.47456834184E+03  0.25500000920E-02 0. -1.
</event>
<event>
 5   0  0.1663497E-02  0.9984532E+03  0.7818609E-02  0.9310243E-01
        2   -1    0    0  501    0  0.00000000000E+00  0.00000000000E+00  0.81218560453E+03  0.81218560453E+03  0.25500000920E-02 0.  1.
       -2   -1    0    0    0  501  0.00000000000E+00  0.00000000000E+00 -0.30685988732E+03  0.30685988733E+03  0.25500000920E-02 0. -1.
    10030    2    1    2    0    0  0.00000000000E+00  0.00000000000E+00  0.50532571721E+03  0.11190454919E+04  0.99845316985E+03 0.  0.
        1    1    3    3  502    0  0.93685032929E+02  0.47402643827E+03  0.39331610250E+03  0.62303732319E+03  0.50400001928E-02 0.  1.
       -1    1    3    3    0  502 -0.93685032929E+02 -0.47402643827E+03  0.11200961471E+03  0.49600816867E+03  0.50400001928E-02 0. -1.
</event>
<event>
 5   0  0.6314750E-03  0.9959730E+03  0.7818609E-02  0.9312973E-01
        3   -1    0    0  501    0  0.00000000000E+00  0.00000000000E+00  0.24752704775E+03  0.24752706835E+03  0.10100000352E+00 0.  1.
       -3   -1    0    0    0  501  0.00000000000E+00  0.00000000000E+00 -0.10018725086E+04  0.10018725137E+04  0.10100000352E+00 0. -1.
    10030    2    1    2    0    0  0.00000000000E+00  0.00000000000E+00 -0.75434546087E+03  0.12493995821E+04  0.99597301235E+03 0.  0.
        1    1    3    3  502    0 -0.18638606631E+03 -0.42924908651E+03 -0.59078340598E+03  0.75367073500E+03  0.50400001928E-02 0. -1.
       -1    1    3    3    0  502  0.18638606631E+03  0.42924908651E+03 -0.16356205488E+03  0.49572884706E+03  0.50400001928E-02 0.  1.
</event>
<event>
 5   0  0.6314750E-03  0.9915238E+03  0.7818609E-02  0.9317891E-01
        4   -1    0    0  501    0  0.00000000000E+00  0.00000000000E+00  0.66020222696E+03  0.66020344848E+03  0.12699999809E+01 0. -1.
       -4   -1    0    0    0  501  0.00000000000E+00  0.00000000000E+00 -0.37227698302E+03  0.37227914928E+03  0.12699999809E+01 0.  1.
    10030    2    1    2    0    0  0.00000000000E+00  0.00000000000E+00  0.28792524394E+03  0.10324825978E+04  0.99152376097E+03 0.  0.
        1    1    3    3  502    0 -0.39837764941E+03 -0.28722833262E+03  0.21439526745E+03  0.53588263392E+03  0.50400001928E-02 0. -1.
       -1    1    3    3    0  502  0.39837764941E+03  0.28722833262E+03  0.73529976493E+02  0.49659996383E+03  0.50400001928E-02 0.  1.
</event>
<event>
 5   0  0.9507815E-03  0.9483647E+03  0.7818609E-02  0.9367064E-01
        1   -1    0    0  501    0  0.00000000000E+00  0.00000000000E+00  0.40145811962E+03  0.40145811965E+03  0.50400001928E-02 0.  1.
       -1   -1    0    0    0  501  0.00000000000E+00  0.00000000000E+00 -0.56008055729E+03  0.56008055731E+03  0.50400001928E-02 0. -1.
    10030    2    1    2    0    0  0.00000000000E+00  0.00000000000E+00 -0.15862243767E+03  0.96153867696E+03  0.94836467119E+03 0.  0.
        1    1    3    3  502    0  0.31228162838E+03 -0.32778474732E+03  0.63666260036E+02  0.45718273009E+03  0.50400001928E-02 0. -1.
       -1    1    3    3    0  502 -0.31228162838E+03  0.32778474732E+03 -0.22228869770E+03  0.50435594688E+03  0.50400001928E-02 0.  1.
</event>
<event>
 5   0  0.1000773E-02  0.1065595E+04  0.7818609E-02  0.9239390E-01
       -1   -1    0    0    0  501  0.00000000000E+00  0.00000000000E+00  0.45297214151E+03  0.45297214154E+03  0.50400001928E-02 0.  1.
        1   -1    0    0  501    0  0.00000000000E+00  0.00000000000E+00 -0.62669019995E+03  0.62669019998E+03  0.50400001928E-02 0. -1.
    10030    2    1    2    0    0  0.00000000000E+00  0.00000000000E+00 -0.17371805844E+03  0.10796623415E+04  0.10655950487E+04 0.  0.
        3    1    3    3  502    0  0.19211996584E+03 -0.91011637455E+02 -0.58185739740E+03  0.61947658594E+03  0.10100000352E+00 0. -1.
       -3    1    3    3    0  502 -0.19211996584E+03  0.91011637455E+02  0.40813933895E+03  0.46018575557E+03  0.10100000352E+00 0.  1.
</event>
<event>
 5   0  0.9759443E-03  0.9508707E+03  0.7818609E-02  0.9364133E-01
        1   -1    0    0  501    0  0.00000000000E+00  0.00000000000E+00  0.50174849045E+03  0.50174849048E+03  0.50400001928E-02 0.  1.
       -1   -1    0    0    0  501  0.00000000000E+00  0.00000000000E+00 -0.45050210207E+03  0.45050210210E+03  0.50400001928E-02 0. -1.
    10030    2    1    2    0    0  0.00000000000E+00  0.00000000000E+00  0.51246388382E+02  0.95225059258E+03  0.95087065300E+03 0.  0.
        2    1    3    3  502    0  0.36317892822E+03  0.19507263129E+03  0.26279273710E+03  0.48888882997E+03  0.25500000920E-02 0.  1.
       -2    1    3    3    0  502 -0.36317892822E+03 -0.19507263129E+03 -0.21154634872E+03  0.46336176261E+03  0.25500000920E-02 0. -1.
</event>
<event>
 5   0  0.1000773E-02  0.9971488E+03  0.7818609E-02  0.9311678E-01
       -1   -1    0    0    0  501  0.00000000000E+00  0.00000000000E+00  0.60622443520E+03  0.60622443522E+03  0.50400001928E-02 0.  1.
        1   -1    0    0  501    0  0.00000000000E+00  0.00000000000E+00 -0.41004025511E+03  0.41004025514E+03  0.50400001928E-02 0. -1.
    10030    2    1    2    0    0  0.00000000000E+00  0.00000000000E+00  0.19618418009E+03  0.10162646904E+04  0.99714877944E+03 0.  0.
        3    1    3    3  502    0 -0.14447892863E+03  0.23555542139E+03 -0.32485251577E+03  0.42648526888E+03  0.10100000352E+00 0. -1.
       -3    1    3    3    0  502  0.14447892863E+03 -0.23555542139E+03  0.52103669586E+03  0.58977942148E+03  0.10100000352E+00 0.  1.
</event>
<event>
 5   0  0.9471140E-03  0.1006301E+04  0.7818609E-02  0.9301660E-01
        1   -1    0    0  501    0  0.00000000000E+00  0.00000000000E+00  0.34715078002E+03  0.34715078006E+03  0.50400001928E-02 0. -1.
       -1   -1    0    0    0  501  0.00000000000E+00  0.00000000000E+00 -0.72925268723E+03  0.72925268725E+03  0.50400001928E-02 0.  1.
    10030    2    1    2    0    0  0.00000000000E+00  0.00000000000E+00 -0.38210190721E+03  0.10764034673E+04  0.10063014245E+04 0.  0.
        4    1    3    3  502    0  0.49067260173E+03 -0.10572482629E+03 -0.15366343148E+03  0.52492990395E+03  0.12699999809E+01 0. -1.
       -4    1    3    3    0  502 -0.49067260173E+03  0.10572482629E+03 -0.22843847573E+03  0.55147356335E+03  0.12699999809E+01 0.  1.
</event>
<event>
 5   0  0.9759443E-03  0.9951222E+03  0.7818609E-02  0.9313911E-01
       -1   -1    0    0    0  501  0.00000000000E+00  0.00000000000E+00  0.19702008572E+03  0.19702008579E+03  0.50400001928E-02 0.  1.
        1   -1    0    0  501    0  0.00000000000E+00  0.00000000000E+00 -0.12565574201E+04  0.12565574201E+04  0.50400001928E-02 0. -1.
    10030    2    1    2    0    0  0.00000000000E+00  0.00000000000E+00 -0.10595373344E+04  0.14535775059E+04  0.99512220492E+03 0.  0.
        2    1    3    3  502    0 -0.73549181427E+02 -0.31699450691E+03 -0.10795675683E+04  0.11275465108E+04  0.25500000920E-02 0. -1.
       -2    1    3    3    0  502  0.73549181427E+02  0.31699450691E+03  0.20030233906E+02  0.32603099511E+03  0.25500000920E-02 0.  1.
</event>
<event>
 5   0  0.1571895E-02  0.1001521E+04  0.7818609E-02  0.9306878E-01
       -2   -1    0    0    0  501  0.00000000000E+00  0.00000000000E+00  0.50104736152E+03  0.50104736153E+03  0.25500000920E-02 0.  1.
        2   -1    0    0  501    0  0.00000000000E+00  0.00000000000E+00 -0.50047420379E+03  0.50047420380E+03  0.25500000920E-02 0. -1.
    10030    2    1    2    0    0  0.00000000000E+00  0.00000000000E+00  0.57315772875E+00  0.10015215653E+04  0.10015214013E+04 0.  0.
        2    1    3    3  502    0 -0.37179895821E+03 -0.12278758511E+03  0.31245649230E+03  0.50093943343E+03  0.25500000920E-02 0.  1.
       -2    1    3    3    0  502  0.37179895821E+03  0.12278758511E+03 -0.31188333457E+03  0.50058213189E+03  0.25500000920E-02 0. -1.
</event>
<event>
 5   0  0.9759443E-03  0.9937774E+03  0.7818609E-02  0.9315396E-01
       -1   -1    0    0    0  501  0.00000000000E+00  0.00000000000E+00  0.25939910643E+03  0.25939910648E+03  0.50400001928E-02 0.  1.
        1   -1    0    0  501    0  0.00000000000E+00  0.00000000000E+00 -0.95180898781E+03  0.95180898782E+03  0.50400001928E-02 0. -1.
    10030    2    1    2    0    0  0.00000000000E+00  0.00000000000E+00 -0.69240988138E+03  0.12112080943E+04  0.99377744183E+03 0.  0.
        2    1    3    3  502    0 -0.18287968995E+03 -0.43006580306E+03 -0.14046061428E+03  0.48798643436E+03  0.25500000920E-02 0.  1.
       -2    1    3    3    0  502  0.18287968995E+03  0.43006580306E+03 -0.55194926710E+03  0.72322165994E+03  0.25500000920E-02 0. -1.
</event>
<event>
 5   0  0.9396660E-03  0.1003585E+04  0.7818609E-02  0.9304621E-01
        1   -1    0    0  501    0  0.00000000000E+00  0.00000000000E+00  0.52378346366E+03  0.52378346369E+03  0.50400001928E-02 0. -1.
       -1   -1    0    0    0  501  0.00000000000E+00  0.00000000000E+00 -0.48072507493E+03  0.48072507495E+03  0.50400001928E-02 0.  1.
    10030    2    1    2    0    0  0.00000000000E+00  0.00000000000E+00  0.43058388735E+02  0.10045085386E+04  0.10035852626E+04 0.  0.
        5    1    3    3  502    0 -0.21166326192E+03 -0.51227896581E+02 -0.43093548422E+03  0.48285931221E+03  0.46999998093E+01 0.  1.
       -5    1    3    3    0  502  0.21166326192E+03  0.51227896581E+02  0.47399387295E+03  0.52164922643E+03  0.46999998093E+01 0. -1.
</event>
<event>
 5   0  0.6314750E-03  0.1041117E+04  0.7818609E-02  0.9264564E-01
       -3   -1    0    0    0  501  0.00000000000E+00  0.00000000000E+00  0.25406121081E+03  0.25406123088E+03  0.10100000352E+00 0. -1.
        3   -1    0    0  501    0  0.00000000000E+00  0.00000000000E+00 -0.10665971836E+04  0.10665971884E+04  0.10100000352E+00 0.  1.
    10030    2    1    2    0    0  0.00000000000E+00  0.00000000000E+00 -0.81253597279E+03  0.13206584193E+04  0.10411166857E+04 0.  0.
        4    1    3    3  502    0 -0.41423228975E+03  0.25317953330E+03 -0.64456782784E+03  0.80694334593E+03  0.12699999809E+01 0.  1.
       -4    1    3    3    0  502  0.41423228975E+03 -0.25317953330E+03 -0.16796814496E+03  0.51371507334E+03  0.12699999809E+01 0. -1.
</event>
<event>
 5   0  0.1598986E-02  0.1002157E+04  0.7818609E-02  0.9306182E-01
        2   -1    0    0  501    0  0.00000000000E+00  0.00000000000E+00  0.56976163078E+03  0.56976163078E+03  0.25500000920E-02 0.  1.
       -2   -1    0    0    0  501  0.00000000000E+00  0.00000000000E+00 -0.44067521259E+03  0.44067521260E+03  0.25500000920E-02 0. -1.
    10030    2    1    2    0    0  0.00000000000E+00  0.00000000000E+00  0.12908641819E+03  0.10104368434E+04  0.10021573285E+04 0.  0.
        3    1    3    3  502    0 -0.34179383227E+03  0.36622309764E+03  0.76363397039E+02  0.50672848710E+03  0.10100000352E+00 0. -1.
       -3    1    3    3    0  502  0.34179383227E+03 -0.36622309764E+03  0.52723021149E+02  0.50370835628E+03  0.10100000352E+00 0.  1.
</event>
<event>
 5   0  0.1598986E-02  0.1017616E+04  0.7818609E-02  0.9289432E-01
        2   -1    0    0  501    0  0.00000000000E+00  0.00000000000E+00  0.46862960457E+03  0.46862960457E+03  0.25500000920E-02 0.  1.
       -2   -1    0    0    0  501  0.00000000000E+00  0.00000000000E+00 -0.55243160587E+03  0.55243160587E+03  0.25500000920E-02 0. -1.
    10030    2    1    2    0    0  0.00000000000E+00  0.00000000000E+00 -0.83802001301E+02  0.10210612104E+04  0.10176164405E+04 0.  0.
        3    1    3    3  502    0 -0.47506256202E+03  0.10159962711E+03  0.10986866400E+03  0.49807434745E+03  0.10100000352E+00 0.  1.
       -3    1    3    3    0  502  0.47506256202E+03 -0.10159962711E+03 -0.19367066530E+03  0.52298686299E+03  0.10100000352E+00 0. -1.
</event>
<event>
 5   0  0.1656859E-02  0.1013831E+04  0.7818609E-02  0.9293504E-01
       -2   -1    0    0    0  501  0.00000000000E+00  0.00000000000E+00  0.73226342647E+03  0.73226342648E+03  0.25500000920E-02 0. -1.
        2   -1    0    0  501    0  0.00000000000E+00  0.00000000000E+00 -0.35091675556E+03  0.35091675557E+03  0.25500000920E-02 0.  1.
    10030    2    1    2    0    0  0.00000000000E+00  0.00000000000E+00  0.38134667091E+03  0.10831801820E+04  0.10138313584E+04 0.  0.
        4    1    3    3  502    0 -0.13249448485E+03  0.48900609667E+03  0.20855566034E+03  0.54788577956E+03  0.12699999809E+01 0.  1.
       -4    1    3    3    0  502  0.13249448485E+03 -0.48900609667E+03  0.17279101058E+03  0.53529440248E+03  0.12699999809E+01 0. -1.
</event>
<event>
 5   0  0.1598986E-02  0.1005187E+04  0.7818609E-02  0.9302874E-01
       -2   -1    0    0    0  501  0.00000000000E+00  0.00000000000E+00  0.40607015757E+03  0.40607015758E+03  0.25500000920E-02 0. -1.
        2   -1    0    0  501    0  0.00000000000E+00  0.00000000000E+00 -0.62206035166E+03  0.62206035167E+03  0.25500000920E-02 0.  1.
    10030    2    1    2    0    0  0.00000000000E+00  0.00000000000E+00 -0.21599019409E+03  0.10281305093E+04  0.10051868384E+04 0.  0.
        3    1    3    3  502    0  0.30169018773E+03  0.33857749262E+03  0.11362649407E+03  0.46750687507E+03  0.10100000352E+00 0. -1.
       -3    1    3    3    0  502 -0.30169018773E+03 -0.33857749262E+03 -0.32961668816E+03  0.56062363418E+03  0.10100000352E+00 0.  1.
</event>
<event>
 5   0  0.1663497E-02  0.1026706E+04  0.7818609E-02  0.9279729E-01
       -2   -1    0    0    0  501  0.00000000000E+00  0.00000000000E+00  0.16028114239E+03  0.16028114241E+03  0.25500000920E-02 0. -1.
        2   -1    0    0  501    0  0.00000000000E+00  0.00000000000E+00 -0.16441826267E+04  0.16441826267E+04  0.25500000920E-02 0.  1.
    10030    2    1    2    0    0  0.00000000000E+00  0.00000000000E+00 -0.14839014843E+04  0.18044637691E+04  0.10267063256E+04 0.  0.
        1    1    3    3  502    0 -0.36144770667E+03  0.27633063748E+03 -0.11598150625E+04  0.12458627714E+04  0.50400001928E-02 0. -1.
       -1    1    3    3    0  502  0.36144770667E+03 -0.27633063748E+03 -0.32408642183E+03  0.55860099777E+03  0.50400001928E-02 0.  1.
</event>
<event>
 5   0  0.1598986E-02  0.1038258E+04  0.7818609E-02  0.9267552E-01
       -2   -1    0    0    0  501  0.00000000000E+00  0.00000000000E+00  0.14710646030E+03  0.14710646032E+03  0.25500000920E-02 0. -1.
        2   -1    0    0  501    0  0.00000000000E+00  0.00000000000E+00 -0.18319719766E+04  0.18319719766E+04  0.25500000920E-02 0.  1.
    10030    2    1    2    0    0  0.00000000000E+00  0.00000000000E+00 -0.16848655163E+04  0.19790784370E+04  0.10382579889E+04 0.  0.
        3    1    3    3  502    0 -0.46104007961E+03  0.12519350146E+03 -0.12296377433E+04  0.13191817001E+04  0.10100000352E+00 0.  1.
       -3    1    3    3    0  502  0.46104007961E+03 -0.12519350146E+03 -0.45522777302E+03  0.65989673688E+03  0.10100000352E+00 0. -1.
</event>
<event>
 5   0  0.1617721E-02  0.9994584E+03  0.7818609E-02  0.9309139E-01
       -2   -1    0    0    0  501  0.00000000000E+00  0.00000000000E+00  0.25877458332E+03  0.25877458333E+03  0.25500000920E-02 0. -1.
        2   -1    0    0  501    0  0.00000000000E+00  0.00000000000E+00 -0.96504555208E+03  0.96504555209E+03  0.25500000920E-02 0.  1.
    10030    2    1    2    0    0  0.00000000000E+00  0.00000000000E+00 -0.70627096877E+03  0.12238201354E+04  0.99945837459E+03 0.  0.
        5    1    3    3  502    0 -0.44058336562E+03 -0.18997937024E+03 -0.18213995828E+03  0.51322793920E+03  0.46999998093E+01 0. -1.
       -5    1    3    3    0  502  0.44058336562E+03  0.18997937024E+03 -0.52413101048E+03  0.71059219622E+03  0.46999998093E+01 0.  1.
</event>
<event>
 5   0  0.1000773E-02  0.1080117E+04  0.7818609E-02  0.9224791E-01
        1   -1    0    0  501    0  0.00000000000E+00  0.00000000000E+00  0.64021793542E+03  0.64021793544E+03  0.50400001928E-02 0.  1.
       -1   -1    0    0    0  501  0.00000000000E+00  0.00000000000E+00 -0.45556822844E+03  0.45556822847E+03  0.50400001928E-02 0. -1.
    10030    2    1    2    0    0  0.00000000000E+00  0.00000000000E+00  0.18464970698E+03  0.10957861639E+04  0.10801165690E+04 0.  0.
        3    1    3    3  502    0 -0.11878521870E+03  0.39895055727E+03 -0.25674744192E+03  0.48907129794E+03  0.10100000352E+00 0. -1.
       -3    1    3    3    0  502  0.11878521870E+03 -0.39895055727E+03  0.44139714890E+03  0.60671486597E+03  0.10100000352E+00 0.  1.
</event>
<event>
 5   0  0.9507815E-03  0.9971981E+03  0.7818609E-02  0.9311623E-01
        1   -1    0    0  501    0  0.00000000000E+00  0.00000000000E+00  0.67743336909E+03  0.67743336911E+03  0.50400001928E-02 0.  1.
       -1   -1    0    0    0  501  0.00000000000E+00  0.00000000000E+00 -0.36697483866E+03  0.36697483870E+03  0.50400001928E-02 0. -1.
    10030    2    1    2    0    0  0.00000000000E+00  0.00000000000E+00  0.31045853043E+03  0.10444082078E+04  0.99719807732E+03 0.  0.
        1    1    3    3  502    0 -0.94528363982E+01  0.44085957161E+03 -0.88499086852E+02  0.44975393984E+03  0.50400001928E-02 0.  1.
       -1    1    3    3    0  502  0.94528363982E+01 -0.44085957161E+03  0.39895761728E+03  0.59465426797E+03  0.50400001928E-02 0. -1.
</event>
<event>
 5   0  0.1000773E-02  0.1025776E+04  0.7818609E-02  0.9280717E-01
        1   -1    0    0  501    0  0.00000000000E+00  0.00000000000E+00  0.64630219425E+03  0.64630219427E+03  0.50400001928E-02 0.  1.
       -1   -1    0    0    0  501  0.00000000000E+00  0.00000000000E+00 -0.40701411724E+03  0.40701411728E+03  0.50400001928E-02 0. -1.
    10030    2    1    2    0    0  0.00000000000E+00  0.00000000000E+00  0.23928807701E+03  0.10533163115E+04  0.10257760323E+04 0.  0.
        3    1    3    3  502    0  0.25305571901E+03  0.17168944615E+03  0.54245077267E+03  0.62270965451E+03  0.10100000352E+00 0.  1.
       -3    1    3    3    0  502 -0.25305571901E+03 -0.17168944615E+03 -0.30316269567E+03  0.43060665704E+03  0.10100000352E+00 0. -1.
</event>
<event>
 5   0  0.9507815E-03  0.1020092E+04  0.7818609E-02  0.9286779E-01
       -1   -1    0    0    0  501  0.00000000000E+00  0.00000000000E+00  0.47540380119E+03  0.47540380121E+03  0.50400001928E-02 0. -1.
        1   -1    0    0  501    0  0.00000000000E+00  0.00000000000E+00 -0.54721225738E+03  0.54721225740E+03  0.50400001928E-02 0.  1.
    10030    2    1    2    0    0  0.00000000000E+00  0.00000000000E+00 -0.71808456193E+02  0.10226160586E+04  0.10200917356E+04 0.  0.
        1    1    3    3  502    0 -0.50068004119E+03  0.78672593642E+02 -0.93290156163E+02  0.51533768919E+03  0.50400001928E-02 0.  1.
       -1    1    3    3    0  502  0.50068004119E+03 -0.78672593642E+02  0.21481699971E+02  0.50727836943E+03  0.50400001928E-02 0. -1.
</event>
<event>
 5   0  0.9471140E-03  0.1021850E+04  0.7818609E-02  0.9284900E-01
        1   -1    0    0  501    0  0.00000000000E+00  0.00000000000E+00  0.43134540944E+03  0.43134540947E+03  0.50400001928E-02 0. -1.
       -1   -1    0    0    0  501  0.00000000000E+00  0.00000000000E+00 -0.60518579931E+03  0.60518579933E+03  0.50400001928E-02 0.  1.
    10030    2    1    2    0    0  0.00000000000E+00  0.00000000000E+00 -0.17384038987E+03  0.10365312088E+04  0.10218495318E+04 0.  0.
        4    1    3    3  502    0  0.32016972031E+03 -0.18356280673E+03 -0.44532167113E+03  0.57837440944E+03  0.12699999809E+01 0.  1.
       -4    1    3    3    0  502 -0.32016972031E+03  0.18356280673E+03  0.27148128126E+03  0.45815679935E+03  0.12699999809E+01 0. -1.
</event>
<event>
 5   0  0.1656859E-02  0.9915688E+03  0.7818609E-02  0.9317841E-01
       -2   -1    0    0    0  501  0.00000000000E+00  0.00000000000E+00  0.31913320439E+03  0.31913320440E+03  0.25500000920E-02 0. -1.
        2   -1    0    0  501    0  0.00000000000E+00  0.00000000000E+00 -0.77021816115E+03  0.77021816116E+03  0.25500000920E-02 0.  1.
    10030    2    1    2    0    0  0.00000000000E+00  0.00000000000E+00 -0.45108495677E+03  0.10893513656E+04  0.99156883746E+03 0.  0.
        4    1    3    3  502    0 -0.14822364416E+03 -0.62783252219E+02  0.28962265411E+03  0.33135310489E+03  0.12699999809E+01 0. -1.
       -4    1    3    3    0  502  0.14822364416E+03  0.62783252219E+02 -0.74070761088E+03  0.75799826066E+03  0.12699999809E+01 0.  1.
</event>
<event>
 5   0  0.1617721E-02  0.9943176E+03  0.7818609E-02  0.9314799E-01
        2   -1    0    0  501    0  0.00000000000E+00  0.00000000000E+00  0.13862601290E+04  0.13862601290E+04  0.25500000920E-02 0. -1.
       -2   -1    0    0    0  501  0.00000000000E+00  0.00000000000E+00 -0.17829762927E+03  0.17829762929E+03  0.25500000920E-02 0.  1.
    10030    2    1    2    0    0  0.00000000000E+00  0.00000000000E+00  0.12079624997E+04  0.15645577583E+04  0.99431764457E+03 0.  0.
        5    1    3    3  502    0  0.29852454018E+03  0.36335047069E+03  0.85772149974E+03  0.97818644785E+03  0.46999998093E+01 0. -1.
       -5    1    3    3    0  502 -0.29852454018E+03 -0.36335047069E+03  0.35024099999E+03  0.58637131044E+03  0.46999998093E+01 0.  1.
</event>
<event>
 5   0  0.9471140E-03  0.9878849E+03  0.7818609E-02  0.9321933E-01
       -1   -1    0    0    0  501  0.00000000000E+00  0.00000000000E+00  0.11764882199E+03  0.11764882210E+03  0.50400001928E-02 0. -1.
        1   -1    0    0  501    0  0.00000000000E+00  0.00000000000E+00 -0.20737914802E+04  0.20737914802E+04  0.50400001928E-02 0.  1.
    10030    2    1    2    0    0  0.00000000000E+00  0.00000000000E+00 -0.19561426582E+04  0.21914403023E+04  0.98788486134E+03 0.  0.
        4    1    3    3  502    0  0.29883126802E+03  0.54349293399E+02 -0.11399959810E+03  0.32442486604E+03  0.12699999809E+01 0. -1.
       -4    1    3    3    0  502 -0.29883126802E+03 -0.54349293399E+02 -0.18421430601E+04  0.18670154362E+04  0.12699999809E+01 0.  1.
</event>
<event>
 5   0  0.1598986E-02  0.1012037E+04  0.7818609E-02  0.9295441E-01
       -2   -1    0    0    0  501  0.00000000000E+00  0.00000000000E+00  0.21102117277E+03  0.21102117279E+03  0.25500000920E-02 0. -1.
        2   -1    0    0  501    0  0.00000000000E+00  0.00000000000E+00 -0.12134070837E+04  0.12134070837E+04  0.25500000920E-02 0.  1.
    10030    2    1    2    0    0  0.00000000000E+00  0.00000000000E+00 -0.10023859109E+04  0.14244282565E+04  0.10120367303E+04 0.  0.
        3    1    3    3  502    0 -0.33457047534E+03  0.42832050955E+01 -0.10354798579E+04  0.10881977279E+04  0.10100000352E+00 0.  1.
       -3    1    3    3    0  502  0.33457047534E+03 -0.42832050955E+01  0.33093946929E+02  0.33623052857E+03  0.10100000352E+00 0. -1.
</event>
<event>
 5   0  0.1663497E-02  0.1007336E+04  0.7818609E-02  0.9300535E-01
       -2   -1    0    0    0  501  0.00000000000E+00  0.00000000000E+00  0.74393671784E+03  0.74393671784E+03  0.25500000920E-02 0.  1.
        2   -1    0    0  501    0  0.00000000000E+00  0.00000000000E+00 -0.34099873515E+03  0.34099873516E+03  0.25500000920E-02 0. -1.
    10030    2    1    2    0    0  0.00000000000E+00  0.00000000000E+00  0.40293798269E+03  0.10849354530E+04  0.10073360508E+04 0.  0.
        1    1    3    3  502    0 -0.29573450697E+03  0.18110273203E+03 -0.19194257453E+03  0.39635722538E+03  0.50400001928E-02 0. -1.
       -1    1    3    3    0  502  0.29573450697E+03 -0.18110273203E+03  0.59488055723E+03  0.68857822762E+03  0.50400001928E-02 0.  1.
</event>
<event>
 5   0  0.1571895E-02  0.9938407E+03  0.7818609E-02  0.9315326E-01
       -2   -1    0    0    0  501  0.00000000000E+00  0.00000000000E+00  0.39850090211E+03  0.39850090212E+03  0.25500000920E-02 0.  1.
        2   -1    0    0  501    0  0.00000000000E+00  0.00000000000E+00 -0.61964687922E+03  0.61964687922E+03  0.25500000920E-02 0. -1.
    10030    2    1    2    0    0  0.00000000000E+00  0.00000000000E+00 -0.22114597710E+03  0.10181477813E+04  0.99384071232E+03 0.  0.
        2    1    3    3  502    0  0.11489271890E+03 -0.14605141313E+03  0.36156587069E+03  0.40652334618E+03  0.25500000920E-02 0.  1.
       -2    1    3    3    0  502 -0.11489271890E+03  0.14605141313E+03 -0.58271184779E+03  0.61162443517E+03  0.25500000920E-02 0. -1.
</event>
<event>
 5   0  0.6314750E-03  0.8147034E+03  0.7818609E-02  0.9538975E-01
        4   -1    0    0  501    0  0.00000000000E+00  0.00000000000E+00  0.10419302334E+03  0.10420076302E+03  0.12699999809E+01 0. -1.
       -4   -1    0    0    0  501  0.00000000000E+00  0.00000000000E+00 -0.15925097331E+04  0.15925102395E+04  0.12699999809E+01 0.  1.
    10030    2    1    2    0    0  0.00000000000E+00  0.00000000000E+00 -0.14883167098E+04  0.16967110026E+04  0.81470338009E+03 0.  0.
        3    1    3    3  502    0 -0.28893153125E+03  0.50074332003E+01 -0.14623148456E+03  0.32386750596E+03  0.10100000352E+00 0. -1.
       -3    1    3    3    0  502  0.28893153125E+03 -0.50074332003E+01 -0.13420852252E+04  0.13728434966E+04  0.10100000352E+00 0.  1.
</event>
<event>
 5   0  0.9471140E-03  0.9189395E+03  0.7818609E-02  0.9402211E-01
        1   -1    0    0  501    0  0.00000000000E+00  0.00000000000E+00  0.11509987558E+04  0.11509987558E+04  0.50400001928E-02 0. -1.
       -1   -1    0    0    0  501  0.00000000000E+00  0.00000000000E+00 -0.18341673431E+03  0.18341673438E+03  0.50400001928E-02 0.  1.
    10030    2    1    2    0    0  0.00000000000E+00  0.00000000000E+00  0.96758202145E+03  0.13344154902E+04  0.91893946054E+03 0.  0.
        4    1    3    3  502    0 -0.12639540391E+03  0.72461274250E+02 -0.14898324338E+03  0.20838439026E+03  0.12699999809E+01 0.  1.
       -4    1    3    3    0  502  0.12639540391E+03 -0.72461274250E+02  0.11165652648E+04  0.11260310999E+04  0.12699999809E+01 0. -1.
</event>
<event>
 5   0  0.1617721E-02  0.9615137E+03  0.7818609E-02  0.9351793E-01
        2   -1    0    0  501    0  0.00000000000E+00  0.00000000000E+00  0.15930234708E+04  0.15930234708E+04  0.25500000920E-02 0.  1.
       -2   -1    0    0    0  501  0.00000000000E+00  0.00000000000E+00 -0.14508709715E+03  0.14508709717E+03  0.25500000920E-02 0. -1.
    10030    2    1    2    0    0  0.00000000000E+00  0.00000000000E+00  0.14479363736E+04  0.17381105679E+04  0.96151370470E+03 0.  0.
        5    1    3    3  502    0 -0.10944438279E+03 -0.41102100509E+03  0.31899619520E+03  0.53169258232E+03  0.46999998093E+01 0.  1.
       -5    1    3    3    0  502  0.10944438279E+03  0.41102100509E+03  0.11289401784E+04  0.12064179856E+04  0.46999998093E+01 0. -1.
</event>
<event>
 5   0  0.6314750E-03  0.1019253E+04  0.7818609E-02  0.9287677E-01
        4   -1    0    0  501    0  0.00000000000E+00  0.00000000000E+00  0.65128128552E+03  0.65128252377E+03  0.12699999809E+01 0. -1.
       -4   -1    0    0    0  501  0.00000000000E+00  0.00000000000E+00 -0.39877907396E+03  0.39878109626E+03  0.12699999809E+01 0.  1.
    10030    2    1    2    0    0  0.00000000000E+00  0.00000000000E+00  0.25250221155E+03  0.10500636200E+04  0.10192527848E+04 0.  0.
        4    1    3    3  502    0 -0.47030058447E+02 -0.14042886510E+03 -0.37612185550E+03  0.40422933545E+03  0.12699999809E+01 0.  1.
       -4    1    3    3    0  502  0.47030058447E+02  0.14042886510E+03  0.62862406706E+03  0.64583428458E+03  0.12699999809E+01 0. -1.
</event>
<event>
 5   0  0.9396660E-03  0.9775578E+03  0.7818609E-02  0.9333507E-01
        1   -1    0    0  501    0  0.00000000000E+00  0.00000000000E+00  0.10868630526E+04  0.10868630526E+04  0.50400001928E-02 0.  1.
       -1   -1    0    0    0  501  0.00000000000E+00  0.00000000000E+00 -0.21981133276E+03  0.21981133282E+03  0.50400001928E-02 0. -1.
    10030    2    1    2    0    0  0.00000000000E+00  0.00000000000E+00  0.86705171979E+03  0.13066743854E+04  0.97755780629E+03 0.  0.
        5    1    3    3  502    0  0.28122818282E+03  0.30995754753E+03  0.77093898719E+03  0.87722972137E+03  0.46999998093E+01 0.  1.
       -5    1    3    3    0  502 -0.28122818282E+03 -0.30995754753E+03  0.96112732602E+02  0.42944466402E+03  0.46999998093E+01 0. -1.
</event>
<event>
 5   0  0.9471140E-03  0.9930141E+03  0.7818609E-02  0.9316240E-01
       -1   -1    0    0    0  501  0.00000000000E+00  0.00000000000E+00  0.20694249151E+03  0.20694249157E+03  0.50400001928E-02 0. -1.
        1   -1    0    0  501    0  0.00000000000E+00  0.00000000000E+00 -0.11912452192E+04  0.11912452192E+04  0.50400001928E-02 0.  1.
    10030    2    1    2    0    0  0.00000000000E+00  0.00000000000E+00 -0.98430272765E+03  0.13981877107E+04  0.99301410604E+03 0.  0.
        4    1    3    3  502    0 -0.90492180298E+01 -0.85141464158E+02 -0.11807696662E+04  0.11838705903E+04  0.12699999809E+01 0.  1.
       -4    1    3    3    0  502  0.90492180298E+01  0.85141464158E+02  0.19646693851E+03  0.21431712039E+03  0.12699999809E+01 0. -1.
</event>
<event>
 5   0  0.1000773E-02  0.9376204E+03  0.7818609E-02  0.9379739E-01
       -1   -1    0    0    0  501  0.00000000000E+00  0.00000000000E+00  0.36076228224E+03  0.36076228228E+03  0.50400001928E-02 0.  1.
        1   -1    0    0  501    0  0.00000000000E+00  0.00000000000E+00 -0.60921840120E+03  0.60921840122E+03  0.50400001928E-02 0. -1.
    10030    2    1    2    0    0  0.00000000000E+00  0.00000000000E+00 -0.24845611895E+03  0.96998068350E+03  0.93762043670E+03 0.  0.
        3    1    3    3  502    0  0.32745873990E+03  0.12794482415E+02 -0.47104477555E+03  0.57382585851E+03  0.10100000352E+00 0. -1.
       -3    1    3    3    0  502 -0.32745873990E+03 -0.12794482415E+02  0.22258865659E+03  0.39615482499E+03  0.10100000352E+00 0.  1.
</event>
<event>
 5   0  0.6314750E-03  0.1016074E+04  0.7818609E-02  0.9291089E-01
        3   -1    0    0  501    0  0.00000000000E+00  0.00000000000E+00  0.13828192803E+04  0.13828192840E+04  0.10100000352E+00 0.  1.
       -3   -1    0    0    0  501  0.00000000000E+00  0.00000000000E+00 -0.18664870854E+03  0.18664873586E+03  0.10100000352E+00 0. -1.
    10030    2    1    2    0    0  0.00000000000E+00  0.00000000000E+00  0.11961705718E+04  0.15694680199E+04  0.10160737319E+04 0.  0.
        3    1    3    3  502    0  0.49088253104E+03 -0.10057691086E+03  0.46866628260E+03  0.68609727366E+03  0.10100000352E+00 0. -1.
       -3    1    3    3    0  502 -0.49088253104E+03  0.10057691086E+03  0.72750428917E+03  0.88337074620E+03  0.10100000352E+00 0.  1.
</event>
<event>
 5   0  0.9396660E-03  0.9855204E+03  0.7818609E-02  0.9324570E-01
        1   -1    0    0  501    0  0.00000000000E+00  0.00000000000E+00  0.31038680835E+03  0.31038680839E+03  0.50400001928E-02 0. -1.
       -1   -1    0    0    0  501  0.00000000000E+00  0.00000000000E+00 -0.78229035677E+03  0.78229035679E+03  0.50400001928E-02 0.  1.
    10030    2    1    2    0    0  0.00000000000E+00  0.00000000000E+00 -0.47190354842E+03  0.10926771652E+04  0.98552038452E+03 0.  0.
        5    1    3    3  502    0 -0.19207345229E+03 -0.42976043844E+03 -0.39740173143E+03  0.61606531445E+03  0.46999998093E+01 0.  1.
       -5    1    3    3    0  502  0.19207345229E+03  0.42976043844E+03 -0.74501816991E+02  0.47661185073E+03  0.46999998093E+01 0. -1.
</event>
<event>
 5   0  0.9507815E-03  0.9865858E+03  0.7818609E-02  0.9323381E-01
        1   -1    0    0  501    0  0.00000000000E+00  0.00000000000E+00  0.56445906464E+03  0.56445906467E+03  0.50400001928E-02 0. -1.
       -1   -1    0    0    0  501  0.00000000000E+00  0.00000000000E+00 -0.43109923641E+03  0.43109923644E+03  0.50400001928E-02 0.  1.
    10030    2    1    2    0    0  0.00000000000E+00  0.00000000000E+00  0.13335982823E+03  0.99555830111E+03  0.98658577282E+03 0.  0.
        1    1    3    3  502    0 -0.53624985578E+02  0.30095961228E+03 -0.32399158088E+03  0.44544682265E+03  0.50400001928E-02 0.  1.
       -1    1    3    3    0  502  0.53624985578E+02 -0.30095961228E+03  0.45735140911E+03  0.55011147846E+03  0.50400001928E-02 0. -1.
</event>
<event>
 5   0  0.6314750E-03  0.9516560E+03  0.7818609E-02  0.9363217E-01
       -3   -1    0    0    0  501  0.00000000000E+00  0.00000000000E+00  0.72122213830E+03  0.72122214538E+03  0.10100000352E+00 0. -1.
        3   -1    0    0  501    0  0.00000000000E+00  0.00000000000E+00 -0.31392859213E+03  0.31392860838E+03  0.10100000352E+00 0.  1.
    10030    2    1    2    0    0  0.00000000000E+00  0.00000000000E+00  0.40729354617E+03  0.10351507538E+04  0.95165595161E+03 0.  0.
        4    1    3    3  502    0  0.39005573539E+03 -0.20405503995E+03  0.71643927840E+01  0.44026682530E+03  0.12699999809E+01 0.  1.
       -4    1    3    3    0  502 -0.39005573539E+03  0.20405503995E+03  0.40012915339E+03  0.59488392845E+03  0.12699999809E+01 0. -1.
</event>
<event>
 5   0  0.1663497E-02  0.9772505E+03  0.7818609E-02  0.9333854E-01
       -2   -1    0    0    0  501  0.00000000000E+00  0.00000000000E+00  0.20461853357E+04  0.20461853357E+04  0.25500000920E-02 0. -1.
        2   -1    0    0  501    0  0.00000000000E+00  0.00000000000E+00 -0.11668279110E+03  0.11668279112E+03  0.25500000920E-02 0.  1.
    10030    2    1    2    0    0  0.00000000000E+00  0.00000000000E+00  0.19295025446E+04  0.21628681268E+04  0.97725046144E+03 0.  0.
        1    1    3    3  502    0 -0.17332767610E+02  0.47687667437E+03  0.73217557930E+03  0.87395243940E+03  0.50400001928E-02 0. -1.
       -1    1    3    3    0  502  0.17332767610E+02 -0.47687667437E+03  0.11973269653E+04  0.12889156874E+04  0.50400001928E-02 0.  1.
</event>
<event>
 5   0  0.9507815E-03  0.1028692E+04  0.7818609E-02  0.9277623E-01
       -1   -1    0    0    0  501  0.00000000000E+00  0.00000000000E+00  0.36143843477E+03  0.36143843481E+03  0.50400001928E-02 0. -1.
        1   -1    0    0  501    0  0.00000000000E+00  0.00000000000E+00 -0.73194225993E+03  0.73194225995E+03  0.50400001928E-02 0.  1.
    10030    2    1    2    0    0  0.00000000000E+00  0.00000000000E+00 -0.37050382516E+03  0.10933806948E+04  0.10286924998E+04 0.  0.
        1    1    3    3  502    0  0.49670263642E+03 -0.35305956741E+02 -0.48341717666E+02  0.50029685318E+03  0.50400001928E-02 0. -1.
       -1    1    3    3    0  502 -0.49670263642E+03  0.35305956741E+02 -0.32216210749E+03  0.59308384158E+03  0.50400001928E-02 0.  1.
</event>
<event>
 5   0  0.1656859E-02  0.1016616E+04  0.7818609E-02  0.9290507E-01
       -2   -1    0    0    0  501  0.00000000000E+00  0.00000000000E+00  0.31442296679E+03  0.31442296680E+03  0.25500000920E-02 0. -1.
        2   -1    0    0  501    0  0.00000000000E+00  0.00000000000E+00 -0.82174917659E+03  0.82174917659E+03  0.25500000920E-02 0.  1.
    10030    2    1    2    0    0  0.00000000000E+00  0.00000000000E+00 -0.50732620979E+03  0.11361721434E+04  0.10166155892E+04 0.  0.
        4    1    3    3  502    0 -0.11804339270E+02 -0.37662143169E+03 -0.63494767309E+03  0.73833813777E+03  0.12699999809E+01 0.  1.
       -4    1    3    3    0  502  0.11804339270E+02  0.37662143169E+03  0.12762146329E+03  0.39783400562E+03  0.12699999809E+01 0. -1.
</event>
<event>
 5   0  0.1617721E-02  0.9824782E+03  0.7818609E-02  0.9327974E-01
       -2   -1    0    0    0  501  0.00000000000E+00  0.00000000000E+00  0.29607556964E+03  0.29607556965E+03  0.25500000920E-02 0.  1.
        2   -1    0    0  501    0  0.00000000000E+00  0.00000000000E+00 -0.81504811103E+03  0.81504811103E+03  0.25500000920E-02 0. -1.
    10030    2    1    2    0    0  0.00000000000E+00  0.00000000000E+00 -0.51897254139E+03  0.11111236807E+04  0.98247816009E+03 0.  0.
        5    1    3    3  502    0  0.42977393072E+03  0.17039037138E+03 -0.71752870143E+02  0.46787720030E+03  0.46999998093E+01 0.  1.
       -5    1    3    3    0  502 -0.42977393072E+03 -0.17039037138E+03 -0.44721967125E+03  0.64324648039E+03  0.46999998093E+01 0. -1.
</event>
<event>
 5   0  0.9759443E-03  0.9985476E+03  0.7818609E-02  0.9310139E-01
        1   -1    0    0  501    0  0.00000000000E+00  0.00000000000E+00  0.13100891508E+04  0.13100891508E+04  0.50400001928E-02 0.  1.
       -1   -1    0    0    0  501  0.00000000000E+00  0.00000000000E+00 -0.19027279243E+03  0.19027279250E+03  0.50400001928E-02 0. -1.
    10030    2    1    2    0    0  0.00000000000E+00  0.00000000000E+00  0.11198163583E+04  0.15003619433E+04  0.99854758747E+03 0.  0.
        2    1    3    3  502    0 -0.21156021092E+03  0.16032134105E+03  0.11952795270E+04  0.12243993642E+04  0.25500000920E-02 0.  1.
       -2    1    3    3    0  502  0.21156021092E+03 -0.16032134105E+03 -0.75463168687E+02  0.27596257912E+03  0.25500000920E-02 0. -1.
</event>
<event>
 5   0  0.9507815E-03  0.1031951E+04  0.7818609E-02  0.9274179E-01
       -1   -1    0    0    0  501  0.00000000000E+00  0.00000000000E+00  0.76859111801E+03  0.76859111803E+03  0.50400001928E-02 0. -1.
        1   -1    0    0  501    0  0.00000000000E+00  0.00000000000E+00 -0.34638801459E+03  0.34638801462E+03  0.50400001928E-02 0.  1.
    10030    2    1    2    0    0  0.00000000000E+00  0.00000000000E+00  0.42220310343E+03  0.11149791327E+04  0.10319510675E+04 0.  0.
        1    1    3    3  502    0 -0.56705367639E+02  0.43716539837E+02  0.76319741679E+03  0.76654871443E+03  0.50400001928E-02 0. -1.
       -1    1    3    3    0  502  0.56705367639E+02 -0.43716539837E+02 -0.34099431336E+03  0.34843041822E+03  0.50400001928E-02 0.  1.
</event>
<event>
 5   0  0.1571895E-02  0.6225545E+03  0.7818609E-02  0.9859687E-01
       -2   -1    0    0    0  501  0.00000000000E+00  0.00000000000E+00  0.34015622257E+03  0.34015622257E+03  0.25500000920E-02 0.  1.
        2   -1    0    0  501    0  0.00000000000E+00  0.00000000000E+00 -0.28485010552E+03  0.28485010553E+03  0.25500000920E-02 0. -1.
    10030    2    1    2    0    0  0.00000000000E+00  0.00000000000E+00  0.55306117043E+02  0.62500632811E+03  0.62255453062E+03 0.  0.
        2    1    3    3  502    0  0.16641678349E+02  0.11623411967E+03  0.31706988749E+03  0.33811333838E+03  0.25500000920E-02 0.  1.
       -2    1    3    3    0  502 -0.16641678349E+02 -0.11623411967E+03 -0.26176377044E+03  0.28689298973E+03  0.25500000920E-02 0. -1.
</event>
<event>
 5   0  0.1000773E-02  0.9755774E+03  0.7818609E-02  0.9335744E-01
       -1   -1    0    0    0  501  0.00000000000E+00  0.00000000000E+00  0.36645759731E+03  0.36645759734E+03  0.50400001928E-02 0. -1.
        1   -1    0    0  501    0  0.00000000000E+00  0.00000000000E+00 -0.64929148720E+03  0.64929148722E+03  0.50400001928E-02 0.  1.
    10030    2    1    2    0    0  0.00000000000E+00  0.00000000000E+00 -0.28283388989E+03  0.10157490846E+04  0.97557736419E+03 0.  0.
        3    1    3    3  502    0  0.47347971826E+03  0.91584125585E+02 -0.65139828792E+02  0.48663528763E+03  0.10100000352E+00 0.  1.
       -3    1    3    3    0  502 -0.47347971826E+03 -0.91584125585E+02 -0.21769406110E+03  0.52911379694E+03  0.10100000352E+00 0. -1.
</event>
<event>
 5   0  0.1000773E-02  0.1054752E+04  0.7818609E-02  0.9250451E-01
       -1   -1    0    0    0  501  0.00000000000E+00  0.00000000000E+00  0.28546926545E+03  0.28546926550E+03  0.50400001928E-02 0. -1.
        1   -1    0    0  501    0  0.00000000000E+00  0.00000000000E+00 -0.97427539401E+03  0.97427539402E+03  0.50400001928E-02 0.  1.
    10030    2    1    2    0    0  0.00000000000E+00  0.00000000000E+00 -0.68880612855E+03  0.12597446595E+04  0.10547524470E+04 0.  0.
        3    1    3    3  502    0 -0.37886231643E+03  0.96831776845E+02  0.78222770082E+02  0.39878798850E+03  0.10100000352E+00 0. -1.
       -3    1    3    3    0  502  0.37886231643E+03 -0.96831776845E+02 -0.76702889864E+03  0.86095667101E+03  0.10100000352E+00 0.  1.
</event>
<event>
 5   0  0.1571895E-02  0.1031315E+04  0.7818609E-02  0.9274850E-01
       -2   -1    0    0    0  501  0.00000000000E+00  0.00000000000E+00  0.10872727283E+03  0.10872727286E+03  0.25500000920E-02 0.  1.
        2   -1    0    0  501    0  0.00000000000E+00  0.00000000000E+00 -0.24455940445E+04  0.24455940445E+04  0.25500000920E-02 0. -1.
    10030    2    1    2    0    0  0.00000000000E+00  0.00000000000E+00 -0.23368667717E+04  0.25543213174E+04  0.10313152204E+04 0.  0.
        2    1    3    3  502    0  0.23827875997E+03  0.24904392407E+03 -0.21849583948E+03  0.40809321906E+03  0.25500000920E-02 0.  1.
       -2    1    3    3    0  502 -0.23827875997E+03 -0.24904392407E+03 -0.21183709322E+04  0.21462280983E+04  0.25500000920E-02 0. -1.
</event>
<event>
 5   0  0.9396660E-03  0.1149280E+04  0.7818609E-02  0.9158448E-01
       -1   -1    0    0    0  501  0.00000000000E+00  0.00000000000E+00  0.49857147244E+03  0.49857147246E+03  0.50400001928E-02 0. -1.
        1   -1    0    0  501    0  0.00000000000E+00  0.00000000000E+00 -0.66231461657E+03  0.66231461659E+03  0.50400001928E-02 0.  1.
    10030    2    1    2    0    0  0.00000000000E+00  0.00000000000E+00 -0.16374314413E+03  0.11608860891E+04  0.11492800766E+04 0.  0.
        5    1    3    3  502    0 -0.17548347764E+03  0.52536603345E+03  0.72594796022E+02  0.55865554185E+03  0.46999998093E+01 0.  1.
       -5    1    3    3    0  502  0.17548347764E+03 -0.52536603345E+03 -0.23633794015E+03  0.60223054720E+03  0.46999998093E+01 0. -1.
</event>
<event>
 5   0  0.1598986E-02  0.1000496E+04  0.7818609E-02  0.9308001E-01
        2   -1    0    0  501    0  0.00000000000E+00  0.00000000000E+00  0.15757461311E+04  0.15757461311E+04  0.25500000920E-02 0. -1.
       -2   -1    0    0    0  501  0.00000000000E+00  0.00000000000E+00 -0.15881249333E+03  0.15881249335E+03  0.25500000920E-02 0.  1.
    10030    2    1    2    0    0  0.00000000000E+00  0.00000000000E+00  0.14169336378E+04  0.17345586245E+04  0.10004962208E+04 0.  0.
        3    1    3    3  502    0 -0.70982765783E+02  0.44691541797E+03  0.10781806513E+04  0.11692927225E+04  0.10100000352E+00 0. -1.
       -3    1    3    3    0  502  0.70982765783E+02 -0.44691541797E+03  0.33875298647E+03  0.56526590195E+03  0.10100000352E+00 0.  1.
</event>
<event>
 5   0  0.1598986E-02  0.9349546E+03  0.7818609E-02  0.9382911E-01
        2   -1    0    0  501    0  0.00000000000E+00  0.00000000000E+00  0.31163487796E+03  0.31163487797E+03  0.25500000920E-02 0. -1.
       -2   -1    0    0    0  501  0.00000000000E+00  0.00000000000E+00 -0.70125343539E+03  0.70125343540E+03  0.25500000920E-02 0.  1.
    10030    2    1    2    0    0  0.00000000000E+00  0.00000000000E+00 -0.38961855743E+03  0.10128883134E+04  0.93495460588E+03 0.  0.
        3    1    3    3  502    0  0.35928131160E+03  0.12382826198E+03 -0.48974977182E+03  0.61989624013E+03  0.10100000352E+00 0.  1.
       -3    1    3    3    0  502 -0.35928131160E+03 -0.12382826198E+03  0.10013121438E+03  0.39299207323E+03  0.10100000352E+00 0. -1.
</event>
<event>
 5   0  0.1571895E-02  0.9551465E+03  0.7818609E-02  0.9359155E-01
       -2   -1    0    0    0  501  0.00000000000E+00  0.00000000000E+00  0.91400606694E+03  0.91400606694E+03  0.25500000920E-02 0. -1.
        2   -1    0    0  501    0  0.00000000000E+00  0.00000000000E+00 -0.24953468248E+03  0.24953468250E+03  0.25500000920E-02 0.  1.
    10030    2    1    2    0    0  0.00000000000E+00  0.00000000000E+00  0.66447138446E+03  0.11635407494E+04  0.95514650962E+03 0.  0.
        2    1    3    3  502    0  0.23943600228E+02  0.38216926324E+03 -0.15425334047E+02  0.38322915168E+03  0.25500000920E-02 0.  1.
       -2    1    3    3    0  502 -0.23943600228E+02 -0.38216926324E+03  0.67989671851E+03  0.78031159776E+03  0.25500000920E-02 0. -1.
</event>
<event>
 5   0  0.9471140E-03  0.9973422E+03  0.7818609E-02  0.9311465E-01
       -1   -1    0    0    0  501  0.00000000000E+00  0.00000000000E+00  0.42256692402E+03  0.42256692405E+03  0.50400001928E-02 0.  1.
        1   -1    0    0  501    0  0.00000000000E+00  0.00000000000E+00 -0.58848162570E+03  0.58848162572E+03  0.50400001928E-02 0. -1.
    10030    2    1    2    0    0  0.00000000000E+00  0.00000000000E+00 -0.16591470168E+03  0.10110485498E+04  0.99734220895E+03 0.  0.
        4    1    3    3  502    0  0.78425099401E+02  0.46318981500E+03 -0.25251613118E+03  0.53334914488E+03  0.12699999809E+01 0.  1.
       -4    1    3    3    0  502 -0.78425099401E+02 -0.46318981500E+03  0.86601429494E+02  0.47769940489E+03  0.12699999809E+01 0. -1.
</event>
<event>
 5   0  0.1663497E-02  0.1022250E+04  0.7818609E-02  0.9284472E-01
        2   -1    0    0  501    0  0.00000000000E+00  0.00000000000E+00  0.12824779752E+04  0.12824779752E+04  0.25500000920E-02 0.  1.
       -2   -1    0    0    0  501  0.00000000000E+00  0.00000000000E+00 -0.20370633197E+03  0.20370633198E+03  0.25500000920E-02 0. -1.
    10030    2    1    2    0    0  0.00000000000E+00  0.00000000000E+00  0.10787716432E+04  0.14861843072E+04  0.10222502319E+04 0.  0.
        1    1    3    3  502    0 -0.35474029808E+01  0.34138481051E+03  0.10924032020E+04  0.11445090339E+04  0.50400001928E-02 0.  1.
       -1    1    3    3    0  502  0.35474029808E+01 -0.34138481051E+03 -0.13631558826E+02  0.34167527323E+03  0.50400001928E-02 0. -1.
</event>
<event>
 5   0  0.1571895E-02  0.8830756E+03  0.7818609E-02  0.9446989E-01
       -2   -1    0    0    0  501  0.00000000000E+00  0.00000000000E+00  0.18011639016E+03  0.18011639017E+03  0.25500000920E-02 0. -1.
        2   -1    0    0  501    0  0.00000000000E+00  0.00000000000E+00 -0.10823870253E+04  0.10823870253E+04  0.25500000920E-02 0.  1.
    10030    2    1    2    0    0  0.00000000000E+00  0.00000000000E+00 -0.90227063518E+03  0.12625034155E+04  0.88307563384E+03 0.  0.
        2    1    3    3  502    0 -0.30209569072E+02  0.15522733854E+03 -0.10405107775E+04  0.10524594162E+04  0.25500000920E-02 0.  1.
       -2    1    3    3    0  502  0.30209569072E+02 -0.15522733854E+03  0.13824014231E+03  0.21004399931E+03  0.25500000920E-02 0. -1.
</event>
<event>
 5   0  0.1663497E-02  0.1018672E+04  0.7818609E-02  0.9288299E-01
       -2   -1    0    0    0  501  0.00000000000E+00  0.00000000000E+00  0.64248349634E+03  0.64248349634E+03  0.25500000920E-02 0.  1.
        2   -1    0    0  501    0  0.00000000000E+00  0.00000000000E+00 -0.40378182985E+03  0.40378182986E+03  0.25500000920E-02 0. -1.
    10030    2    1    2    0    0  0.00000000000E+00  0.00000000000E+00  0.23870166648E+03  0.10462653262E+04  0.10186720018E+04 0.  0.
        1    1    3    3  502    0  0.25335760372E+03  0.41075497040E+03  0.28659096787E+03  0.56128789757E+03  0.50400001928E-02 0.  1.
       -1    1    3    3    0  502 -0.25335760372E+03 -0.41075497040E+03 -0.47889301386E+02  0.48497742863E+03  0.50400001928E-02 0. -1.
</event>
<event>
 5   0  0.1598986E-02  0.9946806E+03  0.7818609E-02  0.9314398E-01
       -2   -1    0    0    0  501  0.00000000000E+00  0.00000000000E+00  0.23121398326E+03  0.23121398328E+03  0.25500000920E-02 0. -1.
        2   -1    0    0  501    0  0.00000000000E+00  0.00000000000E+00 -0.10697769001E+04  0.10697769001E+04  0.25500000920E-02 0.  1.
    10030    2    1    2    0    0  0.00000000000E+00  0.00000000000E+00 -0.83856291687E+03  0.13009908834E+04  0.99468060862E+03 0.  0.
        3    1    3    3  502    0 -0.10701824279E+03  0.49573630803E+02  0.21265785369E+03  0.24317446843E+03  0.10100000352E+00 0. -1.
       -3    1    3    3    0  502  0.10701824279E+03 -0.49573630803E+02 -0.10512207706E+04  0.10578164150E+04  0.10100000352E+00 0.  1.
</event>
<event>
 5   0  0.6314750E-03  0.9712933E+03  0.7818609E-02  0.9340602E-01
        4   -1    0    0  501    0  0.00000000000E+00  0.00000000000E+00  0.88946135344E+03  0.88946226011E+03  0.12699999809E+01 0.  1.
       -4   -1    0    0    0  501  0.00000000000E+00  0.00000000000E+00 -0.26516093166E+03  0.26516397301E+03  0.12699999809E+01 0. -1.
    10030    2    1    2    0    0  0.00000000000E+00  0.00000000000E+00  0.62430042177E+03  0.11546262331E+04  0.97129332417E+03 0.  0.
        5    1    3    3  502    0 -0.36730649081E+03 -0.84783853912E+02  0.67608722302E+03  0.77409197335E+03  0.46999998093E+01 0.  1.
       -5    1    3    3    0  502  0.36730649081E+03  0.84783853912E+02 -0.51786801242E+02  0.38053425977E+03  0.46999998093E+01 0. -1.
</event>
<event>
 5   0  0.1663497E-02  0.1003650E+04  0.7818609E-02  0.9304551E-01
       -2   -1    0    0    0  501  0.00000000000E+00  0.00000000000E+00  0.11486011549E+03  0.11486011552E+03  0.25500000920E-02 0. -1.
        2   -1    0    0  501    0  0.00000000000E+00  0.00000000000E+00 -0.21924767614E+04  0.21924767614E+04  0.25500000920E-02 0.  1.
    10030    2    1    2    0    0  0.00000000000E+00  0.00000000000E+00 -0.20776166460E+04  0.23073368770E+04  0.10036496083E+04 0.  0.
        1    1    3    3  502    0 -0.92044400828E+02  0.38870211566E+03 -0.17371230664E+04  0.17824584299E+04  0.50400001928E-02 0.  1.
       -1    1    3    3    0  502  0.92044400828E+02 -0.38870211566E+03 -0.34049357951E+03  0.52487844703E+03  0.50400001928E-02 0. -1.
</event>
<event>
 5   0  0.1656859E-02  0.8611084E+03  0.7818609E-02  0.9475548E-01
        2   -1    0    0  501    0  0.00000000000E+00  0.00000000000E+00  0.38111471645E+03  0.38111471646E+03  0.25500000920E-02 0. -1.
       -2   -1    0    0    0  501  0.00000000000E+00  0.00000000000E+00 -0.48640719042E+03  0.48640719042E+03  0.25500000920E-02 0.  1.
    10030    2    1    2    0    0  0.00000000000E+00  0.00000000000E+00 -0.10529247396E+03  0.86752190688E+03  0.86110844488E+03 0.  0.
        4    1    3    3  502    0 -0.10858575749E+03  0.27449901510E+03  0.26311235242E+03  0.39543684567E+03  0.12699999809E+01 0. -1.
       -4    1    3    3    0  502  0.10858575749E+03 -0.27449901510E+03 -0.36840482638E+03  0.47208506121E+03  0.12699999809E+01 0.  1.
</event>
<event>
 5   0  0.9507815E-03  0.1014279E+04  0.7818609E-02  0.9293021E-01
        1   -1    0    0  501    0  0.00000000000E+00  0.00000000000E+00  0.37675057541E+03  0.37675057545E+03  0.50400001928E-02 0.  1.
       -1   -1    0    0    0  501  0.00000000000E+00  0.00000000000E+00 -0.68265428184E+03  0.68265428186E+03  0.50400001928E-02 0. -1.
    10030    2    1    2    0    0  0.00000000000E+00  0.00000000000E+00 -0.30590370643E+03  0.10594048573E+04  0.10142788443E+04 0.  0.
        1    1    3    3  502    0  0.35466957610E+03  0.29173824805E+03  0.71768283501E+02  0.46481437169E+03  0.50400001928E-02 0.  1.
       -1    1    3    3    0  502 -0.35466957610E+03 -0.29173824805E+03 -0.37767198993E+03  0.59459048562E+03  0.50400001928E-02 0. -1.
</event>
<event>
 5   0  0.9759443E-03  0.9843220E+03  0.7818609E-02  0.9325909E-01
       -1   -1    0    0    0  501  0.00000000000E+00  0.00000000000E+00  0.28459526490E+03  0.28459526495E+03  0.50400001928E-02 0.  1.
        1   -1    0    0  501    0  0.00000000000E+00  0.00000000000E+00 -0.85111194466E+03  0.85111194467E+03  0.50400001928E-02 0. -1.
    10030    2    1    2    0    0  0.00000000000E+00  0.00000000000E+00 -0.56651667976E+03  0.11357072096E+04  0.98432195827E+03 0.  0.
        2    1    3    3  502    0  0.16671548068E+03  0.25019874411E+03 -0.73283786778E+03  0.79211413541E+03  0.25500000920E-02 0. -1.
       -2    1    3    3    0  502 -0.16671548068E+03 -0.25019874411E+03  0.16632118803E+03  0.34359307421E+03  0.25500000920E-02 0.  1.
</event>
<event>
 5   0  0.9396660E-03  0.9644399E+03  0.7818609E-02  0.9348430E-01
       -1   -1    0    0    0  501  0.00000000000E+00  0.00000000000E+00  0.29529662086E+03  0.29529662090E+03  0.50400001928E-02 0.  1.
        1   -1    0    0  501    0  0.00000000000E+00  0.00000000000E+00 -0.78746614912E+03  0.78746614913E+03  0.50400001928E-02 0. -1.
    10030    2    1    2    0    0  0.00000000000E+00  0.00000000000E+00 -0.49216952826E+03  0.10827627700E+04  0.96443992640E+03 0.  0.
        5    1    3    3  502    0 -0.30113434240E+03 -0.22661328602E+03  0.91615110700E+02  0.38787999701E+03  0.46999998093E+01 0.  1.
       -5    1    3    3    0  502  0.30113434240E+03  0.22661328602E+03 -0.58378463896E+03  0.69488277303E+03  0.46999998093E+01 0. -1.
</event>
<event>
 5   0  0.6314750E-03  0.9806267E+03  0.7818609E-02  0.9330052E-01
       -3   -1    0    0    0  501  0.00000000000E+00  0.00000000000E+00  0.76121354728E+03  0.76121355398E+03  0.10100000352E+00 0.  1.
        3   -1    0    0  501    0  0.00000000000E+00  0.00000000000E+00 -0.31582093469E+03  0.31582095084E+03  0.10100000352E+00 0. -1.
    10030    2    1    2    0    0  0.00000000000E+00  0.00000000000E+00  0.44539261260E+03  0.10770345048E+04  0.98062671044E+03 0.  0.
        2    1    3    3  502    0  0.17561992008E+03 -0.44718975388E+03  0.33023087541E+03  0.58298667513E+03  0.25500000920E-02 0.  1.
       -2    1    3    3    0  502 -0.17561992008E+03  0.44718975388E+03  0.11516173719E+03  0.49404782969E+03  0.25500000920E-02 0. -1.
</event>
<event>
 5   0  0.1000773E-02  0.9910065E+03  0.7818609E-02  0.9318464E-01
        1   -1    0    0  501    0  0.00000000000E+00  0.00000000000E+00  0.14818217628E+04  0.14818217629E+04  0.50400001928E-02 0. -1.
       -1   -1    0    0    0  501  0.00000000000E+00  0.00000000000E+00 -0.16569028789E+03  0.16569028796E+03  0.50400001928E-02 0.  1.
    10030    2    1    2    0    0  0.00000000000E+00  0.00000000000E+00  0.13161314750E+04  0.16475120508E+04  0.99100650765E+03 0.  0.
        3    1    3    3  502    0  0.11373693932E+03 -0.47628627799E+03  0.78400493228E+03  0.92436381041E+03  0.10100000352E+00 0.  1.
       -3    1    3    3    0  502 -0.11373693932E+03  0.47628627799E+03  0.53212654268E+03  0.72314824040E+03  0.10100000352E+00 0. -1.
</event>
<event>
 5   0  0.1656859E-02  0.1029437E+04  0.7818609E-02  0.9276836E-01
        2   -1    0    0  501    0  0.00000000000E+00  0.00000000000E+00  0.66365114722E+03  0.66365114722E+03  0.25500000920E-02 0. -1.
       -2   -1    0    0    0  501  0.00000000000E+00  0.00000000000E+00 -0.39920826720E+03  0.39920826721E+03  0.25500000920E-02 0.  1.
    10030    2    1    2    0    0  0.00000000000E+00  0.00000000000E+00  0.26444288002E+03  0.10628594144E+04  0.10294367868E+04 0.  0.
        4    1    3    3  502    0  0.39206023934E+03  0.33172649220E+03  0.96759324635E+02  0.52260661755E+03  0.12699999809E+01 0.  1.
       -4    1    3    3    0  502 -0.39206023934E+03 -0.33172649220E+03  0.16768355538E+03  0.54025279689E+03  0.12699999809E+01 0. -1.
</event>
<event>
 5   0  0.9507815E-03  0.1056409E+04  0.7818609E-02  0.9248752E-01
        1   -1    0    0  501    0  0.00000000000E+00  0.00000000000E+00  0.12764951933E+04  0.12764951933E+04  0.50400001928E-02 0.  1.
       -1   -1    0    0    0  501  0.00000000000E+00  0.00000000000E+00 -0.21856725589E+03  0.21856725595E+03  0.50400001928E-02 0. -1.
    10030    2    1    2    0    0  0.00000000000E+00  0.00000000000E+00  0.10579279374E+04  0.14950624493E+04  0.10564091094E+04 0.  0.
        1    1    3    3  502    0  0.40248155111E+03 -0.34124922771E+03  0.56238310876E+03  0.77117909427E+03  0.50400001928E-02 0.  1.
       -1    1    3    3    0  502 -0.40248155111E+03  0.34124922771E+03  0.49554482865E+03  0.72388335498E+03  0.50400001928E-02 0. -1.
</event>
<event>
 5   0  0.1617721E-02  0.9722337E+03  0.7818609E-02  0.9339534E-01
       -2   -1    0    0    0  501  0.00000000000E+00  0.00000000000E+00  0.32794541784E+03  0.32794541785E+03  0.25500000920E-02 0. -1.
        2   -1    0    0  501    0  0.00000000000E+00  0.00000000000E+00 -0.72057600847E+03  0.72057600847E+03  0.25500000920E-02 0.  1.
    10030    2    1    2    0    0  0.00000000000E+00  0.00000000000E+00 -0.39263059063E+03  0.10485214263E+04  0.97223371715E+03 0.  0.
        5    1    3    3  502    0  0.30843190793E+03 -0.58194637531E+02 -0.59661474120E+03  0.67415732368E+03  0.46999998093E+01 0.  1.
       -5    1    3    3    0  502 -0.30843190793E+03  0.58194637531E+02  0.20398415057E+03  0.37436410264E+03  0.46999998093E+01 0. -1.
</event>
<event>
 5   0  0.1617721E-02  0.9877041E+03  0.7818609E-02  0.9322134E-01
       -2   -1    0    0    0  501  0.00000000000E+00  0.00000000000E+00  0.17116423214E+03  0.17116423216E+03  0.25500000920E-02 0.  1.
        2   -1    0    0  501    0  0.00000000000E+00  0.00000000000E+00 -0.14248879715E+04  0.14248879715E+04  0.25500000920E-02 0. -1.
    10030    2    1    2    0    0  0.00000000000E+00  0.00000000000E+00 -0.12537237393E+04  0.15960522036E+04  0.98770411671E+03 0.  0.
        5    1    3    3  502    0  0.57312314655E+02 -0.13589239189E+03 -0.13884329868E+04  0.13962520161E+04  0.46999998093E+01 0. -1.
       -5    1    3    3    0  502 -0.57312314655E+02  0.13589239189E+03  0.13470924749E+03  0.19980018754E+03  0.46999998093E+01 0.  1.
</event>
<event>
 5   0  0.1617721E-02  0.9564192E+03  0.7818609E-02  0.9357679E-01
        2   -1    0    0  501    0  0.00000000000E+00  0.00000000000E+00  0.63416391557E+03  0.63416391558E+03  0.25500000920E-02 0. -1.
       -2   -1    0    0    0  501  0.00000000000E+00  0.00000000000E+00 -0.36060774628E+03  0.36060774629E+03  0.25500000920E-02 0.  1.
    10030    2    1    2    0    0  0.00000000000E+00  0.00000000000E+00  0.27355616929E+03  0.99477166187E+03  0.95641919758E+03 0.  0.
        5    1    3    3  502    0  0.15204629039E+03  0.32552058331E+03  0.46499616578E+03  0.58764381114E+03  0.46999998093E+01 0. -1.
       -5    1    3    3    0  502 -0.15204629039E+03 -0.32552058331E+03 -0.19143999649E+03  0.40712785073E+03  0.46999998093E+01 0.  1.
</event>
<event>
 5   0  0.1571895E-02  0.9769236E+03  0.7818609E-02  0.9334223E-01
        2   -1    0    0  501    0  0.00000000000E+00  0.00000000000E+00  0.21722871948E+04  0.21722871948E+04  0.25500000920E-02 0. -1.
       -2   -1    0    0    0  501  0.00000000000E+00  0.00000000000E+00 -0.10983582031E+03  0.10983582034E+03  0.25500000920E-02 0.  1.
    10030    2    1    2    0    0  0.00000000000E+00  0.00000000000E+00  0.20624513745E+04  0.22821230151E+04  0.97692363270E+03 0.  0.
        2    1    3    3  502    0 -0.13944835032E+03  0.26878256393E+02  0.21229959489E+04  0.21277406050E+04  0.25500000920E-02 0. -1.
       -2    1    3    3    0  502  0.13944835032E+03 -0.26878256393E+02 -0.60544574397E+02  0.15438241017E+03  0.25500000920E-02 0.  1.
</event>
<event>
 5   0  0.9471140E-03  0.7961093E+03  0.7818609E-02  0.9565666E-01
        1   -1    0    0  501    0  0.00000000000E+00  0.00000000000E+00  0.73527821865E+03  0.73527821867E+03  0.50400001928E-02 0. -1.
       -1   -1    0    0    0  501  0.00000000000E+00  0.00000000000E+00 -0.21549328387E+03  0.21549328393E+03  0.50400001928E-02 0.  1.
    10030    2    1    2    0    0  0.00000000000E+00  0.00000000000E+00  0.51978493478E+03  0.95077150259E+03  0.79610933402E+03 0.  0.
        4    1    3    3  502    0  0.24842546237E+03 -0.30878153458E+03  0.21545239162E+03  0.45109044814E+03  0.12699999809E+01 0.  1.
       -4    1    3    3    0  502 -0.24842546237E+03  0.30878153458E+03  0.30433254316E+03  0.49968105445E+03  0.12699999809E+01 0. -1.
</event>
<event>
 5   0  0.1663497E-02  0.9965773E+03  0.7818609E-02  0.9312307E-01
       -2   -1    0    0    0  501  0.00000000000E+00  0.00000000000E+00  0.22158447502E+03  0.22158447503E+03  0.25500000920E-02 0.  1.
        2   -1    0    0  501    0  0.00000000000E+00  0.00000000000E+00 -0.11205278800E+04  0.11205278800E+04  0.25500000920E-02 0. -1.
    10030    2    1    2    0    0  0.00000000000E+00  0.00000000000E+00 -0.89894340496E+03  0.13421123550E+04  0.99657730666E+03 0.  0.
        1    1    3    3  502    0  0.55028680734E+02 -0.14256465579E+03  0.18924756167E+03  0.24324365646E+03  0.50400001928E-02 0.  1.
       -1    1    3    3    0  502 -0.55028680734E+02  0.14256465579E+03 -0.10881909666E+04  0.10988686986E+04  0.50400001928E-02 0. -1.
</event>
<event>
 5   0  0.1617721E-02  0.1002140E+04  0.7818609E-02  0.9306200E-01
       -2   -1    0    0    0  501  0.00000000000E+00  0.00000000000E+00  0.18793197896E+03  0.18793197897E+03  0.25500000920E-02 0. -1.
        2   -1    0    0  501    0  0.00000000000E+00  0.00000000000E+00 -0.13359691733E+04  0.13359691734E+04  0.25500000920E-02 0.  1.
    10030    2    1    2    0    0  0.00000000000E+00  0.00000000000E+00 -0.11480371944E+04  0.15239011523E+04  0.10021403706E+04 0.  0.
        5    1    3    3  502    0 -0.45127266431E+03  0.63270598581E+02 -0.89080634269E+03  0.10006039258E+04  0.46999998093E+01 0.  1.
       -5    1    3    3    0  502  0.45127266431E+03 -0.63270598581E+02 -0.25723085170E+03  0.52329722650E+03  0.46999998093E+01 0. -1.
</event>
<event>
 5   0  0.1656859E-02  0.1010743E+04  0.7818609E-02  0.9296840E-01
       -2   -1    0    0    0  501  0.00000000000E+00  0.00000000000E+00  0.28891730713E+03  0.28891730714E+03  0.25500000920E-02 0.  1.
        2   -1    0    0  501    0  0.00000000000E+00  0.00000000000E+00 -0.88399072710E+03  0.88399072710E+03  0.25500000920E-02 0. -1.
    10030    2    1    2    0    0  0.00000000000E+00  0.00000000000E+00 -0.59507341997E+03  0.11729080342E+04  0.10107427376E+04 0.  0.
        4    1    3    3  502    0  0.27026776523E+03  0.93752044574E+02  0.18591575430E+03  0.34117501577E+03  0.12699999809E+01 0.  1.
       -4    1    3    3    0  502 -0.27026776523E+03 -0.93752044574E+02 -0.78098917427E+03  0.83173301847E+03  0.12699999809E+01 0. -1.
</event>
<event>
 5   0  0.1598986E-02  0.1051712E+04  0.7818609E-02  0.9253579E-01
       -2   -1    0    0    0  501  0.00000000000E+00  0.00000000000E+00  0.42928224438E+03  0.42928224439E+03  0.25500000920E-02 0. -1.
        2   -1    0    0  501    0  0.00000000000E+00  0.00000000000E+00 -0.64415509472E+03  0.64415509473E+03  0.25500000920E-02 0.  1.
    10030    2    1    2    0    0  0.00000000000E+00  0.00000000000E+00 -0.21487285034E+03  0.10734373391E+04  0.10517116426E+04 0.  0.
        3    1    3    3  502    0 -0.44519140319E+03  0.63870876653E+02 -0.38555286848E+03  0.59238998890E+03  0.10100000352E+00 0.  1.
       -3    1    3    3    0  502  0.44519140319E+03 -0.63870876653E+02  0.17068001814E+03  0.48104735022E+03  0.10100000352E+00 0. -1.
</event>
<event>
 5   0  0.1617721E-02  0.9990922E+03  0.7818609E-02  0.9309541E-01
       -2   -1    0    0    0  501  0.00000000000E+00  0.00000000000E+00  0.71252358940E+03  0.71252358940E+03  0.25500000920E-02 0. -1.
        2   -1    0    0  501    0  0.00000000000E+00  0.00000000000E+00 -0.35022886559E+03  0.35022886559E+03  0.25500000920E-02 0.  1.
    10030    2    1    2    0    0  0.00000000000E+00  0.00000000000E+00  0.36229472381E+03  0.10627524550E+04  0.99909224484E+03 0.  0.
        5    1    3    3  502    0  0.58010780780E+02 -0.33785887629E+03 -0.20533577453E+03  0.39962324917E+03  0.46999998093E+01 0.  1.
       -5    1    3    3    0  502 -0.58010780780E+02  0.33785887629E+03  0.56763049835E+03  0.66312920583E+03  0.46999998093E+01 0. -1.
</event>
<event>
 5   0  0.9471140E-03  0.9432200E+03  0.7818609E-02  0.9373111E-01
       -1   -1    0    0    0  501  0.00000000000E+00  0.00000000000E+00  0.24251064314E+03  0.24251064319E+03  0.50400001928E-02 0. -1.
        1   -1    0    0  501    0  0.00000000000E+00  0.00000000000E+00 -0.91713912827E+03  0.91713912829E+03  0.50400001928E-02 0.  1.
    10030    2    1    2    0    0  0.00000000000E+00  0.00000000000E+00 -0.67462848513E+03  0.11596497715E+04  0.94322001651E+03 0.  0.
        4    1    3    3  502    0 -0.44076570731E+02  0.42109273552E+03 -0.81916487576E+02  0.43124675052E+03  0.12699999809E+01 0. -1.
       -4    1    3    3    0  502  0.44076570731E+02 -0.42109273552E+03 -0.59271199756E+03  0.72840302096E+03  0.12699999809E+01 0.  1.
</event>
<event>
 5   0  0.1000773E-02  0.8351010E+03  0.7818609E-02  0.9510555E-01
       -1   -1    0    0    0  501  0.00000000000E+00  0.00000000000E+00  0.62461022925E+03  0.62461022927E+03  0.50400001928E-02 0.  1.
        1   -1    0    0  501    0  0.00000000000E+00  0.00000000000E+00 -0.27913157227E+03  0.27913157232E+03  0.50400001928E-02 0. -1.
    10030    2    1    2    0    0  0.00000000000E+00  0.00000000000E+00  0.34547865697E+03  0.90374180159E+03  0.83510103671E+03 0.  0.
        3    1    3    3  502    0 -0.21495041892E+03 -0.62413859729E+02 -0.20872351381E+03  0.30604687206E+03  0.10100000352E+00 0. -1.
       -3    1    3    3    0  502  0.21495041892E+03  0.62413859729E+02  0.55420217079E+03  0.59769492953E+03  0.10100000352E+00 0.  1.
</event>
<event>
 5   0  0.9396660E-03  0.1000523E+04  0.7818609E-02  0.9307972E-01
       -1   -1    0    0    0  501  0.00000000000E+00  0.00000000000E+00  0.76760781683E+03  0.76760781685E+03  0.50400001928E-02 0.  1.
        1   -1    0    0  501    0  0.00000000000E+00  0.00000000000E+00 -0.32602779952E+03  0.32602779956E+03  0.50400001928E-02 0. -1.
    10030    2    1    2    0    0  0.00000000000E+00  0.00000000000E+00  0.44158001731E+03  0.10936356164E+04  0.10005228382E+04 0.  0.
        5    1    3    3  502    0 -0.19604286698E+03 -0.31949660730E+03 -0.14129069398E+03  0.40061956764E+03  0.46999998093E+01 0. -1.
       -5    1    3    3    0  502  0.19604286698E+03  0.31949660730E+03  0.58287071129E+03  0.69301604877E+03  0.46999998093E+01 0.  1.
</event>
<event>
 5   0  0.1663497E-02  0.9069257E+03  0.7818609E-02  0.9416965E-01
       -2   -1    0    0    0  501  0.00000000000E+00  0.00000000000E+00  0.66708756174E+03  0.66708756175E+03  0.25500000920E-02 0. -1.
        2   -1    0    0  501    0  0.00000000000E+00  0.00000000000E+00 -0.30824822050E+03  0.30824822051E+03  0.25500000920E-02 0.  1.
    10030    2    1    2    0    0  0.00000000000E+00  0.00000000000E+00  0.35883934124E+03  0.97533578226E+03  0.90692569449E+03 0.  0.
        1    1    3    3  502    0 -0.16558275659E+03  0.32143393912E+03  0.47372466707E+03  0.59594671466E+03  0.50400001928E-02 0. -1.
       -1    1    3    3    0  502  0.16558275659E+03 -0.32143393912E+03 -0.11488532582E+03  0.37938906760E+03  0.50400001928E-02 0.  1.
</event>
<event>
 5   0  0.1617721E-02  0.1005182E+04  0.7818609E-02  0.9302879E-01
       -2   -1    0    0    0  501  0.00000000000E+00  0.00000000000E+00  0.48272919546E+03  0.48272919546E+03  0.25500000920E-02 0. -1.
        2   -1    0    0  501    0  0.00000000000E+00  0.00000000000E+00 -0.52327034292E+03  0.52327034292E+03  0.25500000920E-02 0.  1.
    10030    2    1    2    0    0  0.00000000000E+00  0.00000000000E+00 -0.40541147461E+02  0.10059995384E+04  0.10051823151E+04 0.  0.
        5    1    3    3  502    0  0.41061991472E+03 -0.48358921146E+01  0.26969533982E+03  0.49131432560E+03  0.46999998093E+01 0. -1.
       -5    1    3    3    0  502 -0.41061991472E+03  0.48358921146E+01 -0.31023648728E+03  0.51468521279E+03  0.46999998093E+01 0.  1.
</event>
<event>
 5   0  0.9396660E-03  0.1023474E+04  0.7818609E-02  0.9283167E-01
       -1   -1    0    0    0  501  0.00000000000E+00  0.00000000000E+00  0.47417157531E+03  0.47417157534E+03  0.50400001928E-02 0. -1.
        1   -1    0    0  501    0  0.00000000000E+00  0.00000000000E+00 -0.55227841282E+03  0.55227841284E+03  0.50400001928E-02 0.  1.
    10030    2    1    2    0    0  0.00000000000E+00  0.00000000000E+00 -0.78106837504E+02  0.10264499882E+04  0.10234739372E+04 0.  0.
        5    1    3    3  502    0 -0.37823025352E+03  0.20748465861E+03 -0.31507111153E+03  0.53422832530E+03  0.46999998093E+01 0.  1.
       -5    1    3    3    0  502  0.37823025352E+03 -0.20748465861E+03  0.23696427403E+03  0.49222166287E+03  0.46999998093E+01 0. -1.
</event>
<event>
 5   0  0.9507815E-03  0.1048824E+04  0.7818609E-02  0.9256559E-01
       -1   -1    0    0    0  501  0.00000000000E+00  0.00000000000E+00  0.24657905758E+03  0.24657905763E+03  0.50400001928E-02 0.  1.
        1   -1    0    0  501    0  0.00000000000E+00  0.00000000000E+00 -0.11152934556E+04  0.11152934556E+04  0.50400001928E-02 0. -1.
    10030    2    1    2    0    0  0.00000000000E+00  0.00000000000E+00 -0.86871439801E+03  0.13618725132E+04  0.10488241211E+04 0.  0.
        1    1    3    3  502    0  0.95949876277E+02 -0.31500574410E+03  0.95594277772E+02  0.34288957923E+03  0.50400001928E-02 0.  1.
       -1    1    3    3    0  502 -0.95949876277E+02  0.31500574410E+03 -0.96430867579E+03  0.10189829340E+04  0.50400001928E-02 0. -1.
</event>
<event>
 5   0  0.1571895E-02  0.1037862E+04  0.7818609E-02  0.9267966E-01
        2   -1    0    0  501    0  0.00000000000E+00  0.00000000000E+00  0.16296364563E+04  0.16296364563E+04  0.25500000920E-02 0.  1.
       -2   -1    0    0    0  501  0.00000000000E+00  0.00000000000E+00 -0.16524502364E+03  0.16524502366E+03  0.25500000920E-02 0. -1.
    10030    2    1    2    0    0  0.00000000000E+00  0.00000000000E+00  0.14643914326E+04  0.17948814799E+04  0.10378618689E+04 0.  0.
        2    1    3    3  502    0  0.57776762873E+02 -0.10307277132E+03 -0.14167005978E+03  0.18447914885E+03  0.25500000920E-02 0. -1.
       -2    1    3    3    0  502 -0.57776762873E+02  0.10307277132E+03  0.16060614924E+04  0.16104023311E+04  0.25500000920E-02 0.  1.
</event>
<event>
 5   0  0.9507815E-03  0.1004415E+04  0.7818609E-02  0.9303715E-01
       -1   -1    0    0    0  501  0.00000000000E+00  0.00000000000E+00  0.20956561375E+03  0.20956561381E+03  0.50400001928E-02 0. -1.
        1   -1    0    0  501    0  0.00000000000E+00  0.00000000000E+00 -0.12035017163E+04  0.12035017163E+04  0.50400001928E-02 0.  1.
    10030    2    1    2    0    0  0.00000000000E+00  0.00000000000E+00 -0.99393610258E+03  0.14130673302E+04  0.10044154039E+04 0.  0.
        1    1    3    3  502    0 -0.11765148020E+03 -0.26995748586E+03  0.75353595924E+02  0.30396887902E+03  0.50400001928E-02 0. -1.
       -1    1    3    3    0  502  0.11765148020E+03  0.26995748586E+03 -0.10692896985E+04  0.11090984511E+04  0.50400001928E-02 0.  1.
</event>
<event>
 5   0  0.1656859E-02  0.1000719E+04  0.7818609E-02  0.9307756E-01
       -2   -1    0    0    0  501  0.00000000000E+00  0.00000000000E+00  0.40600255453E+03  0.40600255454E+03  0.25500000920E-02 0. -1.
        2   -1    0    0  501    0  0.00000000000E+00  0.00000000000E+00 -0.61664556382E+03  0.61664556383E+03  0.25500000920E-02 0.  1.
    10030    2    1    2    0    0  0.00000000000E+00  0.00000000000E+00 -0.21064300929E+03  0.10226481184E+04  0.10007190898E+04 0.  0.
        4    1    3    3  502    0 -0.59712828094E+02 -0.36543462152E+02  0.40097130916E+03  0.40703888037E+03  0.12699999809E+01 0. -1.
       -4    1    3    3    0  502  0.59712828094E+02  0.36543462152E+02 -0.61161431845E+03  0.61560923799E+03  0.12699999809E+01 0.  1.
</event>
<event>
 5   0  0.1663497E-02  0.9639364E+03  0.7818609E-02  0.9349008E-01
        2   -1    0    0  501    0  0.00000000000E+00  0.00000000000E+00  0.74928635020E+03  0.74928635021E+03  0.25500000920E-02 0. -1.
       -2   -1    0    0    0  501  0.00000000000E+00  0.00000000000E+00 -0.31001947942E+03  0.31001947943E+03  0.25500000920E-02 0.  1.
    10030    2    1    2    0    0  0.00000000000E+00  0.00000000000E+00  0.43926687078E+03  0.10593058296E+04  0.96393643822E+03 0.  0.
        1    1    3    3  502    0  0.28120261987E+03 -0.36342200322E+03  0.37942550648E+03  0.59591457513E+03  0.50400001928E-02 0. -1.
       -1    1    3    3    0  502 -0.28120261987E+03  0.36342200322E+03  0.59841364296E+02  0.46339125451E+03  0.50400001928E-02 0.  1.
</event>
<event>
 5   0  0.6314750E-03  0.9965064E+03  0.7818609E-02  0.9312385E-01
       -4   -1    0    0    0  501  0.00000000000E+00  0.00000000000E+00  0.40235661391E+03  0.40235861823E+03  0.12699999809E+01 0.  1.
        4   -1    0    0  501    0  0.00000000000E+00  0.00000000000E+00 -0.61700130960E+03  0.61700261665E+03  0.12699999809E+01 0. -1.
    10030    2    1    2    0    0  0.00000000000E+00  0.00000000000E+00 -0.21464469568E+03  0.10193612349E+04  0.99650638822E+03 0.  0.
        4    1    3    3  502    0  0.25463594415E+03  0.25577056536E+03 -0.45870696768E+03  0.58367091863E+03  0.12699999809E+01 0.  1.
       -4    1    3    3    0  502 -0.25463594415E+03 -0.25577056536E+03  0.24406227200E+03  0.43569031624E+03  0.12699999809E+01 0. -1.
</event>
<event>
 5   0  0.9507815E-03  0.1005918E+04  0.7818609E-02  0.9302078E-01
        1   -1    0    0  501    0  0.00000000000E+00  0.00000000000E+00  0.12666361978E+04  0.12666361978E+04  0.50400001928E-02 0.  1.
       -1   -1    0    0    0  501  0.00000000000E+00  0.00000000000E+00 -0.19971621303E+03  0.19971621309E+03  0.50400001928E-02 0. -1.
    10030    2    1    2    0    0  0.00000000000E+00  0.00000000000E+00  0.10669199848E+04  0.14663524109E+04  0.10059180578E+04 0.  0.
        1    1    3    3  502    0  0.40472645642E+03  0.11501927210E+03  0.13176509512E+03  0.44090245837E+03  0.50400001928E-02 0. -1.
       -1    1    3    3    0  502 -0.40472645642E+03 -0.11501927210E+03  0.93515488968E+03  0.10254499526E+04  0.50400001928E-02 0.  1.
</event>
<event>
 5   0  0.6314750E-03  0.1002694E+04  0.7818609E-02  0.9305595E-01
       -3   -1    0    0    0  501  0.00000000000E+00  0.00000000000E+00  0.10608125580E+04  0.10608125628E+04  0.10100000352E+00 0.  1.
        3   -1    0    0  501    0  0.00000000000E+00  0.00000000000E+00 -0.23694007838E+03  0.23694009991E+03  0.10100000352E+00 0. -1.
    10030    2    1    2    0    0  0.00000000000E+00  0.00000000000E+00  0.82387247961E+03  0.12977526627E+04  0.10026944255E+04 0.  0.
        2    1    3    3  502    0 -0.13759283670E+03 -0.59470323483E+02 -0.20725919189E+03  0.25578287808E+03  0.25500000920E-02 0. -1.
       -2    1    3    3    0  502  0.13759283670E+03  0.59470323483E+02  0.10311316715E+04  0.10419697846E+04  0.25500000920E-02 0.  1.
</event>
<event>
 5   0  0.1656859E-02  0.9730535E+03  0.7818609E-02  0.9338603E-01
        2   -1    0    0  501    0  0.00000000000E+00  0.00000000000E+00  0.77737534553E+03  0.77737534553E+03  0.25500000920E-02 0. -1.
       -2   -1    0    0    0  501  0.00000000000E+00  0.00000000000E+00 -0.30449676636E+03  0.30449676637E+03  0.25500000920E-02 0.  1.
    10030    2    1    2    0    0  0.00000000000E+00  0.00000000000E+00  0.47287857917E+03  0.10818721119E+04  0.97305350103E+03 0.  0.
        4    1    3    3  502    0  0.35698941122E+03 -0.19535495921E+03  0.53290815786E+03  0.67052048248E+03  0.12699999809E+01 0. -1.
       -4    1    3    3    0  502 -0.35698941122E+03  0.19535495921E+03 -0.60029578688E+02  0.41135162942E+03  0.12699999809E+01 0.  1.
</event>
<event>
 5   0  0.9471140E-03  0.9426716E+03  0.7818609E-02  0.9373758E-01
        1   -1    0    0  501    0  0.00000000000E+00  0.00000000000E+00  0.12236904470E+04  0.12236904470E+04  0.50400001928E-02 0. -1.
       -1   -1    0    0    0  501  0.00000000000E+00  0.00000000000E+00 -0.18154707700E+03  0.18154707707E+03  0.50400001928E-02 0.  1.
    10030    2    1    2    0    0  0.00000000000E+00  0.00000000000E+00  0.10421433700E+04  0.14052375241E+04  0.94267157349E+03 0.  0.
        4    1    3    3  502    0  0.10279317822E+02  0.37705613714E+03  0.94238495364E+03  0.10150704452E+04  0.12699999809E+01 0. -1.
       -4    1    3    3    0  502 -0.10279317822E+02 -0.37705613714E+03  0.99758416367E+02  0.39016707891E+03  0.12699999809E+01 0.  1.
</event>
<event>
 5   0  0.1656859E-02  0.1011011E+04  0.7818609E-02  0.9296550E-01
       -2   -1    0    0    0  501  0.00000000000E+00  0.00000000000E+00  0.19434692460E+03  0.19434692461E+03  0.25500000920E-02 0. -1.
        2   -1    0    0  501    0  0.00000000000E+00  0.00000000000E+00 -0.13148444197E+04  0.13148444197E+04  0.25500000920E-02 0.  1.
    10030    2    1    2    0    0  0.00000000000E+00  0.00000000000E+00 -0.11204974951E+04  0.15091913443E+04  0.10110113141E+04 0.  0.
        4    1    3    3  502    0 -0.17087836286E+03 -0.36709406083E+03 -0.10851634851E+03  0.41920743694E+03  0.12699999809E+01 0. -1.
       -4    1    3    3    0  502  0.17087836286E+03  0.36709406083E+03 -0.10119811466E+04  0.10899839074E+04  0.12699999809E+01 0.  1.
</event>
<event>
 5   0  0.9759443E-03  0.1032646E+04  0.7818609E-02  0.9273447E-01
       -1   -1    0    0    0  501  0.00000000000E+00  0.00000000000E+00  0.97355071276E+03  0.97355071277E+03  0.50400001928E-02 0. -1.
        1   -1    0    0  501    0  0.00000000000E+00  0.00000000000E+00 -0.27383194486E+03  0.27383194490E+03  0.50400001928E-02 0.  1.
    10030    2    1    2    0    0  0.00000000000E+00  0.00000000000E+00  0.69971876790E+03  0.12473826577E+04  0.10326456994E+04 0.  0.
        2    1    3    3  502    0  0.64506212705E+00 -0.29682844271E+02  0.97251872976E+03  0.97297182235E+03  0.25500000920E-02 0. -1.
       -2    1    3    3    0  502 -0.64506212705E+00  0.29682844271E+02 -0.27279996186E+03  0.27441083533E+03  0.25500000920E-02 0.  1.
</event>
<event>
 5   0  0.1663497E-02  0.1014669E+04  0.7818609E-02  0.9292601E-01
        2   -1    0    0  501    0  0.00000000000E+00  0.00000000000E+00  0.22257498810E+04  0.22257498810E+04  0.25500000920E-02 0. -1.
       -2   -1    0    0    0  501  0.00000000000E+00  0.00000000000E+00 -0.11564122731E+03  0.11564122734E+03  0.25500000920E-02 0.  1.
    10030    2    1    2    0    0  0.00000000000E+00  0.00000000000E+00  0.21101086537E+04  0.23413911083E+04  0.10146693017E+04 0.  0.
        1    1    3    3  502    0  0.42566980234E+03  0.99999667201E+02  0.46136685651E+03  0.63565249184E+03  0.50400001928E-02 0.  1.
       -1    1    3    3    0  502 -0.42566980234E+03 -0.99999667201E+02  0.16487417972E+04  0.17057386165E+04  0.50400001928E-02 0. -1.
</event>
<event>
 5   0  0.9507815E-03  0.1015007E+04  0.7818609E-02  0.9292237E-01
        1   -1    0    0  501    0  0.00000000000E+00  0.00000000000E+00  0.55725567326E+03  0.55725567329E+03  0.50400001928E-02 0. -1.
       -1   -1    0    0    0  501  0.00000000000E+00  0.00000000000E+00 -0.46219314292E+03  0.46219314295E+03  0.50400001928E-02 0.  1.
    10030    2    1    2    0    0  0.00000000000E+00  0.00000000000E+00  0.95062530346E+02  0.10194488162E+04  0.10150068986E+04 0.  0.
        1    1    3    3  502    0 -0.44585950132E+03 -0.21003556962E+03 -0.74052682059E+02  0.49838683286E+03  0.50400001928E-02 0.  1.
       -1    1    3    3    0  502  0.44585950132E+03  0.21003556962E+03  0.16911521240E+03  0.52106198337E+03  0.50400001928E-02 0. -1.
</event>
<event>
 5   0  0.9507815E-03  0.1005292E+04  0.7818609E-02  0.9302759E-01
       -1   -1    0    0    0  501  0.00000000000E+00  0.00000000000E+00  0.23180267387E+03  0.23180267393E+03  0.50400001928E-02 0.  1.
        1   -1    0    0  501    0  0.00000000000E+00  0.00000000000E+00 -0.10899492586E+04  0.10899492586E+04  0.50400001928E-02 0. -1.
    10030    2    1    2    0    0  0.00000000000E+00  0.00000000000E+00 -0.85814658472E+03  0.13217519325E+04  0.10052923009E+04 0.  0.
        1    1    3    3  502    0 -0.30469345394E+03 -0.30721837340E+03 -0.92753490355E+02  0.44252055300E+03  0.50400001928E-02 0.  1.
       -1    1    3    3    0  502  0.30469345394E+03  0.30721837340E+03 -0.76539309436E+03  0.87923137953E+03  0.50400001928E-02 0. -1.
</event>
<event>
 5   0  0.1000773E-02  0.8245451E+03  0.7818609E-02  0.9525153E-01
        1   -1    0    0  501    0  0.00000000000E+00  0.00000000000E+00  0.59060116121E+03  0.59060116123E+03  0.50400001928E-02 0. -1.
       -1   -1    0    0    0  501  0.00000000000E+00  0.00000000000E+00 -0.28778926367E+03  0.28778926372E+03  0.50400001928E-02 0.  1.
    10030    2    1    2    0    0  0.00000000000E+00  0.00000000000E+00  0.30281189754E+03  0.87839042495E+03  0.82454514331E+03 0.  0.
        3    1    3    3  502    0  0.26528282547E+03 -0.29545924875E+03  0.33270050425E+02  0.39846963700E+03  0.10100000352E+00 0. -1.
       -3    1    3    3    0  502 -0.26528282547E+03  0.29545924875E+03  0.26954184711E+03  0.47992078795E+03  0.10100000352E+00 0.  1.
</event>
<event>
 5   0  0.1598986E-02  0.1003294E+04  0.7818609E-02  0.9304939E-01
        2   -1    0    0  501    0  0.00000000000E+00  0.00000000000E+00  0.14906099010E+04  0.14906099010E+04  0.25500000920E-02 0. -1.
       -2   -1    0    0    0  501  0.00000000000E+00  0.00000000000E+00 -0.16882340416E+03  0.16882340418E+03  0.25500000920E-02 0.  1.
    10030    2    1    2    0    0  0.00000000000E+00  0.00000000000E+00  0.13217864968E+04  0.16594333052E+04  0.10032942495E+04 0.  0.
        3    1    3    3  502    0 -0.39081263220E+03 -0.20722972973E+03  0.26958986174E+03  0.51803221727E+03  0.10100000352E+00 0.  1.
       -3    1    3    3    0  502  0.39081263220E+03  0.20722972973E+03  0.10521966351E+04  0.11414010879E+04  0.10100000352E+00 0. -1.
</event>
<event>
 5   0  0.1571895E-02  0.1038256E+04  0.7818609E-02  0.9267554E-01
        2   -1    0    0  501    0  0.00000000000E+00  0.00000000000E+00  0.32394027819E+03  0.32394027820E+03  0.25500000920E-02 0.  1.
       -2   -1    0    0    0  501  0.00000000000E+00  0.00000000000E+00 -0.83192429310E+03  0.83192429310E+03  0.25500000920E-02 0. -1.
    10030    2    1    2    0    0  0.00000000000E+00  0.00000000000E+00 -0.50798401490E+03  0.11558645713E+04  0.10382558200E+04 0.  0.
        2    1    3    3  502    0 -0.20624651139E+03 -0.28440223080E+03 -0.67947810457E+03  0.76492662847E+03  0.25500000920E-02 0. -1.
       -2    1    3    3    0  502  0.20624651139E+03  0.28440223080E+03  0.17149408966E+03  0.39093794283E+03  0.25500000920E-02 0.  1.
</event>
<event>
 5   0  0.9759443E-03  0.9941874E+03  0.7818609E-02  0.9314943E-01
        1   -1    0    0  501    0  0.00000000000E+00  0.00000000000E+00  0.26197567297E+03  0.26197567302E+03  0.50400001928E-02 0. -1.
       -1   -1    0    0    0  501  0.00000000000E+00  0.00000000000E+00 -0.94322562154E+03  0.94322562155E+03  0.50400001928E-02 0.  1.
    10030    2    1    2    0    0  0.00000000000E+00  0.00000000000E+00 -0.68124994857E+03  0.12052012946E+04  0.99418744108E+03 0.  0.
        2    1    3    3  502    0  0.30162713598E+03  0.81793371483E+02 -0.80923836446E+03  0.86748822200E+03  0.25500000920E-02 0.  1.
       -2    1    3    3    0  502 -0.30162713598E+03 -0.81793371483E+02  0.12798841589E+03  0.33771307257E+03  0.25500000920E-02 0. -1.
</event>
<event>
 5   0  0.1663497E-02  0.9958757E+03  0.7818609E-02  0.9313080E-01
        2   -1    0    0  501    0  0.00000000000E+00  0.00000000000E+00  0.20567792504E+03  0.20567792506E+03  0.25500000920E-02 0. -1.
       -2   -1    0    0    0  501  0.00000000000E+00  0.00000000000E+00 -0.12054871626E+04  0.12054871626E+04  0.25500000920E-02 0.  1.
    10030    2    1    2    0    0  0.00000000000E+00  0.00000000000E+00 -0.99980923752E+03  0.14111650876E+04  0.99587569158E+03 0.  0.
        1    1    3    3  502    0  0.15041747404E+02 -0.45086099013E+03 -0.20118706026E+03  0.49394141336E+03  0.50400001928E-02 0. -1.
       -1    1    3    3    0  502 -0.15041747404E+02  0.45086099013E+03 -0.79862217725E+03  0.91722367426E+03  0.50400001928E-02 0.  1.
</event>
<event>
 5   0  0.1617721E-02  0.9910372E+03  0.7818609E-02  0.9318430E-01
        2   -1    0    0  501    0  0.00000000000E+00  0.00000000000E+00  0.17521842386E+04  0.17521842386E+04  0.25500000920E-02 0. -1.
       -2   -1    0    0    0  501  0.00000000000E+00  0.00000000000E+00 -0.14013292727E+03  0.14013292729E+03  0.25500000920E-02 0.  1.
    10030    2    1    2    0    0  0.00000000000E+00  0.00000000000E+00  0.16120513114E+04  0.18923171659E+04  0.99103724752E+03 0.  0.
        5    1    3    3  502    0  0.84155506776E+02 -0.32217935937E+03  0.15066461259E+04  0.15430120958E+04  0.46999998093E+01 0. -1.
       -5    1    3    3    0  502 -0.84155506776E+02  0.32217935937E+03  0.10540518545E+03  0.34930507016E+03  0.46999998093E+01 0.  1.
</event>
<event>
 5   0  0.9471140E-03  0.9946203E+03  0.7818609E-02  0.9314465E-01
        1   -1    0    0  501    0  0.00000000000E+00  0.00000000000E+00  0.25892639274E+04  0.25892639274E+04  0.50400001928E-02 0.  1.
       -1   -1    0    0    0  501  0.00000000000E+00  0.00000000000E+00 -0.95516481483E+02  0.95516481616E+02  0.50400001928E-02 0. -1.
    10030    2    1    2    0    0  0.00000000000E+00  0.00000000000E+00  0.24937474460E+04  0.26847804091E+04  0.99462028969E+03 0.  0.
        4    1    3    3  502    0 -0.76594612968E+02 -0.31498692856E+02 -0.76766773856E+02  0.11293207186E+03  0.12699999809E+01 0. -1.
       -4    1    3    3    0  502  0.76594612968E+02  0.31498692856E+02  0.25705142198E+04  0.25718483372E+04  0.12699999809E+01 0.  1.
</event>
<event>
 5   0  0.1663497E-02  0.9953278E+03  0.7818609E-02  0.9313684E-01
        2   -1    0    0  501    0  0.00000000000E+00  0.00000000000E+00  0.13879618175E+04  0.13879618175E+04  0.25500000920E-02 0.  1.
       -2   -1    0    0    0  501  0.00000000000E+00  0.00000000000E+00 -0.17844103896E+03  0.17844103898E+03  0.25500000920E-02 0. -1.
    10030    2    1    2    0    0  0.00000000000E+00  0.00000000000E+00  0.12095207785E+04  0.15664028564E+04  0.99532778271E+03 0.  0.
        1    1    3    3  502    0 -0.17484777518E+03  0.46419390578E+03  0.54138623673E+03  0.73426615337E+03  0.50400001928E-02 0.  1.
       -1    1    3    3    0  502  0.17484777518E+03 -0.46419390578E+03  0.66813454178E+03  0.83213670307E+03  0.50400001928E-02 0. -1.
</event>
<event>
 5   0  0.9507815E-03  0.9675980E+03  0.7818609E-02  0.9344814E-01
       -1   -1    0    0    0  501  0.00000000000E+00  0.00000000000E+00  0.50307569553E+03  0.50307569555E+03  0.50400001928E-02 0. -1.
        1   -1    0    0  501    0  0.00000000000E+00  0.00000000000E+00 -0.46526093660E+03  0.46526093663E+03  0.50400001928E-02 0.  1.
    10030    2    1    2    0    0  0.00000000000E+00  0.00000000000E+00  0.37814758928E+02  0.96833663218E+03  0.96759799360E+03 0.  0.
        1    1    3    3  502    0 -0.18574680175E+03 -0.23771991399E+02  0.46533589279E+03  0.50160190896E+03  0.50400001928E-02 0. -1.
       -1    1    3    3    0  502  0.18574680175E+03  0.23771991399E+02 -0.42752113386E+03  0.46673472322E+03  0.50400001928E-02 0.  1.
</event>
<event>
 5   0  0.1663497E-02  0.8845243E+03  0.7818609E-02  0.9445136E-01
       -2   -1    0    0    0  501  0.00000000000E+00  0.00000000000E+00  0.15930192694E+03  0.15930192696E+03  0.25500000920E-02 0. -1.
        2   -1    0    0  501    0  0.00000000000E+00  0.00000000000E+00 -0.12278306463E+04  0.12278306463E+04  0.25500000920E-02 0.  1.
    10030    2    1    2    0    0  0.00000000000E+00  0.00000000000E+00 -0.10685287193E+04  0.13871325732E+04  0.88452425161E+03 0.  0.
        1    1    3    3  502    0 -0.23399941083E+03  0.16635301346E+02 -0.11222195717E+04  0.11464768748E+04  0.50400001928E-02 0.  1.
       -1    1    3    3    0  502  0.23399941083E+03 -0.16635301346E+02  0.53690852322E+02  0.24065569839E+03  0.50400001928E-02 0. -1.
</event>
<event>
 5   0  0.9471140E-03  0.9804096E+03  0.7818609E-02  0.9330296E-01
       -1   -1    0    0    0  501  0.00000000000E+00  0.00000000000E+00  0.30659681567E+03  0.30659681572E+03  0.50400001928E-02 0. -1.
        1   -1    0    0  501    0  0.00000000000E+00  0.00000000000E+00 -0.78376791758E+03  0.78376791759E+03  0.50400001928E-02 0.  1.
    10030    2    1    2    0    0  0.00000000000E+00  0.00000000000E+00 -0.47717110190E+03  0.10903647333E+04  0.98040960376E+03 0.  0.
        4    1    3    3  502    0 -0.33422283521E+03  0.33176111892E+03 -0.38997227257E+03  0.61143301340E+03  0.12699999809E+01 0.  1.
       -4    1    3    3    0  502  0.33422283521E+03 -0.33176111892E+03 -0.87198829336E+02  0.47893171991E+03  0.12699999809E+01 0. -1.
</event>
<event>
 5   0  0.1571895E-02  0.9997397E+03  0.7818609E-02  0.9308830E-01
       -2   -1    0    0    0  501  0.00000000000E+00  0.00000000000E+00  0.18973030450E+03  0.18973030452E+03  0.25500000920E-02 0. -1.
        2   -1    0    0  501    0  0.00000000000E+00  0.00000000000E+00 -0.13169740313E+04  0.13169740313E+04  0.25500000920E-02 0.  1.
    10030    2    1    2    0    0  0.00000000000E+00  0.00000000000E+00 -0.11272437268E+04  0.15067043358E+04  0.99973973411E+03 0.  0.
        2    1    3    3  502    0 -0.23258687032E+02  0.20998544999E+03  0.11913618373E+03  0.24254543082E+03  0.25500000920E-02 0. -1.
       -2    1    3    3    0  502  0.23258687032E+02 -0.20998544999E+03 -0.12463799105E+04  0.12641589050E+04  0.25500000920E-02 0.  1.
</event>
<event>
 5   0  0.1571895E-02  0.1007661E+04  0.7818609E-02  0.9300182E-01
        2   -1    0    0  501    0  0.00000000000E+00  0.00000000000E+00  0.14402981169E+04  0.14402981169E+04  0.25500000920E-02 0.  1.
       -2   -1    0    0    0  501  0.00000000000E+00  0.00000000000E+00 -0.17624497928E+03  0.17624497930E+03  0.25500000920E-02 0. -1.
    10030    2    1    2    0    0  0.00000000000E+00  0.00000000000E+00  0.12640531376E+04  0.16165430962E+04  0.10076612760E+04 0.  0.
        2    1    3    3  502    0  0.44934184137E+03 -0.22439949181E+03  0.69583649405E+03  0.85816761113E+03  0.25500000920E-02 0. -1.
       -2    1    3    3    0  502 -0.44934184137E+03  0.22439949181E+03  0.56821664359E+03  0.75837548509E+03  0.25500000920E-02 0.  1.
</event>
<event>
 5   0  0.9471140E-03  0.9968204E+03  0.7818609E-02  0.9312039E-01
       -1   -1    0    0    0  501  0.00000000000E+00  0.00000000000E+00  0.33052904726E+03  0.33052904729E+03  0.50400001928E-02 0. -1.
        1   -1    0    0  501    0  0.00000000000E+00  0.00000000000E+00 -0.75156095277E+03  0.75156095278E+03  0.50400001928E-02 0.  1.
    10030    2    1    2    0    0  0.00000000000E+00  0.00000000000E+00 -0.42103190551E+03  0.10820900001E+04  0.99682039647E+03 0.  0.
        4    1    3    3  502    0 -0.20619737749E+03  0.42185155823E+03 -0.39195089840E+03  0.61163977578E+03  0.12699999809E+01 0.  1.
       -4    1    3    3    0  502  0.20619737749E+03 -0.42185155823E+03 -0.29081007110E+02  0.47045022429E+03  0.12699999809E+01 0. -1.
</event>
<event>
 5   0  0.9396660E-03  0.1035375E+04  0.7818609E-02  0.9270575E-01
       -1   -1    0    0    0  501  0.00000000000E+00  0.00000000000E+00  0.18890374623E+03  0.18890374630E+03  0.50400001928E-02 0. -1.
        1   -1    0    0  501    0  0.00000000000E+00  0.00000000000E+00 -0.14187144555E+04  0.14187144555E+04  0.50400001928E-02 0.  1.
    10030    2    1    2    0    0  0.00000000000E+00  0.00000000000E+00 -0.12298107093E+04  0.16076182018E+04  0.10353752470E+04 0.  0.
        5    1    3    3  502    0  0.42290130522E+03 -0.29323243028E+03 -0.70201692261E+03  0.87044851758E+03  0.46999998093E+01 0.  1.
       -5    1    3    3    0  502 -0.42290130522E+03  0.29323243028E+03 -0.52779378669E+03  0.73716968426E+03  0.46999998093E+01 0. -1.
</event>
<event>
 5   0  0.6314750E-03  0.9984680E+03  0.7818609E-02  0.9310227E-01
       -4   -1    0    0    0  501  0.00000000000E+00  0.00000000000E+00  0.11578088941E+04  0.11578095907E+04  0.12699999809E+01 0. -1.
        4   -1    0    0  501    0  0.00000000000E+00  0.00000000000E+00 -0.21526137605E+03  0.21526512239E+03  0.12699999809E+01 0.  1.
    10030    2    1    2    0    0  0.00000000000E+00  0.00000000000E+00  0.94254751810E+03  0.13730747131E+04  0.99846799839E+03 0.  0.
        5    1    3    3  502    0 -0.13656128854E+03 -0.47392399698E+03  0.36511228158E+03  0.61366278085E+03  0.46999998093E+01 0.  1.
       -5    1    3    3    0  502  0.13656128854E+03  0.47392399698E+03  0.57743523651E+03  0.75941193222E+03  0.46999998093E+01 0. -1.
</event>
<event>
 5   0  0.1598986E-02  0.7805874E+03  0.7818609E-02  0.9588549E-01
        2   -1    0    0  501    0  0.00000000000E+00  0.00000000000E+00  0.40359512382E+03  0.40359512383E+03  0.25500000920E-02 0.  1.
       -2   -1    0    0    0  501  0.00000000000E+00  0.00000000000E+00 -0.37743062138E+03  0.37743062139E+03  0.25500000920E-02 0. -1.
    10030    2    1    2    0    0  0.00000000000E+00  0.00000000000E+00  0.26164502441E+02  0.78102574521E+03  0.78058736442E+03 0.  0.
        3    1    3    3  502    0  0.19724538948E+03  0.31801994784E+02  0.34854958961E+03  0.40175108857E+03  0.10100000352E+00 0.  1.
       -3    1    3    3    0  502 -0.19724538948E+03 -0.31801994784E+02 -0.32238508717E+03  0.37927465665E+03  0.10100000352E+00 0. -1.
</event>
<event>
 5   0  0.9759443E-03  0.1145602E+04  0.7818609E-02  0.9161851E-01
       -1   -1    0    0    0  501  0.00000000000E+00  0.00000000000E+00  0.32676766732E+03  0.32676766736E+03  0.50400001928E-02 0.  1.
        1   -1    0    0  501    0  0.00000000000E+00  0.00000000000E+00 -0.10040795687E+04  0.10040795688E+04  0.50400001928E-02 0. -1.
    10030    2    1    2    0    0  0.00000000000E+00  0.00000000000E+00 -0.67731190142E+03  0.13308472361E+04  0.11456015686E+04 0.  0.
        2    1    3    3  502    0  0.45784958819E+02 -0.28804549527E+03 -0.91135750909E+03  0.95689026496E+03  0.25500000920E-02 0. -1.
       -2    1    3    3    0  502 -0.45784958819E+02  0.28804549527E+03  0.23404560766E+03  0.37395697115E+03  0.25500000920E-02 0.  1.
</event>
<event>
 5   0  0.9507815E-03  0.1107133E+04  0.7818609E-02  0.9198267E-01
       -1   -1    0    0    0  501  0.00000000000E+00  0.00000000000E+00  0.13147513463E+04  0.13147513463E+04  0.50400001928E-02 0. -1.
        1   -1    0    0  501    0  0.00000000000E+00  0.00000000000E+00 -0.23307512512E+03  0.23307512518E+03  0.50400001928E-02 0.  1.
    10030    2    1    2    0    0  0.00000000000E+00  0.00000000000E+00  0.10816762211E+04  0.15478264715E+04  0.11071329362E+04 0.  0.
        1    1    3    3  502    0  0.28066735753E+02 -0.54484144092E+03  0.67195618744E+03  0.86554321398E+03  0.50400001928E-02 0.  1.
       -1    1    3    3    0  502 -0.28066735753E+02  0.54484144092E+03  0.40972003371E+03  0.68228325748E+03  0.50400001928E-02 0. -1.
</event>
<event>
 5   0  0.1663497E-02  0.9829582E+03  0.7818609E-02  0.9327436E-01
        2   -1    0    0  501    0  0.00000000000E+00  0.00000000000E+00  0.20353905748E+03  0.20353905750E+03  0.25500000920E-02 0. -1.
       -2   -1    0    0    0  501  0.00000000000E+00  0.00000000000E+00 -0.11867584558E+04  0.11867584558E+04  0.25500000920E-02 0.  1.
    10030    2    1    2    0    0  0.00000000000E+00  0.00000000000E+00 -0.98321939836E+03  0.13902975133E+04  0.98295818339E+03 0.  0.
        1    1    3    3  502    0 -0.14372950795E+02  0.40072837991E+03 -0.89656104383E+02  0.41088688620E+03  0.50400001928E-02 0. -1.
       -1    1    3    3    0  502  0.14372950795E+02 -0.40072837991E+03 -0.89356329397E+03  0.97941062713E+03  0.50400001928E-02 0.  1.
</event>
<event>
 5   0  0.9396660E-03  0.9644551E+03  0.7818609E-02  0.9348413E-01
       -1   -1    0    0    0  501  0.00000000000E+00  0.00000000000E+00  0.21383445981E+03  0.21383445987E+03  0.50400001928E-02 0.  1.
        1   -1    0    0  501    0  0.00000000000E+00  0.00000000000E+00 -0.10874927071E+04  0.10874927071E+04  0.50400001928E-02 0. -1.
    10030    2    1    2    0    0  0.00000000000E+00  0.00000000000E+00 -0.87365824728E+03  0.13013271670E+04  0.96445511169E+03 0.  0.
        5    1    3    3  502    0 -0.35143324143E+03  0.23341059452E+03 -0.12173223559E+03  0.43912032064E+03  0.46999998093E+01 0.  1.
       -5    1    3    3    0  502  0.35143324143E+03 -0.23341059452E+03 -0.75192601169E+03  0.86220684634E+03  0.46999998093E+01 0. -1.
</event>
<event>
 5   0  0.9396660E-03  0.9410064E+03  0.7818609E-02  0.9375725E-01
       -1   -1    0    0    0  501  0.00000000000E+00  0.00000000000E+00  0.57714399141E+03  0.57714399144E+03  0.50400001928E-02 0. -1.
        1   -1    0    0  501    0  0.00000000000E+00  0.00000000000E+00 -0.38356681500E+03  0.38356681503E+03  0.50400001928E-02 0.  1.
    10030    2    1    2    0    0  0.00000000000E+00  0.00000000000E+00  0.19357717641E+03  0.96071080647E+03  0.94100644548E+03 0.  0.
        5    1    3    3  502    0 -0.92208690144E+02  0.39226383245E+03  0.34472738756E+03  0.53031350965E+03  0.46999998093E+01 0. -1.
       -5    1    3    3    0  502  0.92208690144E+02 -0.39226383245E+03 -0.15115021114E+03  0.43039729682E+03  0.46999998093E+01 0.  1.
</event>
<event>
 5   0  0.1571895E-02  0.9957697E+03  0.7818609E-02  0.9313197E-01
       -2   -1    0    0    0  501  0.00000000000E+00  0.00000000000E+00  0.59710523594E+03  0.59710523595E+03  0.25500000920E-02 0.  1.
        2   -1    0    0  501    0  0.00000000000E+00  0.00000000000E+00 -0.41515182169E+03  0.41515182170E+03  0.25500000920E-02 0. -1.
    10030    2    1    2    0    0  0.00000000000E+00  0.00000000000E+00  0.18195341425E+03  0.10122570576E+04  0.99576970520E+03 0.  0.
        2    1    3    3  502    0  0.26945087829E+02 -0.48910878538E+03  0.41813209108E+00  0.48985060634E+03  0.25500000920E-02 0. -1.
       -2    1    3    3    0  502 -0.26945087829E+02  0.48910878538E+03  0.18153528215E+03  0.52240645131E+03  0.25500000920E-02 0.  1.
</event>
<event>
 5   0  0.1571895E-02  0.1012838E+04  0.7818609E-02  0.9294575E-01
       -2   -1    0    0    0  501  0.00000000000E+00  0.00000000000E+00  0.78818034464E+03  0.78818034464E+03  0.25500000920E-02 0. -1.
        2   -1    0    0  501    0  0.00000000000E+00  0.00000000000E+00 -0.32538293702E+03  0.32538293703E+03  0.25500000920E-02 0.  1.
    10030    2    1    2    0    0  0.00000000000E+00  0.00000000000E+00  0.46279740762E+03  0.11135632817E+04  0.10128384579E+04 0.  0.
        2    1    3    3  502    0 -0.32156895407E+03  0.11945152746E+03 -0.17818838562E+03  0.38655705971E+03  0.25500000920E-02 0.  1.
       -2    1    3    3    0  502  0.32156895407E+03 -0.11945152746E+03  0.64098579324E+03  0.72700622196E+03  0.25500000920E-02 0. -1.
</event>
<event>
 5   0  0.1000773E-02  0.1002717E+04  0.7818609E-02  0.9305570E-01
       -1   -1    0    0    0  501  0.00000000000E+00  0.00000000000E+00  0.55161071635E+03  0.55161071638E+03  0.50400001928E-02 0. -1.
        1   -1    0    0  501    0  0.00000000000E+00  0.00000000000E+00 -0.45568421927E+03  0.45568421930E+03  0.50400001928E-02 0.  1.
    10030    2    1    2    0    0  0.00000000000E+00  0.00000000000E+00  0.95926497081E+02  0.10072949357E+04  0.10027169065E+04 0.  0.
        3    1    3    3  502    0  0.34656781151E+03  0.14914687676E+02 -0.31566812886E+03  0.46901820184E+03  0.10100000352E+00 0.  1.
       -3    1    3    3    0  502 -0.34656781151E+03 -0.14914687676E+02  0.41159462594E+03  0.53827673383E+03  0.10100000352E+00 0. -1.
</event>
<event>
 5   0  0.1617721E-02  0.1025268E+04  0.7818609E-02  0.9281257E-01
        2   -1    0    0  501    0  0.00000000000E+00  0.00000000000E+00  0.27032060159E+03  0.27032060160E+03  0.25500000920E-02 0. -1.
       -2   -1    0    0    0  501  0.00000000000E+00  0.00000000000E+00 -0.97215611775E+03  0.97215611775E+03  0.25500000920E-02 0.  1.
    10030    2    1    2    0    0  0.00000000000E+00  0.00000000000E+00 -0.70183551616E+03  0.12424767194E+04  0.10252684070E+04 0.  0.
        5    1    3    3  502    0  0.13723110344E+03 -0.42090565799E+03 -0.66407805717E+03  0.79813263603E+03  0.46999998093E+01 0.  1.
       -5    1    3    3    0  502 -0.13723110344E+03  0.42090565799E+03 -0.37757458983E+02  0.44434408332E+03  0.46999998093E+01 0. -1.
</event>
<event>
 5   0  0.9471140E-03  0.1004435E+04  0.7818609E-02  0.9303693E-01
       -1   -1    0    0    0  501  0.00000000000E+00  0.00000000000E+00  0.25982125695E+03  0.25982125700E+03  0.50400001928E-02 0.  1.
        1   -1    0    0  501    0  0.00000000000E+00  0.00000000000E+00 -0.97075433788E+03  0.97075433790E+03  0.50400001928E-02 0. -1.
    10030    2    1    2    0    0  0.00000000000E+00  0.00000000000E+00 -0.71093308093E+03  0.12305755949E+04  0.10044353883E+04 0.  0.
        4    1    3    3  502    0 -0.45820150263E+03  0.13619926776E+03 -0.16677030252E+03  0.50627344810E+03  0.12699999809E+01 0. -1.
       -4    1    3    3    0  502  0.45820150263E+03 -0.13619926776E+03 -0.54416277841E+03  0.72430214679E+03  0.12699999809E+01 0.  1.
</event>
<event>
 5   0  0.1571895E-02  0.9791579E+03  0.7818609E-02  0.9331704E-01
       -2   -1    0    0    0  501  0.00000000000E+00  0.00000000000E+00  0.33731999325E+03  0.33731999326E+03  0.25500000920E-02 0. -1.
        2   -1    0    0  501    0  0.00000000000E+00  0.00000000000E+00 -0.71056432050E+03  0.71056432050E+03  0.25500000920E-02 0.  1.
    10030    2    1    2    0    0  0.00000000000E+00  0.00000000000E+00 -0.37324432724E+03  0.10478843138E+04  0.97915790719E+03 0.  0.
        2    1    3    3  502    0 -0.20545867924E+03 -0.17294742159E+03 -0.62469898926E+03  0.67998007817E+03  0.25500000920E-02 0.  1.
       -2    1    3    3    0  502  0.20545867924E+03  0.17294742159E+03  0.25145466202E+03  0.36790423560E+03  0.25500000920E-02 0. -1.
</event>
<event>
 5   0  0.1000773E-02  0.9689517E+03  0.7818609E-02  0.9343269E-01
        1   -1    0    0  501    0  0.00000000000E+00  0.00000000000E+00  0.11766396216E+04  0.11766396216E+04  0.50400001928E-02 0.  1.
       -1   -1    0    0    0  501  0.00000000000E+00  0.00000000000E+00 -0.19948067010E+03  0.19948067016E+03  0.50400001928E-02 0. -1.
    10030    2    1    2    0    0  0.00000000000E+00  0.00000000000E+00  0.97715895148E+03  0.13761202917E+04  0.96895172269E+03 0.  0.
        3    1    3    3  502    0  0.26485533859E+03  0.47345603255E+02  0.10607816430E+04  0.10943708973E+04  0.10100000352E+00 0.  1.
       -3    1    3    3    0  502 -0.26485533859E+03 -0.47345603255E+02 -0.83622691534E+02  0.28174939444E+03  0.10100000352E+00 0. -1.
</event>
<event>
 5   0  0.9396660E-03  0.9771683E+03  0.7818609E-02  0.9333947E-01
       -1   -1    0    0    0  501  0.00000000000E+00  0.00000000000E+00  0.17397559421E+03  0.17397559429E+03  0.50400001928E-02 0. -1.
        1   -1    0    0  501    0  0.00000000000E+00  0.00000000000E+00 -0.13721147603E+04  0.13721147603E+04  0.50400001928E-02 0.  1.
    10030    2    1    2    0    0  0.00000000000E+00  0.00000000000E+00 -0.11981391661E+04  0.15460903546E+04  0.97716831880E+03 0.  0.
        5    1    3    3  502    0 -0.36805262410E+03 -0.30543772577E+02 -0.11051230194E+04  0.11652101245E+04  0.46999998093E+01 0.  1.
       -5    1    3    3    0  502  0.36805262410E+03  0.30543772577E+02 -0.93016146668E+02  0.38088023011E+03  0.46999998093E+01 0. -1.
</event>
<event>
 5   0  0.9759443E-03  0.1037962E+04  0.7818609E-02  0.9267862E-01
        1   -1    0    0  501    0  0.00000000000E+00  0.00000000000E+00  0.30246667296E+03  0.30246667301E+03  0.50400001928E-02 0. -1.
       -1   -1    0    0    0  501  0.00000000000E+00  0.00000000000E+00 -0.89048211200E+03  0.89048211201E+03  0.50400001928E-02 0.  1.
    10030    2    1    2    0    0  0.00000000000E+00  0.00000000000E+00 -0.58801543903E+03  0.11929487850E+04  0.10379617754E+04 0.  0.
        2    1    3    3  502    0 -0.31580996576E+03 -0.38472670125E+03 -0.12512985804E+03  0.51323293981E+03  0.25500000920E-02 0. -1.
       -2    1    3    3    0  502  0.31580996576E+03  0.38472670125E+03 -0.46288558099E+03  0.67971584521E+03  0.25500000920E-02 0.  1.
</event>
<event>
 5   0  0.9396660E-03  0.1014969E+04  0.7818609E-02  0.9292278E-01
       -1   -1    0    0    0  501  0.00000000000E+00  0.00000000000E+00  0.60978499298E+03  0.60978499300E+03  0.50400001928E-02 0.  1.
        1   -1    0    0  501    0  0.00000000000E+00  0.00000000000E+00 -0.42234647980E+03  0.42234647983E+03  0.50400001928E-02 0. -1.
    10030    2    1    2    0    0  0.00000000000E+00  0.00000000000E+00  0.18743851318E+03  0.10321314728E+04  0.10149690542E+04 0.  0.
        5    1    3    3  502    0 -0.27498638613E+03 -0.33396598756E+03 -0.17603529449E+03  0.46707741147E+03  0.46999998093E+01 0. -1.
       -5    1    3    3    0  502  0.27498638613E+03  0.33396598756E+03  0.36347380767E+03  0.56505406136E+03  0.46999998093E+01 0.  1.
</event>
<event>
 5   0  0.1571895E-02  0.9835422E+03  0.7818609E-02  0.9326782E-01
        2   -1    0    0  501    0  0.00000000000E+00  0.00000000000E+00  0.19388447053E+04  0.19388447053E+04  0.25500000920E-02 0. -1.
       -2   -1    0    0    0  501  0.00000000000E+00  0.00000000000E+00 -0.12473346255E+03  0.12473346258E+03  0.25500000920E-02 0.  1.
    10030    2    1    2    0    0  0.00000000000E+00  0.00000000000E+00  0.18141112427E+04  0.20635781679E+04  0.98354219731E+03 0.  0.
        2    1    3    3  502    0 -0.22747539390E+03 -0.15614554331E+02 -0.71274275417E+01  0.22812204928E+03  0.25500000920E-02 0.  1.
       -2    1    3    3    0  502  0.22747539390E+03  0.15614554331E+02  0.18212386703E+04  0.18354561186E+04  0.25500000920E-02 0. -1.
</event>
<event>
 5   0  0.1571895E-02  0.1006165E+04  0.7818609E-02  0.9301809E-01
       -2   -1    0    0    0  501  0.00000000000E+00  0.00000000000E+00  0.19133185577E+03  0.19133185579E+03  0.25500000920E-02 0. -1.
        2   -1    0    0  501    0  0.00000000000E+00  0.00000000000E+00 -0.13227909515E+04  0.13227909515E+04  0.25500000920E-02 0.  1.
    10030    2    1    2    0    0  0.00000000000E+00  0.00000000000E+00 -0.11314590957E+04  0.15141228073E+04  0.10061650910E+04 0.  0.
        2    1    3    3  502    0 -0.23486452322E+03  0.43159519921E+03 -0.40325999780E+03  0.63565272443E+03  0.25500000920E-02 0. -1.
       -2    1    3    3    0  502  0.23486452322E+03 -0.43159519921E+03 -0.72819909795E+03  0.87847008287E+03  0.25500000920E-02 0.  1.
</event>
<event>
 5   0  0.9759443E-03  0.9015604E+03  0.7818609E-02  0.9423633E-01
        1   -1    0    0  501    0  0.00000000000E+00  0.00000000000E+00  0.26403859905E+03  0.26403859910E+03  0.50400001928E-02 0. -1.
       -1   -1    0    0    0  501  0.00000000000E+00  0.00000000000E+00 -0.76959502689E+03  0.76959502691E+03  0.50400001928E-02 0.  1.
    10030    2    1    2    0    0  0.00000000000E+00  0.00000000000E+00 -0.50555642784E+03  0.10336336260E+04  0.90156040900E+03 0.  0.
        2    1    3    3  502    0  0.25113558747E+03 -0.26474758043E+03 -0.55620393587E+03  0.66522415991E+03  0.25500000920E-02 0.  1.
       -2    1    3    3    0  502 -0.25113558747E+03  0.26474758043E+03  0.50647508035E+02  0.36840946610E+03  0.25500000920E-02 0. -1.
</event>
<event>
 5   0  0.1656859E-02  0.9920277E+03  0.7818609E-02  0.9317332E-01
       -2   -1    0    0    0  501  0.00000000000E+00  0.00000000000E+00  0.25673600895E+03  0.25673600897E+03  0.25500000920E-02 0. -1.
        2   -1    0    0  501    0  0.00000000000E+00  0.00000000000E+00 -0.95829861942E+03  0.95829861942E+03  0.25500000920E-02 0.  1.
    10030    2    1    2    0    0  0.00000000000E+00  0.00000000000E+00 -0.70156261047E+03  0.12150346284E+04  0.99202774749E+03 0.  0.
        4    1    3    3  502    0 -0.35740966717E+03 -0.19150271249E+03 -0.70068216932E+03  0.80955053850E+03  0.12699999809E+01 0.  1.
       -4    1    3    3    0  502  0.35740966717E+03  0.19150271249E+03 -0.88044114341E+00  0.40548408989E+03  0.12699999809E+01 0. -1.
</event>
<event>
 5   0  0.6314750E-03  0.8071879E+03  0.7818609E-02  0.9549671E-01
       -3   -1    0    0    0  501  0.00000000000E+00  0.00000000000E+00  0.90457431617E+03  0.90457432181E+03  0.10100000352E+00 0.  1.
        3   -1    0    0  501    0  0.00000000000E+00  0.00000000000E+00 -0.18007149294E+03  0.18007152126E+03  0.10100000352E+00 0. -1.
    10030    2    1    2    0    0  0.00000000000E+00  0.00000000000E+00  0.72450282323E+03  0.10846458431E+04  0.80718787406E+03 0.  0.
        2    1    3    3  502    0 -0.15701522054E+03 -0.17953498409E+03 -0.75239749697E+02  0.25009520174E+03  0.25500000920E-02 0. -1.
       -2    1    3    3    0  502  0.15701522054E+03  0.17953498409E+03  0.79974257293E+03  0.83455064134E+03  0.25500000920E-02 0.  1.
</event>
<event>
 5   0  0.9396660E-03  0.1027306E+04  0.7818609E-02  0.9279093E-01
       -1   -1    0    0    0  501  0.00000000000E+00  0.00000000000E+00  0.19197611997E+03  0.19197612004E+03  0.50400001928E-02 0. -1.
        1   -1    0    0  501    0  0.00000000000E+00  0.00000000000E+00 -0.13743338965E+04  0.13743338966E+04  0.50400001928E-02 0.  1.
    10030    2    1    2    0    0  0.00000000000E+00  0.00000000000E+00 -0.11823577766E+04  0.15663100166E+04  0.10273057754E+04 0.  0.
        5    1    3    3  502    0  0.76293353218E+02 -0.89520564940E+02  0.17113332669E+03  0.20770968392E+03  0.46999998093E+01 0. -1.
       -5    1    3    3    0  502 -0.76293353218E+02  0.89520564940E+02 -0.13534911033E+04  0.13586003327E+04  0.46999998093E+01 0.  1.
</event>
<event>
 5   0  0.1000773E-02  0.8749893E+03  0.7818609E-02  0.9457398E-01
       -1   -1    0    0    0  501  0.00000000000E+00  0.00000000000E+00  0.34661909626E+03  0.34661909629E+03  0.50400001928E-02 0. -1.
        1   -1    0    0  501    0  0.00000000000E+00  0.00000000000E+00 -0.55219564964E+03  0.55219564966E+03  0.50400001928E-02 0.  1.
    10030    2    1    2    0    0  0.00000000000E+00  0.00000000000E+00 -0.20557655338E+03  0.89881474595E+03  0.87498927321E+03 0.  0.
        3    1    3    3  502    0 -0.20407066547E+03 -0.10227104723E+03  0.28060004224E+03  0.36171894823E+03  0.10100000352E+00 0. -1.
       -3    1    3    3    0  502  0.20407066547E+03  0.10227104723E+03 -0.48617659561E+03  0.53709579772E+03  0.10100000352E+00 0.  1.
</event>
<event>
 5   0  0.1571895E-02  0.1010936E+04  0.7818609E-02  0.9296631E-01
        2   -1    0    0  501    0  0.00000000000E+00  0.00000000000E+00  0.47892131655E+03  0.47892131656E+03  0.25500000920E-02 0.  1.
       -2   -1    0    0    0  501  0.00000000000E+00  0.00000000000E+00 -0.53348663577E+03  0.53348663578E+03  0.25500000920E-02 0. -1.
    10030    2    1    2    0    0  0.00000000000E+00  0.00000000000E+00 -0.54565319219E+02  0.10124079523E+04  0.10109364411E+04 0.  0.
        2    1    3    3  502    0 -0.16725429882E+03  0.25538763723E+02  0.44972136518E+03  0.48049509387E+03  0.25500000920E-02 0.  1.
       -2    1    3    3    0  502  0.16725429882E+03 -0.25538763723E+02 -0.50428668440E+03  0.53191285846E+03  0.25500000920E-02 0. -1.
</event>
<event>
 5   0  0.9507815E-03  0.9268606E+03  0.7818609E-02  0.9392614E-01
        1   -1    0    0  501    0  0.00000000000E+00  0.00000000000E+00  0.67793691973E+03  0.67793691975E+03  0.50400001928E-02 0. -1.
       -1   -1    0    0    0  501  0.00000000000E+00  0.00000000000E+00 -0.31679591783E+03  0.31679591787E+03  0.50400001928E-02 0.  1.
    10030    2    1    2    0    0  0.00000000000E+00  0.00000000000E+00  0.36114100190E+03  0.99473283762E+03  0.92686061249E+03 0.  0.
        1    1    3    3  502    0 -0.12058438106E+03  0.11012682644E+03 -0.28489278430E+03  0.32837845458E+03  0.50400001928E-02 0.  1.
       -1    1    3    3    0  502  0.12058438106E+03 -0.11012682644E+03  0.64603378620E+03  0.66635438304E+03  0.50400001928E-02 0. -1.
</event>
<event>
 5   0  0.1571895E-02  0.1011925E+04  0.7818609E-02  0.9295561E-01
       -2   -1    0    0    0  501  0.00000000000E+00  0.00000000000E+00  0.32112421937E+03  0.32112421938E+03  0.25500000920E-02 0. -1.
        2   -1    0    0  501    0  0.00000000000E+00  0.00000000000E+00 -0.79719356209E+03  0.79719356209E+03  0.25500000920E-02 0.  1.
    10030    2    1    2    0    0  0.00000000000E+00  0.00000000000E+00 -0.47606934271E+03  0.11183177815E+04  0.10119252153E+04 0.  0.
        2    1    3    3  502    0  0.15528648095E+03 -0.19208429494E+03  0.24996624268E+03  0.35141626316E+03  0.25500000920E-02 0. -1.
       -2    1    3    3    0  502 -0.15528648095E+03  0.19208429494E+03 -0.72603558539E+03  0.76690151831E+03  0.25500000920E-02 0.  1.
</event>
<event>
 5   0  0.1571895E-02  0.9925666E+03  0.7818609E-02  0.9316735E-01
        2   -1    0    0  501    0  0.00000000000E+00  0.00000000000E+00  0.21736553686E+04  0.21736553686E+04  0.25500000920E-02 0. -1.
       -2   -1    0    0    0  501  0.00000000000E+00  0.00000000000E+00 -0.11331010836E+03  0.11331010839E+03  0.25500000920E-02 0.  1.
    10030    2    1    2    0    0  0.00000000000E+00  0.00000000000E+00  0.20603452602E+04  0.22869654770E+04  0.99256662324E+03 0.  0.
        2    1    3    3  502    0 -0.23634852224E+03 -0.43468523643E+03  0.94137543805E+03  0.10634846469E+04  0.25500000920E-02 0.  1.
       -2    1    3    3    0  502  0.23634852224E+03  0.43468523643E+03  0.11189698222E+04  0.12234808301E+04  0.25500000920E-02 0. -1.
</event>
<event>
 5   0  0.1000773E-02  0.1007191E+04  0.7818609E-02  0.9300693E-01
       -1   -1    0    0    0  501  0.00000000000E+00  0.00000000000E+00  0.24944031454E+03  0.24944031459E+03  0.50400001928E-02 0. -1.
        1   -1    0    0  501    0  0.00000000000E+00  0.00000000000E+00 -0.10167097130E+04  0.10167097130E+04  0.50400001928E-02 0.  1.
    10030    2    1    2    0    0  0.00000000000E+00  0.00000000000E+00 -0.76726939842E+03  0.12661500276E+04  0.10071909266E+04 0.  0.
        3    1    3    3  502    0 -0.27287341995E+02 -0.16153860291E+03  0.21500465692E+03  0.27030784666E+03  0.10100000352E+00 0. -1.
       -3    1    3    3    0  502  0.27287341995E+02  0.16153860291E+03 -0.98227405534E+03  0.99584218090E+03  0.10100000352E+00 0.  1.
</event>
<event>
 5   0  0.9507815E-03  0.9819012E+03  0.7818609E-02  0.9328621E-01
        1   -1    0    0  501    0  0.00000000000E+00  0.00000000000E+00  0.77126135951E+03  0.77126135953E+03  0.50400001928E-02 0.  1.
       -1   -1    0    0    0  501  0.00000000000E+00  0.00000000000E+00 -0.31251728912E+03  0.31251728916E+03  0.50400001928E-02 0. -1.
    10030    2    1    2    0    0  0.00000000000E+00  0.00000000000E+00  0.45874407039E+03  0.10837786487E+04  0.98190123599E+03 0.  0.
        1    1    3    3  502    0 -0.51523454969E+02  0.40392444591E+02 -0.30767754090E+03  0.31456586781E+03  0.50400001928E-02 0. -1.
       -1    1    3    3    0  502  0.51523454969E+02 -0.40392444591E+02  0.76642161129E+03  0.76921278088E+03  0.50400001928E-02 0.  1.
</event>
<event>
 5   0  0.1000773E-02  0.1003371E+04  0.7818609E-02  0.9304856E-01
        1   -1    0    0  501    0  0.00000000000E+00  0.00000000000E+00  0.20408512509E+04  0.20408512509E+04  0.50400001928E-02 0.  1.
       -1   -1    0    0    0  501  0.00000000000E+00  0.00000000000E+00 -0.12332508744E+03  0.12332508755E+03  0.50400001928E-02 0. -1.
    10030    2    1    2    0    0  0.00000000000E+00  0.00000000000E+00  0.19175261635E+04  0.21641763385E+04  0.10033706376E+04 0.  0.
        3    1    3    3  502    0 -0.47741228357E+03 -0.10198398464E+03  0.70941010540E+03  0.86115383612E+03  0.10100000352E+00 0. -1.
       -3    1    3    3    0  502  0.47741228357E+03  0.10198398464E+03  0.12081160581E+04  0.13030225023E+04  0.10100000352E+00 0.  1.
</event>
<event>
 5   0  0.6314750E-03  0.8979975E+03  0.7818609E-02  0.9428088E-01
        3   -1    0    0  501    0  0.00000000000E+00  0.00000000000E+00  0.81086368634E+03  0.81086369263E+03  0.10100000352E+00 0.  1.
       -3   -1    0    0    0  501  0.00000000000E+00  0.00000000000E+00 -0.24862359042E+03  0.24862361093E+03  0.10100000352E+00 0. -1.
    10030    2    1    2    0    0  0.00000000000E+00  0.00000000000E+00  0.56224009592E+03  0.10594873036E+04  0.89799745041E+03 0.  0.
        2    1    3    3  502    0 -0.86678924271E+02 -0.17813123657E+03 -0.19427501428E+03  0.27746487081E+03  0.25500000920E-02 0. -1.
       -2    1    3    3    0  502  0.86678924271E+02  0.17813123657E+03  0.75651511020E+03  0.78202243275E+03  0.25500000920E-02 0.  1.
</event>
<event>
 5   0  0.9471140E-03  0.9466164E+03  0.7818609E-02  0.9369114E-01
       -1   -1    0    0    0  501  0.00000000000E+00  0.00000000000E+00  0.32463594125E+03  0.32463594129E+03  0.50400001928E-02 0.  1.
        1   -1    0    0  501    0  0.00000000000E+00  0.00000000000E+00 -0.69006727760E+03  0.69006727762E+03  0.50400001928E-02 0. -1.
    10030    2    1    2    0    0  0.00000000000E+00  0.00000000000E+00 -0.36543133635E+03  0.10147032189E+04  0.94661637472E+03 0.  0.
        4    1    3    3  502    0  0.37161531107E+03 -0.27455884865E+03 -0.72674555811E+02  0.46772182412E+03  0.12699999809E+01 0.  1.
       -4    1    3    3    0  502 -0.37161531107E+03  0.27455884865E+03 -0.29275678054E+03  0.54698139479E+03  0.12699999809E+01 0. -1.
</event>
<event>
 5   0  0.9471140E-03  0.9999510E+03  0.7818609E-02  0.9308599E-01
        1   -1    0    0  501    0  0.00000000000E+00  0.00000000000E+00  0.54598480271E+03  0.54598480274E+03  0.50400001928E-02 0.  1.
       -1   -1    0    0    0  501  0.00000000000E+00  0.00000000000E+00 -0.45784332146E+03  0.45784332149E+03  0.50400001928E-02 0. -1.
    10030    2    1    2    0    0  0.00000000000E+00  0.00000000000E+00  0.88141481252E+02  0.10038281242E+04  0.99995098993E+03 0.  0.
        4    1    3    3  502    0 -0.16476375452E+02  0.15144265391E+03 -0.43397679466E+03  0.45993893026E+03  0.12699999809E+01 0. -1.
       -4    1    3    3    0  502  0.16476375452E+02 -0.15144265391E+03  0.52211827591E+03  0.54388919396E+03  0.12699999809E+01 0.  1.
</event>
<event>
 5   0  0.1663497E-02  0.1060177E+04  0.7818609E-02  0.9244899E-01
        2   -1    0    0  501    0  0.00000000000E+00  0.00000000000E+00  0.31094077368E+03  0.31094077369E+03  0.25500000920E-02 0.  1.
       -2   -1    0    0    0  501  0.00000000000E+00  0.00000000000E+00 -0.90368988755E+03  0.90368988755E+03  0.25500000920E-02 0. -1.
    10030    2    1    2    0    0  0.00000000000E+00  0.00000000000E+00 -0.59274911387E+03  0.12146306612E+04  0.10601774055E+04 0.  0.
        1    1    3    3  502    0  0.22555749270E+02  0.24588002965E+03  0.24103446060E+03  0.34505559266E+03  0.50400001928E-02 0.  1.
       -1    1    3    3    0  502 -0.22555749270E+02 -0.24588002965E+03 -0.83378357447E+03  0.86957506858E+03  0.50400001928E-02 0. -1.
</event>
<event>
 5   0  0.1598986E-02  0.1014913E+04  0.7818609E-02  0.9292338E-01
        2   -1    0    0  501    0  0.00000000000E+00  0.00000000000E+00  0.81652308817E+03  0.81652308818E+03  0.25500000920E-02 0.  1.
       -2   -1    0    0    0  501  0.00000000000E+00  0.00000000000E+00 -0.31537643425E+03  0.31537643426E+03  0.25500000920E-02 0. -1.
    10030    2    1    2    0    0  0.00000000000E+00  0.00000000000E+00  0.50114665393E+03  0.11318995224E+04  0.10149130801E+04 0.  0.
        3    1    3    3  502    0 -0.11992180626E+03 -0.33011527204E+03  0.65906398683E+03  0.74680832976E+03  0.10100000352E+00 0.  1.
       -3    1    3    3    0  502  0.11992180626E+03  0.33011527204E+03 -0.15791733291E+03  0.38509119268E+03  0.10100000352E+00 0. -1.
</event>
<event>
 5   0  0.9396660E-03  0.9995304E+03  0.7818609E-02  0.9309060E-01
        1   -1    0    0  501    0  0.00000000000E+00  0.00000000000E+00  0.10545165209E+04  0.10545165209E+04  0.50400001928E-02 0.  1.
       -1   -1    0    0    0  501  0.00000000000E+00  0.00000000000E+00 -0.23685284480E+03  0.23685284485E+03  0.50400001928E-02 0. -1.
    10030    2    1    2    0    0  0.00000000000E+00  0.00000000000E+00  0.81766367607E+03  0.12913693657E+04  0.99953036552E+03 0.  0.
        5    1    3    3  502    0  0.32863807911E+03  0.12665879286E+03  0.86688741158E+03  0.93571433205E+03  0.46999998093E+01 0.  1.
       -5    1    3    3    0  502 -0.32863807911E+03 -0.12665879286E+03 -0.49223735511E+02  0.35565503369E+03  0.46999998093E+01 0. -1.
</event>
<event>
 5   0  0.1571895E-02  0.1046835E+04  0.7818609E-02  0.9258618E-01
        2   -1    0    0  501    0  0.00000000000E+00  0.00000000000E+00  0.45533772299E+03  0.45533772300E+03  0.25500000920E-02 0. -1.
       -2   -1    0    0    0  501  0.00000000000E+00  0.00000000000E+00 -0.60167639379E+03  0.60167639379E+03  0.25500000920E-02 0.  1.
    10030    2    1    2    0    0  0.00000000000E+00  0.00000000000E+00 -0.14633867079E+03  0.10570141168E+04  0.10468351525E+04 0.  0.
        2    1    3    3  502    0  0.34084409019E+03 -0.21212656274E+03  0.26594386317E+03  0.48155841889E+03  0.25500000920E-02 0. -1.
       -2    1    3    3    0  502 -0.34084409019E+03  0.21212656274E+03 -0.41228253396E+03  0.57545569791E+03  0.25500000920E-02 0.  1.
</event>
<event>
 5   0  0.1656859E-02  0.1153333E+04  0.7818609E-02  0.9154714E-01
       -2   -1    0    0    0  501  0.00000000000E+00  0.00000000000E+00  0.58079201675E+03  0.58079201676E+03  0.25500000920E-02 0. -1.
        2   -1    0    0  501    0  0.00000000000E+00  0.00000000000E+00 -0.57257015252E+03  0.57257015253E+03  0.25500000920E-02 0.  1.
    10030    2    1    2    0    0  0.00000000000E+00  0.00000000000E+00  0.82218642273E+01  0.11533621693E+04  0.11533328637E+04 0.  0.
        4    1    3    3  502    0 -0.25572575772E+03  0.45622390492E+02 -0.51074726737E+03  0.57301086350E+03  0.12699999809E+01 0.  1.
       -4    1    3    3    0  502  0.25572575772E+03 -0.45622390492E+02  0.51896913159E+03  0.58035130578E+03  0.12699999809E+01 0. -1.
</event>
<event>
 5   0  0.9471140E-03  0.9646145E+03  0.7818609E-02  0.9348230E-01
        1   -1    0    0  501    0  0.00000000000E+00  0.00000000000E+00  0.78426651443E+03  0.78426651445E+03  0.50400001928E-02 0.  1.
       -1   -1    0    0    0  501  0.00000000000E+00  0.00000000000E+00 -0.29660870208E+03  0.29660870213E+03  0.50400001928E-02 0. -1.
    10030    2    1    2    0    0  0.00000000000E+00  0.00000000000E+00  0.48765781235E+03  0.10808752166E+04  0.96461447836E+03 0.  0.
        4    1    3    3  502    0  0.16506314329E+03 -0.52427910000E+02  0.74821995141E+03  0.76800340859E+03  0.12699999809E+01 0.  1.
       -4    1    3    3    0  502 -0.16506314329E+03  0.52427910000E+02 -0.26056213906E+03  0.31287180799E+03  0.12699999809E+01 0. -1.
</event>
<event>
 5   0  0.1617721E-02  0.1005493E+04  0.7818609E-02  0.9302541E-01
        2   -1    0    0  501    0  0.00000000000E+00  0.00000000000E+00  0.11325770967E+04  0.11325770967E+04  0.25500000920E-02 0.  1.
       -2   -1    0    0    0  501  0.00000000000E+00  0.00000000000E+00 -0.22316700078E+03  0.22316700079E+03  0.25500000920E-02 0. -1.
    10030    2    1    2    0    0  0.00000000000E+00  0.00000000000E+00  0.90941009589E+03  0.13557440975E+04  0.10054925834E+04 0.  0.
        5    1    3    3  502    0  0.23625035617E+03 -0.29983399879E+03  0.13616876247E+02  0.38199760069E+03  0.46999998093E+01 0. -1.
       -5    1    3    3    0  502 -0.23625035617E+03  0.29983399879E+03  0.89579321964E+03  0.97374649677E+03  0.46999998093E+01 0.  1.
</event>
<event>
 5   0  0.1598986E-02  0.9856147E+03  0.7818609E-02  0.9324465E-01
       -2   -1    0    0    0  501  0.00000000000E+00  0.00000000000E+00  0.54959464845E+03  0.54959464846E+03  0.25500000920E-02 0.  1.
        2   -1    0    0  501    0  0.00000000000E+00  0.00000000000E+00 -0.44188767639E+03  0.44188767640E+03  0.25500000920E-02 0. -1.
    10030    2    1    2    0    0  0.00000000000E+00  0.00000000000E+00  0.10770697206E+03  0.99148232485E+03  0.98561473643E+03 0.  0.
        3    1    3    3  502    0 -0.33640160773E+03 -0.26146363149E+03 -0.19526940327E+03  0.46867837835E+03  0.10100000352E+00 0. -1.
       -3    1    3    3    0  502  0.33640160773E+03  0.26146363149E+03  0.30297637533E+03  0.52280394651E+03  0.10100000352E+00 0.  1.
</event>
<event>
 5   0  0.9471140E-03  0.1008079E+04  0.7818609E-02  0.9299728E-01
       -1   -1    0    0    0  501  0.00000000000E+00  0.00000000000E+00  0.24723232365E+03  0.24723232371E+03  0.50400001928E-02 0. -1.
        1   -1    0    0  501    0  0.00000000000E+00  0.00000000000E+00 -0.10276004116E+04  0.10276004116E+04  0.50400001928E-02 0.  1.
    10030    2    1    2    0    0  0.00000000000E+00  0.00000000000E+00 -0.78036808794E+03  0.12748327353E+04  0.10080794365E+04 0.  0.
        4    1    3    3  502    0  0.41751364356E+02  0.13052479353E+03 -0.10035870572E+04  0.10129010280E+04  0.12699999809E+01 0.  1.
       -4    1    3    3    0  502 -0.41751364356E+02 -0.13052479353E+03  0.22321896929E+03  0.26193170733E+03  0.12699999809E+01 0. -1.
</event>
<event>
 5   0  0.6314750E-03  0.9361754E+03  0.7818609E-02  0.9381457E-01
        3   -1    0    0  501    0  0.00000000000E+00  0.00000000000E+00  0.45699669886E+03  0.45699671002E+03  0.10100000352E+00 0. -1.
       -3   -1    0    0    0  501  0.00000000000E+00  0.00000000000E+00 -0.47944784078E+03  0.47944785142E+03  0.10100000352E+00 0.  1.
    10030    2    1    2    0    0  0.00000000000E+00  0.00000000000E+00 -0.22451141916E+02  0.93644456144E+03  0.93617539109E+03 0.  0.
        5    1    3    3  502    0  0.21945774754E+03  0.40278740238E+03 -0.10444360028E+03  0.47045717138E+03  0.46999998093E+01 0.  1.
       -5    1    3    3    0  502 -0.21945774754E+03 -0.40278740238E+03  0.81992458363E+02  0.46598739006E+03  0.46999998093E+01 0. -1.
</event>
<event>
 5   0  0.9507815E-03  0.9856648E+03  0.7818609E-02  0.9324409E-01
       -1   -1    0    0    0  501  0.00000000000E+00  0.00000000000E+00  0.17020600073E+03  0.17020600080E+03  0.50400001928E-02 0. -1.
        1   -1    0    0  501    0  0.00000000000E+00  0.00000000000E+00 -0.14269990221E+04  0.14269990221E+04  0.50400001928E-02 0.  1.
    10030    2    1    2    0    0  0.00000000000E+00  0.00000000000E+00 -0.12567930214E+04  0.15972050229E+04  0.98566484499E+03 0.  0.
        1    1    3    3  502    0  0.46382027998E+03  0.49873149845E+02 -0.37081773499E+03  0.59592145104E+03  0.50400001928E-02 0.  1.
       -1    1    3    3    0  502 -0.46382027998E+03 -0.49873149845E+02 -0.88597528640E+03  0.10012835719E+04  0.50400001928E-02 0. -1.
</event>
<event>
 5   0  0.1656859E-02  0.9865117E+03  0.7818609E-02  0.9323464E-01
       -2   -1    0    0    0  501  0.00000000000E+00  0.00000000000E+00  0.31118001996E+03  0.31118001997E+03  0.25500000920E-02 0. -1.
        2   -1    0    0  501    0  0.00000000000E+00  0.00000000000E+00 -0.78186678694E+03  0.78186678695E+03  0.25500000920E-02 0.  1.
    10030    2    1    2    0    0  0.00000000000E+00  0.00000000000E+00 -0.47068676698E+03  0.10930468069E+04  0.98651167733E+03 0.  0.
        4    1    3    3  502    0 -0.45017496263E+02  0.17794855011E+03  0.27192744103E+03  0.32808292784E+03  0.12699999809E+01 0. -1.
       -4    1    3    3    0  502  0.45017496263E+02 -0.17794855011E+03 -0.74261420801E+03  0.76496387908E+03  0.12699999809E+01 0.  1.
</event>
<event>
 5   0  0.1598986E-02  0.1005584E+04  0.7818609E-02  0.9302442E-01
       -2   -1    0    0    0  501  0.00000000000E+00  0.00000000000E+00  0.22756553480E+03  0.22756553482E+03  0.25500000920E-02 0. -1.
        2   -1    0    0  501    0  0.00000000000E+00  0.00000000000E+00 -0.11108871909E+04  0.11108871909E+04  0.25500000920E-02 0.  1.
    10030    2    1    2    0    0  0.00000000000E+00  0.00000000000E+00 -0.88332165608E+03  0.13384527257E+04  0.10055836866E+04 0.  0.
        3    1    3    3  502    0 -0.15280576640E+02 -0.34325015636E+03  0.46926152998E+02  0.34677981473E+03  0.10100000352E+00 0. -1.
       -3    1    3    3    0  502  0.15280576640E+02  0.34325015636E+03 -0.93024780908E+03  0.99167291098E+03  0.10100000352E+00 0.  1.
</event>
<event>
 5   0  0.1571895E-02  0.1000321E+04  0.7818609E-02  0.9308193E-01
       -2   -1    0    0    0  501  0.00000000000E+00  0.00000000000E+00  0.66963890915E+03  0.66963890916E+03  0.25500000920E-02 0.  1.
        2   -1    0    0  501    0  0.00000000000E+00  0.00000000000E+00 -0.37357537682E+03  0.37357537683E+03  0.25500000920E-02 0. -1.
    10030    2    1    2    0    0  0.00000000000E+00  0.00000000000E+00  0.29606353233E+03  0.10432142860E+04  0.10003211641E+04 0.  0.
        2    1    3    3  502    0  0.77305750658E+02 -0.44890529734E+03 -0.67389000227E+02  0.46047087033E+03  0.25500000920E-02 0.  1.
       -2    1    3    3    0  502 -0.77305750658E+02  0.44890529734E+03  0.36345253256E+03  0.58274341566E+03  0.25500000920E-02 0. -1.
</event>
<event>
 5   0  0.1571895E-02  0.1004971E+04  0.7818609E-02  0.9303110E-01
        2   -1    0    0  501    0  0.00000000000E+00  0.00000000000E+00  0.12233909765E+04  0.12233909765E+04  0.25500000920E-02 0. -1.
       -2   -1    0    0    0  501  0.00000000000E+00  0.00000000000E+00 -0.20638657843E+03  0.20638657845E+03  0.25500000920E-02 0.  1.
    10030    2    1    2    0    0  0.00000000000E+00  0.00000000000E+00  0.10170043981E+04  0.14297775550E+04  0.10049706021E+04 0.  0.
        2    1    3    3  502    0  0.46909624051E+03  0.23553312817E+02  0.76254757802E+03  0.89559189934E+03  0.25500000920E-02 0. -1.
       -2    1    3    3    0  502 -0.46909624051E+03 -0.23553312817E+02  0.25445682008E+03  0.53418565565E+03  0.25500000920E-02 0.  1.
</event>
<event>
 5   0  0.1656859E-02  0.1232210E+04  0.7818609E-02  0.9085121E-01
        2   -1    0    0  501    0  0.00000000000E+00  0.00000000000E+00  0.46216899432E+03  0.46216899433E+03  0.25500000920E-02 0. -1.
       -2   -1    0    0    0  501  0.00000000000E+00  0.00000000000E+00 -0.82131266292E+03  0.82131266293E+03  0.25500000920E-02 0.  1.
    10030    2    1    2    0    0  0.00000000000E+00  0.00000000000E+00 -0.35914366860E+03  0.12834816573E+04  0.12322097994E+04 0.  0.
        4    1    3    3  502    0  0.54863246395E+03  0.16068989040E+03  0.59692083897E+02  0.57479003049E+03  0.12699999809E+01 0. -1.
       -4    1    3    3    0  502 -0.54863246395E+03 -0.16068989040E+03 -0.41883575250E+03  0.70869162676E+03  0.12699999809E+01 0.  1.
</event>
<event>
 5   0  0.1617721E-02  0.1010914E+04  0.7818609E-02  0.9296655E-01
       -2   -1    0    0    0  501  0.00000000000E+00  0.00000000000E+00  0.29962798783E+03  0.29962798784E+03  0.25500000920E-02 0.  1.
        2   -1    0    0  501    0  0.00000000000E+00  0.00000000000E+00 -0.85268041580E+03  0.85268041580E+03  0.25500000920E-02 0. -1.
    10030    2    1    2    0    0  0.00000000000E+00  0.00000000000E+00 -0.55305242797E+03  0.11523084036E+04  0.10109142738E+04 0.  0.
        5    1    3    3  502    0  0.32929054285E+03 -0.22778814924E+03  0.75072817670E+02  0.40740363339E+03  0.46999998093E+01 0.  1.
       -5    1    3    3    0  502 -0.32929054285E+03  0.22778814924E+03 -0.62812524564E+03  0.74490477026E+03  0.46999998093E+01 0. -1.
</event>
<event>
 5   0  0.1617721E-02  0.9956719E+03  0.7818609E-02  0.9313305E-01
        2   -1    0    0  501    0  0.00000000000E+00  0.00000000000E+00  0.17862428457E+04  0.17862428457E+04  0.25500000920E-02 0. -1.
       -2   -1    0    0    0  501  0.00000000000E+00  0.00000000000E+00 -0.13874968597E+03  0.13874968599E+03  0.25500000920E-02 0.  1.
    10030    2    1    2    0    0  0.00000000000E+00  0.00000000000E+00  0.16474931597E+04  0.19249925317E+04  0.99567190163E+03 0.  0.
        5    1    3    3  502    0 -0.13142314601E+03  0.16195886181E+03  0.16976507331E+04  0.17104218245E+04  0.46999998093E+01 0. -1.
       -5    1    3    3    0  502  0.13142314601E+03 -0.16195886181E+03 -0.50157573335E+02  0.21457070720E+03  0.46999998093E+01 0.  1.
</event>
<event>
 5   0  0.1598986E-02  0.1063200E+04  0.7818609E-02  0.9241821E-01
       -2   -1    0    0    0  501  0.00000000000E+00  0.00000000000E+00  0.54635072128E+03  0.54635072129E+03  0.25500000920E-02 0. -1.
        2   -1    0    0  501    0  0.00000000000E+00  0.00000000000E+00 -0.51724750506E+03  0.51724750506E+03  0.25500000920E-02 0.  1.
    10030    2    1    2    0    0  0.00000000000E+00  0.00000000000E+00  0.29103216222E+02  0.10635982264E+04  0.10631999764E+04 0.  0.
        3    1    3    3  502    0 -0.10772561632E+03 -0.22241413745E+03 -0.45628983878E+03  0.51891548842E+03  0.10100000352E+00 0.  1.
       -3    1    3    3    0  502  0.10772561632E+03  0.22241413745E+03  0.48539305500E+03  0.54468273793E+03  0.10100000352E+00 0. -1.
</event>
<event>
 5   0  0.9507815E-03  0.9256973E+03  0.7818609E-02  0.9394017E-01
        1   -1    0    0  501    0  0.00000000000E+00  0.00000000000E+00  0.31151125164E+03  0.31151125168E+03  0.50400001928E-02 0.  1.
       -1   -1    0    0    0  501  0.00000000000E+00  0.00000000000E+00 -0.68770834236E+03  0.68770834238E+03  0.50400001928E-02 0. -1.
    10030    2    1    2    0    0  0.00000000000E+00  0.00000000000E+00 -0.37619709072E+03  0.99921959406E+03  0.92569732964E+03 0.  0.
        1    1    3    3  502    0  0.75048470576E+02 -0.42749085981E+03 -0.14555624971E+02  0.43427246563E+03  0.50400001928E-02 0.  1.
       -1    1    3    3    0  502 -0.75048470576E+02  0.42749085981E+03 -0.36164146575E+03  0.56494712844E+03  0.50400001928E-02 0. -1.
</event>
<event>
 5   0  0.9507815E-03  0.9913148E+03  0.7818609E-02  0.9318122E-01
       -1   -1    0    0    0  501  0.00000000000E+00  0.00000000000E+00  0.91710064922E+03  0.91710064923E+03  0.50400001928E-02 0. -1.
        1   -1    0    0  501    0  0.00000000000E+00  0.00000000000E+00 -0.26788361332E+03  0.26788361337E+03  0.50400001928E-02 0.  1.
    10030    2    1    2    0    0  0.00000000000E+00  0.00000000000E+00  0.64921703590E+03  0.11849842626E+04  0.99131475471E+03 0.  0.
        1    1    3    3  502    0 -0.41846783110E+03  0.15396710569E+03  0.65859225573E+02  0.45073122026E+03  0.50400001928E-02 0.  1.
       -1    1    3    3    0  502  0.41846783110E+03 -0.15396710569E+03  0.58335781033E+03  0.73425304234E+03  0.50400001928E-02 0. -1.
</event>
<event>
 5   0  0.1571895E-02  0.7426098E+03  0.7818609E-02  0.9647016E-01
        2   -1    0    0  501    0  0.00000000000E+00  0.00000000000E+00  0.96211404862E+03  0.96211404863E+03  0.25500000920E-02 0. -1.
       -2   -1    0    0    0  501  0.00000000000E+00  0.00000000000E+00 -0.14329624024E+03  0.14329624026E+03  0.25500000920E-02 0.  1.
    10030    2    1    2    0    0  0.00000000000E+00  0.00000000000E+00  0.81881780838E+03  0.11054102889E+04  0.74260979218E+03 0.  0.
        2    1    3    3  502    0  0.33514204573E+03 -0.13873999695E+03  0.29127456201E+03  0.46519871888E+03  0.25500000920E-02 0.  1.
       -2    1    3    3    0  502 -0.33514204573E+03  0.13873999695E+03  0.52754324637E+03  0.64021157000E+03  0.25500000920E-02 0. -1.
</event>
<event>
 5   0  0.1656859E-02  0.9855617E+03  0.7818609E-02  0.9324524E-01
       -2   -1    0    0    0  501  0.00000000000E+00  0.00000000000E+00  0.29269583877E+03  0.29269583878E+03  0.25500000920E-02 0.  1.
        2   -1    0    0  501    0  0.00000000000E+00  0.00000000000E+00 -0.82964267615E+03  0.82964267615E+03  0.25500000920E-02 0. -1.
    10030    2    1    2    0    0  0.00000000000E+00  0.00000000000E+00 -0.53694683738E+03  0.11223385149E+04  0.98556168551E+03 0.  0.
        4    1    3    3  502    0  0.27164001022E+03 -0.39677088435E+03 -0.14573888089E+03  0.50245085742E+03  0.12699999809E+01 0.  1.
       -4    1    3    3    0  502 -0.27164001022E+03  0.39677088435E+03 -0.39120795649E+03  0.61988765751E+03  0.12699999809E+01 0. -1.
</event>
<event>
 5   0  0.9396660E-03  0.9760598E+03  0.7818609E-02  0.9335199E-01
       -1   -1    0    0    0  501  0.00000000000E+00  0.00000000000E+00  0.28023398389E+03  0.28023398393E+03  0.50400001928E-02 0.  1.
        1   -1    0    0  501    0  0.00000000000E+00  0.00000000000E+00 -0.84990833662E+03  0.84990833663E+03  0.50400001928E-02 0. -1.
    10030    2    1    2    0    0  0.00000000000E+00  0.00000000000E+00 -0.56967435273E+03  0.11301423206E+04  0.97605983248E+03 0.  0.
        5    1    3    3  502    0 -0.19376970160E+03 -0.31895575029E+02 -0.80211387356E+03  0.82581643306E+03  0.46999998093E+01 0. -1.
       -5    1    3    3    0  502  0.19376970160E+03  0.31895575029E+02  0.23243952083E+03  0.30432588750E+03  0.46999998093E+01 0.  1.
</event>
<event>
 5   0  0.6314750E-03  0.9808808E+03  0.7818609E-02  0.9329767E-01
        3   -1    0    0  501    0  0.00000000000E+00  0.00000000000E+00  0.37018424328E+03  0.37018425706E+03  0.10100000352E+00 0. -1.
       -3   -1    0    0    0  501  0.00000000000E+00  0.00000000000E+00 -0.64976228897E+03  0.64976229682E+03  0.10100000352E+00 0.  1.
    10030    2    1    2    0    0  0.00000000000E+00  0.00000000000E+00 -0.27957804569E+03  0.10199465539E+04  0.98088077213E+03 0.  0.
        1    1    3    3  502    0 -0.60436006563E+02  0.45734150067E+03 -0.31290702908E+03  0.55742673778E+03  0.50400001928E-02 0.  1.
       -1    1    3    3    0  502  0.60436006563E+02 -0.45734150067E+03  0.33328983392E+02  0.46251981609E+03  0.50400001928E-02 0. -1.
</event>
<event>
 5   0  0.1663497E-02  0.1048497E+04  0.7818609E-02  0.9256897E-01
        2   -1    0    0  501    0  0.00000000000E+00  0.00000000000E+00  0.93642077444E+03  0.93642077445E+03  0.25500000920E-02 0. -1.
       -2   -1    0    0    0  501  0.00000000000E+00  0.00000000000E+00 -0.29349683919E+03  0.29349683920E+03  0.25500000920E-02 0.  1.
    10030    2    1    2    0    0  0.00000000000E+00  0.00000000000E+00  0.64292393525E+03  0.12299176136E+04  0.10484970910E+04 0.  0.
        1    1    3    3  502    0 -0.43965595686E+03 -0.24724380899E+03  0.15388016955E+03  0.52735753345E+03  0.50400001928E-02 0.  1.
       -1    1    3    3    0  502  0.43965595686E+03  0.24724380899E+03  0.48904376571E+03  0.70256008020E+03  0.50400001928E-02 0. -1.
</event>
<event>
 5   0  0.9396660E-03  0.9565720E+03  0.7818609E-02  0.9357502E-01
        1   -1    0    0  501    0  0.00000000000E+00  0.00000000000E+00  0.99735610780E+03  0.99735610781E+03  0.50400001928E-02 0. -1.
       -1   -1    0    0    0  501  0.00000000000E+00  0.00000000000E+00 -0.22936390796E+03  0.22936390801E+03  0.50400001928E-02 0.  1.
    10030    2    1    2    0    0  0.00000000000E+00  0.00000000000E+00  0.76799219984E+03  0.12267200158E+04  0.95657199322E+03 0.  0.
        5    1    3    3  502    0 -0.14659556712E+03 -0.19044127919E+03  0.91426599421E+03  0.94533726219E+03  0.46999998093E+01 0. -1.
       -5    1    3    3    0  502  0.14659556712E+03  0.19044127919E+03 -0.14627379438E+03  0.28138275363E+03  0.46999998093E+01 0.  1.
</event>
<event>
 5   0  0.9471140E-03  0.9633150E+03  0.7818609E-02  0.9349721E-01
        1   -1    0    0  501    0  0.00000000000E+00  0.00000000000E+00  0.37596396138E+03  0.37596396142E+03  0.50400001928E-02 0.  1.
       -1   -1    0    0    0  501  0.00000000000E+00  0.00000000000E+00 -0.61706435406E+03  0.61706435408E+03  0.50400001928E-02 0. -1.
    10030    2    1    2    0    0  0.00000000000E+00  0.00000000000E+00 -0.24110039268E+03  0.99302831550E+03  0.96331502430E+03 0.  0.
        4    1    3    3  502    0  0.46007634586E+03 -0.41684983448E+02  0.19979569070E+02  0.46239450467E+03  0.12699999809E+01 0.  1.
       -4    1    3    3    0  502 -0.46007634586E+03  0.41684983448E+02 -0.26107996175E+03  0.53063381083E+03  0.12699999809E+01 0. -1.
</event>
<event>
 5   0  0.9507815E-03  0.9658603E+03  0.7818609E-02  0.9346802E-01
       -1   -1    0    0    0  501  0.00000000000E+00  0.00000000000E+00  0.22852819458E+03  0.22852819464E+03  0.50400001928E-02 0.  1.
        1   -1    0    0  501    0  0.00000000000E+00  0.00000000000E+00 -0.10205372413E+04  0.10205372413E+04  0.50400001928E-02 0. -1.
    10030    2    1    2    0    0  0.00000000000E+00  0.00000000000E+00 -0.79200904675E+03  0.12490654360E+04  0.96586030731E+03 0.  0.
        1    1    3    3  502    0  0.33201240465E+03 -0.30233375835E+03 -0.62583184349E+03  0.77026192599E+03  0.50400001928E-02 0. -1.
       -1    1    3    3    0  502 -0.33201240465E+03  0.30233375835E+03 -0.16617720326E+03  0.47880351000E+03  0.50400001928E-02 0.  1.
</event>
<event>
 5   0  0.9507815E-03  0.1007183E+04  0.7818609E-02  0.9300701E-01
       -1   -1    0    0    0  501  0.00000000000E+00  0.00000000000E+00  0.69533714102E+03  0.69533714103E+03  0.50400001928E-02 0.  1.
        1   -1    0    0  501    0  0.00000000000E+00  0.00000000000E+00 -0.36472153090E+03  0.36472153094E+03  0.50400001928E-02 0. -1.
    10030    2    1    2    0    0  0.00000000000E+00  0.00000000000E+00  0.33061561011E+03  0.10600586720E+04  0.10071830550E+04 0.  0.
        1    1    3    3  502    0  0.12113857933E+03  0.12285293543E+03 -0.33264416797E+03  0.37472595541E+03  0.50400001928E-02 0. -1.
       -1    1    3    3    0  502 -0.12113857933E+03 -0.12285293543E+03  0.66325977808E+03  0.68533271656E+03  0.50400001928E-02 0.  1.
</event>
<event>
 5   0  0.9507815E-03  0.1007931E+04  0.7818609E-02  0.9299889E-01
        1   -1    0    0  501    0  0.00000000000E+00  0.00000000000E+00  0.77965057042E+03  0.77965057044E+03  0.50400001928E-02 0. -1.
       -1   -1    0    0    0  501  0.00000000000E+00  0.00000000000E+00 -0.32576261202E+03  0.32576261205E+03  0.50400001928E-02 0.  1.
    10030    2    1    2    0    0  0.00000000000E+00  0.00000000000E+00  0.45388795841E+03  0.11054131825E+04  0.10079305657E+04 0.  0.
        1    1    3    3  502    0  0.33839136095E+03  0.35941231920E+03  0.33822185917E+03  0.59839782286E+03  0.50400001928E-02 0. -1.
       -1    1    3    3    0  502 -0.33839136095E+03 -0.35941231920E+03  0.11566609924E+03  0.50701535963E+03  0.50400001928E-02 0.  1.
</event>
<event>
 5   0  0.6314750E-03  0.1017587E+04  0.7818609E-02  0.9289463E-01
        4   -1    0    0  501    0  0.00000000000E+00  0.00000000000E+00  0.88256824398E+03  0.88256915773E+03  0.12699999809E+01 0.  1.
       -4   -1    0    0    0  501  0.00000000000E+00  0.00000000000E+00 -0.29331314980E+03  0.29331589924E+03  0.12699999809E+01 0. -1.
    10030    2    1    2    0    0  0.00000000000E+00  0.00000000000E+00  0.58925509418E+03  0.11758850570E+04  0.10175873924E+04 0.  0.
        3    1    3    3  502    0 -0.18197001198E+03  0.33941073473E+03 -0.89600263874E+02  0.39539973393E+03  0.10100000352E+00 0. -1.
       -3    1    3    3    0  502  0.18197001198E+03 -0.33941073473E+03  0.67885535805E+03  0.78048532303E+03  0.10100000352E+00 0.  1.
</event>
<event>
 5   0  0.9396660E-03  0.9124040E+03  0.7818609E-02  0.9410207E-01
        1   -1    0    0  501    0  0.00000000000E+00  0.00000000000E+00  0.80335128431E+03  0.80335128432E+03  0.50400001928E-02 0. -1.
       -1   -1    0    0    0  501  0.00000000000E+00  0.00000000000E+00 -0.25906505722E+03  0.25906505726E+03  0.50400001928E-02 0.  1.
    10030    2    1    2    0    0  0.00000000000E+00  0.00000000000E+00  0.54428622709E+03  0.10624163416E+04  0.91240395981E+03 0.  0.
        5    1    3    3  502    0 -0.24985358477E+03  0.57278995810E+02 -0.16724471884E+03  0.30610550985E+03  0.46999998093E+01 0.  1.
       -5    1    3    3    0  502  0.24985358477E+03 -0.57278995810E+02  0.71153094593E+03  0.75631083173E+03  0.46999998093E+01 0. -1.
</event>
<event>
 5   0  0.1598986E-02  0.1007141E+04  0.7818609E-02  0.9300748E-01
       -2   -1    0    0    0  501  0.00000000000E+00  0.00000000000E+00  0.24889726292E+03  0.24889726294E+03  0.25500000920E-02 0.  1.
        2   -1    0    0  501    0  0.00000000000E+00  0.00000000000E+00 -0.10188263688E+04  0.10188263688E+04  0.25500000920E-02 0. -1.
    10030    2    1    2    0    0  0.00000000000E+00  0.00000000000E+00 -0.76992910586E+03  0.12677236317E+04  0.10071406944E+04 0.  0.
        3    1    3    3  502    0 -0.37602560164E+03 -0.28936526606E+03 -0.59729785701E+03  0.76281862227E+03  0.10100000352E+00 0. -1.
       -3    1    3    3    0  502  0.37602560164E+03  0.28936526606E+03 -0.17263124885E+03  0.50490500945E+03  0.10100000352E+00 0.  1.
</event>
<event>
 5   0  0.1000773E-02  0.9909377E+03  0.7818609E-02  0.9318540E-01
        1   -1    0    0  501    0  0.00000000000E+00  0.00000000000E+00  0.71196640148E+03  0.71196640150E+03  0.50400001928E-02 0.  1.
       -1   -1    0    0    0  501  0.00000000000E+00  0.00000000000E+00 -0.34480470099E+03  0.34480470103E+03  0.50400001928E-02 0. -1.
    10030    2    1    2    0    0  0.00000000000E+00  0.00000000000E+00  0.36716170049E+03  0.10567711025E+04  0.99093766143E+03 0.  0.
        3    1    3    3  502    0  0.36674514902E+03  0.18443425175E+03  0.47944964252E+03  0.63118140614E+03  0.10100000352E+00 0.  1.
       -3    1    3    3    0  502 -0.36674514902E+03 -0.18443425175E+03 -0.11228794203E+03  0.42558969639E+03  0.10100000352E+00 0. -1.
</event>
<event>
 5   0  0.9759443E-03  0.9395438E+03  0.7818609E-02  0.9377456E-01
        1   -1    0    0  501    0  0.00000000000E+00  0.00000000000E+00  0.12315150111E+04  0.12315150111E+04  0.50400001928E-02 0. -1.
       -1   -1    0    0    0  501  0.00000000000E+00  0.00000000000E+00 -0.17919849292E+03  0.17919849299E+03  0.50400001928E-02 0.  1.
    10030    2    1    2    0    0  0.00000000000E+00  0.00000000000E+00  0.10523165182E+04  0.14107135041E+04  0.93954379152E+03 0.  0.
        2    1    3    3  502    0 -0.29387094719E+03  0.36596754289E+03  0.55593386270E+03  0.72756775338E+03  0.25500000920E-02 0.  1.
       -2    1    3    3    0  502  0.29387094719E+03 -0.36596754289E+03  0.49638265547E+03  0.68314575071E+03  0.25500000920E-02 0. -1.
</event>
<event>
 5   0  0.1617721E-02  0.9973326E+03  0.7818609E-02  0.9311475E-01
        2   -1    0    0  501    0  0.00000000000E+00  0.00000000000E+00  0.52055429230E+03  0.52055429230E+03  0.25500000920E-02 0. -1.
       -2   -1    0    0    0  501  0.00000000000E+00  0.00000000000E+00 -0.47769865049E+03  0.47769865050E+03  0.25500000920E-02 0.  1.
    10030    2    1    2    0    0  0.00000000000E+00  0.00000000000E+00  0.42855641803E+02  0.99825294280E+03  0.99733260840E+03 0.  0.
        5    1    3    3  502    0 -0.34037109646E+03 -0.98153530971E+02 -0.32983675294E+03  0.48404645700E+03  0.46999998093E+01 0.  1.
       -5    1    3    3    0  502  0.34037109646E+03  0.98153530971E+02  0.37269239474E+03  0.51420648580E+03  0.46999998093E+01 0. -1.
</event>
<event>
 5   0  0.1598986E-02  0.7735310E+03  0.7818609E-02  0.9599140E-01
        2   -1    0    0  501    0  0.00000000000E+00  0.00000000000E+00  0.14890999344E+04  0.14890999344E+04  0.25500000920E-02 0.  1.
       -2   -1    0    0    0  501  0.00000000000E+00  0.00000000000E+00 -0.10045500336E+03  0.10045500340E+03  0.25500000920E-02 0. -1.
    10030    2    1    2    0    0  0.00000000000E+00  0.00000000000E+00  0.13886449310E+04  0.15895549378E+04  0.77353096627E+03 0.  0.
        3    1    3    3  502    0  0.13065099939E+03 -0.39406271938E+00  0.14423795949E+04  0.14482847596E+04  0.10100000352E+00 0.  1.
       -3    1    3    3    0  502 -0.13065099939E+03  0.39406271938E+00 -0.53734663908E+02  0.14127017815E+03  0.10100000352E+00 0. -1.
</event>
<event>
 5   0  0.9507815E-03  0.9972122E+03  0.7818609E-02  0.9311608E-01
       -1   -1    0    0    0  501  0.00000000000E+00  0.00000000000E+00  0.53907767329E+03  0.53907767331E+03  0.50400001928E-02 0. -1.
        1   -1    0    0  501    0  0.00000000000E+00  0.00000000000E+00 -0.46117298466E+03  0.46117298469E+03  0.50400001928E-02 0.  1.
    10030    2    1    2    0    0  0.00000000000E+00  0.00000000000E+00  0.77904688625E+02  0.10002506580E+04  0.99721223334E+03 0.  0.
        1    1    3    3  502    0  0.64012503632E+02  0.48688766922E+03  0.12553369321E+03  0.50686873174E+03  0.50400001928E-02 0. -1.
       -1    1    3    3    0  502 -0.64012503632E+02 -0.48688766922E+03 -0.47629004587E+02  0.49338192626E+03  0.50400001928E-02 0.  1.
</event>
<event>
 5   0  0.1656859E-02  0.9816317E+03  0.7818609E-02  0.9328923E-01
        2   -1    0    0  501    0  0.00000000000E+00  0.00000000000E+00  0.98923497268E+03  0.98923497268E+03  0.25500000920E-02 0. -1.
       -2   -1    0    0    0  501  0.00000000000E+00  0.00000000000E+00 -0.24352174123E+03  0.24352174125E+03  0.25500000920E-02 0.  1.
    10030    2    1    2    0    0  0.00000000000E+00  0.00000000000E+00  0.74571323144E+03  0.12327567139E+04  0.98163174978E+03 0.  0.
        4    1    3    3  502    0 -0.16999643415E+03  0.45283976581E+03  0.47744473471E+03  0.67964529625E+03  0.12699999809E+01 0. -1.
       -4    1    3    3    0  502  0.16999643415E+03 -0.45283976581E+03  0.26826849673E+03  0.55311141767E+03  0.12699999809E+01 0.  1.
</event>
<event>
 5   0  0.1663497E-02  0.9941381E+03  0.7818609E-02  0.9314997E-01
       -2   -1    0    0    0  501  0.00000000000E+00  0.00000000000E+00  0.16746235530E+03  0.16746235532E+03  0.25500000920E-02 0. -1.
        2   -1    0    0  501    0  0.00000000000E+00  0.00000000000E+00 -0.14754220094E+04  0.14754220094E+04  0.25500000920E-02 0.  1.
    10030    2    1    2    0    0  0.00000000000E+00  0.00000000000E+00 -0.13079596541E+04  0.16428843647E+04  0.99413810865E+03 0.  0.
        1    1    3    3  502    0 -0.32802293326E+03  0.41577068656E+02 -0.12673264736E+04  0.13097496281E+04  0.50400001928E-02 0.  1.
       -1    1    3    3    0  502  0.32802293326E+03 -0.41577068656E+02 -0.40633180447E+02  0.33313473665E+03  0.50400001928E-02 0. -1.
</event>
<event>
 5   0  0.1598986E-02  0.9351480E+03  0.7818609E-02  0.9382681E-01
        2   -1    0    0  501    0  0.00000000000E+00  0.00000000000E+00  0.81839452939E+03  0.81839452940E+03  0.25500000920E-02 0.  1.
       -2   -1    0    0    0  501  0.00000000000E+00  0.00000000000E+00 -0.26713944764E+03  0.26713944765E+03  0.25500000920E-02 0. -1.
    10030    2    1    2    0    0  0.00000000000E+00  0.00000000000E+00  0.55125508176E+03  0.10855339770E+04  0.93514803649E+03 0.  0.
        3    1    3    3  502    0 -0.44238035708E+03  0.92753593213E+02  0.13670826573E+03  0.47222110235E+03  0.10100000352E+00 0. -1.
       -3    1    3    3    0  502  0.44238035708E+03 -0.92753593213E+02  0.41454681603E+03  0.61331287469E+03  0.10100000352E+00 0.  1.
</event>
<event>
 5   0  0.9396660E-03  0.9823029E+03  0.7818609E-02  0.9328171E-01
        1   -1    0    0  501    0  0.00000000000E+00  0.00000000000E+00  0.57662829917E+03  0.57662829920E+03  0.50400001928E-02 0.  1.
       -1   -1    0    0    0  501  0.00000000000E+00  0.00000000000E+00 -0.41834528817E+03  0.41834528820E+03  0.50400001928E-02 0. -1.
    10030    2    1    2    0    0  0.00000000000E+00  0.00000000000E+00  0.15828301100E+03  0.99497358740E+03  0.98230286982E+03 0.  0.
        5    1    3    3  502    0  0.14625337882E+03 -0.11114285647E+03  0.54049988122E+03  0.57088089560E+03  0.46999998093E+01 0.  1.
       -5    1    3    3    0  502 -0.14625337882E+03  0.11114285647E+03 -0.38221687022E+03  0.42409269180E+03  0.46999998093E+01 0. -1.
</event>
<event>
 5   0  0.9759443E-03  0.9851407E+03  0.7818609E-02  0.9324994E-01
       -1   -1    0    0    0  501  0.00000000000E+00  0.00000000000E+00  0.25839209431E+03  0.25839209436E+03  0.50400001928E-02 0. -1.
        1   -1    0    0  501    0  0.00000000000E+00  0.00000000000E+00 -0.93898216631E+03  0.93898216633E+03  0.50400001928E-02 0.  1.
    10030    2    1    2    0    0  0.00000000000E+00  0.00000000000E+00 -0.68059007200E+03  0.11973742607E+04  0.98514073819E+03 0.  0.
        2    1    3    3  502    0 -0.19881324487E+03 -0.24224665114E+03 -0.80218489427E+03  0.86122630645E+03  0.25500000920E-02 0. -1.
       -2    1    3    3    0  502  0.19881324487E+03  0.24224665114E+03  0.12159482227E+03  0.33614795423E+03  0.25500000920E-02 0.  1.
</event>
<event>
 5   0  0.9507815E-03  0.9474443E+03  0.7818609E-02  0.9368143E-01
        1   -1    0    0  501    0  0.00000000000E+00  0.00000000000E+00  0.57938447882E+03  0.57938447884E+03  0.50400001928E-02 0. -1.
       -1   -1    0    0    0  501  0.00000000000E+00  0.00000000000E+00 -0.38732948400E+03  0.38732948403E+03  0.50400001928E-02 0.  1.
    10030    2    1    2    0    0  0.00000000000E+00  0.00000000000E+00  0.19205499482E+03  0.96671396288E+03  0.94744433345E+03 0.  0.
        1    1    3    3  502    0 -0.13410207889E+03 -0.34353420409E+03 -0.20736424964E+03  0.42308279213E+03  0.50400001928E-02 0.  1.
       -1    1    3    3    0  502  0.13410207889E+03  0.34353420409E+03  0.39941924446E+03  0.54363117075E+03  0.50400001928E-02 0. -1.
</event>
<event>
 5   0  0.1571895E-02  0.9931900E+03  0.7818609E-02  0.9316046E-01
        2   -1    0    0  501    0  0.00000000000E+00  0.00000000000E+00  0.14685388949E+04  0.14685388949E+04  0.25500000920E-02 0.  1.
       -2   -1    0    0    0  501  0.00000000000E+00  0.00000000000E+00 -0.16792649184E+03  0.16792649186E+03  0.25500000920E-02 0. -1.
    10030    2    1    2    0    0  0.00000000000E+00  0.00000000000E+00  0.13006124031E+04  0.16364653868E+04  0.99318998136E+03 0.  0.
        2    1    3    3  502    0  0.16881748501E+03  0.24604579864E+03  0.13043539858E+04  0.13380497744E+04  0.25500000920E-02 0.  1.
       -2    1    3    3    0  502 -0.16881748501E+03 -0.24604579864E+03 -0.37415827882E+01  0.29841561240E+03  0.25500000920E-02 0. -1.
</event>
<event>
 5   0  0.1656859E-02  0.9958148E+03  0.7818609E-02  0.9313147E-01
        2   -1    0    0  501    0  0.00000000000E+00  0.00000000000E+00  0.17443248703E+04  0.17443248703E+04  0.25500000920E-02 0.  1.
       -2   -1    0    0    0  501  0.00000000000E+00  0.00000000000E+00 -0.14212477499E+03  0.14212477502E+03  0.25500000920E-02 0. -1.
    10030    2    1    2    0    0  0.00000000000E+00  0.00000000000E+00  0.16022000953E+04  0.18864496453E+04  0.99581480152E+03 0.  0.
        4    1    3    3  502    0  0.10383018962E+03  0.31601388374E+03  0.15029528640E+04  0.15393227106E+04  0.12699999809E+01 0.  1.
       -4    1    3    3    0  502 -0.10383018962E+03 -0.31601388374E+03  0.99247231289E+02  0.34712693473E+03  0.12699999809E+01 0. -1.
</event>
<event>
 5   0  0.9759443E-03  0.1034812E+04  0.7818609E-02  0.9271167E-01
        1   -1    0    0  501    0  0.00000000000E+00  0.00000000000E+00  0.55707956022E+03  0.55707956024E+03  0.50400001928E-02 0. -1.
       -1   -1    0    0    0  501  0.00000000000E+00  0.00000000000E+00 -0.48055765621E+03  0.48055765624E+03  0.50400001928E-02 0.  1.
    10030    2    1    2    0    0  0.00000000000E+00  0.00000000000E+00  0.76521904011E+02  0.10376372165E+04  0.10348117661E+04 0.  0.
        2    1    3    3  502    0 -0.11402827780E+03  0.35058006319E+03 -0.32577302329E+03  0.49197244999E+03  0.25500000920E-02 0.  1.
       -2    1    3    3    0  502  0.11402827780E+03 -0.35058006319E+03  0.40229492730E+03  0.54566476648E+03  0.25500000920E-02 0. -1.
</event>
<event>
 5   0  0.9396660E-03  0.1035237E+04  0.7818609E-02  0.9270720E-01
        1   -1    0    0  501    0  0.00000000000E+00  0.00000000000E+00  0.48292554985E+03  0.48292554988E+03  0.50400001928E-02 0. -1.
       -1   -1    0    0    0  501  0.00000000000E+00  0.00000000000E+00 -0.55480389007E+03  0.55480389010E+03  0.50400001928E-02 0.  1.
    10030    2    1    2    0    0  0.00000000000E+00  0.00000000000E+00 -0.71878340222E+02  0.10377294400E+04  0.10352371201E+04 0.  0.
        5    1    3    3  502    0 -0.34008399020E+02  0.44306784790E+03  0.23010739621E+03  0.50043700186E+03  0.46999998093E+01 0. -1.
       -5    1    3    3    0  502  0.34008399020E+02 -0.44306784790E+03 -0.30198573643E+03  0.53729243811E+03  0.46999998093E+01 0.  1.
</event>
<event>
 5   0  0.9759443E-03  0.1007587E+04  0.7818609E-02  0.9300263E-01
        1   -1    0    0  501    0  0.00000000000E+00  0.00000000000E+00  0.19922177843E+03  0.19922177849E+03  0.50400001928E-02 0.  1.
       -1   -1    0    0    0  501  0.00000000000E+00  0.00000000000E+00 -0.12739959483E+04  0.12739959483E+04  0.50400001928E-02 0. -1.
    10030    2    1    2    0    0  0.00000000000E+00  0.00000000000E+00 -0.10747741699E+04  0.14732177268E+04  0.10075866982E+04 0.  0.
        2    1    3    3  502    0 -0.44994152125E+03  0.12248324536E+03 -0.81618262428E+03  0.94000191177E+03  0.25500000920E-02 0.  1.
       -2    1    3    3    0  502  0.44994152125E+03 -0.12248324536E+03 -0.25859154558E+03  0.53321581503E+03  0.25500000920E-02 0. -1.
</event>
<event>
 5   0  0.6314750E-03  0.9910523E+03  0.7818609E-02  0.9318413E-01
       -3   -1    0    0    0  501  0.00000000000E+00  0.00000000000E+00  0.13531071347E+04  0.13531071385E+04  0.10100000352E+00 0.  1.
        3   -1    0    0  501    0  0.00000000000E+00  0.00000000000E+00 -0.18146837735E+03  0.18146840546E+03  0.10100000352E+00 0. -1.
    10030    2    1    2    0    0  0.00000000000E+00  0.00000000000E+00  0.11716387574E+04  0.15345755440E+04  0.99105233078E+03 0.  0.
        4    1    3    3  502    0 -0.47778407058E+03 -0.21281933045E+02  0.38503608213E+03  0.61399099034E+03  0.12699999809E+01 0. -1.
       -4    1    3    3    0  502  0.47778407058E+03  0.21281933045E+02  0.78660267526E+03  0.92058455364E+03  0.12699999809E+01 0.  1.
</event>
<event>
 5   0  0.1571895E-02  0.1004108E+04  0.7818609E-02  0.9304051E-01
        2   -1    0    0  501    0  0.00000000000E+00  0.00000000000E+00  0.84455853761E+03  0.84455853761E+03  0.25500000920E-02 0. -1.
       -2   -1    0    0    0  501  0.00000000000E+00  0.00000000000E+00 -0.29844949832E+03  0.29844949833E+03  0.25500000920E-02 0.  1.
    10030    2    1    2    0    0  0.00000000000E+00  0.00000000000E+00  0.54610903929E+03  0.11430080359E+04  0.10041077071E+04 0.  0.
        2    1    3    3  502    0  0.36336885763E+03  0.19376915481E+03 -0.53856266190E+02  0.41531182196E+03  0.25500000920E-02 0.  1.
       -2    1    3    3    0  502 -0.36336885763E+03 -0.19376915481E+03  0.59996530548E+03  0.72769621398E+03  0.25500000920E-02 0. -1.
</event>
<event>
 5   0  0.1598986E-02  0.1017339E+04  0.7818609E-02  0.9289729E-01
       -2   -1    0    0    0  501  0.00000000000E+00  0.00000000000E+00  0.11256826632E+03  0.11256826635E+03  0.25500000920E-02 0. -1.
        2   -1    0    0  501    0  0.00000000000E+00  0.00000000000E+00 -0.22985599021E+04  0.22985599021E+04  0.25500000920E-02 0.  1.
    10030    2    1    2    0    0  0.00000000000E+00  0.00000000000E+00 -0.21859916358E+04  0.24111281684E+04  0.10173394778E+04 0.  0.
        3    1    3    3  502    0 -0.32568399768E+03 -0.31178806697E+03 -0.16511525758E+04  0.17116035475E+04  0.10100000352E+00 0.  1.
       -3    1    3    3    0  502  0.32568399768E+03  0.31178806697E+03 -0.53483905999E+03  0.69952462097E+03  0.10100000352E+00 0. -1.
</event>
<event>
 5   0  0.1571895E-02  0.1000738E+04  0.7818609E-02  0.9307736E-01
       -2   -1    0    0    0  501  0.00000000000E+00  0.00000000000E+00  0.10978551875E+04  0.10978551875E+04  0.25500000920E-02 0.  1.
        2   -1    0    0  501    0  0.00000000000E+00  0.00000000000E+00 -0.22805298568E+03  0.22805298570E+03  0.25500000920E-02 0. -1.
    10030    2    1    2    0    0  0.00000000000E+00  0.00000000000E+00  0.86980220183E+03  0.13259081732E+04  0.10007380344E+04 0.  0.
        2    1    3    3  502    0  0.81035343014E+02  0.18044607407E+03 -0.17405054389E+03  0.26347884982E+03  0.25500000920E-02 0. -1.
       -2    1    3    3    0  502 -0.81035343014E+02 -0.18044607407E+03  0.10438527457E+04  0.10624293234E+04  0.25500000920E-02 0.  1.
</event>
<event>
 5   0  0.1000773E-02  0.9413235E+03  0.7818609E-02  0.9375350E-01
       -1   -1    0    0    0  501  0.00000000000E+00  0.00000000000E+00  0.16967052997E+03  0.16967053005E+03  0.50400001928E-02 0. -1.
        1   -1    0    0  501    0  0.00000000000E+00  0.00000000000E+00 -0.13056037074E+04  0.13056037074E+04  0.50400001928E-02 0.  1.
    10030    2    1    2    0    0  0.00000000000E+00  0.00000000000E+00 -0.11359331774E+04  0.14752742374E+04  0.94132347899E+03 0.  0.
        3    1    3    3  502    0  0.67752729833E+02 -0.45657908183E+03 -0.42375062780E+03  0.62659356454E+03  0.10100000352E+00 0. -1.
       -3    1    3    3    0  502 -0.67752729833E+02  0.45657908183E+03 -0.71218254961E+03  0.84868067289E+03  0.10100000352E+00 0.  1.
</event>
<event>
 5   0  0.9396660E-03  0.7220935E+03  0.7818609E-02  0.9680178E-01
        1   -1    0    0  501    0  0.00000000000E+00  0.00000000000E+00  0.63588286114E+03  0.63588286116E+03  0.50400001928E-02 0. -1.
       -1   -1    0    0    0  501  0.00000000000E+00  0.00000000000E+00 -0.20499806501E+03  0.20499806508E+03  0.50400001928E-02 0.  1.
    10030    2    1    2    0    0  0.00000000000E+00  0.00000000000E+00  0.43088479613E+03  0.84088092624E+03  0.72209350127E+03 0.  0.
        5    1    3    3  502    0 -0.30759373299E+03 -0.18551275970E+03  0.17339464277E+03  0.39889432276E+03  0.46999998093E+01 0.  1.
       -5    1    3    3    0  502  0.30759373299E+03  0.18551275970E+03  0.25749015335E+03  0.44198660348E+03  0.46999998093E+01 0. -1.
</event>
<event>
 5   0  0.1617721E-02  0.1241794E+04  0.7818609E-02  0.9077041E-01
        2   -1    0    0  501    0  0.00000000000E+00  0.00000000000E+00  0.10487577850E+04  0.10487577850E+04  0.25500000920E-02 0. -1.
       -2   -1    0    0    0  501  0.00000000000E+00  0.00000000000E+00 -0.36759032245E+03  0.36759032246E+03  0.25500000920E-02 0.  1.
    10030    2    1    2    0    0  0.00000000000E+00  0.00000000000E+00  0.68116746253E+03  0.14163481074E+04  0.12417942058E+04 0.  0.
        5    1    3    3  502    0 -0.53320724947E+02  0.53794564845E+03 -0.77326570748E+01  0.54065747417E+03  0.46999998093E+01 0.  1.
       -5    1    3    3    0  502  0.53320724947E+02 -0.53794564845E+03  0.68890011961E+03  0.87569063327E+03  0.46999998093E+01 0. -1.
</event>
<event>
 5   0  0.9396660E-03  0.9962815E+03  0.7818609E-02  0.9312633E-01
        1   -1    0    0  501    0  0.00000000000E+00  0.00000000000E+00  0.56401257367E+03  0.56401257369E+03  0.50400001928E-02 0. -1.
       -1   -1    0    0    0  501  0.00000000000E+00  0.00000000000E+00 -0.43996217380E+03  0.43996217383E+03  0.50400001928E-02 0.  1.
    10030    2    1    2    0    0  0.00000000000E+00  0.00000000000E+00  0.12405039986E+03  0.10039747475E+04  0.99628148229E+03 0.  0.
        5    1    3    3  502    0 -0.18781399833E+03  0.35406320031E+03 -0.23604128032E+03  0.46515849320E+03  0.46999998093E+01 0.  1.
       -5    1    3    3    0  502  0.18781399833E+03 -0.35406320031E+03  0.36009168018E+03  0.53881625432E+03  0.46999998093E+01 0. -1.
</event>
<event>
 5   0  0.9759443E-03  0.9992037E+03  0.7818609E-02  0.9309419E-01
        1   -1    0    0  501    0  0.00000000000E+00  0.00000000000E+00  0.19526657601E+03  0.19526657608E+03  0.50400001928E-02 0.  1.
       -1   -1    0    0    0  501  0.00000000000E+00  0.00000000000E+00 -0.12782628549E+04  0.12782628550E+04  0.50400001928E-02 0. -1.
    10030    2    1    2    0    0  0.00000000000E+00  0.00000000000E+00 -0.10829962789E+04  0.14735294310E+04  0.99920370492E+03 0.  0.
        2    1    3    3  502    0 -0.22719482414E+03 -0.40885588378E+03 -0.28259883523E+03  0.54648213466E+03  0.25500000920E-02 0.  1.
       -2    1    3    3    0  502  0.22719482414E+03  0.40885588378E+03 -0.80039744370E+03  0.92704729637E+03  0.25500000920E-02 0. -1.
</event>
<event>
 5   0  0.1617721E-02  0.9856533E+03  0.7818609E-02  0.9324421E-01
       -2   -1    0    0    0  501  0.00000000000E+00  0.00000000000E+00  0.31289307769E+03  0.31289307770E+03  0.25500000920E-02 0. -1.
        2   -1    0    0  501    0  0.00000000000E+00  0.00000000000E+00 -0.77623354304E+03  0.77623354304E+03  0.25500000920E-02 0.  1.
    10030    2    1    2    0    0  0.00000000000E+00  0.00000000000E+00 -0.46334046535E+03  0.10891266207E+04  0.98565329056E+03 0.  0.
        5    1    3    3  502    0 -0.30502660295E+03 -0.22020269022E+03  0.12006324125E+03  0.39492749358E+03  0.46999998093E+01 0. -1.
       -5    1    3    3    0  502  0.30502660295E+03  0.22020269022E+03 -0.58340370660E+03  0.69419912716E+03  0.46999998093E+01 0.  1.
</event>
<event>
 5   0  0.9507815E-03  0.9651171E+03  0.7818609E-02  0.9347653E-01
       -1   -1    0    0    0  501  0.00000000000E+00  0.00000000000E+00  0.23000069257E+03  0.23000069263E+03  0.50400001928E-02 0.  1.
        1   -1    0    0  501    0  0.00000000000E+00  0.00000000000E+00 -0.10124437032E+04  0.10124437032E+04  0.50400001928E-02 0. -1.
    10030    2    1    2    0    0  0.00000000000E+00  0.00000000000E+00 -0.78244301060E+03  0.12424443958E+04  0.96511709748E+03 0.  0.
        1    1    3    3  502    0  0.28752868594E+03 -0.34074126976E+03 -0.15354781124E+03  0.47154457744E+03  0.50400001928E-02 0.  1.
       -1    1    3    3    0  502 -0.28752868594E+03  0.34074126976E+03 -0.62889519937E+03  0.77089981837E+03  0.50400001928E-02 0. -1.
</event>
<event>
 5   0  0.1598986E-02  0.1234080E+04  0.7818609E-02  0.9083539E-01
       -2   -1    0    0    0  501  0.00000000000E+00  0.00000000000E+00  0.30263946893E+03  0.30263946894E+03  0.25500000920E-02 0.  1.
        2   -1    0    0  501    0  0.00000000000E+00  0.00000000000E+00 -0.12580583880E+04  0.12580583880E+04  0.25500000920E-02 0. -1.
    10030    2    1    2    0    0  0.00000000000E+00  0.00000000000E+00 -0.95541891907E+03  0.15606978569E+04  0.12340796124E+04 0.  0.
        3    1    3    3  502    0 -0.15174005055E+03  0.50097242874E+02 -0.12314366353E+04  0.12417612386E+04  0.10100000352E+00 0. -1.
       -3    1    3    3    0  502  0.15174005055E+03 -0.50097242874E+02  0.27601771621E+03  0.31893661838E+03  0.10100000352E+00 0.  1.
</event>
<event>
 5   0  0.1663497E-02  0.1015824E+04  0.7818609E-02  0.9291357E-01
       -2   -1    0    0    0  501  0.00000000000E+00  0.00000000000E+00  0.13874291891E+03  0.13874291894E+03  0.25500000920E-02 0.  1.
        2   -1    0    0  501    0  0.00000000000E+00  0.00000000000E+00 -0.18593720710E+04  0.18593720710E+04  0.25500000920E-02 0. -1.
    10030    2    1    2    0    0  0.00000000000E+00  0.00000000000E+00 -0.17206291520E+04  0.19981149899E+04  0.10158242141E+04 0.  0.
        1    1    3    3  502    0 -0.40958592718E+03  0.25397271139E+03 -0.11757201239E+04  0.12706614733E+04  0.50400001928E-02 0.  1.
       -1    1    3    3    0  502  0.40958592718E+03 -0.25397271139E+03 -0.54490902815E+03  0.72745351663E+03  0.50400001928E-02 0. -1.
</event>
<event>
 5   0  0.1598986E-02  0.1007622E+04  0.7818609E-02  0.9300224E-01
       -2   -1    0    0    0  501  0.00000000000E+00  0.00000000000E+00  0.74235805172E+03  0.74235805173E+03  0.25500000920E-02 0.  1.
        2   -1    0    0  501    0  0.00000000000E+00  0.00000000000E+00 -0.34191788340E+03  0.34191788341E+03  0.25500000920E-02 0. -1.
    10030    2    1    2    0    0  0.00000000000E+00  0.00000000000E+00  0.40044016832E+03  0.10842759351E+04  0.10076219406E+04 0.  0.
        3    1    3    3  502    0  0.69324301118E+01  0.22483868758E+03  0.68531950755E+03  0.72129281963E+03  0.10100000352E+00 0.  1.
       -3    1    3    3    0  502 -0.69324301118E+01 -0.22483868758E+03 -0.28487933923E+03  0.36298311551E+03  0.10100000352E+00 0. -1.
</event>
<event>
 5   0  0.6314750E-03  0.9785189E+03  0.7818609E-02  0.9332424E-01
       -4   -1    0    0    0  501  0.00000000000E+00  0.00000000000E+00  0.21720787021E+03  0.21721158298E+03  0.12699999809E+01 0.  1.
        4   -1    0    0  501    0  0.00000000000E+00  0.00000000000E+00 -0.11020406047E+04  0.11020413365E+04  0.12699999809E+01 0. -1.
    10030    2    1    2    0    0  0.00000000000E+00  0.00000000000E+00 -0.88483273449E+03  0.13192529195E+04  0.97851893056E+03 0.  0.
        3    1    3    3  502    0  0.46084347808E+03 -0.12666711393E+03 -0.58351934625E+03  0.75426527607E+03  0.10100000352E+00 0.  1.
       -3    1    3    3    0  502 -0.46084347808E+03  0.12666711393E+03 -0.30131338824E+03  0.56498764338E+03  0.10100000352E+00 0. -1.
</event>
<event>
 5   0  0.1656859E-02  0.1003073E+04  0.7818609E-02  0.9305181E-01
       -2   -1    0    0    0  501  0.00000000000E+00  0.00000000000E+00  0.21033579263E+03  0.21033579264E+03  0.25500000920E-02 0.  1.
        2   -1    0    0  501    0  0.00000000000E+00  0.00000000000E+00 -0.11958920391E+04  0.11958920391E+04  0.25500000920E-02 0. -1.
    10030    2    1    2    0    0  0.00000000000E+00  0.00000000000E+00 -0.98555624648E+03  0.14062278318E+04  0.10030730780E+04 0.  0.
        4    1    3    3  502    0 -0.36700558135E+03 -0.42914559763E+02 -0.17358817121E+02  0.36991579800E+03  0.12699999809E+01 0.  1.
       -4    1    3    3    0  502  0.36700558135E+03  0.42914559763E+02 -0.96819742936E+03  0.10363120338E+04  0.12699999809E+01 0. -1.
</event>
<event>
 5   0  0.9396660E-03  0.9769552E+03  0.7818609E-02  0.9334187E-01
       -1   -1    0    0    0  501  0.00000000000E+00  0.00000000000E+00  0.17961277900E+03  0.17961277908E+03  0.50400001928E-02 0. -1.
        1   -1    0    0  501    0  0.00000000000E+00  0.00000000000E+00 -0.13284709706E+04  0.13284709707E+04  0.50400001928E-02 0.  1.
    10030    2    1    2    0    0  0.00000000000E+00  0.00000000000E+00 -0.11488581916E+04  0.15080837497E+04  0.97695519431E+03 0.  0.
        5    1    3    3  502    0  0.45841522905E+03  0.14617968667E+03 -0.44458514960E+03  0.65512675740E+03  0.46999998093E+01 0. -1.
       -5    1    3    3    0  502 -0.45841522905E+03 -0.14617968667E+03 -0.70427304203E+03  0.85295699232E+03  0.46999998093E+01 0.  1.
</event>
<event>
 5   0  0.6314750E-03  0.8995720E+03  0.7818609E-02  0.9426117E-01
       -4   -1    0    0    0  501  0.00000000000E+00  0.00000000000E+00  0.17777235160E+03  0.17777688796E+03  0.12699999809E+01 0. -1.
        4   -1    0    0  501    0  0.00000000000E+00  0.00000000000E+00 -0.11379946251E+04  0.11379953338E+04  0.12699999809E+01 0.  1.
    10030    2    1    2    0    0  0.00000000000E+00  0.00000000000E+00 -0.96022227353E+03  0.13157722217E+04  0.89957196762E+03 0.  0.
        4    1    3    3  502    0  0.44998146700E+02 -0.39842874994E+03 -0.18201619497E+03  0.44034283248E+03  0.12699999809E+01 0. -1.
       -4    1    3    3    0  502 -0.44998146700E+02  0.39842874994E+03 -0.77820607856E+03  0.87542938927E+03  0.12699999809E+01 0.  1.
</event>
<event>
 5   0  0.6314750E-03  0.9838077E+03  0.7818609E-02  0.9326485E-01
       -3   -1    0    0    0  501  0.00000000000E+00  0.00000000000E+00  0.24479652931E+03  0.24479655014E+03  0.10100000352E+00 0. -1.
        3   -1    0    0  501    0  0.00000000000E+00  0.00000000000E+00 -0.98845094465E+03  0.98845094981E+03  0.10100000352E+00 0.  1.
    10030    2    1    2    0    0  0.00000000000E+00  0.00000000000E+00 -0.74365441534E+03  0.12332474999E+04  0.98380765736E+03 0.  0.
        5    1    3    3  502    0  0.14636393143E+03  0.35518859619E+02 -0.95880681741E+03  0.97057539270E+03  0.46999998093E+01 0.  1.
       -5    1    3    3    0  502 -0.14636393143E+03 -0.35518859619E+02  0.21515240207E+03  0.26267210725E+03  0.46999998093E+01 0. -1.
</event>
<event>
 5   0  0.6314750E-03  0.9879254E+03  0.7818609E-02  0.9321888E-01
        3   -1    0    0  501    0  0.00000000000E+00  0.00000000000E+00  0.65907988801E+03  0.65907989575E+03  0.10100000352E+00 0.  1.
       -3   -1    0    0    0  501  0.00000000000E+00  0.00000000000E+00 -0.37021178048E+03  0.37021179426E+03  0.10100000352E+00 0. -1.
    10030    2    1    2    0    0  0.00000000000E+00  0.00000000000E+00  0.28886810753E+03  0.10292916900E+04  0.98792540182E+03 0.  0.
        5    1    3    3  502    0 -0.13854277244E+03 -0.44405411276E+03 -0.28651268234E+02  0.46606988749E+03  0.46999998093E+01 0. -1.
       -5    1    3    3    0  502  0.13854277244E+03  0.44405411276E+03  0.31751937576E+03  0.56322180252E+03  0.46999998093E+01 0.  1.
</event>
<event>
 5   0  0.6314750E-03  0.9583507E+03  0.7818609E-02  0.9355443E-01
        3   -1    0    0  501    0  0.00000000000E+00  0.00000000000E+00  0.47871319614E+03  0.47871320679E+03  0.10100000352E+00 0. -1.
       -3   -1    0    0    0  501  0.00000000000E+00  0.00000000000E+00 -0.47963796305E+03  0.47963797368E+03  0.10100000352E+00 0.  1.
    10030    2    1    2    0    0  0.00000000000E+00  0.00000000000E+00 -0.92476690561E+00  0.95835118047E+03  0.95835073429E+03 0.  0.
        4    1    3    3  502    0 -0.41990082998E+03 -0.23017755111E+03 -0.18041001682E+02  0.47919255283E+03  0.12699999809E+01 0.  1.
       -4    1    3    3    0  502  0.41990082998E+03  0.23017755111E+03  0.17116234777E+02  0.47915862764E+03  0.12699999809E+01 0. -1.
</event>
<event>
 5   0  0.9759443E-03  0.1008170E+04  0.7818609E-02  0.9299629E-01
        1   -1    0    0  501    0  0.00000000000E+00  0.00000000000E+00  0.13534689503E+04  0.13534689503E+04  0.50400001928E-02 0.  1.
       -1   -1    0    0    0  501  0.00000000000E+00  0.00000000000E+00 -0.18774095755E+03  0.18774095762E+03  0.50400001928E-02 0. -1.
    10030    2    1    2    0    0  0.00000000000E+00  0.00000000000E+00  0.11657279928E+04  0.15412099080E+04  0.10081697413E+04 0.  0.
        2    1    3    3  502    0  0.49711012941E+03 -0.82020367922E+02  0.60731087786E+03  0.78909589017E+03  0.25500000920E-02 0.  1.
       -2    1    3    3    0  502 -0.49711012941E+03  0.82020367922E+02  0.55841711493E+03  0.75211401780E+03  0.25500000920E-02 0. -1.
</event>
<event>
 5   0  0.1000773E-02  0.9987552E+03  0.7818609E-02  0.9309911E-01
        1   -1    0    0  501    0  0.00000000000E+00  0.00000000000E+00  0.13064603040E+04  0.13064603041E+04  0.50400001928E-02 0.  1.
       -1   -1    0    0    0  501  0.00000000000E+00  0.00000000000E+00 -0.19088066483E+03  0.19088066490E+03  0.50400001928E-02 0. -1.
    10030    2    1    2    0    0  0.00000000000E+00  0.00000000000E+00  0.11155796392E+04  0.14973409689E+04  0.99875524824E+03 0.  0.
        3    1    3    3  502    0  0.48052871215E+03  0.78199482305E+02  0.72443125236E+03  0.87282509808E+03  0.10100000352E+00 0.  1.
       -3    1    3    3    0  502 -0.48052871215E+03 -0.78199482305E+02  0.39114838684E+03  0.62451587087E+03  0.10100000352E+00 0. -1.
</event>
<event>
 5   0  0.9396660E-03  0.1043004E+04  0.7818609E-02  0.9262597E-01
       -1   -1    0    0    0  501  0.00000000000E+00  0.00000000000E+00  0.18533302101E+03  0.18533302108E+03  0.50400001928E-02 0. -1.
        1   -1    0    0  501    0  0.00000000000E+00  0.00000000000E+00 -0.14674358446E+04  0.14674358446E+04  0.50400001928E-02 0.  1.
    10030    2    1    2    0    0  0.00000000000E+00  0.00000000000E+00 -0.12821028235E+04  0.16527688656E+04  0.10430039660E+04 0.  0.
        5    1    3    3  502    0 -0.34424474169E+02 -0.41928501387E+03 -0.11293553791E+04  0.12051765969E+04  0.46999998093E+01 0.  1.
       -5    1    3    3    0  502  0.34424474169E+02  0.41928501387E+03 -0.15274744440E+03  0.44759226876E+03  0.46999998093E+01 0. -1.
</event>
<event>
 5   0  0.1617721E-02  0.1004990E+04  0.7818609E-02  0.9303089E-01
        2   -1    0    0  501    0  0.00000000000E+00  0.00000000000E+00  0.61650237483E+03  0.61650237484E+03  0.25500000920E-02 0. -1.
       -2   -1    0    0    0  501  0.00000000000E+00  0.00000000000E+00 -0.40957069189E+03  0.40957069189E+03  0.25500000920E-02 0.  1.
    10030    2    1    2    0    0  0.00000000000E+00  0.00000000000E+00  0.20693168295E+03  0.10260730667E+04  0.10049901576E+04 0.  0.
        5    1    3    3  502    0  0.87435765155E+02  0.10179711870E+03 -0.39091491156E+03  0.41333306725E+03  0.46999998093E+01 0.  1.
       -5    1    3    3    0  502 -0.87435765155E+02 -0.10179711870E+03  0.59784659451E+03  0.61273999948E+03  0.46999998093E+01 0. -1.
</event>
<event>
 5   0  0.9507815E-03  0.9868913E+03  0.7818609E-02  0.9323040E-01
       -1   -1    0    0    0  501  0.00000000000E+00  0.00000000000E+00  0.34559057619E+03  0.34559057623E+03  0.50400001928E-02 0.  1.
        1   -1    0    0  501    0  0.00000000000E+00  0.00000000000E+00 -0.70455794184E+03  0.70455794185E+03  0.50400001928E-02 0. -1.
    10030    2    1    2    0    0  0.00000000000E+00  0.00000000000E+00 -0.35896736565E+03  0.10501485181E+04  0.98689125056E+03 0.  0.
        1    1    3    3  502    0 -0.25572026984E+03  0.24492354901E+03 -0.54518070236E+03  0.65007876409E+03  0.50400001928E-02 0. -1.
       -1    1    3    3    0  502  0.25572026984E+03 -0.24492354901E+03  0.18621333671E+03  0.40006975399E+03  0.50400001928E-02 0.  1.
</event>
<event>
 5   0  0.9396660E-03  0.1013576E+04  0.7818609E-02  0.9293778E-01
       -1   -1    0    0    0  501  0.00000000000E+00  0.00000000000E+00  0.34357898705E+03  0.34357898709E+03  0.50400001928E-02 0. -1.
        1   -1    0    0  501    0  0.00000000000E+00  0.00000000000E+00 -0.74752619831E+03  0.74752619833E+03  0.50400001928E-02 0.  1.
    10030    2    1    2    0    0  0.00000000000E+00  0.00000000000E+00 -0.40394721126E+03  0.10911051854E+04  0.10135764284E+04 0.  0.
        5    1    3    3  502    0  0.35923786157E+03  0.13703481336E+03  0.15340162241E+03  0.41398614592E+03  0.46999998093E+01 0. -1.
       -5    1    3    3    0  502 -0.35923786157E+03 -0.13703481336E+03 -0.55734883367E+03  0.67711903950E+03  0.46999998093E+01 0.  1.
</event>
<event>
 5   0  0.9471140E-03  0.9765668E+03  0.7818609E-02  0.9334626E-01
       -1   -1    0    0    0  501  0.00000000000E+00  0.00000000000E+00  0.76331590685E+03  0.76331590687E+03  0.50400001928E-02 0.  1.
        1   -1    0    0  501    0  0.00000000000E+00  0.00000000000E+00 -0.31234865217E+03  0.31234865221E+03  0.50400001928E-02 0. -1.
    10030    2    1    2    0    0  0.00000000000E+00  0.00000000000E+00  0.45096725469E+03  0.10756645591E+04  0.97656683276E+03 0.  0.
        4    1    3    3  502    0  0.45226164743E+03 -0.65737299500E+01  0.42809308486E+03  0.62277533178E+03  0.12699999809E+01 0.  1.
       -4    1    3    3    0  502 -0.45226164743E+03  0.65737299500E+01  0.22874169825E+02  0.45288922730E+03  0.12699999809E+01 0. -1.
</event>
<event>
 5   0  0.9759443E-03  0.7200062E+03  0.7818609E-02  0.9683618E-01
       -1   -1    0    0    0  501  0.00000000000E+00  0.00000000000E+00  0.12459773110E+03  0.12459773120E+03  0.50400001928E-02 0.  1.
        1   -1    0    0  501    0  0.00000000000E+00  0.00000000000E+00 -0.10401653910E+04  0.10401653910E+04  0.50400001928E-02 0. -1.
    10030    2    1    2    0    0  0.00000000000E+00  0.00000000000E+00 -0.91556765993E+03  0.11647631222E+04  0.72000624375E+03 0.  0.
        2    1    3    3  502    0  0.65278156581E+02 -0.23539091922E+03 -0.29984881745E+02  0.24610813826E+03  0.25500000920E-02 0.  1.
       -2    1    3    3    0  502 -0.65278156581E+02  0.23539091922E+03 -0.88558277818E+03  0.91865498398E+03  0.25500000920E-02 0. -1.
</event>
<event>
 5   0  0.1571895E-02  0.9813416E+03  0.7818609E-02  0.9329249E-01
        2   -1    0    0  501    0  0.00000000000E+00  0.00000000000E+00  0.84361747821E+03  0.84361747822E+03  0.25500000920E-02 0. -1.
       -2   -1    0    0    0  501  0.00000000000E+00  0.00000000000E+00 -0.28538742908E+03  0.28538742909E+03  0.25500000920E-02 0.  1.
    10030    2    1    2    0    0  0.00000000000E+00  0.00000000000E+00  0.55823004913E+03  0.11290049073E+04  0.98134157814E+03 0.  0.
        2    1    3    3  502    0 -0.45358764643E+02  0.47437189984E+03  0.41363506552E+03  0.63101512210E+03  0.25500000920E-02 0.  1.
       -2    1    3    3    0  502  0.45358764643E+02 -0.47437189984E+03  0.14459498361E+03  0.49798978521E+03  0.25500000920E-02 0. -1.
</event>
<event>
 5   0  0.1598986E-02  0.1006721E+04  0.7818609E-02  0.9301204E-01
       -2   -1    0    0    0  501  0.00000000000E+00  0.00000000000E+00  0.24045010414E+03  0.24045010416E+03  0.25500000920E-02 0. -1.
        2   -1    0    0  501    0  0.00000000000E+00  0.00000000000E+00 -0.10537398637E+04  0.10537398637E+04  0.25500000920E-02 0.  1.
    10030    2    1    2    0    0  0.00000000000E+00  0.00000000000E+00 -0.81328975954E+03  0.12941899678E+04  0.10067211331E+04 0.  0.
        3    1    3    3  502    0  0.49190831315E+03 -0.33612269135E+02 -0.53691284294E+03  0.72895746399E+03  0.10100000352E+00 0. -1.
       -3    1    3    3    0  502 -0.49190831315E+03  0.33612269135E+02 -0.27637691659E+03  0.56523250385E+03  0.10100000352E+00 0.  1.
</event>
<event>
 5   0  0.1656859E-02  0.9963771E+03  0.7818609E-02  0.9312527E-01
        2   -1    0    0  501    0  0.00000000000E+00  0.00000000000E+00  0.28744163449E+03  0.28744163450E+03  0.25500000920E-02 0.  1.
       -2   -1    0    0    0  501  0.00000000000E+00  0.00000000000E+00 -0.86345129924E+03  0.86345129924E+03  0.25500000920E-02 0. -1.
    10030    2    1    2    0    0  0.00000000000E+00  0.00000000000E+00 -0.57600966475E+03  0.11508929337E+04  0.99637714299E+03 0.  0.
        4    1    3    3  502    0 -0.39769555806E+03 -0.19468705663E+03 -0.55172054404E+03  0.70743337392E+03  0.12699999809E+01 0.  1.
       -4    1    3    3    0  502  0.39769555806E+03  0.19468705663E+03 -0.24289120709E+02  0.44345955983E+03  0.12699999809E+01 0. -1.
</event>
<event>
 5   0  0.9396660E-03  0.7164661E+03  0.7818609E-02  0.9689480E-01
        1   -1    0    0  501    0  0.00000000000E+00  0.00000000000E+00  0.53962210042E+03  0.53962210044E+03  0.50400001928E-02 0. -1.
       -1   -1    0    0    0  501  0.00000000000E+00  0.00000000000E+00 -0.23781626308E+03  0.23781626313E+03  0.50400001928E-02 0.  1.
    10030    2    1    2    0    0  0.00000000000E+00  0.00000000000E+00  0.30180583734E+03  0.77743836358E+03  0.71646608134E+03 0.  0.
        5    1    3    3  502    0 -0.33310676107E+03 -0.12037165695E+03  0.20892664473E+03  0.41124431053E+03  0.46999998093E+01 0. -1.
       -5    1    3    3    0  502  0.33310676107E+03  0.12037165695E+03  0.92879192610E+02  0.36619405305E+03  0.46999998093E+01 0.  1.
</event>
<event>
 5   0  0.1663497E-02  0.1025385E+04  0.7818609E-02  0.9281133E-01
       -2   -1    0    0    0  501  0.00000000000E+00  0.00000000000E+00  0.28605276603E+03  0.28605276605E+03  0.25500000920E-02 0. -1.
        2   -1    0    0  501    0  0.00000000000E+00  0.00000000000E+00 -0.91889883064E+03  0.91889883064E+03  0.25500000920E-02 0.  1.
    10030    2    1    2    0    0  0.00000000000E+00  0.00000000000E+00 -0.63284606460E+03  0.12049515967E+04  0.10253849077E+04 0.  0.
        1    1    3    3  502    0 -0.34962630139E+03 -0.20257470013E+02 -0.75643437146E+03  0.83357175699E+03  0.50400001928E-02 0.  1.
       -1    1    3    3    0  502  0.34962630139E+03  0.20257470013E+02  0.12358830685E+03  0.37137983969E+03  0.50400001928E-02 0. -1.
</event>
<event>
 5   0  0.1617721E-02  0.1016762E+04  0.7818609E-02  0.9290349E-01
        2   -1    0    0  501    0  0.00000000000E+00  0.00000000000E+00  0.31112853979E+03  0.31112853980E+03  0.25500000920E-02 0. -1.
       -2   -1    0    0    0  501  0.00000000000E+00  0.00000000000E+00 -0.83068946904E+03  0.83068946904E+03  0.25500000920E-02 0.  1.
    10030    2    1    2    0    0  0.00000000000E+00  0.00000000000E+00 -0.51956092925E+03  0.11418180088E+04  0.10167619220E+04 0.  0.
        5    1    3    3  502    0  0.14979569564E+03 -0.69277978942E+02 -0.79974222456E+03  0.81660755846E+03  0.46999998093E+01 0.  1.
       -5    1    3    3    0  502 -0.14979569564E+03  0.69277978942E+02  0.28018129531E+03  0.32521045038E+03  0.46999998093E+01 0. -1.
</event>
<event>
 5   0  0.9471140E-03  0.9753023E+03  0.7818609E-02  0.9336055E-01
       -1   -1    0    0    0  501  0.00000000000E+00  0.00000000000E+00  0.65646703442E+03  0.65646703444E+03  0.50400001928E-02 0. -1.
        1   -1    0    0  501    0  0.00000000000E+00  0.00000000000E+00 -0.36224765226E+03  0.36224765230E+03  0.50400001928E-02 0.  1.
    10030    2    1    2    0    0  0.00000000000E+00  0.00000000000E+00  0.29421938215E+03  0.10187146867E+04  0.97530229577E+03 0.  0.
        4    1    3    3  502    0 -0.36859330864E+03  0.25788823532E+02  0.47951385787E+03  0.60536042436E+03  0.12699999809E+01 0. -1.
       -4    1    3    3    0  502  0.36859330864E+03 -0.25788823532E+02 -0.18529447571E+03  0.41335426238E+03  0.12699999809E+01 0.  1.
</event>
<event>
 5   0  0.9759443E-03  0.6310557E+03  0.7818609E-02  0.9842991E-01
       -1   -1    0    0    0  501  0.00000000000E+00  0.00000000000E+00  0.17345872747E+03  0.17345872754E+03  0.50400001928E-02 0. -1.
        1   -1    0    0  501    0  0.00000000000E+00  0.00000000000E+00 -0.57395678131E+03  0.57395678133E+03  0.50400001928E-02 0.  1.
    10030    2    1    2    0    0  0.00000000000E+00  0.00000000000E+00 -0.40049805384E+03  0.74741550888E+03  0.63105566457E+03 0.  0.
        2    1    3    3  502    0 -0.59560478169E+02 -0.23939422944E+03  0.32750056344E+02  0.24885661302E+03  0.25500000920E-02 0. -1.
       -2    1    3    3    0  502  0.59560478169E+02  0.23939422944E+03 -0.43324811018E+03  0.49855889585E+03  0.25500000920E-02 0.  1.
</event>
<event>
 5   0  0.9759443E-03  0.9916409E+03  0.7818609E-02  0.9317761E-01
       -1   -1    0    0    0  501  0.00000000000E+00  0.00000000000E+00  0.40521115775E+03  0.40521115778E+03  0.50400001928E-02 0. -1.
        1   -1    0    0  501    0  0.00000000000E+00  0.00000000000E+00 -0.60669085631E+03  0.60669085633E+03  0.50400001928E-02 0.  1.
    10030    2    1    2    0    0  0.00000000000E+00  0.00000000000E+00 -0.20147969857E+03  0.10119020141E+04  0.99164087110E+03 0.  0.
        2    1    3    3  502    0 -0.25579497812E+03 -0.18781541626E+03  0.28800615285E+03  0.42854783339E+03  0.25500000920E-02 0. -1.
       -2    1    3    3    0  502  0.25579497812E+03  0.18781541626E+03 -0.48948585142E+03  0.58335418072E+03  0.25500000920E-02 0.  1.
</event>
<event>
 5   0  0.1000773E-02  0.8818315E+03  0.7818609E-02  0.9448582E-01
        1   -1    0    0  501    0  0.00000000000E+00  0.00000000000E+00  0.12152474958E+04  0.12152474958E+04  0.50400001928E-02 0.  1.
       -1   -1    0    0    0  501  0.00000000000E+00  0.00000000000E+00 -0.15997294098E+03  0.15997294106E+03  0.50400001928E-02 0. -1.
    10030    2    1    2    0    0  0.00000000000E+00  0.00000000000E+00  0.10552745548E+04  0.13752204369E+04  0.88183153943E+03 0.  0.
        3    1    3    3  502    0  0.33969043640E+03 -0.28022861029E+03  0.49315003129E+03  0.66114645138E+03  0.10100000352E+00 0. -1.
       -3    1    3    3    0  502 -0.33969043640E+03  0.28022861029E+03  0.56212452353E+03  0.71407398549E+03  0.10100000352E+00 0.  1.
</event>
<event>
 5   0  0.9759443E-03  0.1012860E+04  0.7818609E-02  0.9294552E-01
        1   -1    0    0  501    0  0.00000000000E+00  0.00000000000E+00  0.13602813906E+04  0.13602813906E+04  0.50400001928E-02 0. -1.
       -1   -1    0    0    0  501  0.00000000000E+00  0.00000000000E+00 -0.18854288109E+03  0.18854288116E+03  0.50400001928E-02 0.  1.
    10030    2    1    2    0    0  0.00000000000E+00  0.00000000000E+00  0.11717385095E+04  0.15488242717E+04  0.10128600546E+04 0.  0.
        2    1    3    3  502    0  0.37484732400E+03 -0.34034480734E+03  0.56868621805E+03  0.76141258120E+03  0.25500000920E-02 0. -1.
       -2    1    3    3    0  502 -0.37484732400E+03  0.34034480734E+03  0.60305229143E+03  0.78741169054E+03  0.25500000920E-02 0.  1.
</event>
<event>
 5   0  0.1571895E-02  0.1004615E+04  0.7818609E-02  0.9303498E-01
       -2   -1    0    0    0  501  0.00000000000E+00  0.00000000000E+00  0.11938564916E+04  0.11938564916E+04  0.25500000920E-02 0.  1.
        2   -1    0    0  501    0  0.00000000000E+00  0.00000000000E+00 -0.21134261765E+03  0.21134261767E+03  0.25500000920E-02 0. -1.
    10030    2    1    2    0    0  0.00000000000E+00  0.00000000000E+00  0.98251387399E+03  0.14051991093E+04  0.10046148636E+04 0.  0.
        2    1    3    3  502    0 -0.23807255139E+03  0.31490676185E+03  0.92569691796E+03  0.10063595741E+04  0.25500000920E-02 0.  1.
       -2    1    3    3    0  502  0.23807255139E+03 -0.31490676185E+03  0.56816956034E+02  0.39883953526E+03  0.25500000920E-02 0. -1.
</event>
<event>
 5   0  0.1571895E-02  0.1005162E+04  0.7818609E-02  0.9302901E-01
       -2   -1    0    0    0  501  0.00000000000E+00  0.00000000000E+00  0.34624190164E+03  0.34624190165E+03  0.25500000920E-02 0. -1.
        2   -1    0    0  501    0  0.00000000000E+00  0.00000000000E+00 -0.72951261338E+03  0.72951261339E+03  0.25500000920E-02 0.  1.
    10030    2    1    2    0    0  0.00000000000E+00  0.00000000000E+00 -0.38327071174E+03  0.10757545150E+04  0.10051623442E+04 0.  0.
        2    1    3    3  502    0  0.36119008465E+03  0.33867714576E+03 -0.28386995402E+03  0.57073867672E+03  0.25500000920E-02 0.  1.
       -2    1    3    3    0  502 -0.36119008465E+03 -0.33867714576E+03 -0.99400757725E+02  0.50501583831E+03  0.25500000920E-02 0. -1.
</event>
<event>
 5   0  0.1598986E-02  0.9851674E+03  0.7818609E-02  0.9324964E-01
        2   -1    0    0  501    0  0.00000000000E+00  0.00000000000E+00  0.79445921101E+03  0.79445921102E+03  0.25500000920E-02 0.  1.
       -2   -1    0    0    0  501  0.00000000000E+00  0.00000000000E+00 -0.30541367609E+03  0.30541367610E+03  0.25500000920E-02 0. -1.
    10030    2    1    2    0    0  0.00000000000E+00  0.00000000000E+00  0.48904553493E+03  0.10998728871E+04  0.98516741348E+03 0.  0.
        3    1    3    3  502    0 -0.18798900387E+03 -0.44633052100E+03  0.34492660252E+03  0.59457982717E+03  0.10100000352E+00 0. -1.
       -3    1    3    3    0  502  0.18798900387E+03  0.44633052100E+03  0.14411893241E+03  0.50529305995E+03  0.10100000352E+00 0.  1.
</event>
<event>
 5   0  0.6314750E-03  0.1003018E+04  0.7818609E-02  0.9305241E-01
        3   -1    0    0  501    0  0.00000000000E+00  0.00000000000E+00  0.12279877332E+04  0.12279877374E+04  0.10100000352E+00 0.  1.
       -3   -1    0    0    0  501  0.00000000000E+00  0.00000000000E+00 -0.20481572531E+03  0.20481575021E+03  0.10100000352E+00 0. -1.
    10030    2    1    2    0    0  0.00000000000E+00  0.00000000000E+00  0.10231720079E+04  0.14328034876E+04  0.10030178843E+04 0.  0.
        5    1    3    3  502    0 -0.32040587438E+02  0.19992899052E+03  0.11669682089E+04  0.11844133954E+04  0.46999998093E+01 0.  1.
       -5    1    3    3    0  502  0.32040587438E+02 -0.19992899052E+03 -0.14379620100E+03  0.24839009222E+03  0.46999998093E+01 0. -1.
</event>
<event>
 5   0  0.9507815E-03  0.1127621E+04  0.7818609E-02  0.9178681E-01
       -1   -1    0    0    0  501  0.00000000000E+00  0.00000000000E+00  0.36271076446E+03  0.36271076449E+03  0.50400001928E-02 0.  1.
        1   -1    0    0  501    0  0.00000000000E+00  0.00000000000E+00 -0.87640774754E+03  0.87640774756E+03  0.50400001928E-02 0. -1.
    10030    2    1    2    0    0  0.00000000000E+00  0.00000000000E+00 -0.51369698309E+03  0.12391185121E+04  0.11276214331E+04 0.  0.
        1    1    3    3  502    0  0.30365059071E+03 -0.31993114766E+03  0.12904850099E+03  0.45957930341E+03  0.50400001928E-02 0.  1.
       -1    1    3    3    0  502 -0.30365059071E+03  0.31993114766E+03 -0.64274548408E+03  0.77953920864E+03  0.50400001928E-02 0. -1.
</event>
<event>
 5   0  0.9759443E-03  0.1012011E+04  0.7818609E-02  0.9295469E-01
        1   -1    0    0  501    0  0.00000000000E+00  0.00000000000E+00  0.44577920845E+03  0.44577920848E+03  0.50400001928E-02 0. -1.
       -1   -1    0    0    0  501  0.00000000000E+00  0.00000000000E+00 -0.57436846253E+03  0.57436846255E+03  0.50400001928E-02 0.  1.
    10030    2    1    2    0    0  0.00000000000E+00  0.00000000000E+00 -0.12858925407E+03  0.10201476710E+04  0.10120109063E+04 0.  0.
        2    1    3    3  502    0  0.10159544613E+02  0.49921575125E+03 -0.14694123524E+03  0.52049141133E+03  0.25500000920E-02 0.  1.
       -2    1    3    3    0  502 -0.10159544613E+02 -0.49921575125E+03  0.18351981169E+02  0.49965625971E+03  0.25500000920E-02 0. -1.
</event>
<event>
 5   0  0.9759443E-03  0.9964152E+03  0.7818609E-02  0.9312485E-01
        1   -1    0    0  501    0  0.00000000000E+00  0.00000000000E+00  0.40877996022E+03  0.40877996025E+03  0.50400001928E-02 0.  1.
       -1   -1    0    0    0  501  0.00000000000E+00  0.00000000000E+00 -0.60719910259E+03  0.60719910261E+03  0.50400001928E-02 0. -1.
    10030    2    1    2    0    0  0.00000000000E+00  0.00000000000E+00 -0.19841914237E+03  0.10159790629E+04  0.99641522475E+03 0.  0.
        2    1    3    3  502    0 -0.34269279242E+03 -0.35106910251E+03 -0.18764754594E+03  0.52526133136E+03  0.25500000920E-02 0.  1.
       -2    1    3    3    0  502  0.34269279242E+03  0.35106910251E+03 -0.10771596427E+02  0.49071773150E+03  0.25500000920E-02 0. -1.
</event>
<event>
 5   0  0.1598986E-02  0.1004940E+04  0.7818609E-02  0.9303143E-01
       -2   -1    0    0    0  501  0.00000000000E+00  0.00000000000E+00  0.25291876495E+03  0.25291876497E+03  0.25500000920E-02 0. -1.
        2   -1    0    0  501    0  0.00000000000E+00  0.00000000000E+00 -0.99825071156E+03  0.99825071157E+03  0.25500000920E-02 0.  1.
    10030    2    1    2    0    0  0.00000000000E+00  0.00000000000E+00 -0.74533194661E+03  0.12511694765E+04  0.10049404701E+04 0.  0.
        3    1    3    3  502    0 -0.25636467323E+02  0.45101215827E+03 -0.98741724787E+02  0.46240581071E+03  0.10100000352E+00 0. -1.
       -3    1    3    3    0  502  0.25636467323E+02 -0.45101215827E+03 -0.64659022182E+03  0.78876366582E+03  0.10100000352E+00 0.  1.
</event>
<event>
 5   0  0.1571895E-02  0.1015968E+04  0.7818609E-02  0.9291203E-01
        2   -1    0    0  501    0  0.00000000000E+00  0.00000000000E+00  0.17267156214E+04  0.17267156214E+04  0.25500000920E-02 0.  1.
       -2   -1    0    0    0  501  0.00000000000E+00  0.00000000000E+00 -0.14944419278E+03  0.14944419280E+03  0.25500000920E-02 0. -1.
    10030    2    1    2    0    0  0.00000000000E+00  0.00000000000E+00  0.15772714286E+04  0.18761598142E+04  0.10159677598E+04 0.  0.
        2    1    3    3  502    0 -0.15185809696E+03  0.11301499282E+03 -0.81878677524E+02  0.20624594070E+03  0.25500000920E-02 0. -1.
       -2    1    3    3    0  502  0.15185809696E+03 -0.11301499282E+03  0.16591501061E+04  0.16699138735E+04  0.25500000920E-02 0.  1.
</event>
<event>
 5   0  0.1571895E-02  0.9916015E+03  0.7818609E-02  0.9317804E-01
       -2   -1    0    0    0  501  0.00000000000E+00  0.00000000000E+00  0.19069714617E+03  0.19069714619E+03  0.25500000920E-02 0. -1.
        2   -1    0    0  501    0  0.00000000000E+00  0.00000000000E+00 -0.12890511688E+04  0.12890511688E+04  0.25500000920E-02 0.  1.
    10030    2    1    2    0    0  0.00000000000E+00  0.00000000000E+00 -0.10983540226E+04  0.14797483150E+04  0.99160149086E+03 0.  0.
        2    1    3    3  502    0  0.36422436737E+03  0.26866933110E+03 -0.85125167262E+03  0.96409128686E+03  0.25500000920E-02 0.  1.
       -2    1    3    3    0  502 -0.36422436737E+03 -0.26866933110E+03 -0.24710234999E+03  0.51565702811E+03  0.25500000920E-02 0. -1.
</event>
<event>
 5   0  0.9471140E-03  0.8787146E+03  0.7818609E-02  0.9452587E-01
        1   -1    0    0  501    0  0.00000000000E+00  0.00000000000E+00  0.11153399767E+04  0.11153399767E+04  0.50400001928E-02 0. -1.
       -1   -1    0    0    0  501  0.00000000000E+00  0.00000000000E+00 -0.17307265036E+03  0.17307265043E+03  0.50400001928E-02 0.  1.
    10030    2    1    2    0    0  0.00000000000E+00  0.00000000000E+00  0.94226732631E+03  0.12884126271E+04  0.87871462003E+03 0.  0.
        4    1    3    3  502    0  0.11016648670E+03  0.68358251724E+01 -0.15240903269E+03  0.18818477473E+03  0.12699999809E+01 0.  1.
       -4    1    3    3    0  502 -0.11016648670E+03 -0.68358251724E+01  0.10946763590E+04  0.11002278524E+04  0.12699999809E+01 0. -1.
</event>
<event>
 5   0  0.6314750E-03  0.1013568E+04  0.7818609E-02  0.9293788E-01
       -3   -1    0    0    0  501  0.00000000000E+00  0.00000000000E+00  0.96306804221E+03  0.96306804751E+03  0.10100000352E+00 0. -1.
        3   -1    0    0  501    0  0.00000000000E+00  0.00000000000E+00 -0.26667894550E+03  0.26667896463E+03  0.10100000352E+00 0.  1.
    10030    2    1    2    0    0  0.00000000000E+00  0.00000000000E+00  0.69638909671E+03  0.12297470121E+04  0.10135679256E+04 0.  0.
        2    1    3    3  502    0  0.12043007805E+03  0.13915597303E+03 -0.22470507169E+03  0.29044820154E+03  0.25500000920E-02 0.  1.
       -2    1    3    3    0  502 -0.12043007805E+03 -0.13915597303E+03  0.92109416840E+03  0.93929881060E+03  0.25500000920E-02 0. -1.
</event>
<event>
 5   0  0.1663497E-02  0.9949170E+03  0.7818609E-02  0.9314137E-01
        2   -1    0    0  501    0  0.00000000000E+00  0.00000000000E+00  0.11566697877E+04  0.11566697877E+04  0.25500000920E-02 0.  1.
       -2   -1    0    0    0  501  0.00000000000E+00  0.00000000000E+00 -0.21394608599E+03  0.21394608601E+03  0.25500000920E-02 0. -1.
    10030    2    1    2    0    0  0.00000000000E+00  0.00000000000E+00  0.94272370174E+03  0.13706158737E+04  0.99491702947E+03 0.  0.
        1    1    3    3  502    0  0.37785596572E+03 -0.15380287970E+03  0.86352241379E+03  0.95504000742E+03  0.50400001928E-02 0.  1.
       -1    1    3    3    0  502 -0.37785596572E+03  0.15380287970E+03  0.79201287955E+02  0.41557586632E+03  0.50400001928E-02 0. -1.
</event>
<event>
 5   0  0.1598986E-02  0.1011935E+04  0.7818609E-02  0.9295551E-01
        2   -1    0    0  501    0  0.00000000000E+00  0.00000000000E+00  0.57326681383E+03  0.57326681384E+03  0.25500000920E-02 0. -1.
       -2   -1    0    0    0  501  0.00000000000E+00  0.00000000000E+00 -0.44656857429E+03  0.44656857430E+03  0.25500000920E-02 0.  1.
    10030    2    1    2    0    0  0.00000000000E+00  0.00000000000E+00  0.12669823954E+03  0.10198353881E+04  0.10119346693E+04 0.  0.
        3    1    3    3  502    0  0.14947954784E+03  0.41085362177E+03  0.32001001982E+03  0.54180370682E+03  0.10100000352E+00 0. -1.
       -3    1    3    3    0  502 -0.14947954784E+03 -0.41085362177E+03 -0.19331178029E+03  0.47803168131E+03  0.10100000352E+00 0.  1.
</event>
<event>
 5   0  0.6314750E-03  0.6564299E+03  0.7818609E-02  0.9794788E-01
        4   -1    0    0  501    0  0.00000000000E+00  0.00000000000E+00  0.16649008342E+03  0.16649492718E+03  0.12699999809E+01 0. -1.
       -4   -1    0    0    0  501  0.00000000000E+00  0.00000000000E+00 -0.64702103073E+03  0.64702227714E+03  0.12699999809E+01 0.  1.
    10030    2    1    2    0    0  0.00000000000E+00  0.00000000000E+00 -0.48053094732E+03  0.81351720431E+03  0.65642992801E+03 0.  0.
        3    1    3    3  502    0 -0.24010720983E+03  0.15819421350E+03 -0.44125379999E+02  0.29090194355E+03  0.10100000352E+00 0. -1.
       -3    1    3    3    0  502  0.24010720983E+03 -0.15819421350E+03 -0.43640556732E+03  0.52261526077E+03  0.10100000352E+00 0.  1.
</event>
<event>
 5   0  0.1598986E-02  0.9931830E+03  0.7818609E-02  0.9316053E-01
       -2   -1    0    0    0  501  0.00000000000E+00  0.00000000000E+00  0.19724959719E+03  0.19724959720E+03  0.25500000920E-02 0. -1.
        2   -1    0    0  501    0  0.00000000000E+00  0.00000000000E+00 -0.12502085482E+04  0.12502085482E+04  0.25500000920E-02 0.  1.
    10030    2    1    2    0    0  0.00000000000E+00  0.00000000000E+00 -0.10529589510E+04  0.14474581454E+04  0.99318302953E+03 0.  0.
        3    1    3    3  502    0  0.34814035762E+03 -0.34001996941E+03 -0.67066445662E+03  0.82861698738E+03  0.10100000352E+00 0. -1.
       -3    1    3    3    0  502 -0.34814035762E+03  0.34001996941E+03 -0.38229449436E+03  0.61884115799E+03  0.10100000352E+00 0.  1.
</event>
<event>
 5   0  0.1571895E-02  0.9956716E+03  0.7818609E-02  0.9313305E-01
        2   -1    0    0  501    0  0.00000000000E+00  0.00000000000E+00  0.65402343382E+03  0.65402343383E+03  0.25500000920E-02 0. -1.
       -2   -1    0    0    0  501  0.00000000000E+00  0.00000000000E+00 -0.37894744283E+03  0.37894744284E+03  0.25500000920E-02 0.  1.
    10030    2    1    2    0    0  0.00000000000E+00  0.00000000000E+00  0.27507599099E+03  0.10329708767E+04  0.99567164830E+03 0.  0.
        2    1    3    3  502    0 -0.27540838881E+03 -0.63858438446E+02  0.56266028237E+03  0.62969379395E+03  0.25500000920E-02 0. -1.
       -2    1    3    3    0  502  0.27540838881E+03  0.63858438446E+02 -0.28758429138E+03  0.40327708271E+03  0.25500000920E-02 0.  1.
</event>
<event>
 5   0  0.1617721E-02  0.9793452E+03  0.7818609E-02  0.9331493E-01
       -2   -1    0    0    0  501  0.00000000000E+00  0.00000000000E+00  0.92433362857E+03  0.92433362857E+03  0.25500000920E-02 0.  1.
        2   -1    0    0  501    0  0.00000000000E+00  0.00000000000E+00 -0.25940768162E+03  0.25940768163E+03  0.25500000920E-02 0. -1.
    10030    2    1    2    0    0  0.00000000000E+00  0.00000000000E+00  0.66492594695E+03  0.11837413102E+04  0.97934517641E+03 0.  0.
        5    1    3    3  502    0  0.19883681729E+03  0.44665950896E+03  0.36481382427E+03  0.61004263231E+03  0.46999998093E+01 0. -1.
       -5    1    3    3    0  502 -0.19883681729E+03 -0.44665950896E+03  0.30011212267E+03  0.57369867790E+03  0.46999998093E+01 0.  1.
</event>
<event>
 5   0  0.1000773E-02  0.9510667E+03  0.7818609E-02  0.9363905E-01
        1   -1    0    0  501    0  0.00000000000E+00  0.00000000000E+00  0.75880096410E+03  0.75880096411E+03  0.50400001928E-02 0.  1.
       -1   -1    0    0    0  501  0.00000000000E+00  0.00000000000E+00 -0.29801221136E+03  0.29801221140E+03  0.50400001928E-02 0. -1.
    10030    2    1    2    0    0  0.00000000000E+00  0.00000000000E+00  0.46078875274E+03  0.10568131755E+04  0.95106667132E+03 0.  0.
        3    1    3    3  502    0 -0.34477406931E+03  0.28185562265E+03  0.45055161193E+02  0.44759549667E+03  0.10100000352E+00 0. -1.
       -3    1    3    3    0  502  0.34477406931E+03 -0.28185562265E+03  0.41573359154E+03  0.60921767885E+03  0.10100000352E+00 0.  1.
</event>
<event>
 5   0  0.9396660E-03  0.9114211E+03  0.7818609E-02  0.9411416E-01
        1   -1    0    0  501    0  0.00000000000E+00  0.00000000000E+00  0.57310799993E+03  0.57310799995E+03  0.50400001928E-02 0. -1.
       -1   -1    0    0    0  501  0.00000000000E+00  0.00000000000E+00 -0.36236121630E+03  0.36236121633E+03  0.50400001928E-02 0.  1.
    10030    2    1    2    0    0  0.00000000000E+00  0.00000000000E+00  0.21074678363E+03  0.93546921629E+03  0.91142111442E+03 0.  0.
        5    1    3    3  502    0 -0.19130180943E+03  0.27271209343E+03  0.42451444584E+03  0.53963216446E+03  0.46999998093E+01 0. -1.
       -5    1    3    3    0  502  0.19130180943E+03 -0.27271209343E+03 -0.21376766221E+03  0.39583705183E+03  0.46999998093E+01 0.  1.
</event>
<event>
 5   0  0.1663497E-02  0.9935360E+03  0.7818609E-02  0.9315663E-01
       -2   -1    0    0    0  501  0.00000000000E+00  0.00000000000E+00  0.19808156028E+03  0.19808156030E+03  0.25500000920E-02 0. -1.
        2   -1    0    0  501    0  0.00000000000E+00  0.00000000000E+00 -0.12458425240E+04  0.12458425240E+04  0.25500000920E-02 0.  1.
    10030    2    1    2    0    0  0.00000000000E+00  0.00000000000E+00 -0.10477609637E+04  0.14439240843E+04  0.99353597021E+03 0.  0.
        1    1    3    3  502    0  0.34619717321E+03 -0.57745780475E+02 -0.10348027647E+04  0.10927048182E+04  0.50400001928E-02 0.  1.
       -1    1    3    3    0  502 -0.34619717321E+03  0.57745780475E+02 -0.12958198992E+02  0.35121926605E+03  0.50400001928E-02 0. -1.
</event>
<event>
 5   0  0.9759443E-03  0.1001876E+04  0.7818609E-02  0.9306489E-01
        1   -1    0    0  501    0  0.00000000000E+00  0.00000000000E+00  0.11949610863E+04  0.11949610863E+04  0.50400001928E-02 0.  1.
       -1   -1    0    0    0  501  0.00000000000E+00  0.00000000000E+00 -0.20999759354E+03  0.20999759361E+03  0.50400001928E-02 0. -1.
    10030    2    1    2    0    0  0.00000000000E+00  0.00000000000E+00  0.98496349278E+03  0.14049586799E+04  0.10018761452E+04 0.  0.
        2    1    3    3  502    0  0.13517245408E+03 -0.43543734007E+03  0.20148038827E+03  0.49846927321E+03  0.25500000920E-02 0. -1.
       -2    1    3    3    0  502 -0.13517245408E+03  0.43543734007E+03  0.78348310451E+03  0.90648940673E+03  0.25500000920E-02 0.  1.
</event>
<event>
 5   0  0.1571895E-02  0.1001749E+04  0.7818609E-02  0.9306629E-01
        2   -1    0    0  501    0  0.00000000000E+00  0.00000000000E+00  0.47883688700E+03  0.47883688701E+03  0.25500000920E-02 0. -1.
       -2   -1    0    0    0  501  0.00000000000E+00  0.00000000000E+00 -0.52392623991E+03  0.52392623992E+03  0.25500000920E-02 0.  1.
    10030    2    1    2    0    0  0.00000000000E+00  0.00000000000E+00 -0.45089352907E+02  0.10027631269E+04  0.10017488902E+04 0.  0.
        2    1    3    3  502    0  0.32508295459E+03 -0.19832390405E+03  0.30315209542E+03  0.48673657274E+03  0.25500000920E-02 0. -1.
       -2    1    3    3    0  502 -0.32508295459E+03  0.19832390405E+03 -0.34824144833E+03  0.51602655418E+03  0.25500000920E-02 0.  1.
</event>
<event>
 5   0  0.9507815E-03  0.9557091E+03  0.7818609E-02  0.9358502E-01
        1   -1    0    0  501    0  0.00000000000E+00  0.00000000000E+00  0.20159518643E+04  0.20159518643E+04  0.50400001928E-02 0.  1.
       -1   -1    0    0    0  501  0.00000000000E+00  0.00000000000E+00 -0.11326906753E+03  0.11326906764E+03  0.50400001928E-02 0. -1.
    10030    2    1    2    0    0  0.00000000000E+00  0.00000000000E+00  0.19026827968E+04  0.21292209320E+04  0.95570913564E+03 0.  0.
        1    1    3    3  502    0 -0.23841912259E+03  0.26133674383E+03  0.16670630088E+04  0.17041829852E+04  0.50400001928E-02 0.  1.
       -1    1    3    3    0  502  0.23841912259E+03 -0.26133674383E+03  0.23561978801E+03  0.42503794680E+03  0.50400001928E-02 0. -1.
</event>
<event>
 5   0  0.1656859E-02  0.1001609E+04  0.7818609E-02  0.9306782E-01
       -2   -1    0    0    0  501  0.00000000000E+00  0.00000000000E+00  0.42070170930E+03  0.42070170930E+03  0.25500000920E-02 0.  1.
        2   -1    0    0  501    0  0.00000000000E+00  0.00000000000E+00 -0.59615864357E+03  0.59615864357E+03  0.25500000920E-02 0. -1.
    10030    2    1    2    0    0  0.00000000000E+00  0.00000000000E+00 -0.17545693427E+03  0.10168603529E+04  0.10016086269E+04 0.  0.
        4    1    3    3  502    0 -0.42861981479E+03  0.22589270344E+03 -0.21638979816E+03  0.53063039561E+03  0.12699999809E+01 0.  1.
       -4    1    3    3    0  502  0.42861981479E+03 -0.22589270344E+03  0.40932863893E+02  0.48622995727E+03  0.12699999809E+01 0. -1.
</event>
<event>
 5   0  0.9471140E-03  0.9983167E+03  0.7818609E-02  0.9310393E-01
        1   -1    0    0  501    0  0.00000000000E+00  0.00000000000E+00  0.10278590603E+04  0.10278590603E+04  0.50400001928E-02 0. -1.
       -1   -1    0    0    0  501  0.00000000000E+00  0.00000000000E+00 -0.24240585213E+03  0.24240585218E+03  0.50400001928E-02 0.  1.
    10030    2    1    2    0    0  0.00000000000E+00  0.00000000000E+00  0.78545320816E+03  0.12702649125E+04  0.99831668606E+03 0.  0.
        4    1    3    3  502    0 -0.18727965265E+03  0.16210081167E+03 -0.15869270781E+03  0.29416887982E+03  0.12699999809E+01 0.  1.
       -4    1    3    3    0  502  0.18727965265E+03 -0.16210081167E+03  0.94414591596E+03  0.97609603266E+03  0.12699999809E+01 0. -1.
</event>
<event>
 5   0  0.1617721E-02  0.9590249E+03  0.7818609E-02  0.9354664E-01
       -2   -1    0    0    0  501  0.00000000000E+00  0.00000000000E+00  0.19319532600E+03  0.19319532602E+03  0.25500000920E-02 0.  1.
        2   -1    0    0  501    0  0.00000000000E+00  0.00000000000E+00 -0.11901539005E+04  0.11901539005E+04  0.25500000920E-02 0. -1.
    10030    2    1    2    0    0  0.00000000000E+00  0.00000000000E+00 -0.99695857448E+03  0.13833492265E+04  0.95902486060E+03 0.  0.
        5    1    3    3  502    0  0.14931353205E+03  0.35223628823E+03 -0.91540874461E+03  0.99214927974E+03  0.46999998093E+01 0. -1.
       -5    1    3    3    0  502 -0.14931353205E+03 -0.35223628823E+03 -0.81549829877E+02  0.39119994676E+03  0.46999998093E+01 0.  1.
</event>
<event>
 5   0  0.9759443E-03  0.1005512E+04  0.7818609E-02  0.9302520E-01
       -1   -1    0    0    0  501  0.00000000000E+00  0.00000000000E+00  0.65785397599E+03  0.65785397601E+03  0.50400001928E-02 0.  1.
        1   -1    0    0  501    0  0.00000000000E+00  0.00000000000E+00 -0.38422455093E+03  0.38422455096E+03  0.50400001928E-02 0. -1.
    10030    2    1    2    0    0  0.00000000000E+00  0.00000000000E+00  0.27362942506E+03  0.10420785270E+04  0.10055121054E+04 0.  0.
        2    1    3    3  502    0  0.16552367589E+03 -0.18607740165E+03  0.58943592111E+03  0.63988873391E+03  0.25500000920E-02 0.  1.
       -2    1    3    3    0  502 -0.16552367589E+03  0.18607740165E+03 -0.31580649605E+03  0.40218979306E+03  0.25500000920E-02 0. -1.
</event>
<event>
 5   0  0.9396660E-03  0.1006460E+04  0.7818609E-02  0.9301487E-01
        1   -1    0    0  501    0  0.00000000000E+00  0.00000000000E+00  0.57476329507E+03  0.57476329509E+03  0.50400001928E-02 0. -1.
       -1   -1    0    0    0  501  0.00000000000E+00  0.00000000000E+00 -0.44059993397E+03  0.44059993400E+03  0.50400001928E-02 0.  1.
    10030    2    1    2    0    0  0.00000000000E+00  0.00000000000E+00  0.13416336110E+03  0.10153632291E+04  0.10064604709E+04 0.  0.
        5    1    3    3  502    0 -0.39464929360E+03 -0.17735329541E+03 -0.19212749843E+03  0.47343143325E+03  0.46999998093E+01 0.  1.
       -5    1    3    3    0  502  0.39464929360E+03  0.17735329541E+03  0.32629085953E+03  0.54193179584E+03  0.46999998093E+01 0. -1.
</event>
<event>
 5   0  0.1663497E-02  0.6993691E+03  0.7818609E-02  0.9718312E-01
       -2   -1    0    0    0  501  0.00000000000E+00  0.00000000000E+00  0.21118006577E+03  0.21118006579E+03  0.25500000920E-02 0. -1.
        2   -1    0    0  501    0  0.00000000000E+00  0.00000000000E+00 -0.57902848125E+03  0.57902848125E+03  0.25500000920E-02 0.  1.
    10030    2    1    2    0    0  0.00000000000E+00  0.00000000000E+00 -0.36784841547E+03  0.79020854704E+03  0.69936906641E+03 0.  0.
        1    1    3    3  502    0 -0.19980053122E+03 -0.48354430826E+02  0.13569799230E+03  0.24631757630E+03  0.50400001928E-02 0. -1.
       -1    1    3    3    0  502  0.19980053122E+03  0.48354430826E+02 -0.50354640777E+03  0.54389097074E+03  0.50400001928E-02 0.  1.
</event>
<event>
 5   0  0.1000773E-02  0.9126138E+03  0.7818609E-02  0.9409949E-01
        1   -1    0    0  501    0  0.00000000000E+00  0.00000000000E+00  0.49284592910E+03  0.49284592912E+03  0.50400001928E-02 0. -1.
       -1   -1    0    0    0  501  0.00000000000E+00  0.00000000000E+00 -0.42247687840E+03  0.42247687844E+03  0.50400001928E-02 0.  1.
    10030    2    1    2    0    0  0.00000000000E+00  0.00000000000E+00  0.70369050693E+02  0.91532280756E+03  0.91261384974E+03 0.  0.
        3    1    3    3  502    0  0.22518577231E+03  0.36723133619E+03 -0.11575642392E+03  0.44605722302E+03  0.10100000352E+00 0.  1.
       -3    1    3    3    0  502 -0.22518577231E+03 -0.36723133619E+03  0.18612547461E+03  0.46926558454E+03  0.10100000352E+00 0. -1.
</event>
<event>
 5   0  0.1663497E-02  0.9993944E+03  0.7818609E-02  0.9309209E-01
       -2   -1    0    0    0  501  0.00000000000E+00  0.00000000000E+00  0.22333668970E+03  0.22333668971E+03  0.25500000920E-02 0.  1.
        2   -1    0    0  501    0  0.00000000000E+00  0.00000000000E+00 -0.11180307764E+04  0.11180307764E+04  0.25500000920E-02 0. -1.
    10030    2    1    2    0    0  0.00000000000E+00  0.00000000000E+00 -0.89469408669E+03  0.13413674661E+04  0.99939440180E+03 0.  0.
        1    1    3    3  502    0 -0.12226487058E+03 -0.12416268115E+03 -0.10759292396E+04  0.10899489890E+04  0.50400001928E-02 0. -1.
       -1    1    3    3    0  502  0.12226487058E+03  0.12416268115E+03  0.18123515289E+03  0.25141847712E+03  0.50400001928E-02 0.  1.
</event>
<event>
 5   0  0.1000773E-02  0.9846237E+03  0.7818609E-02  0.9325572E-01
        1   -1    0    0  501    0  0.00000000000E+00  0.00000000000E+00  0.56244138458E+03  0.56244138460E+03  0.50400001928E-02 0. -1.
       -1   -1    0    0    0  501  0.00000000000E+00  0.00000000000E+00 -0.43092661292E+03  0.43092661295E+03  0.50400001928E-02 0.  1.
    10030    2    1    2    0    0  0.00000000000E+00  0.00000000000E+00  0.13151477166E+03  0.99336799755E+03  0.98462370650E+03 0.  0.
        3    1    3    3  502    0  0.34628133156E+03  0.24914480624E+03  0.31367752317E+03  0.52950684019E+03  0.10100000352E+00 0.  1.
       -3    1    3    3    0  502 -0.34628133156E+03 -0.24914480624E+03 -0.18216275151E+03  0.46386115736E+03  0.10100000352E+00 0. -1.
</event>
<event>
 5   0  0.9396660E-03  0.1002645E+04  0.7818609E-02  0.9305649E-01
        1   -1    0    0  501    0  0.00000000000E+00  0.00000000000E+00  0.88177434713E+03  0.88177434715E+03  0.50400001928E-02 0. -1.
       -1   -1    0    0    0  501  0.00000000000E+00  0.00000000000E+00 -0.28502089364E+03  0.28502089369E+03  0.50400001928E-02 0.  1.
    10030    2    1    2    0    0  0.00000000000E+00  0.00000000000E+00  0.59675345349E+03  0.11667952408E+04  0.10026447276E+04 0.  0.
        5    1    3    3  502    0 -0.15945615226E+03  0.46577742707E+03  0.40832892151E+03  0.63963229609E+03  0.46999998093E+01 0. -1.
       -5    1    3    3    0  502  0.15945615226E+03 -0.46577742707E+03  0.18842453198E+03  0.52716294474E+03  0.46999998093E+01 0.  1.
</event>
<event>
 5   0  0.1656859E-02  0.1019301E+04  0.7818609E-02  0.9287625E-01
       -2   -1    0    0    0  501  0.00000000000E+00  0.00000000000E+00  0.30995829660E+03  0.30995829661E+03  0.25500000920E-02 0.  1.
        2   -1    0    0  501    0  0.00000000000E+00  0.00000000000E+00 -0.83799602055E+03  0.83799602055E+03  0.25500000920E-02 0. -1.
    10030    2    1    2    0    0  0.00000000000E+00  0.00000000000E+00 -0.52803772395E+03  0.11479543172E+04  0.10193013668E+04 0.  0.
        4    1    3    3  502    0 -0.31208280878E+03 -0.35589720094E+03 -0.51275022082E+02  0.47611893258E+03  0.12699999809E+01 0. -1.
       -4    1    3    3    0  502  0.31208280878E+03  0.35589720094E+03 -0.47676270187E+03  0.67183538457E+03  0.12699999809E+01 0.  1.
</event>
<event>
 5   0  0.1571895E-02  0.9689380E+03  0.7818609E-02  0.9343285E-01
       -2   -1    0    0    0  501  0.00000000000E+00  0.00000000000E+00  0.22537808784E+03  0.22537808785E+03  0.25500000920E-02 0. -1.
        2   -1    0    0  501    0  0.00000000000E+00  0.00000000000E+00 -0.10414064795E+04  0.10414064795E+04  0.25500000920E-02 0.  1.
    10030    2    1    2    0    0  0.00000000000E+00  0.00000000000E+00 -0.81602839170E+03  0.12667845674E+04  0.96893797744E+03 0.  0.
        2    1    3    3  502    0 -0.16297811044E+03 -0.41283188654E+03 -0.15410285884E+03  0.46982946070E+03  0.25500000920E-02 0. -1.
       -2    1    3    3    0  502  0.16297811044E+03  0.41283188654E+03 -0.66192553286E+03  0.79695510669E+03  0.25500000920E-02 0.  1.
</event>
<event>
 5   0  0.9471140E-03  0.8429795E+03  0.7818609E-02  0.9499808E-01
       -1   -1    0    0    0  501  0.00000000000E+00  0.00000000000E+00  0.27255441179E+03  0.27255441183E+03  0.50400001928E-02 0.  1.
        1   -1    0    0  501    0  0.00000000000E+00  0.00000000000E+00 -0.65180974976E+03  0.65180974978E+03  0.50400001928E-02 0. -1.
    10030    2    1    2    0    0  0.00000000000E+00  0.00000000000E+00 -0.37925533797E+03  0.92436416162E+03  0.84297953231E+03 0.  0.
        4    1    3    3  502    0 -0.10697586011E+03  0.74378707759E+02  0.24991551750E+03  0.28184287396E+03  0.12699999809E+01 0.  1.
       -4    1    3    3    0  502  0.10697586011E+03 -0.74378707759E+02 -0.62917085547E+03  0.64252128766E+03  0.12699999809E+01 0. -1.
</event>
<event>
 5   0  0.6314750E-03  0.9870930E+03  0.7818609E-02  0.9322815E-01
        3   -1    0    0  501    0  0.00000000000E+00  0.00000000000E+00  0.22402781328E+03  0.22402783604E+03  0.10100000352E+00 0.  1.
       -3   -1    0    0    0  501  0.00000000000E+00  0.00000000000E+00 -0.10873120253E+04  0.10873120300E+04  0.10100000352E+00 0. -1.
    10030    2    1    2    0    0  0.00000000000E+00  0.00000000000E+00 -0.86328421202E+03  0.13113398660E+04  0.98709301159E+03 0.  0.
        3    1    3    3  502    0  0.41608587525E+03  0.25799659622E+03 -0.34869469526E+03  0.60106380688E+03  0.10100000352E+00 0. -1.
       -3    1    3    3    0  502 -0.41608587525E+03 -0.25799659622E+03 -0.51458951677E+03  0.71027605915E+03  0.10100000352E+00 0.  1.
</event>
<event>
 5   0  0.1617721E-02  0.9843523E+03  0.7818609E-02  0.9325875E-01
        2   -1    0    0  501    0  0.00000000000E+00  0.00000000000E+00  0.12549556051E+04  0.12549556051E+04  0.25500000920E-02 0.  1.
       -2   -1    0    0    0  501  0.00000000000E+00  0.00000000000E+00 -0.19302464667E+03  0.19302464669E+03  0.25500000920E-02 0. -1.
    10030    2    1    2    0    0  0.00000000000E+00  0.00000000000E+00  0.10619309585E+04  0.14479802518E+04  0.98435229929E+03 0.  0.
        5    1    3    3  502    0  0.32914328846E+03 -0.33078501606E+03  0.76103088647E+03  0.89271727403E+03  0.46999998093E+01 0.  1.
       -5    1    3    3    0  502 -0.32914328846E+03  0.33078501606E+03  0.30090007198E+03  0.55526297779E+03  0.46999998093E+01 0. -1.
</event>
<event>
 5   0  0.9507815E-03  0.9902125E+03  0.7818609E-02  0.9319345E-01
       -1   -1    0    0    0  501  0.00000000000E+00  0.00000000000E+00  0.79961879576E+03  0.79961879577E+03  0.50400001928E-02 0.  1.
        1   -1    0    0  501    0  0.00000000000E+00  0.00000000000E+00 -0.30655880865E+03  0.30655880869E+03  0.50400001928E-02 0. -1.
    10030    2    1    2    0    0  0.00000000000E+00  0.00000000000E+00  0.49305998711E+03  0.11061776045E+04  0.99021247303E+03 0.  0.
        1    1    3    3  502    0  0.38549723048E+03  0.26364775054E+03  0.43013068467E+03  0.63492570983E+03  0.50400001928E-02 0.  1.
       -1    1    3    3    0  502 -0.38549723048E+03 -0.26364775054E+03  0.62929302431E+02  0.47125189464E+03  0.50400001928E-02 0. -1.
</event>
<event>
 5   0  0.1656859E-02  0.1024863E+04  0.7818609E-02  0.9281688E-01
        2   -1    0    0  501    0  0.00000000000E+00  0.00000000000E+00  0.95906340866E+03  0.95906340867E+03  0.25500000920E-02 0.  1.
       -2   -1    0    0    0  501  0.00000000000E+00  0.00000000000E+00 -0.27379408102E+03  0.27379408103E+03  0.25500000920E-02 0. -1.
    10030    2    1    2    0    0  0.00000000000E+00  0.00000000000E+00  0.68526932764E+03  0.12328574897E+04  0.10248626925E+04 0.  0.
        4    1    3    3  502    0 -0.84742711248E+02  0.39056763525E+03 -0.43172398127E+02  0.40198242956E+03  0.12699999809E+01 0. -1.
       -4    1    3    3    0  502  0.84742711248E+02 -0.39056763525E+03  0.72844172577E+03  0.83087506014E+03  0.12699999809E+01 0.  1.
</event>
<event>
 5   0  0.9759443E-03  0.1019469E+04  0.7818609E-02  0.9287445E-01
       -1   -1    0    0    0  501  0.00000000000E+00  0.00000000000E+00  0.27479300328E+03  0.27479300333E+03  0.50400001928E-02 0.  1.
        1   -1    0    0  501    0  0.00000000000E+00  0.00000000000E+00 -0.94554567168E+03  0.94554567169E+03  0.50400001928E-02 0. -1.
    10030    2    1    2    0    0  0.00000000000E+00  0.00000000000E+00 -0.67075266839E+03  0.12203386750E+04  0.10194691460E+04 0.  0.
        2    1    3    3  502    0 -0.38276920534E+03  0.13429728688E+03 -0.70487267882E+03  0.81326104000E+03  0.25500000920E-02 0. -1.
       -2    1    3    3    0  502  0.38276920534E+03 -0.13429728688E+03  0.34120010432E+02  0.40707763502E+03  0.25500000920E-02 0.  1.
</event>
<event>
 5   0  0.9759443E-03  0.1023476E+04  0.7818609E-02  0.9283165E-01
       -1   -1    0    0    0  501  0.00000000000E+00  0.00000000000E+00  0.14375267972E+03  0.14375267981E+03  0.50400001928E-02 0.  1.
        1   -1    0    0  501    0  0.00000000000E+00  0.00000000000E+00 -0.18217101807E+04  0.18217101807E+04  0.50400001928E-02 0. -1.
    10030    2    1    2    0    0  0.00000000000E+00  0.00000000000E+00 -0.16779575010E+04  0.19654628605E+04  0.10234758820E+04 0.  0.
        2    1    3    3  502    0 -0.19812086910E+03 -0.43604268302E+03 -0.11851302590E+04  0.12782483448E+04  0.25500000920E-02 0. -1.
       -2    1    3    3    0  502  0.19812086910E+03  0.43604268302E+03 -0.49282724204E+03  0.68721451578E+03  0.25500000920E-02 0.  1.
</event>
<event>
 5   0  0.1571895E-02  0.9930229E+03  0.7818609E-02  0.9316230E-01
       -2   -1    0    0    0  501  0.00000000000E+00  0.00000000000E+00  0.35762954115E+03  0.35762954116E+03  0.25500000920E-02 0. -1.
        2   -1    0    0  501    0  0.00000000000E+00  0.00000000000E+00 -0.68932681474E+03  0.68932681475E+03  0.25500000920E-02 0.  1.
    10030    2    1    2    0    0  0.00000000000E+00  0.00000000000E+00 -0.33169727359E+03  0.10469563559E+04  0.99302292514E+03 0.  0.
        2    1    3    3  502    0 -0.36996013156E+03 -0.29629053634E+03 -0.32174807714E+03  0.57287032217E+03  0.25500000920E-02 0.  1.
       -2    1    3    3    0  502  0.36996013156E+03  0.29629053634E+03 -0.99491964493E+01  0.47408603374E+03  0.25500000920E-02 0. -1.
</event>
<event>
 5   0  0.9396660E-03  0.9981551E+03  0.7818609E-02  0.9310571E-01
       -1   -1    0    0    0  501  0.00000000000E+00  0.00000000000E+00  0.22866280918E+03  0.22866280923E+03  0.50400001928E-02 0. -1.
        1   -1    0    0  501    0  0.00000000000E+00  0.00000000000E+00 -0.10892826235E+04  0.10892826235E+04  0.50400001928E-02 0.  1.
    10030    2    1    2    0    0  0.00000000000E+00  0.00000000000E+00 -0.86061981432E+03  0.13179454327E+04  0.99815514770E+03 0.  0.
        5    1    3    3  502    0  0.22590923195E+03  0.55652424531E+02  0.15264131303E+03  0.27830492967E+03  0.46999998093E+01 0. -1.
       -5    1    3    3    0  502 -0.22590923195E+03 -0.55652424531E+02 -0.10132611274E+04  0.10396405031E+04  0.46999998093E+01 0.  1.
</event>
<event>
 5   0  0.9471140E-03  0.8578271E+03  0.7818609E-02  0.9479891E-01
       -1   -1    0    0    0  501  0.00000000000E+00  0.00000000000E+00  0.10028478124E+04  0.10028478124E+04  0.50400001928E-02 0. -1.
        1   -1    0    0  501    0  0.00000000000E+00  0.00000000000E+00 -0.18344443025E+03  0.18344443031E+03  0.50400001928E-02 0.  1.
    10030    2    1    2    0    0  0.00000000000E+00  0.00000000000E+00  0.81940338218E+03  0.11862922428E+04  0.85782712856E+03 0.  0.
        4    1    3    3  502    0  0.14916531551E+03  0.18825190334E+03 -0.81718052753E+02  0.25370952585E+03  0.12699999809E+01 0.  1.
       -4    1    3    3    0  502 -0.14916531551E+03 -0.18825190334E+03  0.90112143493E+03  0.93258271690E+03  0.12699999809E+01 0. -1.
</event>
<event>
 5   0  0.9396660E-03  0.5439447E+03  0.7818609E-02  0.1002905E+00
        1   -1    0    0  501    0  0.00000000000E+00  0.00000000000E+00  0.11788609234E+04  0.11788609234E+04  0.50400001928E-02 0.  1.
       -1   -1    0    0    0  501  0.00000000000E+00  0.00000000000E+00 -0.62746125448E+02  0.62746125651E+02  0.50400001928E-02 0. -1.
    10030    2    1    2    0    0  0.00000000000E+00  0.00000000000E+00  0.11161147979E+04  0.12416070490E+04  0.54394468658E+03 0.  0.
        5    1    3    3  502    0 -0.13133256576E+03 -0.23232561183E+03  0.43893655524E+03  0.51372251485E+03  0.46999998093E+01 0.  1.
       -5    1    3    3    0  502  0.13133256576E+03  0.23232561183E+03  0.67717824268E+03  0.72788453418E+03  0.46999998093E+01 0. -1.
</event>
<event>
 5   0  0.1571895E-02  0.5426620E+03  0.7818609E-02  0.1003207E+00
       -2   -1    0    0    0  501  0.00000000000E+00  0.00000000000E+00  0.72115787388E+02  0.72115787433E+02  0.25500000920E-02 0.  1.
        2   -1    0    0  501    0  0.00000000000E+00  0.00000000000E+00 -0.10208655532E+04  0.10208655532E+04  0.25500000920E-02 0. -1.
    10030    2    1    2    0    0  0.00000000000E+00  0.00000000000E+00 -0.94874976578E+03  0.10929813406E+04  0.54266204293E+03 0.  0.
        2    1    3    3  502    0 -0.30900866587E+02  0.20813491739E+03 -0.12934701370E+03  0.24699323341E+03  0.25500000920E-02 0. -1.
       -2    1    3    3    0  502  0.30900866587E+02 -0.20813491739E+03 -0.81940275208E+03  0.84598810719E+03  0.25500000920E-02 0.  1.
</event>
<event>
 5   0  0.1571895E-02  0.9732599E+03  0.7818609E-02  0.9338369E-01
       -2   -1    0    0    0  501  0.00000000000E+00  0.00000000000E+00  0.34294712812E+03  0.34294712813E+03  0.25500000920E-02 0. -1.
        2   -1    0    0  501    0  0.00000000000E+00  0.00000000000E+00 -0.69051081070E+03  0.69051081070E+03  0.25500000920E-02 0.  1.
    10030    2    1    2    0    0  0.00000000000E+00  0.00000000000E+00 -0.34756368258E+03  0.10334579388E+04  0.97325988199E+03 0.  0.
        2    1    3    3  502    0 -0.15929427220E+03 -0.70894173354E+02  0.30864037525E+03  0.35448488009E+03  0.25500000920E-02 0. -1.
       -2    1    3    3    0  502  0.15929427220E+03  0.70894173354E+02 -0.65620405783E+03  0.67897305874E+03  0.25500000920E-02 0.  1.
</event>
<event>
 5   0  0.9507815E-03  0.9421916E+03  0.7818609E-02  0.9374324E-01
        1   -1    0    0  501    0  0.00000000000E+00  0.00000000000E+00  0.10145372027E+04  0.10145372028E+04  0.50400001928E-02 0. -1.
       -1   -1    0    0    0  501  0.00000000000E+00  0.00000000000E+00 -0.21875123676E+03  0.21875123682E+03  0.50400001928E-02 0.  1.
    10030    2    1    2    0    0  0.00000000000E+00  0.00000000000E+00  0.79578596599E+03  0.12332884396E+04  0.94219163206E+03 0.  0.
        1    1    3    3  502    0  0.24845131550E+03 -0.39091535484E+03  0.28538054625E+03  0.54404496783E+03  0.50400001928E-02 0. -1.
       -1    1    3    3    0  502 -0.24845131550E+03  0.39091535484E+03  0.51040541974E+03  0.68924347175E+03  0.50400001928E-02 0.  1.
</event>
<event>
 5   0  0.1598986E-02  0.1003848E+04  0.7818609E-02  0.9304334E-01
       -2   -1    0    0    0  501  0.00000000000E+00  0.00000000000E+00  0.26156341693E+03  0.26156341694E+03  0.25500000920E-02 0. -1.
        2   -1    0    0  501    0  0.00000000000E+00  0.00000000000E+00 -0.96316178515E+03  0.96316178515E+03  0.25500000920E-02 0.  1.
    10030    2    1    2    0    0  0.00000000000E+00  0.00000000000E+00 -0.70159836822E+03  0.12247252021E+04  0.10038483702E+04 0.  0.
        3    1    3    3  502    0 -0.42947843097E+03 -0.17837268855E+03 -0.12041260353E+03  0.48038291391E+03  0.10100000352E+00 0.  1.
       -3    1    3    3    0  502  0.42947843097E+03  0.17837268855E+03 -0.58118576470E+03  0.74434228818E+03  0.10100000352E+00 0. -1.
</event>
<event>
 5   0  0.1598986E-02  0.1012144E+04  0.7818609E-02  0.9295324E-01
       -2   -1    0    0    0  501  0.00000000000E+00  0.00000000000E+00  0.36406805244E+03  0.36406805245E+03  0.25500000920E-02 0. -1.
        2   -1    0    0  501    0  0.00000000000E+00  0.00000000000E+00 -0.70346491126E+03  0.70346491126E+03  0.25500000920E-02 0.  1.
    10030    2    1    2    0    0  0.00000000000E+00  0.00000000000E+00 -0.33939685882E+03  0.10675329637E+04  0.10121444565E+04 0.  0.
        3    1    3    3  502    0  0.40008933753E+03 -0.29717382719E+03 -0.26240217243E+03  0.56323944452E+03  0.10100000352E+00 0.  1.
       -3    1    3    3    0  502 -0.40008933753E+03  0.29717382719E+03 -0.76994686382E+02  0.50429351919E+03  0.10100000352E+00 0. -1.
</event>
<event>
 5   0  0.1656859E-02  0.9965844E+03  0.7818609E-02  0.9312299E-01
       -2   -1    0    0    0  501  0.00000000000E+00  0.00000000000E+00  0.28984324575E+03  0.28984324576E+03  0.25500000920E-02 0. -1.
        2   -1    0    0  501    0  0.00000000000E+00  0.00000000000E+00 -0.85665308999E+03  0.85665308999E+03  0.25500000920E-02 0.  1.
    10030    2    1    2    0    0  0.00000000000E+00  0.00000000000E+00 -0.56680984424E+03  0.11464963357E+04  0.99658439098E+03 0.  0.
        4    1    3    3  502    0  0.54440730353E+02 -0.19161019749E+02 -0.85279310238E+03  0.85474477253E+03  0.12699999809E+01 0.  1.
       -4    1    3    3    0  502 -0.54440730353E+02  0.19161019749E+02  0.28598325814E+03  0.29175156321E+03  0.12699999809E+01 0. -1.
</event>
<event>
 5   0  0.9471140E-03  0.1004118E+04  0.7818609E-02  0.9304040E-01
       -1   -1    0    0    0  501  0.00000000000E+00  0.00000000000E+00  0.41289049008E+03  0.41289049011E+03  0.50400001928E-02 0.  1.
        1   -1    0    0  501    0  0.00000000000E+00  0.00000000000E+00 -0.61048416352E+03  0.61048416355E+03  0.50400001928E-02 0. -1.
    10030    2    1    2    0    0  0.00000000000E+00  0.00000000000E+00 -0.19759367345E+03  0.10233746537E+04  0.10041177331E+04 0.  0.
        4    1    3    3  502    0 -0.42000075511E+03 -0.11462573027E+03 -0.35363575725E+03  0.56089174895E+03  0.12699999809E+01 0. -1.
       -4    1    3    3    0  502  0.42000075511E+03  0.11462573027E+03  0.15604208380E+03  0.46248290471E+03  0.12699999809E+01 0.  1.
</event>
<event>
 5   0  0.9471140E-03  0.9495684E+03  0.7818609E-02  0.9365655E-01
        1   -1    0    0  501    0  0.00000000000E+00  0.00000000000E+00  0.11276168590E+04  0.11276168590E+04  0.50400001928E-02 0. -1.
       -1   -1    0    0    0  501  0.00000000000E+00  0.00000000000E+00 -0.19990837334E+03  0.19990837340E+03  0.50400001928E-02 0.  1.
    10030    2    1    2    0    0  0.00000000000E+00  0.00000000000E+00  0.92770848564E+03  0.13275252324E+04  0.94956843266E+03 0.  0.
        4    1    3    3  502    0 -0.23801024513E+03  0.92816353337E+02  0.10233365310E+04  0.10547431065E+04  0.12699999809E+01 0. -1.
       -4    1    3    3    0  502  0.23801024513E+03 -0.92816353337E+02 -0.95628045337E+02  0.27278212586E+03  0.12699999809E+01 0.  1.
</event>
<event>
 5   0  0.1617721E-02  0.9934586E+03  0.7818609E-02  0.9315749E-01
        2   -1    0    0  501    0  0.00000000000E+00  0.00000000000E+00  0.88298428296E+03  0.88298428297E+03  0.25500000920E-02 0.  1.
       -2   -1    0    0    0  501  0.00000000000E+00  0.00000000000E+00 -0.27943870136E+03  0.27943870138E+03  0.25500000920E-02 0. -1.
    10030    2    1    2    0    0  0.00000000000E+00  0.00000000000E+00  0.60354558160E+03  0.11624229843E+04  0.99345856756E+03 0.  0.
        5    1    3    3  502    0 -0.26610197812E+03  0.37705895438E+03  0.51667924882E+03  0.69279380338E+03  0.46999998093E+01 0.  1.
       -5    1    3    3    0  502  0.26610197812E+03 -0.37705895438E+03  0.86866332774E+02  0.46962918096E+03  0.46999998093E+01 0. -1.
</event>
<event>
 5   0  0.9471140E-03  0.1067730E+04  0.7818609E-02  0.9237228E-01
        1   -1    0    0  501    0  0.00000000000E+00  0.00000000000E+00  0.11627875141E+04  0.11627875142E+04  0.50400001928E-02 0. -1.
       -1   -1    0    0    0  501  0.00000000000E+00  0.00000000000E+00 -0.24511084145E+03  0.24511084150E+03  0.50400001928E-02 0.  1.
    10030    2    1    2    0    0  0.00000000000E+00  0.00000000000E+00  0.91767667270E+03  0.14078983557E+04  0.10677299772E+04 0.  0.
        4    1    3    3  502    0  0.44934921010E+02  0.15585192207E+03  0.11295087138E+04  0.11410961906E+04  0.12699999809E+01 0. -1.
       -4    1    3    3    0  502 -0.44934921010E+02 -0.15585192207E+03 -0.21183204111E+03  0.26680216506E+03  0.12699999809E+01 0.  1.
</event>
<event>
 5   0  0.1598986E-02  0.1004625E+04  0.7818609E-02  0.9303486E-01
        2   -1    0    0  501    0  0.00000000000E+00  0.00000000000E+00  0.13797995616E+04  0.13797995616E+04  0.25500000920E-02 0. -1.
       -2   -1    0    0    0  501  0.00000000000E+00  0.00000000000E+00 -0.18286564748E+03  0.18286564750E+03  0.25500000920E-02 0.  1.
    10030    2    1    2    0    0  0.00000000000E+00  0.00000000000E+00  0.11969339141E+04  0.15626652091E+04  0.10046251843E+04 0.  0.
        3    1    3    3  502    0  0.30007768017E+03 -0.23087912685E+03  0.11119282084E+04  0.11746216992E+04  0.10100000352E+00 0. -1.
       -3    1    3    3    0  502 -0.30007768017E+03  0.23087912685E+03  0.85005705664E+02  0.38804350986E+03  0.10100000352E+00 0.  1.
</event>
<event>
 5   0  0.1598986E-02  0.8568675E+03  0.7818609E-02  0.9481166E-01
        2   -1    0    0  501    0  0.00000000000E+00  0.00000000000E+00  0.99434682132E+03  0.99434682132E+03  0.25500000920E-02 0.  1.
       -2   -1    0    0    0  501  0.00000000000E+00  0.00000000000E+00 -0.18459905696E+03  0.18459905698E+03  0.25500000920E-02 0. -1.
    10030    2    1    2    0    0  0.00000000000E+00  0.00000000000E+00  0.80974776436E+03  0.11789458783E+04  0.85686751722E+03 0.  0.
        3    1    3    3  502    0 -0.16857154586E+02  0.42769647290E+03  0.43050509495E+03  0.60707749388E+03  0.10100000352E+00 0.  1.
       -3    1    3    3    0  502  0.16857154586E+02 -0.42769647290E+03  0.37924266941E+03  0.57186838442E+03  0.10100000352E+00 0. -1.
</event>
<event>
 5   0  0.9471140E-03  0.9703371E+03  0.7818609E-02  0.9341691E-01
       -1   -1    0    0    0  501  0.00000000000E+00  0.00000000000E+00  0.26639109645E+03  0.26639109650E+03  0.50400001928E-02 0. -1.
        1   -1    0    0  501    0  0.00000000000E+00  0.00000000000E+00 -0.88362005211E+03  0.88362005213E+03  0.50400001928E-02 0.  1.
    10030    2    1    2    0    0  0.00000000000E+00  0.00000000000E+00 -0.61722895566E+03  0.11500111486E+04  0.97033708486E+03 0.  0.
        4    1    3    3  502    0  0.14697544310E+03  0.32627481996E+03 -0.69688972745E+03  0.78339896869E+03  0.12699999809E+01 0.  1.
       -4    1    3    3    0  502 -0.14697544310E+03 -0.32627481996E+03  0.79660771785E+02  0.36661217994E+03  0.12699999809E+01 0. -1.
</event>
<event>
 5   0  0.1000773E-02  0.1003309E+04  0.7818609E-02  0.9304923E-01
        1   -1    0    0  501    0  0.00000000000E+00  0.00000000000E+00  0.13992940786E+04  0.13992940786E+04  0.50400001928E-02 0. -1.
       -1   -1    0    0    0  501  0.00000000000E+00  0.00000000000E+00 -0.17984582643E+03  0.17984582650E+03  0.50400001928E-02 0.  1.
    10030    2    1    2    0    0  0.00000000000E+00  0.00000000000E+00  0.12194482522E+04  0.15791399051E+04  0.10033089256E+04 0.  0.
        3    1    3    3  502    0  0.85921087205E+02  0.46911856504E+03  0.36486499546E+03  0.60048408506E+03  0.10100000352E+00 0.  1.
       -3    1    3    3    0  502 -0.85921087205E+02 -0.46911856504E+03  0.85458325670E+03  0.97865582005E+03  0.10100000352E+00 0. -1.
</event>
<event>
 5   0  0.9471140E-03  0.9972968E+03  0.7818609E-02  0.9311515E-01
        1   -1    0    0  501    0  0.00000000000E+00  0.00000000000E+00  0.31771795428E+03  0.31771795432E+03  0.50400001928E-02 0. -1.
       -1   -1    0    0    0  501  0.00000000000E+00  0.00000000000E+00 -0.78261315613E+03  0.78261315614E+03  0.50400001928E-02 0.  1.
    10030    2    1    2    0    0  0.00000000000E+00  0.00000000000E+00 -0.46489520185E+03  0.11003311105E+04  0.99729684846E+03 0.  0.
        4    1    3    3  502    0 -0.20709336837E+03  0.20442814878E+03 -0.67921480519E+03  0.73892685411E+03  0.12699999809E+01 0.  1.
       -4    1    3    3    0  502  0.20709336837E+03 -0.20442814878E+03  0.21431960334E+03  0.36140425635E+03  0.12699999809E+01 0. -1.
</event>
<event>
 5   0  0.1617721E-02  0.1007351E+04  0.7818609E-02  0.9300518E-01
        2   -1    0    0  501    0  0.00000000000E+00  0.00000000000E+00  0.14746748443E+04  0.14746748443E+04  0.25500000920E-02 0. -1.
       -2   -1    0    0    0  501  0.00000000000E+00  0.00000000000E+00 -0.17203063553E+03  0.17203063555E+03  0.25500000920E-02 0.  1.
    10030    2    1    2    0    0  0.00000000000E+00  0.00000000000E+00  0.13026442088E+04  0.16467054798E+04  0.10073514792E+04 0.  0.
        5    1    3    3  502    0  0.82791926816E+02 -0.22269956525E+03  0.13772737502E+04  0.13976246537E+04  0.46999998093E+01 0. -1.
       -5    1    3    3    0  502 -0.82791926816E+02  0.22269956525E+03 -0.74629541461E+02  0.24908082617E+03  0.46999998093E+01 0.  1.
</event>
<event>
 5   0  0.9471140E-03  0.1011889E+04  0.7818609E-02  0.9295600E-01
       -1   -1    0    0    0  501  0.00000000000E+00  0.00000000000E+00  0.41427567905E+03  0.41427567908E+03  0.50400001928E-02 0.  1.
        1   -1    0    0  501    0  0.00000000000E+00  0.00000000000E+00 -0.61789775785E+03  0.61789775787E+03  0.50400001928E-02 0. -1.
    10030    2    1    2    0    0  0.00000000000E+00  0.00000000000E+00 -0.20362207880E+03  0.10321734369E+04  0.10118893482E+04 0.  0.
        4    1    3    3  502    0 -0.29394937924E+02 -0.43515192093E+03 -0.36338296177E+03  0.56768833569E+03  0.12699999809E+01 0. -1.
       -4    1    3    3    0  502  0.29394937924E+02  0.43515192093E+03  0.15976088298E+03  0.46448510126E+03  0.12699999809E+01 0.  1.
</event>
<event>
 5   0  0.6314750E-03  0.9973432E+03  0.7818609E-02  0.9311464E-01
       -3   -1    0    0    0  501  0.00000000000E+00  0.00000000000E+00  0.59708219839E+03  0.59708220693E+03  0.10100000352E+00 0. -1.
        3   -1    0    0  501    0  0.00000000000E+00  0.00000000000E+00 -0.41648095694E+03  0.41648096918E+03  0.10100000352E+00 0.  1.
    10030    2    1    2    0    0  0.00000000000E+00  0.00000000000E+00  0.18060124145E+03  0.10135631761E+04  0.99734322255E+03 0.  0.
        1    1    3    3  502    0  0.20241285987E+03  0.34578395038E+03  0.39200563640E+03  0.56054074355E+03  0.50400001928E-02 0. -1.
       -1    1    3    3    0  502 -0.20241285987E+03 -0.34578395038E+03 -0.21140439495E+03  0.45302243257E+03  0.50400001928E-02 0.  1.
</event>
<event>
 5   0  0.9759443E-03  0.1014508E+04  0.7818609E-02  0.9292774E-01
       -1   -1    0    0    0  501  0.00000000000E+00  0.00000000000E+00  0.25883702847E+03  0.25883702852E+03  0.50400001928E-02 0.  1.
        1   -1    0    0  501    0  0.00000000000E+00  0.00000000000E+00 -0.99408833426E+03  0.99408833427E+03  0.50400001928E-02 0. -1.
    10030    2    1    2    0    0  0.00000000000E+00  0.00000000000E+00 -0.73525130579E+03  0.12529253628E+04  0.10145084928E+04 0.  0.
        2    1    3    3  502    0 -0.45490904956E+03  0.55407529066E+02 -0.63620674962E+03  0.78407350798E+03  0.25500000920E-02 0. -1.
       -2    1    3    3    0  502  0.45490904956E+03 -0.55407529066E+02 -0.99044556168E+02  0.46885185481E+03  0.25500000920E-02 0.  1.
</event>
<event>
 5   0  0.9396660E-03  0.9744198E+03  0.7818609E-02  0.9337054E-01
       -1   -1    0    0    0  501  0.00000000000E+00  0.00000000000E+00  0.17431669856E+03  0.17431669864E+03  0.50400001928E-02 0. -1.
        1   -1    0    0  501    0  0.00000000000E+00  0.00000000000E+00 -0.13617369118E+04  0.13617369118E+04  0.50400001928E-02 0.  1.
    10030    2    1    2    0    0  0.00000000000E+00  0.00000000000E+00 -0.11874202133E+04  0.15360536105E+04  0.97441979217E+03 0.  0.
        5    1    3    3  502    0  0.17592177206E+03  0.25951595205E+03 -0.11815413085E+04  0.12224397543E+04  0.46999998093E+01 0.  1.
       -5    1    3    3    0  502 -0.17592177206E+03 -0.25951595205E+03 -0.58789047701E+01  0.31361385616E+03  0.46999998093E+01 0. -1.
</event>
<event>
 5   0  0.1571895E-02  0.1439830E+04  0.7818609E-02  0.8925482E-01
        2   -1    0    0  501    0  0.00000000000E+00  0.00000000000E+00  0.13062379727E+04  0.13062379727E+04  0.25500000920E-02 0. -1.
       -2   -1    0    0    0  501  0.00000000000E+00  0.00000000000E+00 -0.39677109143E+03  0.39677109144E+03  0.25500000920E-02 0.  1.
    10030    2    1    2    0    0  0.00000000000E+00  0.00000000000E+00  0.90946688124E+03  0.17030090641E+04  0.14398298040E+04 0.  0.
        2    1    3    3  502    0 -0.65976937042E+02  0.66692952573E+03  0.14374978565E+03  0.68542829632E+03  0.25500000920E-02 0.  1.
       -2    1    3    3    0  502  0.65976937042E+02 -0.66692952573E+03  0.76571709559E+03  0.10175807678E+04  0.25500000920E-02 0. -1.
</event>
<event>
 5   0  0.1656859E-02  0.1005892E+04  0.7818609E-02  0.9302106E-01
       -2   -1    0    0    0  501  0.00000000000E+00  0.00000000000E+00  0.41755667597E+03  0.41755667598E+03  0.25500000920E-02 0.  1.
        2   -1    0    0  501    0  0.00000000000E+00  0.00000000000E+00 -0.60579715157E+03  0.60579715158E+03  0.25500000920E-02 0. -1.
    10030    2    1    2    0    0  0.00000000000E+00  0.00000000000E+00 -0.18824047560E+03  0.10233538276E+04  0.10058919324E+04 0.  0.
        4    1    3    3  502    0  0.41380893896E+02  0.37166080154E+03  0.24803475917E+03  0.44873932794E+03  0.12699999809E+01 0.  1.
       -4    1    3    3    0  502 -0.41380893896E+02 -0.37166080154E+03 -0.43627523478E+03  0.57461449961E+03  0.12699999809E+01 0. -1.
</event>
<event>
 5   0  0.1598986E-02  0.9992654E+03  0.7818609E-02  0.9309351E-01
       -2   -1    0    0    0  501  0.00000000000E+00  0.00000000000E+00  0.37799401243E+03  0.37799401243E+03  0.25500000920E-02 0.  1.
        2   -1    0    0  501    0  0.00000000000E+00  0.00000000000E+00 -0.66041473893E+03  0.66041473893E+03  0.25500000920E-02 0. -1.
    10030    2    1    2    0    0  0.00000000000E+00  0.00000000000E+00 -0.28242072650E+03  0.10384087514E+04  0.99926536424E+03 0.  0.
        3    1    3    3  502    0 -0.99203529656E+01 -0.41068019378E+03 -0.43673779414E+03  0.59958030821E+03  0.10100000352E+00 0. -1.
       -3    1    3    3    0  502  0.99203529656E+01  0.41068019378E+03  0.15431706763E+03  0.43882844316E+03  0.10100000352E+00 0.  1.
</event>
<event>
 5   0  0.9471140E-03  0.1046692E+04  0.7818609E-02  0.9258767E-01
       -1   -1    0    0    0  501  0.00000000000E+00  0.00000000000E+00  0.34693076346E+03  0.34693076350E+03  0.50400001928E-02 0.  1.
        1   -1    0    0  501    0  0.00000000000E+00  0.00000000000E+00 -0.78946811218E+03  0.78946811219E+03  0.50400001928E-02 0. -1.
    10030    2    1    2    0    0  0.00000000000E+00  0.00000000000E+00 -0.44253734871E+03  0.11363988757E+04  0.10466915017E+04 0.  0.
        4    1    3    3  502    0 -0.41961732692E+03 -0.28677964002E+03 -0.35673367411E+03  0.62095232516E+03  0.12699999809E+01 0. -1.
       -4    1    3    3    0  502  0.41961732692E+03  0.28677964002E+03 -0.85803674606E+02  0.51544655053E+03  0.12699999809E+01 0.  1.
</event>
<event>
 5   0  0.1000773E-02  0.9812495E+03  0.7818609E-02  0.9329353E-01
       -1   -1    0    0    0  501  0.00000000000E+00  0.00000000000E+00  0.29395283484E+03  0.29395283489E+03  0.50400001928E-02 0.  1.
        1   -1    0    0  501    0  0.00000000000E+00  0.00000000000E+00 -0.81888179275E+03  0.81888179276E+03  0.50400001928E-02 0. -1.
    10030    2    1    2    0    0  0.00000000000E+00  0.00000000000E+00 -0.52492895790E+03  0.11128346277E+04  0.98124945740E+03 0.  0.
        3    1    3    3  502    0  0.38108384070E+03 -0.18828163711E+03 -0.54034838179E+03  0.68749636539E+03  0.10100000352E+00 0. -1.
       -3    1    3    3    0  502 -0.38108384070E+03  0.18828163711E+03  0.15419423888E+02  0.42533826227E+03  0.10100000352E+00 0.  1.
</event>
<event>
 5   0  0.9396660E-03  0.1014575E+04  0.7818609E-02  0.9292702E-01
        1   -1    0    0  501    0  0.00000000000E+00  0.00000000000E+00  0.19736647337E+03  0.19736647344E+03  0.50400001928E-02 0.  1.
       -1   -1    0    0    0  501  0.00000000000E+00  0.00000000000E+00 -0.13038710516E+04  0.13038710516E+04  0.50400001928E-02 0. -1.
    10030    2    1    2    0    0  0.00000000000E+00  0.00000000000E+00 -0.11065045782E+04  0.15012375251E+04  0.10145746522E+04 0.  0.
        5    1    3    3  502    0  0.17301935543E+03  0.29219561646E+03  0.43393482457E+01  0.33963936105E+03  0.46999998093E+01 0.  1.
       -5    1    3    3    0  502 -0.17301935543E+03 -0.29219561646E+03 -0.11108439265E+04  0.11615981640E+04  0.46999998093E+01 0. -1.
</event>
<event>
 5   0  0.9396660E-03  0.1001643E+04  0.7818609E-02  0.9306744E-01
       -1   -1    0    0    0  501  0.00000000000E+00  0.00000000000E+00  0.51885082521E+03  0.51885082524E+03  0.50400001928E-02 0.  1.
        1   -1    0    0  501    0  0.00000000000E+00  0.00000000000E+00 -0.48341913301E+03  0.48341913304E+03  0.50400001928E-02 0. -1.
    10030    2    1    2    0    0  0.00000000000E+00  0.00000000000E+00  0.35431692202E+02  0.10022699583E+04  0.10016434817E+04 0.  0.
        5    1    3    3  502    0  0.10637994583E+03 -0.46707102938E+03 -0.12841756759E+03  0.49596895167E+03  0.46999998093E+01 0. -1.
       -5    1    3    3    0  502 -0.10637994583E+03  0.46707102938E+03  0.16384925979E+03  0.50630100661E+03  0.46999998093E+01 0.  1.
</event>
<event>
 5   0  0.1571895E-02  0.5303509E+03  0.7818609E-02  0.1006147E+00
       -2   -1    0    0    0  501  0.00000000000E+00  0.00000000000E+00  0.16049108040E+03  0.16049108043E+03  0.25500000920E-02 0.  1.
        2   -1    0    0  501    0  0.00000000000E+00  0.00000000000E+00 -0.43814277419E+03  0.43814277420E+03  0.25500000920E-02 0. -1.
    10030    2    1    2    0    0  0.00000000000E+00  0.00000000000E+00 -0.27765169378E+03  0.59863385462E+03  0.53035085447E+03 0.  0.
        2    1    3    3  502    0 -0.46906764102E+02 -0.81226927618E+02 -0.41879229280E+03  0.42916784922E+03  0.25500000920E-02 0. -1.
       -2    1    3    3    0  502  0.46906764102E+02  0.81226927618E+02  0.14114059902E+03  0.16946600540E+03  0.25500000920E-02 0.  1.
</event>
<event>
 5   0  0.1571895E-02  0.1009106E+04  0.7818609E-02  0.9298613E-01
        2   -1    0    0  501    0  0.00000000000E+00  0.00000000000E+00  0.13251010389E+04  0.13251010389E+04  0.25500000920E-02 0.  1.
       -2   -1    0    0    0  501  0.00000000000E+00  0.00000000000E+00 -0.19211649902E+03  0.19211649903E+03  0.25500000920E-02 0. -1.
    10030    2    1    2    0    0  0.00000000000E+00  0.00000000000E+00  0.11329845399E+04  0.15172175380E+04  0.10091060845E+04 0.  0.
        2    1    3    3  502    0  0.71696872816E+02 -0.17506488047E+03  0.12697595546E+04  0.12837747000E+04  0.25500000920E-02 0.  1.
       -2    1    3    3    0  502 -0.71696872816E+02  0.17506488047E+03 -0.13677501467E+03  0.23344283795E+03  0.25500000920E-02 0. -1.
</event>
<event>
 5   0  0.1000773E-02  0.9872223E+03  0.7818609E-02  0.9322671E-01
       -1   -1    0    0    0  501  0.00000000000E+00  0.00000000000E+00  0.23274606830E+03  0.23274606836E+03  0.50400001928E-02 0. -1.
        1   -1    0    0  501    0  0.00000000000E+00  0.00000000000E+00 -0.10468575336E+04  0.10468575336E+04  0.50400001928E-02 0.  1.
    10030    2    1    2    0    0  0.00000000000E+00  0.00000000000E+00 -0.81411146526E+03  0.12796036019E+04  0.98722231549E+03 0.  0.
        3    1    3    3  502    0  0.31882117371E+03  0.34536827092E+03 -0.60245363782E+03  0.76411817102E+03  0.10100000352E+00 0.  1.
       -3    1    3    3    0  502 -0.31882117371E+03 -0.34536827092E+03 -0.21165782744E+03  0.51548543091E+03  0.10100000352E+00 0. -1.
</event>
<event>
 5   0  0.9507815E-03  0.9976690E+03  0.7818609E-02  0.9311105E-01
       -1   -1    0    0    0  501  0.00000000000E+00  0.00000000000E+00  0.40225379796E+03  0.40225379800E+03  0.50400001928E-02 0.  1.
        1   -1    0    0  501    0  0.00000000000E+00  0.00000000000E+00 -0.61860407643E+03  0.61860407645E+03  0.50400001928E-02 0. -1.
    10030    2    1    2    0    0  0.00000000000E+00  0.00000000000E+00 -0.21635027847E+03  0.10208578744E+04  0.99766896154E+03 0.  0.
        1    1    3    3  502    0  0.45492590884E+03 -0.12547885552E+03 -0.27359058547E+03  0.54548541154E+03  0.50400001928E-02 0.  1.
       -1    1    3    3    0  502 -0.45492590884E+03  0.12547885552E+03  0.57240307004E+02  0.47537246291E+03  0.50400001928E-02 0. -1.
</event>
<event>
 5   0  0.1663497E-02  0.1034248E+04  0.7818609E-02  0.9271760E-01
       -2   -1    0    0    0  501  0.00000000000E+00  0.00000000000E+00  0.44356739606E+03  0.44356739607E+03  0.25500000920E-02 0. -1.
        2   -1    0    0  501    0  0.00000000000E+00  0.00000000000E+00 -0.60287833610E+03  0.60287833610E+03  0.25500000920E-02 0.  1.
    10030    2    1    2    0    0  0.00000000000E+00  0.00000000000E+00 -0.15931094003E+03  0.10464457322E+04  0.10342478885E+04 0.  0.
        1    1    3    3  502    0 -0.39023552272E+03 -0.82704014657E+02  0.25330538333E+03  0.47253289249E+03  0.50400001928E-02 0. -1.
       -1    1    3    3    0  502  0.39023552272E+03  0.82704014657E+02 -0.41261632336E+03  0.57391283969E+03  0.50400001928E-02 0.  1.
</event>
<event>
 5   0  0.1617721E-02  0.9991286E+03  0.7818609E-02  0.9309501E-01
       -2   -1    0    0    0  501  0.00000000000E+00  0.00000000000E+00  0.18492349081E+03  0.18492349083E+03  0.25500000920E-02 0.  1.
        2   -1    0    0  501    0  0.00000000000E+00  0.00000000000E+00 -0.13495554424E+04  0.13495554424E+04  0.25500000920E-02 0. -1.
    10030    2    1    2    0    0  0.00000000000E+00  0.00000000000E+00 -0.11646319516E+04  0.15344789332E+04  0.99912862728E+03 0.  0.
        5    1    3    3  502    0 -0.37485955601E+03  0.10663143760E+03 -0.10622495462E+04  0.11314972994E+04  0.46999998093E+01 0. -1.
       -5    1    3    3    0  502  0.37485955601E+03 -0.10663143760E+03 -0.10238240533E+03  0.40298163375E+03  0.46999998093E+01 0.  1.
</event>
<event>
 5   0  0.9759443E-03  0.5603141E+03  0.7818609E-02  0.9991344E-01
       -1   -1    0    0    0  501  0.00000000000E+00  0.00000000000E+00  0.63785810532E+02  0.63785810731E+02  0.50400001928E-02 0.  1.
        1   -1    0    0  501    0  0.00000000000E+00  0.00000000000E+00 -0.12304924807E+04  0.12304924807E+04  0.50400001928E-02 0. -1.
    10030    2    1    2    0    0  0.00000000000E+00  0.00000000000E+00 -0.11667066701E+04  0.12942782914E+04  0.56031405611E+03 0.  0.
        2    1    3    3  502    0 -0.59330812068E+02 -0.57767636463E+02 -0.12015772393E+04  0.12044272943E+04  0.25500000920E-02 0. -1.
       -2    1    3    3    0  502  0.59330812068E+02  0.57767636463E+02  0.34870569204E+02  0.89850997136E+02  0.25500000920E-02 0.  1.
</event>
<event>
 5   0  0.9759443E-03  0.9928807E+03  0.7818609E-02  0.9316388E-01
       -1   -1    0    0    0  501  0.00000000000E+00  0.00000000000E+00  0.32483255346E+03  0.32483255350E+03  0.50400001928E-02 0. -1.
        1   -1    0    0  501    0  0.00000000000E+00  0.00000000000E+00 -0.75870788863E+03  0.75870788864E+03  0.50400001928E-02 0.  1.
    10030    2    1    2    0    0  0.00000000000E+00  0.00000000000E+00 -0.43387533517E+03  0.10835404421E+04  0.99288069942E+03 0.  0.
        2    1    3    3  502    0 -0.12103795281E+03 -0.46851170765E+03 -0.33796788364E+03  0.59023359494E+03  0.25500000920E-02 0. -1.
       -2    1    3    3    0  502  0.12103795281E+03  0.46851170765E+03 -0.95907451533E+02  0.49330684720E+03  0.25500000920E-02 0.  1.
</event>
<event>
 5   0  0.1000773E-02  0.1024082E+04  0.7818609E-02  0.9282519E-01
        1   -1    0    0  501    0  0.00000000000E+00  0.00000000000E+00  0.62447745427E+03  0.62447745429E+03  0.50400001928E-02 0. -1.
       -1   -1    0    0    0  501  0.00000000000E+00  0.00000000000E+00 -0.41984860119E+03  0.41984860123E+03  0.50400001928E-02 0.  1.
    10030    2    1    2    0    0  0.00000000000E+00  0.00000000000E+00  0.20462885308E+03  0.10443260555E+04  0.10240820000E+04 0.  0.
        3    1    3    3  502    0 -0.25843811446E+03 -0.24416425244E+03  0.47808134066E+03  0.59579209433E+03  0.10100000352E+00 0. -1.
       -3    1    3    3    0  502  0.25843811446E+03  0.24416425244E+03 -0.27345248758E+03  0.44853396119E+03  0.10100000352E+00 0.  1.
</event>
<event>
 5   0  0.1598986E-02  0.9984107E+03  0.7818609E-02  0.9310290E-01
       -2   -1    0    0    0  501  0.00000000000E+00  0.00000000000E+00  0.60140295946E+03  0.60140295947E+03  0.25500000920E-02 0. -1.
        2   -1    0    0  501    0  0.00000000000E+00  0.00000000000E+00 -0.41437440498E+03  0.41437440499E+03  0.25500000920E-02 0.  1.
    10030    2    1    2    0    0  0.00000000000E+00  0.00000000000E+00  0.18702855448E+03  0.10157773645E+04  0.99841072407E+03 0.  0.
        3    1    3    3  502    0 -0.28848433570E+03 -0.35251335596E+03  0.30131467568E+03  0.54614963340E+03  0.10100000352E+00 0. -1.
       -3    1    3    3    0  502  0.28848433570E+03  0.35251335596E+03 -0.11428612120E+03  0.46962773106E+03  0.10100000352E+00 0.  1.
</event>
<event>
 5   0  0.9396660E-03  0.1009069E+04  0.7818609E-02  0.9298654E-01
        1   -1    0    0  501    0  0.00000000000E+00  0.00000000000E+00  0.18280907000E+04  0.18280907000E+04  0.50400001928E-02 0.  1.
       -1   -1    0    0    0  501  0.00000000000E+00  0.00000000000E+00 -0.13924627864E+03  0.13924627873E+03  0.50400001928E-02 0. -1.
    10030    2    1    2    0    0  0.00000000000E+00  0.00000000000E+00  0.16888444213E+04  0.19673369787E+04  0.10090685350E+04 0.  0.
        5    1    3    3  502    0 -0.10485443948E+03  0.21110706577E+03 -0.25247155335E+02  0.23710789854E+03  0.46999998093E+01 0. -1.
       -5    1    3    3    0  502  0.10485443948E+03 -0.21110706577E+03  0.17140915767E+04  0.17302290802E+04  0.46999998093E+01 0.  1.
</event>
<event>
 5   0  0.9759443E-03  0.8435160E+03  0.7818609E-02  0.9499081E-01
       -1   -1    0    0    0  501  0.00000000000E+00  0.00000000000E+00  0.89775555778E+02  0.89775555919E+02  0.50400001928E-02 0. -1.
        1   -1    0    0  501    0  0.00000000000E+00  0.00000000000E+00 -0.19813836971E+04  0.19813836971E+04  0.50400001928E-02 0.  1.
    10030    2    1    2    0    0  0.00000000000E+00  0.00000000000E+00 -0.18916081413E+04  0.20711592530E+04  0.84351602893E+03 0.  0.
        2    1    3    3  502    0  0.20719607456E+03 -0.31310065280E+03 -0.47402700073E+03  0.60470143834E+03  0.25500000920E-02 0. -1.
       -2    1    3    3    0  502 -0.20719607456E+03  0.31310065280E+03 -0.14175811405E+04  0.14664578146E+04  0.25500000920E-02 0.  1.
</event>
<event>
 5   0  0.1598986E-02  0.1170436E+04  0.7818609E-02  0.9139135E-01
        2   -1    0    0  501    0  0.00000000000E+00  0.00000000000E+00  0.84622857083E+03  0.84622857084E+03  0.25500000920E-02 0. -1.
       -2   -1    0    0    0  501  0.00000000000E+00  0.00000000000E+00 -0.40471319724E+03  0.40471319724E+03  0.25500000920E-02 0.  1.
    10030    2    1    2    0    0  0.00000000000E+00  0.00000000000E+00  0.44151537360E+03  0.12509417681E+04  0.11704355950E+04 0.  0.
        3    1    3    3  502    0  0.56354947071E+03 -0.15719451686E+03  0.23516598595E+03  0.63055624113E+03  0.10100000352E+00 0. -1.
       -3    1    3    3    0  502 -0.56354947071E+03  0.15719451686E+03  0.20634938765E+03  0.62038552696E+03  0.10100000352E+00 0.  1.
</event>
<event>
 5   0  0.1617721E-02  0.1000100E+04  0.7818609E-02  0.9308435E-01
        2   -1    0    0  501    0  0.00000000000E+00  0.00000000000E+00  0.59181445269E+03  0.59181445270E+03  0.25500000920E-02 0. -1.
       -2   -1    0    0    0  501  0.00000000000E+00  0.00000000000E+00 -0.42251406447E+03  0.42251406448E+03  0.25500000920E-02 0.  1.
    10030    2    1    2    0    0  0.00000000000E+00  0.00000000000E+00  0.16930038822E+03  0.10143285172E+04  0.10000998547E+04 0.  0.
        5    1    3    3  502    0 -0.68695343559E+02 -0.33543602640E+03  0.45424030922E+03  0.56885211308E+03  0.46999998093E+01 0. -1.
       -5    1    3    3    0  502  0.68695343559E+02  0.33543602640E+03 -0.28493992099E+03  0.44547640410E+03  0.46999998093E+01 0.  1.
</event>
<event>
 5   0  0.1617721E-02  0.1015656E+04  0.7818609E-02  0.9291538E-01
        2   -1    0    0  501    0  0.00000000000E+00  0.00000000000E+00  0.13926983395E+04  0.13926983395E+04  0.25500000920E-02 0.  1.
       -2   -1    0    0    0  501  0.00000000000E+00  0.00000000000E+00 -0.18517250490E+03  0.18517250492E+03  0.25500000920E-02 0. -1.
    10030    2    1    2    0    0  0.00000000000E+00  0.00000000000E+00  0.12075258346E+04  0.15778708444E+04  0.10156563201E+04 0.  0.
        5    1    3    3  502    0  0.30887087199E+03 -0.59979055315E+02 -0.15455371998E+02  0.31505501291E+03  0.46999998093E+01 0. -1.
       -5    1    3    3    0  502 -0.30887087199E+03  0.59979055315E+02  0.12229812066E+04  0.12628158315E+04  0.46999998093E+01 0.  1.
</event>
<event>
 5   0  0.1617721E-02  0.1003938E+04  0.7818609E-02  0.9304236E-01
       -2   -1    0    0    0  501  0.00000000000E+00  0.00000000000E+00  0.72844761293E+03  0.72844761294E+03  0.25500000920E-02 0. -1.
        2   -1    0    0  501    0  0.00000000000E+00  0.00000000000E+00 -0.34590418395E+03  0.34590418396E+03  0.25500000920E-02 0.  1.
    10030    2    1    2    0    0  0.00000000000E+00  0.00000000000E+00  0.38254342898E+03  0.10743517969E+04  0.10039383987E+04 0.  0.
        5    1    3    3  502    0  0.43331578034E+03  0.93445225542E+02  0.44328029647E+03  0.62690835607E+03  0.46999998093E+01 0. -1.
       -5    1    3    3    0  502 -0.43331578034E+03 -0.93445225542E+02 -0.60736867490E+02  0.44744344083E+03  0.46999998093E+01 0.  1.
</event>
<event>
 5   0  0.1571895E-02  0.9775483E+03  0.7818609E-02  0.9333518E-01
       -2   -1    0    0    0  501  0.00000000000E+00  0.00000000000E+00  0.56335990251E+03  0.56335990251E+03  0.25500000920E-02 0. -1.
        2   -1    0    0  501    0  0.00000000000E+00  0.00000000000E+00 -0.42406317407E+03  0.42406317407E+03  0.25500000920E-02 0.  1.
    10030    2    1    2    0    0  0.00000000000E+00  0.00000000000E+00  0.13929672844E+03  0.98742307659E+03  0.97754833825E+03 0.  0.
        2    1    3    3  502    0 -0.38582093424E+03 -0.49260686133E+02  0.36863804291E+03  0.53589030145E+03  0.25500000920E-02 0. -1.
       -2    1    3    3    0  502  0.38582093424E+03  0.49260686133E+02 -0.22934131447E+03  0.45153277514E+03  0.25500000920E-02 0.  1.
</event>
<event>
 5   0  0.1656859E-02  0.1014612E+04  0.7818609E-02  0.9292662E-01
       -2   -1    0    0    0  501  0.00000000000E+00  0.00000000000E+00  0.19637104403E+03  0.19637104405E+03  0.25500000920E-02 0.  1.
        2   -1    0    0  501    0  0.00000000000E+00  0.00000000000E+00 -0.13105769147E+04  0.13105769147E+04  0.25500000920E-02 0. -1.
    10030    2    1    2    0    0  0.00000000000E+00  0.00000000000E+00 -0.11142058706E+04  0.15069479587E+04  0.10146119594E+04 0.  0.
        4    1    3    3  502    0  0.23407403805E+03  0.44585306141E+03 -0.64844416951E+03  0.82100978162E+03  0.12699999809E+01 0.  1.
       -4    1    3    3    0  502 -0.23407403805E+03 -0.44585306141E+03 -0.46576170112E+03  0.68593817709E+03  0.12699999809E+01 0. -1.
</event>
<event>
 5   0  0.1598986E-02  0.9156214E+03  0.7818609E-02  0.9406262E-01
       -2   -1    0    0    0  501  0.00000000000E+00  0.00000000000E+00  0.25521201495E+03  0.25521201497E+03  0.25500000920E-02 0.  1.
        2   -1    0    0  501    0  0.00000000000E+00  0.00000000000E+00 -0.82124125345E+03  0.82124125345E+03  0.25500000920E-02 0. -1.
    10030    2    1    2    0    0  0.00000000000E+00  0.00000000000E+00 -0.56602923849E+03  0.10764532684E+04  0.91562139570E+03 0.  0.
        3    1    3    3  502    0  0.34280179879E+03  0.12816755961E+03  0.40344801256E+02  0.36819520608E+03  0.10100000352E+00 0.  1.
       -3    1    3    3    0  502 -0.34280179879E+03 -0.12816755961E+03 -0.60637403975E+03  0.70825806234E+03  0.10100000352E+00 0. -1.
</event>
<event>
 5   0  0.1617721E-02  0.1018926E+04  0.7818609E-02  0.9288028E-01
       -2   -1    0    0    0  501  0.00000000000E+00  0.00000000000E+00  0.22542303836E+03  0.22542303837E+03  0.25500000920E-02 0. -1.
        2   -1    0    0  501    0  0.00000000000E+00  0.00000000000E+00 -0.11514014519E+04  0.11514014519E+04  0.25500000920E-02 0.  1.
    10030    2    1    2    0    0  0.00000000000E+00  0.00000000000E+00 -0.92597841359E+03  0.13768244903E+04  0.10189257356E+04 0.  0.
        5    1    3    3  502    0  0.37055926059E+03  0.26526480574E+03 -0.15529909893E+03  0.48147635757E+03  0.46999998093E+01 0. -1.
       -5    1    3    3    0  502 -0.37055926059E+03 -0.26526480574E+03 -0.77067931466E+03  0.89534813275E+03  0.46999998093E+01 0.  1.
</event>
<event>
 5   0  0.1656859E-02  0.9841156E+03  0.7818609E-02  0.9326140E-01
       -2   -1    0    0    0  501  0.00000000000E+00  0.00000000000E+00  0.32196565519E+03  0.32196565520E+03  0.25500000920E-02 0.  1.
        2   -1    0    0  501    0  0.00000000000E+00  0.00000000000E+00 -0.75200845699E+03  0.75200845699E+03  0.25500000920E-02 0. -1.
    10030    2    1    2    0    0  0.00000000000E+00  0.00000000000E+00 -0.43004280181E+03  0.10739741122E+04  0.98411563460E+03 0.  0.
        4    1    3    3  502    0 -0.28527514028E+03 -0.26880383691E+01 -0.65253983746E+03  0.71217903899E+03  0.12699999809E+01 0. -1.
       -4    1    3    3    0  502  0.28527514028E+03  0.26880383691E+01  0.22249703565E+03  0.36179507320E+03  0.12699999809E+01 0.  1.
</event>
<event>
 5   0  0.6314750E-03  0.1004247E+04  0.7818609E-02  0.9303899E-01
        3   -1    0    0  501    0  0.00000000000E+00  0.00000000000E+00  0.64742747550E+03  0.64742748338E+03  0.10100000352E+00 0. -1.
       -3   -1    0    0    0  501  0.00000000000E+00  0.00000000000E+00 -0.38943082538E+03  0.38943083848E+03  0.10100000352E+00 0.  1.
    10030    2    1    2    0    0  0.00000000000E+00  0.00000000000E+00  0.25799665012E+03  0.10368583219E+04  0.10042474337E+04 0.  0.
        4    1    3    3  502    0 -0.95588965266E+02 -0.11199867429E+03 -0.36663780184E+03  0.39510232088E+03  0.12699999809E+01 0.  1.
       -4    1    3    3    0  502  0.95588965266E+02  0.11199867429E+03  0.62463445196E+03  0.64175600098E+03  0.12699999809E+01 0. -1.
</event>
<event>
 5   0  0.1663497E-02  0.1011737E+04  0.7818609E-02  0.9295765E-01
       -2   -1    0    0    0  501  0.00000000000E+00  0.00000000000E+00  0.19431771712E+03  0.19431771714E+03  0.25500000920E-02 0. -1.
        2   -1    0    0  501    0  0.00000000000E+00  0.00000000000E+00 -0.13169305202E+04  0.13169305202E+04  0.25500000920E-02 0.  1.
    10030    2    1    2    0    0  0.00000000000E+00  0.00000000000E+00 -0.11226128031E+04  0.15112482374E+04  0.10117369862E+04 0.  0.
        1    1    3    3  502    0 -0.45736639114E+02 -0.30064896232E+03 -0.11651472691E+04  0.12041801349E+04  0.50400001928E-02 0.  1.
       -1    1    3    3    0  502  0.45736639114E+02  0.30064896232E+03  0.42534465996E+02  0.30706810242E+03  0.50400001928E-02 0. -1.
</event>
<event>
 5   0  0.9759443E-03  0.1021147E+04  0.7818609E-02  0.9285651E-01
        1   -1    0    0  501    0  0.00000000000E+00  0.00000000000E+00  0.44817366088E+03  0.44817366090E+03  0.50400001928E-02 0. -1.
       -1   -1    0    0    0  501  0.00000000000E+00  0.00000000000E+00 -0.58166091232E+03  0.58166091234E+03  0.50400001928E-02 0.  1.
    10030    2    1    2    0    0  0.00000000000E+00  0.00000000000E+00 -0.13348725144E+03  0.10298345732E+04  0.10211466114E+04 0.  0.
        2    1    3    3  502    0 -0.42098987995E+03  0.12236364800E+02  0.22433439214E+03  0.47718772736E+03  0.25500000920E-02 0. -1.
       -2    1    3    3    0  502  0.42098987995E+03 -0.12236364800E+02 -0.35782164358E+03  0.55264684588E+03  0.25500000920E-02 0.  1.
</event>
<event>
 5   0  0.1598986E-02  0.5616444E+03  0.7818609E-02  0.9988341E-01
       -2   -1    0    0    0  501  0.00000000000E+00  0.00000000000E+00  0.72190698835E+02  0.72190698880E+02  0.25500000920E-02 0. -1.
        2   -1    0    0  501    0  0.00000000000E+00  0.00000000000E+00 -0.10923998417E+04  0.10923998417E+04  0.25500000920E-02 0.  1.
    10030    2    1    2    0    0  0.00000000000E+00  0.00000000000E+00 -0.10202091429E+04  0.11645905406E+04  0.56164439999E+03 0.  0.
        3    1    3    3  502    0  0.20432405667E+03  0.14312860723E+03 -0.24273098262E+03  0.34806961727E+03  0.10100000352E+00 0. -1.
       -3    1    3    3    0  502 -0.20432405667E+03 -0.14312860723E+03 -0.77747816028E+03  0.81652092334E+03  0.10100000352E+00 0.  1.
</event>
<event>
 5   0  0.9471140E-03  0.9991119E+03  0.7818609E-02  0.9309519E-01
        1   -1    0    0  501    0  0.00000000000E+00  0.00000000000E+00  0.10741426581E+04  0.10741426581E+04  0.50400001928E-02 0.  1.
       -1   -1    0    0    0  501  0.00000000000E+00  0.00000000000E+00 -0.23233055846E+03  0.23233055851E+03  0.50400001928E-02 0. -1.
    10030    2    1    2    0    0  0.00000000000E+00  0.00000000000E+00  0.84181209965E+03  0.13064732166E+04  0.99911193300E+03 0.  0.
        4    1    3    3  502    0  0.29672859511E+03 -0.28466753966E+02  0.94509679804E+03  0.99099333287E+03  0.12699999809E+01 0.  1.
       -4    1    3    3    0  502 -0.29672859511E+03  0.28466753966E+02 -0.10328469839E+03  0.31547988376E+03  0.12699999809E+01 0. -1.
</event>
<event>
 5   0  0.9507815E-03  0.9957089E+03  0.7818609E-02  0.9313264E-01
        1   -1    0    0  501    0  0.00000000000E+00  0.00000000000E+00  0.32068703360E+03  0.32068703364E+03  0.50400001928E-02 0.  1.
       -1   -1    0    0    0  501  0.00000000000E+00  0.00000000000E+00 -0.77290019266E+03  0.77290019268E+03  0.50400001928E-02 0. -1.
    10030    2    1    2    0    0  0.00000000000E+00  0.00000000000E+00 -0.45221315906E+03  0.10935872263E+04  0.99570893355E+03 0.  0.
        1    1    3    3  502    0  0.41455500452E+03  0.13636427994E+03  0.37045762236E+02  0.43797654862E+03  0.50400001928E-02 0.  1.
       -1    1    3    3    0  502 -0.41455500452E+03 -0.13636427994E+03 -0.48925892129E+03  0.65561067769E+03  0.50400001928E-02 0. -1.
</event>
<event>
 5   0  0.9396660E-03  0.1133441E+04  0.7818609E-02  0.9173197E-01
       -1   -1    0    0    0  501  0.00000000000E+00  0.00000000000E+00  0.40311475489E+03  0.40311475492E+03  0.50400001928E-02 0.  1.
        1   -1    0    0  501    0  0.00000000000E+00  0.00000000000E+00 -0.79672601227E+03  0.79672601229E+03  0.50400001928E-02 0. -1.
    10030    2    1    2    0    0  0.00000000000E+00  0.00000000000E+00 -0.39361125738E+03  0.11998407672E+04  0.11334407990E+04 0.  0.
        5    1    3    3  502    0  0.45390921384E+03  0.30364303106E+03 -0.35705859796E+03  0.65249183680E+03  0.46999998093E+01 0. -1.
       -5    1    3    3    0  502 -0.45390921384E+03 -0.30364303106E+03 -0.36552659420E+02  0.54734893041E+03  0.46999998093E+01 0.  1.
</event>
<event>
 5   0  0.1656859E-02  0.1031261E+04  0.7818609E-02  0.9274907E-01
        2   -1    0    0  501    0  0.00000000000E+00  0.00000000000E+00  0.10226976863E+04  0.10226976863E+04  0.25500000920E-02 0.  1.
       -2   -1    0    0    0  501  0.00000000000E+00  0.00000000000E+00 -0.25997407140E+03  0.25997407141E+03  0.25500000920E-02 0. -1.
    10030    2    1    2    0    0  0.00000000000E+00  0.00000000000E+00  0.76272361494E+03  0.12826717578E+04  0.10312611335E+04 0.  0.
        4    1    3    3  502    0 -0.16313896410E+03 -0.11212746184E+03  0.97354979699E+03  0.99347255091E+03  0.12699999809E+01 0.  1.
       -4    1    3    3    0  502  0.16313896410E+03  0.11212746184E+03 -0.21082618205E+03  0.28919920685E+03  0.12699999809E+01 0. -1.
</event>
<event>
 5   0  0.9759443E-03  0.9973275E+03  0.7818609E-02  0.9311481E-01
       -1   -1    0    0    0  501  0.00000000000E+00  0.00000000000E+00  0.20513651847E+03  0.20513651853E+03  0.50400001928E-02 0.  1.
        1   -1    0    0  501    0  0.00000000000E+00  0.00000000000E+00 -0.12121953746E+04  0.12121953746E+04  0.50400001928E-02 0. -1.
    10030    2    1    2    0    0  0.00000000000E+00  0.00000000000E+00 -0.10070588562E+04  0.14173318932E+04  0.99732750670E+03 0.  0.
        2    1    3    3  502    0 -0.20740452792E+03 -0.17019882953E+03  0.93820760892E+02  0.28422986289E+03  0.25500000920E-02 0.  1.
       -2    1    3    3    0  502  0.20740452792E+03  0.17019882953E+03 -0.11008796171E+04  0.11331020303E+04  0.25500000920E-02 0. -1.
</event>
<event>
 5   0  0.1571895E-02  0.6808015E+03  0.7818609E-02  0.9750639E-01
       -2   -1    0    0    0  501  0.00000000000E+00  0.00000000000E+00  0.89030610466E+02  0.89030610503E+02  0.25500000920E-02 0. -1.
        2   -1    0    0  501    0  0.00000000000E+00  0.00000000000E+00 -0.13014926099E+04  0.13014926100E+04  0.25500000920E-02 0.  1.
    10030    2    1    2    0    0  0.00000000000E+00  0.00000000000E+00 -0.12124619995E+04  0.13905232205E+04  0.68080153234E+03 0.  0.
        2    1    3    3  502    0  0.13835907104E+02 -0.20162979390E+03 -0.46775467971E+02  0.20744625936E+03  0.25500000920E-02 0. -1.
       -2    1    3    3    0  502 -0.13835907104E+02  0.20162979390E+03 -0.11656865315E+04  0.11830769611E+04  0.25500000920E-02 0.  1.
</event>
<event>
 5   0  0.1663497E-02  0.1021099E+04  0.7818609E-02  0.9285702E-01
        2   -1    0    0  501    0  0.00000000000E+00  0.00000000000E+00  0.36819166685E+03  0.36819166686E+03  0.25500000920E-02 0.  1.
       -2   -1    0    0    0  501  0.00000000000E+00  0.00000000000E+00 -0.70794806438E+03  0.70794806438E+03  0.25500000920E-02 0. -1.
    10030    2    1    2    0    0  0.00000000000E+00  0.00000000000E+00 -0.33975639753E+03  0.10761397312E+04  0.10210985807E+04 0.  0.
        1    1    3    3  502    0  0.23774445638E+02  0.48912230255E+03 -0.17682196435E+02  0.49001888863E+03  0.50400001928E-02 0. -1.
       -1    1    3    3    0  502 -0.23774445638E+02 -0.48912230255E+03 -0.32207420109E+03  0.58612084262E+03  0.50400001928E-02 0.  1.
</event>
<event>
 5   0  0.1617721E-02  0.9713529E+03  0.7818609E-02  0.9340535E-01
        2   -1    0    0  501    0  0.00000000000E+00  0.00000000000E+00  0.42336273572E+03  0.42336273573E+03  0.25500000920E-02 0.  1.
       -2   -1    0    0    0  501  0.00000000000E+00  0.00000000000E+00 -0.55716191132E+03  0.55716191133E+03  0.25500000920E-02 0. -1.
    10030    2    1    2    0    0  0.00000000000E+00  0.00000000000E+00 -0.13379917560E+03  0.98052464706E+03  0.97135285252E+03 0.  0.
        5    1    3    3  502    0  0.19519397018E+02 -0.33104909773E+03  0.29125330903E+03  0.44138995456E+03  0.46999998093E+01 0.  1.
       -5    1    3    3    0  502 -0.19519397018E+02  0.33104909773E+03 -0.42505248463E+03  0.53913469250E+03  0.46999998093E+01 0. -1.
</event>
<event>
 5   0  0.9759443E-03  0.1005141E+04  0.7818609E-02  0.9302924E-01
       -1   -1    0    0    0  501  0.00000000000E+00  0.00000000000E+00  0.31608840250E+03  0.31608840254E+03  0.50400001928E-02 0. -1.
        1   -1    0    0  501    0  0.00000000000E+00  0.00000000000E+00 -0.79907120619E+03  0.79907120620E+03  0.50400001928E-02 0.  1.
    10030    2    1    2    0    0  0.00000000000E+00  0.00000000000E+00 -0.48298280369E+03  0.11151596087E+04  0.10051410669E+04 0.  0.
        2    1    3    3  502    0  0.14672976031E+03  0.94626586042E+02 -0.76434219271E+03  0.78402984695E+03  0.25500000920E-02 0.  1.
       -2    1    3    3    0  502 -0.14672976031E+03 -0.94626586042E+02  0.28135938902E+03  0.33112976179E+03  0.25500000920E-02 0. -1.
</event>
<event>
 5   0  0.9471140E-03  0.9972659E+03  0.7818609E-02  0.9311549E-01
        1   -1    0    0  501    0  0.00000000000E+00  0.00000000000E+00  0.58194748890E+03  0.58194748892E+03  0.50400001928E-02 0. -1.
       -1   -1    0    0    0  501  0.00000000000E+00  0.00000000000E+00 -0.42724613259E+03  0.42724613262E+03  0.50400001928E-02 0.  1.
    10030    2    1    2    0    0  0.00000000000E+00  0.00000000000E+00  0.15470135631E+03  0.10091936215E+04  0.99726589038E+03 0.  0.
        4    1    3    3  502    0 -0.48677727843E+03 -0.66328119069E+02  0.16370395416E+03  0.51783408123E+03  0.12699999809E+01 0. -1.
       -4    1    3    3    0  502  0.48677727843E+03  0.66328119069E+02 -0.90025978528E+01  0.49135954030E+03  0.12699999809E+01 0.  1.
</event>
<event>
 5   0  0.1656859E-02  0.1017311E+04  0.7818609E-02  0.9289760E-01
        2   -1    0    0  501    0  0.00000000000E+00  0.00000000000E+00  0.20574886203E+04  0.20574886203E+04  0.25500000920E-02 0. -1.
       -2   -1    0    0    0  501  0.00000000000E+00  0.00000000000E+00 -0.12575057834E+03  0.12575057836E+03  0.25500000920E-02 0.  1.
    10030    2    1    2    0    0  0.00000000000E+00  0.00000000000E+00  0.19317380420E+04  0.21832391987E+04  0.10173109337E+04 0.  0.
        4    1    3    3  502    0 -0.21708461822E+03 -0.39625696097E+03  0.14672618760E+04  0.15352538345E+04  0.12699999809E+01 0. -1.
       -4    1    3    3    0  502  0.21708461822E+03  0.39625696097E+03  0.46447616600E+03  0.64798536424E+03  0.12699999809E+01 0.  1.
</event>
<event>
 5   0  0.1598986E-02  0.1000046E+04  0.7818609E-02  0.9308494E-01
        2   -1    0    0  501    0  0.00000000000E+00  0.00000000000E+00  0.41936987533E+03  0.41936987534E+03  0.25500000920E-02 0. -1.
       -2   -1    0    0    0  501  0.00000000000E+00  0.00000000000E+00 -0.59618722298E+03  0.59618722298E+03  0.25500000920E-02 0.  1.
    10030    2    1    2    0    0  0.00000000000E+00  0.00000000000E+00 -0.17681734765E+03  0.10155570983E+04  0.10000459217E+04 0.  0.
        3    1    3    3  502    0 -0.22466878152E+03  0.43351967223E+03  0.21000896564E+02  0.48872938878E+03  0.10100000352E+00 0. -1.
       -3    1    3    3    0  502  0.22466878152E+03 -0.43351967223E+03 -0.19781824421E+03  0.52682770954E+03  0.10100000352E+00 0.  1.
</event>
<event>
 5   0  0.9507815E-03  0.9754060E+03  0.7818609E-02  0.9335938E-01
       -1   -1    0    0    0  501  0.00000000000E+00  0.00000000000E+00  0.18779281700E+03  0.18779281707E+03  0.50400001928E-02 0.  1.
        1   -1    0    0  501    0  0.00000000000E+00  0.00000000000E+00 -0.12665779057E+04  0.12665779057E+04  0.50400001928E-02 0. -1.
    10030    2    1    2    0    0  0.00000000000E+00  0.00000000000E+00 -0.10787850887E+04  0.14543707228E+04  0.97540603428E+03 0.  0.
        1    1    3    3  502    0 -0.27728237412E+03 -0.98033652402E+02 -0.11194787646E+04  0.11574665509E+04  0.50400001928E-02 0. -1.
       -1    1    3    3    0  502  0.27728237412E+03  0.98033652402E+02  0.40693675909E+02  0.29690417189E+03  0.50400001928E-02 0.  1.
</event>
<event>
 5   0  0.9507815E-03  0.9850538E+03  0.7818609E-02  0.9325091E-01
        1   -1    0    0  501    0  0.00000000000E+00  0.00000000000E+00  0.75743719806E+03  0.75743719808E+03  0.50400001928E-02 0.  1.
       -1   -1    0    0    0  501  0.00000000000E+00  0.00000000000E+00 -0.32026777078E+03  0.32026777082E+03  0.50400001928E-02 0. -1.
    10030    2    1    2    0    0  0.00000000000E+00  0.00000000000E+00  0.43716942728E+03  0.10777049689E+04  0.98505375073E+03 0.  0.
        1    1    3    3  502    0  0.25329772764E+03  0.58173052428E+02  0.67631243905E+03  0.72452905952E+03  0.50400001928E-02 0.  1.
       -1    1    3    3    0  502 -0.25329772764E+03 -0.58173052428E+02 -0.23914301177E+03  0.35317590937E+03  0.50400001928E-02 0. -1.
</event>
<event>
 5   0  0.9759443E-03  0.1008910E+04  0.7818609E-02  0.9298826E-01
        1   -1    0    0  501    0  0.00000000000E+00  0.00000000000E+00  0.85104268927E+03  0.85104268928E+03  0.50400001928E-02 0.  1.
       -1   -1    0    0    0  501  0.00000000000E+00  0.00000000000E+00 -0.29901549108E+03  0.29901549112E+03  0.50400001928E-02 0. -1.
    10030    2    1    2    0    0  0.00000000000E+00  0.00000000000E+00  0.55202719819E+03  0.11500581804E+04  0.10089101996E+04 0.  0.
        2    1    3    3  502    0  0.21533311049E+02  0.50366331146E+03  0.25516452817E+03  0.56502154936E+03  0.25500000920E-02 0.  1.
       -2    1    3    3    0  502 -0.21533311049E+02 -0.50366331146E+03  0.29686267003E+03  0.58503663104E+03  0.25500000920E-02 0. -1.
</event>
<event>
 5   0  0.9759443E-03  0.9741695E+03  0.7818609E-02  0.9337338E-01
       -1   -1    0    0    0  501  0.00000000000E+00  0.00000000000E+00  0.52978441454E+03  0.52978441456E+03  0.50400001928E-02 0. -1.
        1   -1    0    0  501    0  0.00000000000E+00  0.00000000000E+00 -0.44782655541E+03  0.44782655544E+03  0.50400001928E-02 0.  1.
    10030    2    1    2    0    0  0.00000000000E+00  0.00000000000E+00  0.81957859125E+02  0.97761097000E+03  0.97416945035E+03 0.  0.
        2    1    3    3  502    0  0.45445915072E+03  0.17163418979E+03  0.53554283596E+01  0.48581899448E+03  0.25500000920E-02 0.  1.
       -2    1    3    3    0  502 -0.45445915072E+03 -0.17163418979E+03  0.76602430765E+02  0.49179197552E+03  0.25500000920E-02 0. -1.
</event>
<event>
 5   0  0.1617721E-02  0.6956863E+03  0.7818609E-02  0.9724638E-01
        2   -1    0    0  501    0  0.00000000000E+00  0.00000000000E+00  0.35274461636E+03  0.35274461637E+03  0.25500000920E-02 0.  1.
       -2   -1    0    0    0  501  0.00000000000E+00  0.00000000000E+00 -0.34300976715E+03  0.34300976716E+03  0.25500000920E-02 0. -1.
    10030    2    1    2    0    0  0.00000000000E+00  0.00000000000E+00  0.97348492020E+01  0.69575438353E+03  0.69568627621E+03 0.  0.
        5    1    3    3  502    0 -0.21015275931E+03  0.27650563080E+03 -0.13928367071E+02  0.34761420500E+03  0.46999998093E+01 0. -1.
       -5    1    3    3    0  502  0.21015275931E+03 -0.27650563080E+03  0.23663216273E+02  0.34814017853E+03  0.46999998093E+01 0.  1.
</event>
<event>
 5   0  0.9396660E-03  0.9873889E+03  0.7818609E-02  0.9322486E-01
        1   -1    0    0  501    0  0.00000000000E+00  0.00000000000E+00  0.86150802230E+03  0.86150802231E+03  0.50400001928E-02 0. -1.
       -1   -1    0    0    0  501  0.00000000000E+00  0.00000000000E+00 -0.28291578027E+03  0.28291578032E+03  0.50400001928E-02 0.  1.
    10030    2    1    2    0    0  0.00000000000E+00  0.00000000000E+00  0.57859224203E+03  0.11444238026E+04  0.98738890894E+03 0.  0.
        5    1    3    3  502    0  0.27086666162E+03 -0.18676461564E+03  0.71588344583E+03  0.78788385441E+03  0.46999998093E+01 0. -1.
       -5    1    3    3    0  502 -0.27086666162E+03  0.18676461564E+03 -0.13729120381E+03  0.35653994821E+03  0.46999998093E+01 0.  1.
</event>
<event>
 5   0  0.1000773E-02  0.1002517E+04  0.7818609E-02  0.9305788E-01
        1   -1    0    0  501    0  0.00000000000E+00  0.00000000000E+00  0.10561751349E+04  0.10561751349E+04  0.50400001928E-02 0. -1.
       -1   -1    0    0    0  501  0.00000000000E+00  0.00000000000E+00 -0.23789634126E+03  0.23789634131E+03  0.50400001928E-02 0.  1.
    10030    2    1    2    0    0  0.00000000000E+00  0.00000000000E+00  0.81827879365E+03  0.12940714762E+04  0.10025172325E+04 0.  0.
        3    1    3    3  502    0 -0.62395804543E+02 -0.32075695414E+03  0.89979095844E+03  0.95728890057E+03  0.10100000352E+00 0. -1.
       -3    1    3    3    0  502  0.62395804543E+02  0.32075695414E+03 -0.81512164792E+02  0.33678257566E+03  0.10100000352E+00 0.  1.
</event>
<event>
 5   0  0.9396660E-03  0.1371307E+04  0.7818609E-02  0.8974854E-01
       -1   -1    0    0    0  501  0.00000000000E+00  0.00000000000E+00  0.45187346925E+03  0.45187346928E+03  0.50400001928E-02 0. -1.
        1   -1    0    0  501    0  0.00000000000E+00  0.00000000000E+00 -0.10403819277E+04  0.10403819277E+04  0.50400001928E-02 0.  1.
    10030    2    1    2    0    0  0.00000000000E+00  0.00000000000E+00 -0.58850845844E+03  0.14922553970E+04  0.13713073923E+04 0.  0.
        5    1    3    3  502    0  0.56846360337E+03  0.23020659164E+03 -0.62780624508E+03  0.87767232755E+03  0.46999998093E+01 0.  1.
       -5    1    3    3    0  502 -0.56846360337E+03 -0.23020659164E+03  0.39297786641E+02  0.61458306942E+03  0.46999998093E+01 0. -1.
</event>
<event>
 5   0  0.9471140E-03  0.1013480E+04  0.7818609E-02  0.9293882E-01
        1   -1    0    0  501    0  0.00000000000E+00  0.00000000000E+00  0.60705665208E+03  0.60705665210E+03  0.50400001928E-02 0. -1.
       -1   -1    0    0    0  501  0.00000000000E+00  0.00000000000E+00 -0.42300100732E+03  0.42300100735E+03  0.50400001928E-02 0.  1.
    10030    2    1    2    0    0  0.00000000000E+00  0.00000000000E+00  0.18405564476E+03  0.10300576594E+04  0.10134802916E+04 0.  0.
        4    1    3    3  502    0  0.36977457962E+03  0.34641307909E+03  0.84935038103E+02  0.51376145700E+03  0.12699999809E+01 0. -1.
       -4    1    3    3    0  502 -0.36977457962E+03 -0.34641307909E+03  0.99120606659E+02  0.51629620245E+03  0.12699999809E+01 0.  1.
</event>
<event>
 5   0  0.1571895E-02  0.1000027E+04  0.7818609E-02  0.9308515E-01
        2   -1    0    0  501    0  0.00000000000E+00  0.00000000000E+00  0.19690957172E+04  0.19690957172E+04  0.25500000920E-02 0. -1.
       -2   -1    0    0    0  501  0.00000000000E+00  0.00000000000E+00 -0.12696868332E+03  0.12696868335E+03  0.25500000920E-02 0.  1.
    10030    2    1    2    0    0  0.00000000000E+00  0.00000000000E+00  0.18421270339E+04  0.20960644006E+04  0.10000269808E+04 0.  0.
        2    1    3    3  502    0  0.47586761769E+03 -0.13376334225E+03  0.10789037533E+04  0.11867501549E+04  0.25500000920E-02 0. -1.
       -2    1    3    3    0  502 -0.47586761769E+03  0.13376334225E+03  0.76322328062E+03  0.90931424568E+03  0.25500000920E-02 0.  1.
</event>
<event>
 5   0  0.1663497E-02  0.1007604E+04  0.7818609E-02  0.9300244E-01
       -2   -1    0    0    0  501  0.00000000000E+00  0.00000000000E+00  0.10887710219E+04  0.10887710219E+04  0.25500000920E-02 0. -1.
        2   -1    0    0  501    0  0.00000000000E+00  0.00000000000E+00 -0.23312208187E+03  0.23312208188E+03  0.25500000920E-02 0.  1.
    10030    2    1    2    0    0  0.00000000000E+00  0.00000000000E+00  0.85564894003E+03  0.13218931038E+04  0.10076042225E+04 0.  0.
        1    1    3    3  502    0 -0.14531097164E+03 -0.45746573715E+03  0.22702663527E+03  0.53097200708E+03  0.50400001928E-02 0.  1.
       -1    1    3    3    0  502  0.14531097164E+03  0.45746573715E+03  0.62862230476E+03  0.79092109671E+03  0.50400001928E-02 0. -1.
</event>
<event>
 5   0  0.9396660E-03  0.1014048E+04  0.7818609E-02  0.9293270E-01
       -1   -1    0    0    0  501  0.00000000000E+00  0.00000000000E+00  0.59740847291E+03  0.59740847294E+03  0.50400001928E-02 0.  1.
        1   -1    0    0  501    0  0.00000000000E+00  0.00000000000E+00 -0.43031446993E+03  0.43031446996E+03  0.50400001928E-02 0. -1.
    10030    2    1    2    0    0  0.00000000000E+00  0.00000000000E+00  0.16709400299E+03  0.10277229429E+04  0.10140483428E+04 0.  0.
        5    1    3    3  502    0  0.21306545442E+03 -0.37469121108E+03 -0.18700044316E+03  0.46987407597E+03  0.46999998093E+01 0. -1.
       -5    1    3    3    0  502 -0.21306545442E+03  0.37469121108E+03  0.35409444615E+03  0.55784886692E+03  0.46999998093E+01 0.  1.
</event>
<event>
 5   0  0.9759443E-03  0.9979542E+03  0.7818609E-02  0.9310791E-01
        1   -1    0    0  501    0  0.00000000000E+00  0.00000000000E+00  0.78315864286E+03  0.78315864288E+03  0.50400001928E-02 0. -1.
       -1   -1    0    0    0  501  0.00000000000E+00  0.00000000000E+00 -0.31791532464E+03  0.31791532468E+03  0.50400001928E-02 0.  1.
    10030    2    1    2    0    0  0.00000000000E+00  0.00000000000E+00  0.46524331822E+03  0.11010739676E+04  0.99795417573E+03 0.  0.
        2    1    3    3  502    0  0.44344867368E+03  0.12267344583E+03  0.44566069457E+03  0.64055363178E+03  0.25500000920E-02 0. -1.
       -2    1    3    3    0  502 -0.44344867368E+03 -0.12267344583E+03  0.19582623656E+02  0.46052033577E+03  0.25500000920E-02 0.  1.
</event>
<event>
 5   0  0.1000773E-02  0.9680001E+03  0.7818609E-02  0.9344355E-01
        1   -1    0    0  501    0  0.00000000000E+00  0.00000000000E+00  0.26321179545E+03  0.26321179549E+03  0.50400001928E-02 0. -1.
       -1   -1    0    0    0  501  0.00000000000E+00  0.00000000000E+00 -0.88999065387E+03  0.88999065389E+03  0.50400001928E-02 0.  1.
    10030    2    1    2    0    0  0.00000000000E+00  0.00000000000E+00 -0.62677885843E+03  0.11532024494E+04  0.96800007846E+03 0.  0.
        3    1    3    3  502    0  0.42468807418E+02  0.45752337390E+03 -0.49455224704E+03  0.67506530982E+03  0.10100000352E+00 0.  1.
       -3    1    3    3    0  502 -0.42468807418E+02 -0.45752337390E+03 -0.13222661139E+03  0.47813713956E+03  0.10100000352E+00 0. -1.
</event>
<event>
 5   0  0.1571895E-02  0.9905803E+03  0.7818609E-02  0.9318937E-01
       -2   -1    0    0    0  501  0.00000000000E+00  0.00000000000E+00  0.29099255236E+03  0.29099255237E+03  0.25500000920E-02 0. -1.
        2   -1    0    0  501    0  0.00000000000E+00  0.00000000000E+00 -0.84301931704E+03  0.84301931705E+03  0.25500000920E-02 0.  1.
    10030    2    1    2    0    0  0.00000000000E+00  0.00000000000E+00 -0.55202676468E+03  0.11340118694E+04  0.99058032035E+03 0.  0.
        2    1    3    3  502    0  0.32743410886E+03  0.71625896758E+02  0.14143527637E+03  0.36379568736E+03  0.25500000920E-02 0. -1.
       -2    1    3    3    0  502 -0.32743410886E+03 -0.71625896758E+02 -0.69346204105E+03  0.77021618206E+03  0.25500000920E-02 0.  1.
</event>
<event>
 5   0  0.1663497E-02  0.1018309E+04  0.7818609E-02  0.9288688E-01
        2   -1    0    0  501    0  0.00000000000E+00  0.00000000000E+00  0.19221385333E+04  0.19221385333E+04  0.25500000920E-02 0. -1.
       -2   -1    0    0    0  501  0.00000000000E+00  0.00000000000E+00 -0.13486978625E+03  0.13486978627E+03  0.25500000920E-02 0.  1.
    10030    2    1    2    0    0  0.00000000000E+00  0.00000000000E+00  0.17872687471E+04  0.20570083196E+04  0.10183092127E+04 0.  0.
        1    1    3    3  502    0 -0.16461122799E+03  0.47938606957E+03  0.99115261754E+03  0.11132346434E+04  0.50400001928E-02 0. -1.
       -1    1    3    3    0  502  0.16461122799E+03 -0.47938606957E+03  0.79611612954E+03  0.94377367616E+03  0.50400001928E-02 0.  1.
</event>
<event>
 5   0  0.9507815E-03  0.9624402E+03  0.7818609E-02  0.9350727E-01
        1   -1    0    0  501    0  0.00000000000E+00  0.00000000000E+00  0.57465086708E+03  0.57465086710E+03  0.50400001928E-02 0. -1.
       -1   -1    0    0    0  501  0.00000000000E+00  0.00000000000E+00 -0.40297998207E+03  0.40297998210E+03  0.50400001928E-02 0.  1.
    10030    2    1    2    0    0  0.00000000000E+00  0.00000000000E+00  0.17167088501E+03  0.97763084921E+03  0.96244022389E+03 0.  0.
        1    1    3    3  502    0 -0.17012021095E+01 -0.15826610294E+03  0.54745481084E+03  0.56987527001E+03  0.50400001928E-02 0. -1.
       -1    1    3    3    0  502  0.17012021095E+01  0.15826610294E+03 -0.37578392583E+03  0.40775557920E+03  0.50400001928E-02 0.  1.
</event>
<event>
 5   0  0.1571895E-02  0.1038078E+04  0.7818609E-02  0.9267740E-01
        2   -1    0    0  501    0  0.00000000000E+00  0.00000000000E+00  0.33295836671E+03  0.33295836672E+03  0.25500000920E-02 0. -1.
       -2   -1    0    0    0  501  0.00000000000E+00  0.00000000000E+00 -0.80911467831E+03  0.80911467831E+03  0.25500000920E-02 0.  1.
    10030    2    1    2    0    0  0.00000000000E+00  0.00000000000E+00 -0.47615631160E+03  0.11420730450E+04  0.10380780352E+04 0.  0.
        2    1    3    3  502    0  0.17579804017E+03 -0.42239061012E+03 -0.50775191203E+03  0.68346966474E+03  0.25500000920E-02 0. -1.
       -2    1    3    3    0  502 -0.17579804017E+03  0.42239061012E+03  0.31595600431E+02  0.45860338029E+03  0.25500000920E-02 0.  1.
</event>
<event>
 5   0  0.9471140E-03  0.1020013E+04  0.7818609E-02  0.9286863E-01
        1   -1    0    0  501    0  0.00000000000E+00  0.00000000000E+00  0.52129052131E+03  0.52129052133E+03  0.50400001928E-02 0.  1.
       -1   -1    0    0    0  501  0.00000000000E+00  0.00000000000E+00 -0.49896654879E+03  0.49896654882E+03  0.50400001928E-02 0. -1.
    10030    2    1    2    0    0  0.00000000000E+00  0.00000000000E+00  0.22323972515E+02  0.10202570701E+04  0.10200128085E+04 0.  0.
        4    1    3    3  502    0 -0.13413041103E+03 -0.48888206337E+03  0.66927291485E+02  0.51134872083E+03  0.12699999809E+01 0. -1.
       -4    1    3    3    0  502  0.13413041103E+03  0.48888206337E+03 -0.44603318971E+02  0.50890834932E+03  0.12699999809E+01 0.  1.
</event>
<event>
 5   0  0.6314750E-03  0.1028436E+04  0.7818609E-02  0.9277895E-01
        3   -1    0    0  501    0  0.00000000000E+00  0.00000000000E+00  0.15019308626E+04  0.15019308660E+04  0.10100000352E+00 0.  1.
       -3   -1    0    0    0  501  0.00000000000E+00  0.00000000000E+00 -0.17605335884E+03  0.17605338781E+03  0.10100000352E+00 0. -1.
    10030    2    1    2    0    0  0.00000000000E+00  0.00000000000E+00  0.13258775037E+04  0.16779842538E+04  0.10284357058E+04 0.  0.
        1    1    3    3  502    0  0.36093850832E+03  0.29667101328E+03  0.31250892384E+03  0.56209618787E+03  0.50400001928E-02 0. -1.
       -1    1    3    3    0  502 -0.36093850832E+03 -0.29667101328E+03  0.10133685799E+04  0.11158880659E+04  0.50400001928E-02 0.  1.
</event>
<event>
 5   0  0.1000773E-02  0.1010470E+04  0.7818609E-02  0.9297136E-01
       -1   -1    0    0    0  501  0.00000000000E+00  0.00000000000E+00  0.24394317604E+03  0.24394317609E+03  0.50400001928E-02 0. -1.
        1   -1    0    0  501    0  0.00000000000E+00  0.00000000000E+00 -0.10464006790E+04  0.10464006791E+04  0.50400001928E-02 0.  1.
    10030    2    1    2    0    0  0.00000000000E+00  0.00000000000E+00 -0.80245750300E+03  0.12903438551E+04  0.10104698018E+04 0.  0.
        3    1    3    3  502    0 -0.26893967559E+03 -0.10365189919E+03 -0.93111923419E+03  0.97470780431E+03  0.10100000352E+00 0.  1.
       -3    1    3    3    0  502  0.26893967559E+03  0.10365189919E+03  0.12866173118E+03  0.31563605083E+03  0.10100000352E+00 0. -1.
</event>
<event>
 5   0  0.1617721E-02  0.9590957E+03  0.7818609E-02  0.9354582E-01
        2   -1    0    0  501    0  0.00000000000E+00  0.00000000000E+00  0.26395599652E+04  0.26395599652E+04  0.25500000920E-02 0. -1.
       -2   -1    0    0    0  501  0.00000000000E+00  0.00000000000E+00 -0.87122899743E+02  0.87122899781E+02  0.25500000920E-02 0.  1.
    10030    2    1    2    0    0  0.00000000000E+00  0.00000000000E+00  0.25524370655E+04  0.27266828650E+04  0.95909565377E+03 0.  0.
        5    1    3    3  502    0 -0.93999343350E+01  0.47750185537E+03  0.11540154166E+04  0.12489475779E+04  0.46999998093E+01 0. -1.
       -5    1    3    3    0  502  0.93999343350E+01 -0.47750185537E+03  0.13984216489E+04  0.14777352871E+04  0.46999998093E+01 0.  1.
</event>
<event>
 5   0  0.1571895E-02  0.9891497E+03  0.7818609E-02  0.9320526E-01
       -2   -1    0    0    0  501  0.00000000000E+00  0.00000000000E+00  0.22642497667E+03  0.22642497668E+03  0.25500000920E-02 0. -1.
        2   -1    0    0  501    0  0.00000000000E+00  0.00000000000E+00 -0.10802884847E+04  0.10802884847E+04  0.25500000920E-02 0.  1.
    10030    2    1    2    0    0  0.00000000000E+00  0.00000000000E+00 -0.85386350803E+03  0.13067134614E+04  0.98914972568E+03 0.  0.
        2    1    3    3  502    0  0.12310099379E+03 -0.47734068947E+03 -0.47971261437E+03  0.68784604447E+03  0.25500000920E-02 0.  1.
       -2    1    3    3    0  502 -0.12310099379E+03  0.47734068947E+03 -0.37415089366E+03  0.61886741692E+03  0.25500000920E-02 0. -1.
</event>
<event>
 5   0  0.6314750E-03  0.1026566E+04  0.7818609E-02  0.9279878E-01
        3   -1    0    0  501    0  0.00000000000E+00  0.00000000000E+00  0.44161212108E+03  0.44161213263E+03  0.10100000352E+00 0. -1.
       -3   -1    0    0    0  501  0.00000000000E+00  0.00000000000E+00 -0.59658612031E+03  0.59658612886E+03  0.10100000352E+00 0.  1.
    10030    2    1    2    0    0  0.00000000000E+00  0.00000000000E+00 -0.15497399923E+03  0.10381982615E+04  0.10265664565E+04 0.  0.
        2    1    3    3  502    0 -0.51158918499E+03  0.41634646711E+02 -0.75814657216E+02  0.51884949674E+03  0.25500000920E-02 0. -1.
       -2    1    3    3    0  502  0.51158918499E+03 -0.41634646711E+02 -0.79159342014E+02  0.51934876475E+03  0.25500000920E-02 0.  1.
</event>
<event>
 5   0  0.9396660E-03  0.9833740E+03  0.7818609E-02  0.9326970E-01
       -1   -1    0    0    0  501  0.00000000000E+00  0.00000000000E+00  0.33799571760E+03  0.33799571764E+03  0.50400001928E-02 0.  1.
        1   -1    0    0  501    0  0.00000000000E+00  0.00000000000E+00 -0.71526376420E+03  0.71526376422E+03  0.50400001928E-02 0. -1.
    10030    2    1    2    0    0  0.00000000000E+00  0.00000000000E+00 -0.37726804660E+03  0.10532594819E+04  0.98337396607E+03 0.  0.
        5    1    3    3  502    0 -0.20530217458E+02  0.12620144681E+03  0.31985297654E+03  0.34449428385E+03  0.46999998093E+01 0.  1.
       -5    1    3    3    0  502  0.20530217458E+02 -0.12620144681E+03 -0.69712102314E+03  0.70876519801E+03  0.46999998093E+01 0. -1.
</event>
<event>
 5   0  0.9759443E-03  0.9878255E+03  0.7818609E-02  0.9321999E-01
       -1   -1    0    0    0  501  0.00000000000E+00  0.00000000000E+00  0.45681880416E+03  0.45681880419E+03  0.50400001928E-02 0.  1.
        1   -1    0    0  501    0  0.00000000000E+00  0.00000000000E+00 -0.53401878471E+03  0.53401878473E+03  0.50400001928E-02 0. -1.
    10030    2    1    2    0    0  0.00000000000E+00  0.00000000000E+00 -0.77199980546E+02  0.99083758892E+03  0.98782553653E+03 0.  0.
        2    1    3    3  502    0 -0.34215254441E+03  0.22222497965E+02 -0.39519436834E+03  0.52320243868E+03  0.25500000920E-02 0. -1.
       -2    1    3    3    0  502  0.34215254441E+03 -0.22222497965E+02  0.31799438780E+03  0.46763515024E+03  0.25500000920E-02 0.  1.
</event>
<event>
 5   0  0.9507815E-03  0.1026109E+04  0.7818609E-02  0.9280363E-01
       -1   -1    0    0    0  501  0.00000000000E+00  0.00000000000E+00  0.13429090034E+03  0.13429090044E+03  0.50400001928E-02 0. -1.
        1   -1    0    0  501    0  0.00000000000E+00  0.00000000000E+00 -0.19601103848E+04  0.19601103848E+04  0.50400001928E-02 0.  1.
    10030    2    1    2    0    0  0.00000000000E+00  0.00000000000E+00 -0.18258194845E+04  0.20944012853E+04  0.10261091335E+04 0.  0.
        1    1    3    3  502    0 -0.33035306919E+03 -0.28214007339E+03 -0.35583703540E+03  0.56156581727E+03  0.50400001928E-02 0. -1.
       -1    1    3    3    0  502  0.33035306919E+03  0.28214007339E+03 -0.14699824491E+04  0.15328354680E+04  0.50400001928E-02 0.  1.
</event>
<event>
 5   0  0.1571895E-02  0.1029872E+04  0.7818609E-02  0.9276375E-01
       -2   -1    0    0    0  501  0.00000000000E+00  0.00000000000E+00  0.89542817960E+02  0.89542817997E+02  0.25500000920E-02 0. -1.
        2   -1    0    0  501    0  0.00000000000E+00  0.00000000000E+00 -0.29612536233E+04  0.29612536233E+04  0.25500000920E-02 0.  1.
    10030    2    1    2    0    0  0.00000000000E+00  0.00000000000E+00 -0.28717108054E+04  0.30507964413E+04  0.10298718254E+04 0.  0.
        2    1    3    3  502    0  0.47955049624E+03  0.17975435908E+03 -0.15947932080E+04  0.16750061744E+04  0.25500000920E-02 0. -1.
       -2    1    3    3    0  502 -0.47955049624E+03 -0.17975435908E+03 -0.12769175974E+04  0.13757902669E+04  0.25500000920E-02 0.  1.
</event>
<event>
 5   0  0.9507815E-03  0.9860941E+03  0.7818609E-02  0.9323929E-01
       -1   -1    0    0    0  501  0.00000000000E+00  0.00000000000E+00  0.53149396348E+03  0.53149396351E+03  0.50400001928E-02 0.  1.
        1   -1    0    0  501    0  0.00000000000E+00  0.00000000000E+00 -0.45738124641E+03  0.45738124643E+03  0.50400001928E-02 0. -1.
    10030    2    1    2    0    0  0.00000000000E+00  0.00000000000E+00  0.74112717075E+02  0.98887520994E+03  0.98609405535E+03 0.  0.
        1    1    3    3  502    0 -0.29902732972E+03  0.37896136053E+03  0.13767035562E+03  0.50197826999E+03  0.50400001928E-02 0.  1.
       -1    1    3    3    0  502  0.29902732972E+03 -0.37896136053E+03 -0.63557638546E+02  0.48689693996E+03  0.50400001928E-02 0. -1.
</event>
<event>
 5   0  0.1617721E-02  0.1003027E+04  0.7818609E-02  0.9305231E-01
        2   -1    0    0  501    0  0.00000000000E+00  0.00000000000E+00  0.39160544357E+03  0.39160544358E+03  0.25500000920E-02 0.  1.
       -2   -1    0    0    0  501  0.00000000000E+00  0.00000000000E+00 -0.64226881157E+03  0.64226881158E+03  0.25500000920E-02 0. -1.
    10030    2    1    2    0    0  0.00000000000E+00  0.00000000000E+00 -0.25066336800E+03  0.10338742552E+04  0.10030273433E+04 0.  0.
        5    1    3    3  502    0  0.38600532156E+03 -0.27013275195E+03  0.51772281093E+02  0.47399817620E+03  0.46999998093E+01 0.  1.
       -5    1    3    3    0  502 -0.38600532156E+03  0.27013275195E+03 -0.30243564910E+03  0.55987607896E+03  0.46999998093E+01 0. -1.
</event>
<event>
 5   0  0.1000773E-02  0.1005235E+04  0.7818609E-02  0.9302822E-01
       -1   -1    0    0    0  501  0.00000000000E+00  0.00000000000E+00  0.26776091882E+03  0.26776091886E+03  0.50400001928E-02 0.  1.
        1   -1    0    0  501    0  0.00000000000E+00  0.00000000000E+00 -0.94347017547E+03  0.94347017548E+03  0.50400001928E-02 0. -1.
    10030    2    1    2    0    0  0.00000000000E+00  0.00000000000E+00 -0.67570925665E+03  0.12112310943E+04  0.10052351786E+04 0.  0.
        3    1    3    3  502    0  0.26139644070E+03  0.29516025119E+03 -0.71346755969E+03  0.81515866065E+03  0.10100000352E+00 0. -1.
       -3    1    3    3    0  502 -0.26139644070E+03 -0.29516025119E+03  0.37758303039E+02  0.39607243370E+03  0.10100000352E+00 0.  1.
</event>
<event>
 5   0  0.9396660E-03  0.1009088E+04  0.7818609E-02  0.9298633E-01
       -1   -1    0    0    0  501  0.00000000000E+00  0.00000000000E+00  0.36569769843E+03  0.36569769846E+03  0.50400001928E-02 0. -1.
        1   -1    0    0  501    0  0.00000000000E+00  0.00000000000E+00 -0.69610667646E+03  0.69610667648E+03  0.50400001928E-02 0.  1.
    10030    2    1    2    0    0  0.00000000000E+00  0.00000000000E+00 -0.33040897804E+03  0.10618043749E+04  0.10090879238E+04 0.  0.
        5    1    3    3  502    0 -0.48335873047E+03 -0.12232296588E+03 -0.24632917806E+03  0.55614631552E+03  0.46999998093E+01 0.  1.
       -5    1    3    3    0  502  0.48335873047E+03  0.12232296588E+03 -0.84079799977E+02  0.50565805943E+03  0.46999998093E+01 0. -1.
</event>
<event>
 5   0  0.9396660E-03  0.9728762E+03  0.7818609E-02  0.9338804E-01
       -1   -1    0    0    0  501  0.00000000000E+00  0.00000000000E+00  0.15014842917E+03  0.15014842926E+03  0.50400001928E-02 0. -1.
        1   -1    0    0  501    0  0.00000000000E+00  0.00000000000E+00 -0.15759207764E+04  0.15759207764E+04  0.50400001928E-02 0.  1.
    10030    2    1    2    0    0  0.00000000000E+00  0.00000000000E+00 -0.14257723473E+04  0.17260692057E+04  0.97287620829E+03 0.  0.
        5    1    3    3  502    0  0.16555795245E+03 -0.28080828556E+03 -0.13534093259E+04  0.13921212671E+04  0.46999998093E+01 0.  1.
       -5    1    3    3    0  502 -0.16555795245E+03  0.28080828556E+03 -0.72363021389E+02  0.33394793864E+03  0.46999998093E+01 0. -1.
</event>
<event>
 5   0  0.1571895E-02  0.8197780E+03  0.7818609E-02  0.9531822E-01
        2   -1    0    0  501    0  0.00000000000E+00  0.00000000000E+00  0.11546247643E+04  0.11546247643E+04  0.25500000920E-02 0.  1.
       -2   -1    0    0    0  501  0.00000000000E+00  0.00000000000E+00 -0.14550959593E+03  0.14550959595E+03  0.25500000920E-02 0. -1.
    10030    2    1    2    0    0  0.00000000000E+00  0.00000000000E+00  0.10091151683E+04  0.13001343602E+04  0.81977797705E+03 0.  0.
        2    1    3    3  502    0 -0.30886378557E+03 -0.74238895122E+02  0.93733764839E+02  0.33120125342E+03  0.25500000920E-02 0. -1.
       -2    1    3    3    0  502  0.30886378557E+03  0.74238895122E+02  0.91538140350E+03  0.96893310681E+03  0.25500000920E-02 0.  1.
</event>
<event>
 5   0  0.6314750E-03  0.9047780E+03  0.7818609E-02  0.9419628E-01
        3   -1    0    0  501    0  0.00000000000E+00  0.00000000000E+00  0.45950030356E+03  0.45950031466E+03  0.10100000352E+00 0. -1.
       -3   -1    0    0    0  501  0.00000000000E+00  0.00000000000E+00 -0.44538774834E+03  0.44538775979E+03  0.10100000352E+00 0.  1.
    10030    2    1    2    0    0  0.00000000000E+00  0.00000000000E+00  0.14112555223E+02  0.90488807445E+03  0.90477801867E+03 0.  0.
        2    1    3    3  502    0 -0.29427554413E+03  0.15835645188E+03  0.31202115350E+03  0.45720024274E+03  0.25500000920E-02 0. -1.
       -2    1    3    3    0  502  0.29427554413E+03 -0.15835645188E+03 -0.29790859828E+03  0.44768783171E+03  0.25500000920E-02 0.  1.
</event>
<event>
 5   0  0.9507815E-03  0.1032176E+04  0.7818609E-02  0.9273942E-01
       -1   -1    0    0    0  501  0.00000000000E+00  0.00000000000E+00  0.50250522978E+03  0.50250522981E+03  0.50400001928E-02 0.  1.
        1   -1    0    0  501    0  0.00000000000E+00  0.00000000000E+00 -0.53003755456E+03  0.53003755459E+03  0.50400001928E-02 0. -1.
    10030    2    1    2    0    0  0.00000000000E+00  0.00000000000E+00 -0.27532324784E+02  0.10325427844E+04  0.10321756501E+04 0.  0.
        1    1    3    3  502    0 -0.33328811551E+03 -0.34709177416E+02  0.37887943289E+03  0.50580166037E+03  0.50400001928E-02 0.  1.
       -1    1    3    3    0  502  0.33328811551E+03  0.34709177416E+02 -0.40641175767E+03  0.52674112403E+03  0.50400001928E-02 0. -1.
</event>
<event>
 5   0  0.1571895E-02  0.9907341E+03  0.7818609E-02  0.9318766E-01
       -2   -1    0    0    0  501  0.00000000000E+00  0.00000000000E+00  0.84640252753E+03  0.84640252753E+03  0.25500000920E-02 0. -1.
        2   -1    0    0  501    0  0.00000000000E+00  0.00000000000E+00 -0.28991940456E+03  0.28991940457E+03  0.25500000920E-02 0.  1.
    10030    2    1    2    0    0  0.00000000000E+00  0.00000000000E+00  0.55648312297E+03  0.11363219321E+04  0.99073410521E+03 0.  0.
        2    1    3    3  502    0  0.30552273610E+03 -0.13389608344E+03 -0.14179289401E+03  0.36246038160E+03  0.25500000920E-02 0.  1.
       -2    1    3    3    0  502 -0.30552273610E+03  0.13389608344E+03  0.69827601698E+03  0.77386155050E+03  0.25500000920E-02 0. -1.
</event>
<event>
 5   0  0.6314750E-03  0.9092747E+03  0.7818609E-02  0.9414061E-01
        4   -1    0    0  501    0  0.00000000000E+00  0.00000000000E+00  0.76221295078E+03  0.76221400882E+03  0.12699999809E+01 0. -1.
       -4   -1    0    0    0  501  0.00000000000E+00  0.00000000000E+00 -0.27117492962E+03  0.27117790352E+03  0.12699999809E+01 0.  1.
    10030    2    1    2    0    0  0.00000000000E+00  0.00000000000E+00  0.49103802116E+03  0.10333919123E+04  0.90927471441E+03 0.  0.
        5    1    3    3  502    0  0.17599693678E+03 -0.40424278895E+03  0.11954727264E+03  0.45683782086E+03  0.46999998093E+01 0. -1.
       -5    1    3    3    0  502 -0.17599693678E+03  0.40424278895E+03  0.37149074852E+03  0.57655409148E+03  0.46999998093E+01 0.  1.
</event>
<event>
 5   0  0.9759443E-03  0.1000098E+04  0.7818609E-02  0.9308437E-01
        1   -1    0    0  501    0  0.00000000000E+00  0.00000000000E+00  0.73137731319E+03  0.73137731320E+03  0.50400001928E-02 0.  1.
       -1   -1    0    0    0  501  0.00000000000E+00  0.00000000000E+00 -0.34188811030E+03  0.34188811034E+03  0.50400001928E-02 0. -1.
    10030    2    1    2    0    0  0.00000000000E+00  0.00000000000E+00  0.38948920289E+03  0.10732654235E+04  0.10000984103E+04 0.  0.
        2    1    3    3  502    0  0.23745690011E+03 -0.41962563766E+03  0.33702532731E+03  0.58826654371E+03  0.25500000920E-02 0.  1.
       -2    1    3    3    0  502 -0.23745690011E+03  0.41962563766E+03  0.52463875581E+02  0.48499887983E+03  0.25500000920E-02 0. -1.
</event>
<event>
 5   0  0.9471140E-03  0.1039891E+04  0.7818609E-02  0.9265843E-01
        1   -1    0    0  501    0  0.00000000000E+00  0.00000000000E+00  0.10780347695E+04  0.10780347695E+04  0.50400001928E-02 0. -1.
       -1   -1    0    0    0  501  0.00000000000E+00  0.00000000000E+00 -0.25077430705E+03  0.25077430710E+03  0.50400001928E-02 0.  1.
    10030    2    1    2    0    0  0.00000000000E+00  0.00000000000E+00  0.82726046246E+03  0.13288090766E+04  0.10398911911E+04 0.  0.
        4    1    3    3  502    0  0.36921039389E+02 -0.20778052115E+03  0.10208450064E+04  0.10424308361E+04  0.12699999809E+01 0. -1.
       -4    1    3    3    0  502 -0.36921039389E+02  0.20778052115E+03 -0.19358454390E+03  0.28637824054E+03  0.12699999809E+01 0.  1.
</event>
<event>
 5   0  0.9471140E-03  0.9748023E+03  0.7818609E-02  0.9336621E-01
        1   -1    0    0  501    0  0.00000000000E+00  0.00000000000E+00  0.90937496100E+03  0.90937496101E+03  0.50400001928E-02 0.  1.
       -1   -1    0    0    0  501  0.00000000000E+00  0.00000000000E+00 -0.26123424464E+03  0.26123424469E+03  0.50400001928E-02 0. -1.
    10030    2    1    2    0    0  0.00000000000E+00  0.00000000000E+00  0.64814071636E+03  0.11706092057E+04  0.97480230010E+03 0.  0.
        4    1    3    3  502    0 -0.39737293698E+03 -0.23136280645E+03  0.51816675025E+03  0.69277153031E+03  0.12699999809E+01 0.  1.
       -4    1    3    3    0  502  0.39737293698E+03  0.23136280645E+03  0.12997396611E+03  0.47783767539E+03  0.12699999809E+01 0. -1.
</event>
<event>
 5   0  0.9396660E-03  0.9941361E+03  0.7818609E-02  0.9315000E-01
       -1   -1    0    0    0  501  0.00000000000E+00  0.00000000000E+00  0.20245303790E+03  0.20245303796E+03  0.50400001928E-02 0. -1.
        1   -1    0    0  501    0  0.00000000000E+00  0.00000000000E+00 -0.12204145001E+04  0.12204145001E+04  0.50400001928E-02 0.  1.
    10030    2    1    2    0    0  0.00000000000E+00  0.00000000000E+00 -0.10179614622E+04  0.14228675380E+04  0.99413605323E+03 0.  0.
        5    1    3    3  502    0 -0.14297355367E+03  0.46725065129E+03 -0.63929559214E+03  0.80466486956E+03  0.46999998093E+01 0.  1.
       -5    1    3    3    0  502  0.14297355367E+03 -0.46725065129E+03 -0.37866587002E+03  0.61820266846E+03  0.46999998093E+01 0. -1.
</event>
<event>
 5   0  0.1000773E-02  0.9663384E+03  0.7818609E-02  0.9346255E-01
       -1   -1    0    0    0  501  0.00000000000E+00  0.00000000000E+00  0.22616432930E+03  0.22616432936E+03  0.50400001928E-02 0. -1.
        1   -1    0    0  501    0  0.00000000000E+00  0.00000000000E+00 -0.10322250666E+04  0.10322250667E+04  0.50400001928E-02 0.  1.
    10030    2    1    2    0    0  0.00000000000E+00  0.00000000000E+00 -0.80606073735E+03  0.12583893960E+04  0.96633842919E+03 0.  0.
        3    1    3    3  502    0  0.32429077565E+03 -0.24170776265E+03 -0.74723495806E+03  0.84967478628E+03  0.10100000352E+00 0.  1.
       -3    1    3    3    0  502 -0.32429077565E+03  0.24170776265E+03 -0.58825779288E+02  0.40871460974E+03  0.10100000352E+00 0. -1.
</event>
<event>
 5   0  0.1617721E-02  0.9972662E+03  0.7818609E-02  0.9311548E-01
       -2   -1    0    0    0  501  0.00000000000E+00  0.00000000000E+00  0.19940742256E+03  0.19940742258E+03  0.25500000920E-02 0.  1.
        2   -1    0    0  501    0  0.00000000000E+00  0.00000000000E+00 -0.12468691413E+04  0.12468691413E+04  0.25500000920E-02 0. -1.
    10030    2    1    2    0    0  0.00000000000E+00  0.00000000000E+00 -0.10474617187E+04  0.14462765638E+04  0.99726618662E+03 0.  0.
        5    1    3    3  502    0  0.24086388102E+02  0.19152700638E+03 -0.11904478266E+04  0.12060061634E+04  0.46999998093E+01 0. -1.
       -5    1    3    3    0  502 -0.24086388102E+02 -0.19152700638E+03  0.14298610793E+03  0.24027040043E+03  0.46999998093E+01 0.  1.
</event>
<event>
 5   0  0.9396660E-03  0.1024545E+04  0.7818609E-02  0.9282027E-01
        1   -1    0    0  501    0  0.00000000000E+00  0.00000000000E+00  0.80447850883E+03  0.80447850885E+03  0.50400001928E-02 0.  1.
       -1   -1    0    0    0  501  0.00000000000E+00  0.00000000000E+00 -0.32620267533E+03  0.32620267537E+03  0.50400001928E-02 0. -1.
    10030    2    1    2    0    0  0.00000000000E+00  0.00000000000E+00  0.47827583350E+03  0.11306811842E+04  0.10245448587E+04 0.  0.
        5    1    3    3  502    0 -0.11042094440E+03 -0.49486593704E+03  0.15867488102E+03  0.53130489220E+03  0.46999998093E+01 0.  1.
       -5    1    3    3    0  502  0.11042094440E+03  0.49486593704E+03  0.31960095248E+03  0.59937629202E+03  0.46999998093E+01 0. -1.
</event>
<event>
 5   0  0.1663497E-02  0.9929428E+03  0.7818609E-02  0.9316319E-01
        2   -1    0    0  501    0  0.00000000000E+00  0.00000000000E+00  0.20755207553E+04  0.20755207553E+04  0.25500000920E-02 0. -1.
       -2   -1    0    0    0  501  0.00000000000E+00  0.00000000000E+00 -0.11875760408E+03  0.11875760411E+03  0.25500000920E-02 0.  1.
    10030    2    1    2    0    0  0.00000000000E+00  0.00000000000E+00  0.19567631512E+04  0.21942783594E+04  0.99294284258E+03 0.  0.
        1    1    3    3  502    0 -0.47186061667E+03  0.15125261605E+03  0.10466404491E+04  0.11580095100E+04  0.50400001928E-02 0. -1.
       -1    1    3    3    0  502  0.47186061667E+03 -0.15125261605E+03  0.91012270215E+03  0.10362688495E+04  0.50400001928E-02 0.  1.
</event>
<event>
 5   0  0.1000773E-02  0.1014027E+04  0.7818609E-02  0.9293293E-01
       -1   -1    0    0    0  501  0.00000000000E+00  0.00000000000E+00  0.39565487032E+03  0.39565487035E+03  0.50400001928E-02 0.  1.
        1   -1    0    0  501    0  0.00000000000E+00  0.00000000000E+00 -0.64971449273E+03  0.64971449275E+03  0.50400001928E-02 0. -1.
    10030    2    1    2    0    0  0.00000000000E+00  0.00000000000E+00 -0.25405962241E+03  0.10453693631E+04  0.10140270280E+04 0.  0.
        3    1    3    3  502    0  0.31265235068E+02 -0.49943937376E+03 -0.21106936703E+03  0.54310909667E+03  0.10100000352E+00 0. -1.
       -3    1    3    3    0  502 -0.31265235068E+02  0.49943937376E+03 -0.42990255379E+02  0.50226026644E+03  0.10100000352E+00 0.  1.
</event>
<event>
 5   0  0.9759443E-03  0.5819184E+03  0.7818609E-02  0.9943646E-01
        1   -1    0    0  501    0  0.00000000000E+00  0.00000000000E+00  0.20654048868E+03  0.20654048874E+03  0.50400001928E-02 0. -1.
       -1   -1    0    0    0  501  0.00000000000E+00  0.00000000000E+00 -0.40988210531E+03  0.40988210534E+03  0.50400001928E-02 0.  1.
    10030    2    1    2    0    0  0.00000000000E+00  0.00000000000E+00 -0.20334161663E+03  0.61642259408E+03  0.58191838040E+03 0.  0.
        2    1    3    3  502    0 -0.23881647587E+03 -0.35820063763E+02  0.70251203184E+02  0.25149874288E+03  0.25500000920E-02 0. -1.
       -2    1    3    3    0  502  0.23881647587E+03  0.35820063763E+02 -0.27359281981E+03  0.36492385120E+03  0.25500000920E-02 0.  1.
</event>
<event>
 5   0  0.6314750E-03  0.9628107E+03  0.7818609E-02  0.9350301E-01
        3   -1    0    0  501    0  0.00000000000E+00  0.00000000000E+00  0.88308845842E+03  0.88308846420E+03  0.10100000352E+00 0. -1.
       -3   -1    0    0    0  501  0.00000000000E+00  0.00000000000E+00 -0.26243248339E+03  0.26243250283E+03  0.10100000352E+00 0.  1.
    10030    2    1    2    0    0  0.00000000000E+00  0.00000000000E+00  0.62065597503E+03  0.11455209670E+04  0.96281070131E+03 0.  0.
        3    1    3    3  502    0  0.12302971922E+03 -0.17798584364E+03  0.82197761628E+03  0.84997793161E+03  0.10100000352E+00 0. -1.
       -3    1    3    3    0  502 -0.12302971922E+03  0.17798584364E+03 -0.20132164126E+03  0.29554303542E+03  0.10100000352E+00 0.  1.
</event>
<event>
 5   0  0.1663497E-02  0.9376498E+03  0.7818609E-02  0.9379704E-01
       -2   -1    0    0    0  501  0.00000000000E+00  0.00000000000E+00  0.23934665461E+03  0.23934665463E+03  0.25500000920E-02 0. -1.
        2   -1    0    0  501    0  0.00000000000E+00  0.00000000000E+00 -0.91831989942E+03  0.91831989943E+03  0.25500000920E-02 0.  1.
    10030    2    1    2    0    0  0.00000000000E+00  0.00000000000E+00 -0.67897324481E+03  0.11576665541E+04  0.93764981907E+03 0.  0.
        1    1    3    3  502    0 -0.58690703283E+02  0.29786764797E+03  0.10159015929E+03  0.32014105461E+03  0.50400001928E-02 0. -1.
       -1    1    3    3    0  502  0.58690703283E+02 -0.29786764797E+03 -0.78056340410E+03  0.83752549944E+03  0.50400001928E-02 0.  1.
</event>
<event>
 5   0  0.1598986E-02  0.1033507E+04  0.7818609E-02  0.9272540E-01
        2   -1    0    0  501    0  0.00000000000E+00  0.00000000000E+00  0.10532030667E+04  0.10532030667E+04  0.25500000920E-02 0.  1.
       -2   -1    0    0    0  501  0.00000000000E+00  0.00000000000E+00 -0.25354457470E+03  0.25354457471E+03  0.25500000920E-02 0. -1.
    10030    2    1    2    0    0  0.00000000000E+00  0.00000000000E+00  0.79965849199E+03  0.13067476414E+04  0.10335065043E+04 0.  0.
        3    1    3    3  502    0  0.19202059855E+03 -0.46507750031E+03  0.25094894988E+03  0.56226717600E+03  0.10100000352E+00 0. -1.
       -3    1    3    3    0  502 -0.19202059855E+03  0.46507750031E+03  0.54870954211E+03  0.74448046540E+03  0.10100000352E+00 0.  1.
</event>
<event>
 5   0  0.1663497E-02  0.1002514E+04  0.7818609E-02  0.9305792E-01
        2   -1    0    0  501    0  0.00000000000E+00  0.00000000000E+00  0.57594275659E+03  0.57594275660E+03  0.25500000920E-02 0.  1.
       -2   -1    0    0    0  501  0.00000000000E+00  0.00000000000E+00 -0.43625628475E+03  0.43625628476E+03  0.25500000920E-02 0. -1.
    10030    2    1    2    0    0  0.00000000000E+00  0.00000000000E+00  0.13968647184E+03  0.10121990414E+04  0.10025141340E+04 0.  0.
        1    1    3    3  502    0  0.28934189272E+03 -0.28045042122E+03  0.37086348334E+03  0.54764120823E+03  0.50400001928E-02 0.  1.
       -1    1    3    3    0  502 -0.28934189272E+03  0.28045042122E+03 -0.23117701150E+03  0.46455783312E+03  0.50400001928E-02 0. -1.
</event>
<event>
 5   0  0.1598986E-02  0.1030446E+04  0.7818609E-02  0.9275768E-01
       -2   -1    0    0    0  501  0.00000000000E+00  0.00000000000E+00  0.51885947639E+03  0.51885947640E+03  0.25500000920E-02 0.  1.
        2   -1    0    0  501    0  0.00000000000E+00  0.00000000000E+00 -0.51161226061E+03  0.51161226061E+03  0.25500000920E-02 0. -1.
    10030    2    1    2    0    0  0.00000000000E+00  0.00000000000E+00  0.72472157818E+01  0.10304717370E+04  0.10304462522E+04 0.  0.
        3    1    3    3  502    0 -0.71413908243E+02  0.87837907448E+02 -0.49902130834E+03  0.51170081166E+03  0.10100000352E+00 0. -1.
       -3    1    3    3    0  502  0.71413908243E+02 -0.87837907448E+02  0.50626852412E+03  0.51877092535E+03  0.10100000352E+00 0.  1.
</event>
<event>
 5   0  0.1571895E-02  0.9761240E+03  0.7818609E-02  0.9335126E-01
        2   -1    0    0  501    0  0.00000000000E+00  0.00000000000E+00  0.99511242888E+03  0.99511242889E+03  0.25500000920E-02 0.  1.
       -2   -1    0    0    0  501  0.00000000000E+00  0.00000000000E+00 -0.23937447300E+03  0.23937447301E+03  0.25500000920E-02 0. -1.
    10030    2    1    2    0    0  0.00000000000E+00  0.00000000000E+00  0.75573795589E+03  0.12344869019E+04  0.97612399468E+03 0.  0.
        2    1    3    3  502    0  0.23828993366E+03  0.64347165435E+02 -0.15462371345E+03  0.29125786333E+03  0.25500000920E-02 0. -1.
       -2    1    3    3    0  502 -0.23828993366E+03 -0.64347165435E+02  0.91036166934E+03  0.94322903856E+03  0.25500000920E-02 0.  1.
</event>
<event>
 5   0  0.1663497E-02  0.1095324E+04  0.7818609E-02  0.9209762E-01
        2   -1    0    0  501    0  0.00000000000E+00  0.00000000000E+00  0.58442593265E+03  0.58442593266E+03  0.25500000920E-02 0. -1.
       -2   -1    0    0    0  501  0.00000000000E+00  0.00000000000E+00 -0.51321062990E+03  0.51321062991E+03  0.25500000920E-02 0.  1.
    10030    2    1    2    0    0  0.00000000000E+00  0.00000000000E+00  0.71215302754E+02  0.10976365626E+04  0.10953238809E+04 0.  0.
        1    1    3    3  502    0 -0.76726547649E+02  0.93739624231E+02 -0.49961696881E+03  0.51409259460E+03  0.50400001928E-02 0.  1.
       -1    1    3    3    0  502  0.76726547649E+02 -0.93739624231E+02  0.57083227157E+03  0.58354396797E+03  0.50400001928E-02 0. -1.
</event>
<event>
 5   0  0.9396660E-03  0.9552180E+03  0.7818609E-02  0.9359072E-01
        1   -1    0    0  501    0  0.00000000000E+00  0.00000000000E+00  0.72866470469E+03  0.72866470471E+03  0.50400001928E-02 0. -1.
       -1   -1    0    0    0  501  0.00000000000E+00  0.00000000000E+00 -0.31305253579E+03  0.31305253583E+03  0.50400001928E-02 0.  1.
    10030    2    1    2    0    0  0.00000000000E+00  0.00000000000E+00  0.41561216890E+03  0.10417172405E+04  0.95521795120E+03 0.  0.
        5    1    3    3  502    0 -0.38017429763E+03  0.16153521696E+03 -0.53613548970E+02  0.41656047043E+03  0.46999998093E+01 0.  1.
       -5    1    3    3    0  502  0.38017429763E+03 -0.16153521696E+03  0.46922571787E+03  0.62515677010E+03  0.46999998093E+01 0. -1.
</event>
<event>
 5   0  0.9396660E-03  0.9794953E+03  0.7818609E-02  0.9331324E-01
        1   -1    0    0  501    0  0.00000000000E+00  0.00000000000E+00  0.12587747550E+04  0.12587747550E+04  0.50400001928E-02 0. -1.
       -1   -1    0    0    0  501  0.00000000000E+00  0.00000000000E+00 -0.19054461595E+03  0.19054461602E+03  0.50400001928E-02 0.  1.
    10030    2    1    2    0    0  0.00000000000E+00  0.00000000000E+00  0.10682301390E+04  0.14493193710E+04  0.97949528291E+03 0.  0.
        5    1    3    3  502    0  0.20188080274E+02 -0.48827406935E+03  0.48705499398E+03  0.68997375496E+03  0.46999998093E+01 0.  1.
       -5    1    3    3    0  502 -0.20188080274E+02  0.48827406935E+03  0.58117514503E+03  0.75934561603E+03  0.46999998093E+01 0. -1.
</event>
<event>
 5   0  0.1571895E-02  0.1010013E+04  0.7818609E-02  0.9297631E-01
       -2   -1    0    0    0  501  0.00000000000E+00  0.00000000000E+00  0.21211141916E+03  0.21211141918E+03  0.25500000920E-02 0.  1.
        2   -1    0    0  501    0  0.00000000000E+00  0.00000000000E+00 -0.12023465466E+04  0.12023465466E+04  0.25500000920E-02 0. -1.
    10030    2    1    2    0    0  0.00000000000E+00  0.00000000000E+00 -0.99023512742E+03  0.14144579658E+04  0.10100127372E+04 0.  0.
        2    1    3    3  502    0  0.45254889022E+03 -0.20902933593E+03 -0.60835101017E+03  0.78650156573E+03  0.25500000920E-02 0. -1.
       -2    1    3    3    0  502 -0.45254889022E+03  0.20902933593E+03 -0.38188411724E+03  0.62795640002E+03  0.25500000920E-02 0.  1.
</event>
<event>
 5   0  0.1000773E-02  0.9984095E+03  0.7818609E-02  0.9310291E-01
        1   -1    0    0  501    0  0.00000000000E+00  0.00000000000E+00  0.79180913291E+03  0.79180913292E+03  0.50400001928E-02 0. -1.
       -1   -1    0    0    0  501  0.00000000000E+00  0.00000000000E+00 -0.31472910962E+03  0.31472910966E+03  0.50400001928E-02 0.  1.
    10030    2    1    2    0    0  0.00000000000E+00  0.00000000000E+00  0.47708002329E+03  0.11065382426E+04  0.99840950199E+03 0.  0.
        3    1    3    3  502    0 -0.38029979118E+03  0.19362146955E+03 -0.48525282876E+02  0.42950194170E+03  0.10100000352E+00 0.  1.
       -3    1    3    3    0  502  0.38029979118E+03 -0.19362146955E+03  0.52560530617E+03  0.67703630088E+03  0.10100000352E+00 0. -1.
</event>
<event>
 5   0  0.9396660E-03  0.1011033E+04  0.7818609E-02  0.9296527E-01
       -1   -1    0    0    0  501  0.00000000000E+00  0.00000000000E+00  0.14361872929E+03  0.14361872938E+03  0.50400001928E-02 0. -1.
        1   -1    0    0  501    0  0.00000000000E+00  0.00000000000E+00 -0.17793410473E+04  0.17793410473E+04  0.50400001928E-02 0.  1.
    10030    2    1    2    0    0  0.00000000000E+00  0.00000000000E+00 -0.16357223180E+04  0.19229597767E+04  0.10110325421E+04 0.  0.
        5    1    3    3  502    0 -0.42671986303E+03 -0.21504021645E+03 -0.11314997018E+04  0.12282694335E+04  0.46999998093E+01 0. -1.
       -5    1    3    3    0  502  0.42671986303E+03  0.21504021645E+03 -0.50422261628E+03  0.69469034321E+03  0.46999998093E+01 0.  1.
</event>
<event>
 5   0  0.1617721E-02  0.9846201E+03  0.7818609E-02  0.9325576E-01
       -2   -1    0    0    0  501  0.00000000000E+00  0.00000000000E+00  0.30605475158E+03  0.30605475159E+03  0.25500000920E-02 0. -1.
        2   -1    0    0  501    0  0.00000000000E+00  0.00000000000E+00 -0.79191441231E+03  0.79191441231E+03  0.25500000920E-02 0.  1.
    10030    2    1    2    0    0  0.00000000000E+00  0.00000000000E+00 -0.48585966073E+03  0.10979691639E+04  0.98462006629E+03 0.  0.
        5    1    3    3  502    0 -0.23735639531E+03  0.31287129747E+03  0.88094650871E+02  0.40250374493E+03  0.46999998093E+01 0. -1.
       -5    1    3    3    0  502  0.23735639531E+03 -0.31287129747E+03 -0.57395431160E+03  0.69546541897E+03  0.46999998093E+01 0.  1.
</event>
<event>
 5   0  0.1598986E-02  0.9763424E+03  0.7818609E-02  0.9334879E-01
        2   -1    0    0  501    0  0.00000000000E+00  0.00000000000E+00  0.11314736631E+04  0.11314736631E+04  0.25500000920E-02 0.  1.
       -2   -1    0    0    0  501  0.00000000000E+00  0.00000000000E+00 -0.21062012504E+03  0.21062012505E+03  0.25500000920E-02 0. -1.
    10030    2    1    2    0    0  0.00000000000E+00  0.00000000000E+00  0.92085353808E+03  0.13420937882E+04  0.97634240799E+03 0.  0.
        3    1    3    3  502    0  0.18736717020E+03  0.17915773087E+03 -0.10818364676E+03  0.28090507405E+03  0.10100000352E+00 0. -1.
       -3    1    3    3    0  502 -0.18736717020E+03 -0.17915773087E+03  0.10290371848E+04  0.10611887141E+04  0.10100000352E+00 0.  1.
</event>
<event>
 5   0  0.9396660E-03  0.1008400E+04  0.7818609E-02  0.9299379E-01
       -1   -1    0    0    0  501  0.00000000000E+00  0.00000000000E+00  0.25030214915E+03  0.25030214920E+03  0.50400001928E-02 0.  1.
        1   -1    0    0  501    0  0.00000000000E+00  0.00000000000E+00 -0.10156437196E+04  0.10156437196E+04  0.50400001928E-02 0. -1.
    10030    2    1    2    0    0  0.00000000000E+00  0.00000000000E+00 -0.76534157043E+03  0.12659458688E+04  0.10084003289E+04 0.  0.
        5    1    3    3  502    0  0.16523566644E+03  0.88323199217E+02 -0.97028909663E+03  0.98822408088E+03  0.46999998093E+01 0. -1.
       -5    1    3    3    0  502 -0.16523566644E+03 -0.88323199217E+02  0.20494752621E+03  0.27772178791E+03  0.46999998093E+01 0.  1.
</event>
<event>
 5   0  0.1571895E-02  0.9732398E+03  0.7818609E-02  0.9338392E-01
        2   -1    0    0  501    0  0.00000000000E+00  0.00000000000E+00  0.10374176840E+04  0.10374176840E+04  0.25500000920E-02 0. -1.
       -2   -1    0    0    0  501  0.00000000000E+00  0.00000000000E+00 -0.22825803548E+03  0.22825803549E+03  0.25500000920E-02 0.  1.
    10030    2    1    2    0    0  0.00000000000E+00  0.00000000000E+00  0.80915964853E+03  0.12656757195E+04  0.97323979067E+03 0.  0.
        2    1    3    3  502    0 -0.46333885739E+02 -0.36853214885E+03 -0.42668783182E+01  0.37145791143E+03  0.25500000920E-02 0.  1.
       -2    1    3    3    0  502  0.46333885739E+02  0.36853214885E+03  0.81342652685E+03  0.89421780808E+03  0.25500000920E-02 0. -1.
</event>
<event>
 5   0  0.9507815E-03  0.1051889E+04  0.7818609E-02  0.9253396E-01
       -1   -1    0    0    0  501  0.00000000000E+00  0.00000000000E+00  0.30082086468E+03  0.30082086473E+03  0.50400001928E-02 0.  1.
        1   -1    0    0  501    0  0.00000000000E+00  0.00000000000E+00 -0.91954186162E+03  0.91954186163E+03  0.50400001928E-02 0. -1.
    10030    2    1    2    0    0  0.00000000000E+00  0.00000000000E+00 -0.61872099693E+03  0.12203627264E+04  0.10518885454E+04 0.  0.
        1    1    3    3  502    0 -0.31653641509E+03  0.50286365374E+02  0.17443375427E+03  0.36489882882E+03  0.50400001928E-02 0.  1.
       -1    1    3    3    0  502  0.31653641509E+03 -0.50286365374E+02 -0.79315475120E+03  0.85546389754E+03  0.50400001928E-02 0. -1.
</event>
<event>
 5   0  0.6314750E-03  0.1029708E+04  0.7818609E-02  0.9276548E-01
       -3   -1    0    0    0  501  0.00000000000E+00  0.00000000000E+00  0.68637255233E+03  0.68637255976E+03  0.10100000352E+00 0.  1.
        3   -1    0    0  501    0  0.00000000000E+00  0.00000000000E+00 -0.38619668902E+03  0.38619670223E+03  0.10100000352E+00 0. -1.
    10030    2    1    2    0    0  0.00000000000E+00  0.00000000000E+00  0.30017586331E+03  0.10725692620E+04  0.10297083436E+04 0.  0.
        1    1    3    3  502    0 -0.26961695430E+03  0.33209154954E+03  0.44853960276E+03  0.61981116043E+03  0.50400001928E-02 0.  1.
       -1    1    3    3    0  502  0.26961695430E+03 -0.33209154954E+03 -0.14836373945E+03  0.45275810157E+03  0.50400001928E-02 0. -1.
</event>
<event>
 5   0  0.1598986E-02  0.9858158E+03  0.7818609E-02  0.9324240E-01
        2   -1    0    0  501    0  0.00000000000E+00  0.00000000000E+00  0.53498101977E+03  0.53498101977E+03  0.25500000920E-02 0.  1.
       -2   -1    0    0    0  501  0.00000000000E+00  0.00000000000E+00 -0.45414355832E+03  0.45414355832E+03  0.25500000920E-02 0. -1.
    10030    2    1    2    0    0  0.00000000000E+00  0.00000000000E+00  0.80837461452E+02  0.98912457810E+03  0.98581577174E+03 0.  0.
        3    1    3    3  502    0 -0.17654061870E+03 -0.18584459677E+03 -0.38200905951E+03  0.46003884178E+03  0.10100000352E+00 0. -1.
       -3    1    3    3    0  502  0.17654061870E+03  0.18584459677E+03  0.46284652097E+03  0.52908573631E+03  0.10100000352E+00 0.  1.
</event>
<event>
 5   0  0.9759443E-03  0.1002171E+04  0.7818609E-02  0.9306167E-01
       -1   -1    0    0    0  501  0.00000000000E+00  0.00000000000E+00  0.37625415487E+03  0.37625415490E+03  0.50400001928E-02 0.  1.
        1   -1    0    0  501    0  0.00000000000E+00  0.00000000000E+00 -0.66733227911E+03  0.66733227913E+03  0.50400001928E-02 0. -1.
    10030    2    1    2    0    0  0.00000000000E+00  0.00000000000E+00 -0.29107812424E+03  0.10435864340E+04  0.10021707294E+04 0.  0.
        2    1    3    3  502    0 -0.10391676683E+03 -0.38636631862E+03  0.16860487465E+03  0.43417189033E+03  0.25500000920E-02 0.  1.
       -2    1    3    3    0  502  0.10391676683E+03  0.38636631862E+03 -0.45968299889E+03  0.60941454369E+03  0.25500000920E-02 0. -1.
</event>
<event>
 5   0  0.1000773E-02  0.9400845E+03  0.7818609E-02  0.9376816E-01
        1   -1    0    0  501    0  0.00000000000E+00  0.00000000000E+00  0.97753617834E+03  0.97753617835E+03  0.50400001928E-02 0.  1.
       -1   -1    0    0    0  501  0.00000000000E+00  0.00000000000E+00 -0.22601691074E+03  0.22601691080E+03  0.50400001928E-02 0. -1.
    10030    2    1    2    0    0  0.00000000000E+00  0.00000000000E+00  0.75151926760E+03  0.12035530891E+04  0.94008447962E+03 0.  0.
        3    1    3    3  502    0 -0.11319676943E+03 -0.56558968905E+02  0.95531942589E+03  0.96366365567E+03  0.10100000352E+00 0.  1.
       -3    1    3    3    0  502  0.11319676943E+03  0.56558968905E+02 -0.20380015829E+03  0.23988943348E+03  0.10100000352E+00 0. -1.
</event>
<event>
 5   0  0.9396660E-03  0.1010868E+04  0.7818609E-02  0.9296705E-01
        1   -1    0    0  501    0  0.00000000000E+00  0.00000000000E+00  0.49474220385E+03  0.49474220387E+03  0.50400001928E-02 0.  1.
       -1   -1    0    0    0  501  0.00000000000E+00  0.00000000000E+00 -0.51635662878E+03  0.51635662880E+03  0.50400001928E-02 0. -1.
    10030    2    1    2    0    0  0.00000000000E+00  0.00000000000E+00 -0.21614424930E+02  0.10110988327E+04  0.10108677787E+04 0.  0.
        5    1    3    3  502    0  0.14539955181E+03  0.18591951813E+03 -0.45782572051E+03  0.51510540401E+03  0.46999998093E+01 0. -1.
       -5    1    3    3    0  502 -0.14539955181E+03 -0.18591951813E+03  0.43621129558E+03  0.49599342866E+03  0.46999998093E+01 0.  1.
</event>
<event>
 5   0  0.9759443E-03  0.9996110E+03  0.7818609E-02  0.9308972E-01
       -1   -1    0    0    0  501  0.00000000000E+00  0.00000000000E+00  0.30196773017E+03  0.30196773021E+03  0.50400001928E-02 0.  1.
        1   -1    0    0  501    0  0.00000000000E+00  0.00000000000E+00 -0.82725906290E+03  0.82725906291E+03  0.50400001928E-02 0. -1.
    10030    2    1    2    0    0  0.00000000000E+00  0.00000000000E+00 -0.52529133273E+03  0.11292267931E+04  0.99961100738E+03 0.  0.
        2    1    3    3  502    0 -0.48453149763E+03  0.10897070705E+03 -0.19914119718E+03  0.53507252182E+03  0.25500000920E-02 0.  1.
       -2    1    3    3    0  502  0.48453149763E+03 -0.10897070705E+03 -0.32615013555E+03  0.59415427130E+03  0.25500000920E-02 0. -1.
</event>
<event>
 5   0  0.1656859E-02  0.9966536E+03  0.7818609E-02  0.9312223E-01
        2   -1    0    0  501    0  0.00000000000E+00  0.00000000000E+00  0.44669326728E+03  0.44669326729E+03  0.25500000920E-02 0. -1.
       -2   -1    0    0    0  501  0.00000000000E+00  0.00000000000E+00 -0.55592871711E+03  0.55592871712E+03  0.25500000920E-02 0.  1.
    10030    2    1    2    0    0  0.00000000000E+00  0.00000000000E+00 -0.10923544983E+03  0.10026219844E+04  0.99665363097E+03 0.  0.
        4    1    3    3  502    0  0.39862976339E+03 -0.14447203977E+02  0.24585737141E+03  0.46857429501E+03  0.12699999809E+01 0. -1.
       -4    1    3    3    0  502 -0.39862976339E+03  0.14447203977E+02 -0.35509282124E+03  0.53404768940E+03  0.12699999809E+01 0.  1.
</event>
<event>
 5   0  0.9471140E-03  0.9734167E+03  0.7818609E-02  0.9338191E-01
       -1   -1    0    0    0  501  0.00000000000E+00  0.00000000000E+00  0.45268607271E+03  0.45268607274E+03  0.50400001928E-02 0.  1.
        1   -1    0    0  501    0  0.00000000000E+00  0.00000000000E+00 -0.52328763092E+03  0.52328763095E+03  0.50400001928E-02 0. -1.
    10030    2    1    2    0    0  0.00000000000E+00  0.00000000000E+00 -0.70601558208E+02  0.97597370369E+03  0.97341670947E+03 0.  0.
        4    1    3    3  502    0  0.26158651329E+03 -0.26464292176E+03 -0.34984453277E+03  0.51074082467E+03  0.12699999809E+01 0. -1.
       -4    1    3    3    0  502 -0.26158651329E+03  0.26464292176E+03  0.27924297457E+03  0.46523287902E+03  0.12699999809E+01 0.  1.
</event>
<event>
 5   0  0.1000773E-02  0.1015480E+04  0.7818609E-02  0.9291728E-01
        1   -1    0    0  501    0  0.00000000000E+00  0.00000000000E+00  0.50457012610E+03  0.50457012613E+03  0.50400001928E-02 0. -1.
       -1   -1    0    0    0  501  0.00000000000E+00  0.00000000000E+00 -0.51092968013E+03  0.51092968015E+03  0.50400001928E-02 0.  1.
    10030    2    1    2    0    0  0.00000000000E+00  0.00000000000E+00 -0.63595540249E+01  0.10154998063E+04  0.10154798928E+04 0.  0.
        3    1    3    3  502    0 -0.29754237514E+03  0.10845662167E+02  0.40810769387E+03  0.50517422083E+03  0.10100000352E+00 0. -1.
       -3    1    3    3    0  502  0.29754237514E+03 -0.10845662167E+02 -0.41446724790E+03  0.51032558545E+03  0.10100000352E+00 0.  1.
</event>
<event>
 5   0  0.6314750E-03  0.1105637E+04  0.7818609E-02  0.9199715E-01
       -4   -1    0    0    0  501  0.00000000000E+00  0.00000000000E+00  0.50018327419E+03  0.50018488650E+03  0.12699999809E+01 0. -1.
        4   -1    0    0  501    0  0.00000000000E+00  0.00000000000E+00 -0.61098890718E+03  0.61099022709E+03  0.12699999809E+01 0.  1.
    10030    2    1    2    0    0  0.00000000000E+00  0.00000000000E+00 -0.11080563299E+03  0.11111751136E+04  0.11056365790E+04 0.  0.
        4    1    3    3  502    0  0.48937546097E+02  0.40973427649E+03 -0.42511704590E+03  0.59245521043E+03  0.12699999809E+01 0.  1.
       -4    1    3    3    0  502 -0.48937546097E+02 -0.40973427649E+03  0.31431141291E+03  0.51871990316E+03  0.12699999809E+01 0. -1.
</event>
<event>
 5   0  0.1663497E-02  0.1082590E+04  0.7818609E-02  0.9222329E-01
       -2   -1    0    0    0  501  0.00000000000E+00  0.00000000000E+00  0.46836971937E+03  0.46836971938E+03  0.25500000920E-02 0.  1.
        2   -1    0    0  501    0  0.00000000000E+00  0.00000000000E+00 -0.62557420006E+03  0.62557420007E+03  0.25500000920E-02 0. -1.
    10030    2    1    2    0    0  0.00000000000E+00  0.00000000000E+00 -0.15720448069E+03  0.10939439194E+04  0.10825895114E+04 0.  0.
        1    1    3    3  502    0  0.25987643338E+03  0.32238525620E+03 -0.43087297351E+03  0.59759479028E+03  0.50400001928E-02 0. -1.
       -1    1    3    3    0  502 -0.25987643338E+03 -0.32238525620E+03  0.27366849282E+03  0.49634912917E+03  0.50400001928E-02 0.  1.
</event>
<event>
 5   0  0.1598986E-02  0.1030562E+04  0.7818609E-02  0.9275646E-01
       -2   -1    0    0    0  501  0.00000000000E+00  0.00000000000E+00  0.22595676989E+03  0.22595676990E+03  0.25500000920E-02 0. -1.
        2   -1    0    0  501    0  0.00000000000E+00  0.00000000000E+00 -0.11750676079E+04  0.11750676079E+04  0.25500000920E-02 0.  1.
    10030    2    1    2    0    0  0.00000000000E+00  0.00000000000E+00 -0.94911083799E+03  0.14010243778E+04  0.10305619459E+04 0.  0.
        3    1    3    3  502    0  0.41126360864E+03  0.24673881159E+03 -0.21842248702E+03  0.52699733393E+03  0.10100000352E+00 0. -1.
       -3    1    3    3    0  502 -0.41126360864E+03 -0.24673881159E+03 -0.73068835097E+03  0.87402704385E+03  0.10100000352E+00 0.  1.
</event>
<event>
 5   0  0.1598986E-02  0.8763249E+03  0.7818609E-02  0.9455670E-01
       -2   -1    0    0    0  501  0.00000000000E+00  0.00000000000E+00  0.85353856288E+02  0.85353856326E+02  0.25500000920E-02 0.  1.
        2   -1    0    0  501    0  0.00000000000E+00  0.00000000000E+00 -0.22492989184E+04  0.22492989184E+04  0.25500000920E-02 0. -1.
    10030    2    1    2    0    0  0.00000000000E+00  0.00000000000E+00 -0.21639450621E+04  0.23346527748E+04  0.87632490933E+03 0.  0.
        3    1    3    3  502    0 -0.28738484382E+03 -0.19440745866E+03 -0.36908704430E+03  0.50656644669E+03  0.10100000352E+00 0.  1.
       -3    1    3    3    0  502  0.28738484382E+03  0.19440745866E+03 -0.17948580178E+04  0.18280863281E+04  0.10100000352E+00 0. -1.
</event>
<event>
 5   0  0.9471140E-03  0.9875742E+03  0.7818609E-02  0.9322279E-01
       -1   -1    0    0    0  501  0.00000000000E+00  0.00000000000E+00  0.29251460692E+03  0.29251460697E+03  0.50400001928E-02 0.  1.
        1   -1    0    0  501    0  0.00000000000E+00  0.00000000000E+00 -0.83355056765E+03  0.83355056767E+03  0.50400001928E-02 0. -1.
    10030    2    1    2    0    0  0.00000000000E+00  0.00000000000E+00 -0.54103596073E+03  0.11260651746E+04  0.98757423353E+03 0.  0.
        4    1    3    3  502    0  0.46174806477E+03  0.16302632451E+03 -0.34294969795E+03  0.59783356047E+03  0.12699999809E+01 0. -1.
       -4    1    3    3    0  502 -0.46174806477E+03 -0.16302632451E+03 -0.19808626278E+03  0.52823161417E+03  0.12699999809E+01 0.  1.
</event>
<event>
 5   0  0.1663497E-02  0.9876404E+03  0.7818609E-02  0.9322205E-01
       -2   -1    0    0    0  501  0.00000000000E+00  0.00000000000E+00  0.35475452733E+03  0.35475452734E+03  0.25500000920E-02 0.  1.
        2   -1    0    0  501    0  0.00000000000E+00  0.00000000000E+00 -0.68740034528E+03  0.68740034528E+03  0.25500000920E-02 0. -1.
    10030    2    1    2    0    0  0.00000000000E+00  0.00000000000E+00 -0.33264581794E+03  0.10421548726E+04  0.98764038918E+03 0.  0.
        1    1    3    3  502    0  0.35393549605E+03 -0.31460932915E+03 -0.18561386434E+02  0.47391337863E+03  0.50400001928E-02 0.  1.
       -1    1    3    3    0  502 -0.35393549605E+03  0.31460932915E+03 -0.31408443151E+03  0.56824149399E+03  0.50400001928E-02 0. -1.
</event>
<event>
 5   0  0.9759443E-03  0.9756960E+03  0.7818609E-02  0.9335610E-01
        1   -1    0    0  501    0  0.00000000000E+00  0.00000000000E+00  0.14556045671E+03  0.14556045680E+03  0.50400001928E-02 0. -1.
       -1   -1    0    0    0  501  0.00000000000E+00  0.00000000000E+00 -0.16350296583E+04  0.16350296583E+04  0.50400001928E-02 0.  1.
    10030    2    1    2    0    0  0.00000000000E+00  0.00000000000E+00 -0.14894692016E+04  0.17805901151E+04  0.97569598520E+03 0.  0.
        2    1    3    3  502    0  0.36271308416E+03 -0.10457829495E+03 -0.18077606335E+03  0.41854197673E+03  0.25500000920E-02 0. -1.
       -2    1    3    3    0  502 -0.36271308416E+03  0.10457829495E+03 -0.13086931382E+04  0.13620481384E+04  0.25500000920E-02 0.  1.
</event>
<event>
 5   0  0.9507815E-03  0.1003543E+04  0.7818609E-02  0.9304667E-01
        1   -1    0    0  501    0  0.00000000000E+00  0.00000000000E+00  0.18632764751E+03  0.18632764758E+03  0.50400001928E-02 0. -1.
       -1   -1    0    0    0  501  0.00000000000E+00  0.00000000000E+00 -0.13512475922E+04  0.13512475922E+04  0.50400001928E-02 0.  1.
    10030    2    1    2    0    0  0.00000000000E+00  0.00000000000E+00 -0.11649199447E+04  0.15375752398E+04  0.10035432928E+04 0.  0.
        1    1    3    3  502    0 -0.42693691985E+02 -0.49187445955E+03 -0.71959819989E+03  0.87268826313E+03  0.50400001928E-02 0.  1.
       -1    1    3    3    0  502  0.42693691985E+02  0.49187445955E+03 -0.44532174477E+03  0.66488697663E+03  0.50400001928E-02 0. -1.
</event>
<event>
 5   0  0.9396660E-03  0.9867148E+03  0.7818609E-02  0.9323237E-01
       -1   -1    0    0    0  501  0.00000000000E+00  0.00000000000E+00  0.19755939984E+03  0.19755939990E+03  0.50400001928E-02 0. -1.
        1   -1    0    0  501    0  0.00000000000E+00  0.00000000000E+00 -0.12320421284E+04  0.12320421284E+04  0.50400001928E-02 0.  1.
    10030    2    1    2    0    0  0.00000000000E+00  0.00000000000E+00 -0.10344827286E+04  0.14296015283E+04  0.98671475822E+03 0.  0.
        5    1    3    3  502    0  0.11330013451E+03  0.37265358643E+03 -0.95591471662E+03  0.10322318787E+04  0.46999998093E+01 0.  1.
       -5    1    3    3    0  502 -0.11330013451E+03 -0.37265358643E+03 -0.78568011977E+02  0.39736964965E+03  0.46999998093E+01 0. -1.
</event>
<event>
 5   0  0.1571895E-02  0.9824271E+03  0.7818609E-02  0.9328031E-01
       -2   -1    0    0    0  501  0.00000000000E+00  0.00000000000E+00  0.26754598506E+03  0.26754598508E+03  0.25500000920E-02 0.  1.
        2   -1    0    0  501    0  0.00000000000E+00  0.00000000000E+00 -0.90186646214E+03  0.90186646214E+03  0.25500000920E-02 0. -1.
    10030    2    1    2    0    0  0.00000000000E+00  0.00000000000E+00 -0.63432047707E+03  0.11694124472E+04  0.98242709860E+03 0.  0.
        2    1    3    3  502    0  0.36629250385E+03  0.30217196124E+03 -0.46684232365E+03  0.66589777571E+03  0.25500000920E-02 0.  1.
       -2    1    3    3    0  502 -0.36629250385E+03 -0.30217196124E+03 -0.16747815342E+03  0.50351467150E+03  0.25500000920E-02 0. -1.
</event>
<event>
 5   0  0.1663497E-02  0.9914308E+03  0.7818609E-02  0.9317994E-01
        2   -1    0    0  501    0  0.00000000000E+00  0.00000000000E+00  0.15917539515E+04  0.15917539515E+04  0.25500000920E-02 0. -1.
       -2   -1    0    0    0  501  0.00000000000E+00  0.00000000000E+00 -0.15437924869E+03  0.15437924871E+03  0.25500000920E-02 0.  1.
    10030    2    1    2    0    0  0.00000000000E+00  0.00000000000E+00  0.14373747029E+04  0.17461332003E+04  0.99143084309E+03 0.  0.
        1    1    3    3  502    0 -0.41359663881E+03  0.24456282032E+03  0.50398663056E+03  0.69633014908E+03  0.50400001928E-02 0. -1.
       -1    1    3    3    0  502  0.41359663881E+03 -0.24456282032E+03  0.93338807230E+03  0.10498030512E+04  0.50400001928E-02 0.  1.
</event>
<event>
 5   0  0.1617721E-02  0.5958481E+03  0.7818609E-02  0.9914058E-01
       -2   -1    0    0    0  501  0.00000000000E+00  0.00000000000E+00  0.77571020909E+02  0.77571020951E+02  0.25500000920E-02 0.  1.
        2   -1    0    0  501    0  0.00000000000E+00  0.00000000000E+00 -0.11442255524E+04  0.11442255524E+04  0.25500000920E-02 0. -1.
    10030    2    1    2    0    0  0.00000000000E+00  0.00000000000E+00 -0.10666545315E+04  0.12217965733E+04  0.59584811580E+03 0.  0.
        5    1    3    3  502    0  0.10349917116E+03  0.89976392309E+02  0.89126036469E+01  0.13751128719E+03  0.46999998093E+01 0.  1.
       -5    1    3    3    0  502 -0.10349917116E+03 -0.89976392309E+02 -0.10755671351E+04  0.10842852861E+04  0.46999998093E+01 0. -1.
</event>
<event>
 5   0  0.6314750E-03  0.1039679E+04  0.7818609E-02  0.9266065E-01
        3   -1    0    0  501    0  0.00000000000E+00  0.00000000000E+00  0.44095032746E+03  0.44095033902E+03  0.10100000352E+00 0.  1.
       -3   -1    0    0    0  501  0.00000000000E+00  0.00000000000E+00 -0.61284287203E+03  0.61284288036E+03  0.10100000352E+00 0. -1.
    10030    2    1    2    0    0  0.00000000000E+00  0.00000000000E+00 -0.17189254458E+03  0.10537932194E+04  0.10396793267E+04 0.  0.
        4    1    3    3  502    0  0.51247660324E+02  0.31667318585E+03 -0.50055111939E+03  0.59452608467E+03  0.12699999809E+01 0. -1.
       -4    1    3    3    0  502 -0.51247660324E+02 -0.31667318585E+03  0.32865857481E+03  0.45926713471E+03  0.12699999809E+01 0.  1.
</event>
<event>
 5   0  0.6314750E-03  0.9758325E+03  0.7818609E-02  0.9335456E-01
       -4   -1    0    0    0  501  0.00000000000E+00  0.00000000000E+00  0.27833016258E+03  0.27833306002E+03  0.12699999809E+01 0. -1.
        4   -1    0    0  501    0  0.00000000000E+00  0.00000000000E+00 -0.85531547816E+03  0.85531642103E+03  0.12699999809E+01 0.  1.
    10030    2    1    2    0    0  0.00000000000E+00  0.00000000000E+00 -0.57698531558E+03  0.11336494810E+04  0.97583251201E+03 0.  0.
        4    1    3    3  502    0  0.16178779713E+03  0.28712989106E+03 -0.70645848204E+03  0.77955376042E+03  0.12699999809E+01 0.  1.
       -4    1    3    3    0  502 -0.16178779713E+03 -0.28712989106E+03  0.12947316646E+03  0.35409572063E+03  0.12699999809E+01 0. -1.
</event>
<event>
 5   0  0.1656859E-02  0.9777835E+03  0.7818609E-02  0.9333253E-01
        2   -1    0    0  501    0  0.00000000000E+00  0.00000000000E+00  0.19342708097E+04  0.19342708097E+04  0.25500000920E-02 0.  1.
       -2   -1    0    0    0  501  0.00000000000E+00  0.00000000000E+00 -0.12356860367E+03  0.12356860370E+03  0.25500000920E-02 0. -1.
    10030    2    1    2    0    0  0.00000000000E+00  0.00000000000E+00  0.18107022061E+04  0.20578394134E+04  0.97778349978E+03 0.  0.
        4    1    3    3  502    0  0.25304111659E+03 -0.30844807442E+03  0.15000382937E+04  0.15521876552E+04  0.12699999809E+01 0.  1.
       -4    1    3    3    0  502 -0.25304111659E+03  0.30844807442E+03  0.31066391230E+03  0.50565175824E+03  0.12699999809E+01 0. -1.
</event>
<event>
 5   0  0.1663497E-02  0.9987037E+03  0.7818609E-02  0.9309968E-01
       -2   -1    0    0    0  501  0.00000000000E+00  0.00000000000E+00  0.72125066670E+03  0.72125066671E+03  0.25500000920E-02 0.  1.
        2   -1    0    0  501    0  0.00000000000E+00  0.00000000000E+00 -0.34572207159E+03  0.34572207160E+03  0.25500000920E-02 0. -1.
    10030    2    1    2    0    0  0.00000000000E+00  0.00000000000E+00  0.37552859512E+03  0.10669727383E+04  0.99870370908E+03 0.  0.
        1    1    3    3  502    0 -0.27701554065E+03 -0.39916536907E+03  0.64640202436E+02  0.49015197380E+03  0.50400001928E-02 0.  1.
       -1    1    3    3    0  502  0.27701554065E+03  0.39916536907E+03  0.31088839268E+03  0.57682076450E+03  0.50400001928E-02 0. -1.
</event>
<event>
 5   0  0.9471140E-03  0.9546962E+03  0.7818609E-02  0.9359678E-01
       -1   -1    0    0    0  501  0.00000000000E+00  0.00000000000E+00  0.62425681974E+03  0.62425681976E+03  0.50400001928E-02 0. -1.
        1   -1    0    0  501    0  0.00000000000E+00  0.00000000000E+00 -0.36501193023E+03  0.36501193026E+03  0.50400001928E-02 0.  1.
    10030    2    1    2    0    0  0.00000000000E+00  0.00000000000E+00  0.25924488951E+03  0.98926875003E+03  0.95469615430E+03 0.  0.
        4    1    3    3  502    0  0.46041040588E+03  0.69973922753E+02  0.23822966011E+03  0.52309566578E+03  0.12699999809E+01 0. -1.
       -4    1    3    3    0  502 -0.46041040588E+03 -0.69973922753E+02  0.21015229402E+02  0.46617308424E+03  0.12699999809E+01 0.  1.
</event>
<event>
 5   0  0.9396660E-03  0.1003522E+04  0.7818609E-02  0.9304691E-01
       -1   -1    0    0    0  501  0.00000000000E+00  0.00000000000E+00  0.21292133064E+03  0.21292133070E+03  0.50400001928E-02 0.  1.
        1   -1    0    0  501    0  0.00000000000E+00  0.00000000000E+00 -0.11824269661E+04  0.11824269661E+04  0.50400001928E-02 0. -1.
    10030    2    1    2    0    0  0.00000000000E+00  0.00000000000E+00 -0.96950563548E+03  0.13953482968E+04  0.10035216451E+04 0.  0.
        5    1    3    3  502    0 -0.17197085342E+03  0.41650991319E+03 -0.79155889267E+03  0.91084688767E+03  0.46999998093E+01 0. -1.
       -5    1    3    3    0  502  0.17197085342E+03 -0.41650991319E+03 -0.17794674281E+03  0.48450140917E+03  0.46999998093E+01 0.  1.
</event>
<event>
 5   0  0.1617721E-02  0.1022504E+04  0.7818609E-02  0.9284202E-01
       -2   -1    0    0    0  501  0.00000000000E+00  0.00000000000E+00  0.49263618332E+03  0.49263618333E+03  0.25500000920E-02 0. -1.
        2   -1    0    0  501    0  0.00000000000E+00  0.00000000000E+00 -0.53057089606E+03  0.53057089607E+03  0.25500000920E-02 0.  1.
    10030    2    1    2    0    0  0.00000000000E+00  0.00000000000E+00 -0.37934712735E+02  0.10232070794E+04  0.10225036356E+04 0.  0.
        5    1    3    3  502    0  0.31814506337E+03  0.39810494149E+03 -0.59646342901E+02  0.51311168570E+03  0.46999998093E+01 0.  1.
       -5    1    3    3    0  502 -0.31814506337E+03 -0.39810494149E+03  0.21711630165E+02  0.51009539369E+03  0.46999998093E+01 0. -1.
</event>
<event>
 5   0  0.1617721E-02  0.1011155E+04  0.7818609E-02  0.9296394E-01
        2   -1    0    0  501    0  0.00000000000E+00  0.00000000000E+00  0.51582045650E+03  0.51582045651E+03  0.25500000920E-02 0.  1.
       -2   -1    0    0    0  501  0.00000000000E+00  0.00000000000E+00 -0.49553808307E+03  0.49553808308E+03  0.25500000920E-02 0. -1.
    10030    2    1    2    0    0  0.00000000000E+00  0.00000000000E+00  0.20282373427E+02  0.10113585396E+04  0.10111551419E+04 0.  0.
        5    1    3    3  502    0 -0.17298594066E+02 -0.55507504032E+02 -0.49216125264E+03  0.49560580400E+03  0.46999998093E+01 0. -1.
       -5    1    3    3    0  502  0.17298594066E+02  0.55507504032E+02  0.51244362607E+03  0.51575273558E+03  0.46999998093E+01 0.  1.
</event>
<event>
 5   0  0.1617721E-02  0.9618460E+03  0.7818609E-02  0.9351411E-01
       -2   -1    0    0    0  501  0.00000000000E+00  0.00000000000E+00  0.44191487559E+03  0.44191487560E+03  0.25500000920E-02 0. -1.
        2   -1    0    0  501    0  0.00000000000E+00  0.00000000000E+00 -0.52337438248E+03  0.52337438248E+03  0.25500000920E-02 0.  1.
    10030    2    1    2    0    0  0.00000000000E+00  0.00000000000E+00 -0.81459506886E+02  0.96528925808E+03  0.96184598585E+03 0.  0.
        5    1    3    3  502    0 -0.31575685677E+03  0.29657219305E+03  0.16884159988E+03  0.46495917470E+03  0.46999998093E+01 0. -1.
       -5    1    3    3    0  502  0.31575685677E+03 -0.29657219305E+03 -0.25030110676E+03  0.50033008338E+03  0.46999998093E+01 0.  1.
</event>
<event>
 5   0  0.1656859E-02  0.9901886E+03  0.7818609E-02  0.9319372E-01
       -2   -1    0    0    0  501  0.00000000000E+00  0.00000000000E+00  0.16218155734E+03  0.16218155736E+03  0.25500000920E-02 0.  1.
        2   -1    0    0  501    0  0.00000000000E+00  0.00000000000E+00 -0.15113823593E+04  0.15113823593E+04  0.25500000920E-02 0. -1.
    10030    2    1    2    0    0  0.00000000000E+00  0.00000000000E+00 -0.13492008019E+04  0.16735639166E+04  0.99018855735E+03 0.  0.
        4    1    3    3  502    0  0.25541351278E+03 -0.25911108314E+03 -0.12421025245E+04  0.12942932088E+04  0.12699999809E+01 0. -1.
       -4    1    3    3    0  502 -0.25541351278E+03  0.25911108314E+03 -0.10709827739E+03  0.37927070785E+03  0.12699999809E+01 0.  1.
</event>
<event>
 5   0  0.1656859E-02  0.9986155E+03  0.7818609E-02  0.9310065E-01
       -2   -1    0    0    0  501  0.00000000000E+00  0.00000000000E+00  0.41049957329E+03  0.41049957330E+03  0.25500000920E-02 0.  1.
        2   -1    0    0  501    0  0.00000000000E+00  0.00000000000E+00 -0.60732884784E+03  0.60732884784E+03  0.25500000920E-02 0. -1.
    10030    2    1    2    0    0  0.00000000000E+00  0.00000000000E+00 -0.19682927455E+03  0.10178284211E+04  0.99861550737E+03 0.  0.
        4    1    3    3  502    0 -0.17708975641E+03  0.76309578303E+02  0.37101426706E+03  0.41813530445E+03  0.12699999809E+01 0.  1.
       -4    1    3    3    0  502  0.17708975641E+03 -0.76309578303E+02 -0.56784354160E+03  0.59969311669E+03  0.12699999809E+01 0. -1.
</event>
<event>
 5   0  0.9396660E-03  0.9818433E+03  0.7818609E-02  0.9328686E-01
        1   -1    0    0  501    0  0.00000000000E+00  0.00000000000E+00  0.13167804003E+04  0.13167804003E+04  0.50400001928E-02 0.  1.
       -1   -1    0    0    0  501  0.00000000000E+00  0.00000000000E+00 -0.18302525156E+03  0.18302525163E+03  0.50400001928E-02 0. -1.
    10030    2    1    2    0    0  0.00000000000E+00  0.00000000000E+00  0.11337551487E+04  0.14998056520E+04  0.98184329520E+03 0.  0.
        5    1    3    3  502    0  0.46083496136E+03  0.15857693592E+03  0.65681416015E+03  0.81788901276E+03  0.46999998093E+01 0.  1.
       -5    1    3    3    0  502 -0.46083496136E+03 -0.15857693592E+03  0.47694098859E+03  0.68191663920E+03  0.46999998093E+01 0. -1.
</event>
<event>
 5   0  0.1598986E-02  0.1094040E+04  0.7818609E-02  0.9211020E-01
        2   -1    0    0  501    0  0.00000000000E+00  0.00000000000E+00  0.48538209234E+03  0.48538209235E+03  0.25500000920E-02 0.  1.
       -2   -1    0    0    0  501  0.00000000000E+00  0.00000000000E+00 -0.61648535593E+03  0.61648535593E+03  0.25500000920E-02 0. -1.
    10030    2    1    2    0    0  0.00000000000E+00  0.00000000000E+00 -0.13110326359E+03  0.11018674483E+04  0.10940401308E+04 0.  0.
        3    1    3    3  502    0 -0.32078270556E+03 -0.22530695876E+03 -0.44981265155E+03  0.59665417249E+03  0.10100000352E+00 0. -1.
       -3    1    3    3    0  502  0.32078270556E+03  0.22530695876E+03  0.31870938796E+03  0.50521327579E+03  0.10100000352E+00 0.  1.
</event>
<event>
 5   0  0.1571895E-02  0.1191417E+04  0.7818609E-02  0.9120403E-01
        2   -1    0    0  501    0  0.00000000000E+00  0.00000000000E+00  0.18796401024E+04  0.18796401024E+04  0.25500000920E-02 0.  1.
       -2   -1    0    0    0  501  0.00000000000E+00  0.00000000000E+00 -0.18879600483E+03  0.18879600484E+03  0.25500000920E-02 0. -1.
    10030    2    1    2    0    0  0.00000000000E+00  0.00000000000E+00  0.16908440975E+04  0.20684361072E+04  0.11914168739E+04 0.  0.
        2    1    3    3  502    0 -0.64656767964E+00 -0.59546325002E+03  0.81577351909E+03  0.10099818487E+04  0.25500000920E-02 0.  1.
       -2    1    3    3    0  502  0.64656767964E+00  0.59546325002E+03  0.87507057843E+03  0.10584542585E+04  0.25500000920E-02 0. -1.
</event>
<event>
 5   0  0.9507815E-03  0.1017537E+04  0.7818609E-02  0.9289517E-01
        1   -1    0    0  501    0  0.00000000000E+00  0.00000000000E+00  0.11747991401E+04  0.11747991401E+04  0.50400001928E-02 0. -1.
       -1   -1    0    0    0  501  0.00000000000E+00  0.00000000000E+00 -0.22033167236E+03  0.22033167241E+03  0.50400001928E-02 0.  1.
    10030    2    1    2    0    0  0.00000000000E+00  0.00000000000E+00  0.95446746774E+03  0.13951308125E+04  0.10175371428E+04 0.  0.
        1    1    3    3  502    0 -0.19870927796E+03  0.46670412458E+03  0.53116713929E+03  0.73446350961E+03  0.50400001928E-02 0. -1.
       -1    1    3    3    0  502  0.19870927796E+03 -0.46670412458E+03  0.42330032845E+03  0.66066730292E+03  0.50400001928E-02 0.  1.
</event>
<event>
 5   0  0.1617721E-02  0.9742208E+03  0.7818609E-02  0.9337280E-01
        2   -1    0    0  501    0  0.00000000000E+00  0.00000000000E+00  0.16744113322E+04  0.16744113322E+04  0.25500000920E-02 0.  1.
       -2   -1    0    0    0  501  0.00000000000E+00  0.00000000000E+00 -0.14170744925E+03  0.14170744927E+03  0.25500000920E-02 0. -1.
    10030    2    1    2    0    0  0.00000000000E+00  0.00000000000E+00  0.15327038830E+04  0.18161187815E+04  0.97422083512E+03 0.  0.
        5    1    3    3  502    0 -0.26025658946E+03 -0.34760074287E+03  0.11777172693E+04  0.12552289931E+04  0.46999998093E+01 0.  1.
       -5    1    3    3    0  502  0.26025658946E+03  0.34760074287E+03  0.35498661370E+03  0.56088978838E+03  0.46999998093E+01 0. -1.
</event>
<event>
 5   0  0.1571895E-02  0.1068573E+04  0.7818609E-02  0.9236376E-01
       -2   -1    0    0    0  501  0.00000000000E+00  0.00000000000E+00  0.31894218037E+03  0.31894218038E+03  0.25500000920E-02 0.  1.
        2   -1    0    0  501    0  0.00000000000E+00  0.00000000000E+00 -0.89502820122E+03  0.89502820123E+03  0.25500000920E-02 0. -1.
    10030    2    1    2    0    0  0.00000000000E+00  0.00000000000E+00 -0.57608602085E+03  0.12139703816E+04  0.10685733405E+04 0.  0.
        2    1    3    3  502    0  0.12092436586E+03 -0.12706583059E+03 -0.86138395597E+03  0.87906242507E+03  0.25500000920E-02 0. -1.
       -2    1    3    3    0  502 -0.12092436586E+03  0.12706583059E+03  0.28529793512E+03  0.33490795654E+03  0.25500000920E-02 0.  1.
</event>
<event>
 5   0  0.9507815E-03  0.9797899E+03  0.7818609E-02  0.9330993E-01
       -1   -1    0    0    0  501  0.00000000000E+00  0.00000000000E+00  0.25863063332E+03  0.25863063337E+03  0.50400001928E-02 0.  1.
        1   -1    0    0  501    0  0.00000000000E+00  0.00000000000E+00 -0.92795303978E+03  0.92795303979E+03  0.50400001928E-02 0. -1.
    10030    2    1    2    0    0  0.00000000000E+00  0.00000000000E+00 -0.66932240646E+03  0.11865836732E+04  0.97978994158E+03 0.  0.
        1    1    3    3  502    0 -0.34790231468E+03  0.12867058761E+02 -0.75207364285E+03  0.82874383621E+03  0.50400001928E-02 0. -1.
       -1    1    3    3    0  502  0.34790231468E+03 -0.12867058761E+02  0.82751236389E+02  0.35783983695E+03  0.50400001928E-02 0.  1.
</event>
<event>
 5   0  0.1617721E-02  0.8784318E+03  0.7818609E-02  0.9452952E-01
        2   -1    0    0  501    0  0.00000000000E+00  0.00000000000E+00  0.21106296583E+04  0.21106296583E+04  0.25500000920E-02 0.  1.
       -2   -1    0    0    0  501  0.00000000000E+00  0.00000000000E+00 -0.91399554885E+02  0.91399554921E+02  0.25500000920E-02 0. -1.
    10030    2    1    2    0    0  0.00000000000E+00  0.00000000000E+00  0.20192301035E+04  0.22020292133E+04  0.87843181031E+03 0.  0.
        5    1    3    3  502    0 -0.31750315254E+03 -0.22912587118E+03  0.51088938440E+03  0.64369011940E+03  0.46999998093E+01 0. -1.
       -5    1    3    3    0  502  0.31750315254E+03  0.22912587118E+03  0.15083407191E+04  0.15583390939E+04  0.46999998093E+01 0.  1.
</event>
<event>
 5   0  0.1617721E-02  0.9279027E+03  0.7818609E-02  0.9391358E-01
       -2   -1    0    0    0  501  0.00000000000E+00  0.00000000000E+00  0.16452177470E+03  0.16452177472E+03  0.25500000920E-02 0.  1.
        2   -1    0    0  501    0  0.00000000000E+00  0.00000000000E+00 -0.13083426984E+04  0.13083426984E+04  0.25500000920E-02 0. -1.
    10030    2    1    2    0    0  0.00000000000E+00  0.00000000000E+00 -0.11438209237E+04  0.14728644731E+04  0.92790271618E+03 0.  0.
        5    1    3    3  502    0  0.20674942684E+03 -0.40799765420E+03 -0.69508124016E+03  0.83208619250E+03  0.46999998093E+01 0. -1.
       -5    1    3    3    0  502 -0.20674942684E+03  0.40799765420E+03 -0.44873968354E+03  0.64077828062E+03  0.46999998093E+01 0.  1.
</event>
<event>
 5   0  0.1598986E-02  0.9316970E+03  0.7818609E-02  0.9386804E-01
       -2   -1    0    0    0  501  0.00000000000E+00  0.00000000000E+00  0.24546716442E+03  0.24546716443E+03  0.25500000920E-02 0. -1.
        2   -1    0    0  501    0  0.00000000000E+00  0.00000000000E+00 -0.88408900116E+03  0.88408900116E+03  0.25500000920E-02 0.  1.
    10030    2    1    2    0    0  0.00000000000E+00  0.00000000000E+00 -0.63862183674E+03  0.11295561656E+04  0.93169698984E+03 0.  0.
        3    1    3    3  502    0  0.19564772007E+03 -0.39544279192E+03 -0.50060611747E+03  0.66727769864E+03  0.10100000352E+00 0.  1.
       -3    1    3    3    0  502 -0.19564772007E+03  0.39544279192E+03 -0.13801571927E+03  0.46227846696E+03  0.10100000352E+00 0. -1.
</event>
<event>
 5   0  0.6314750E-03  0.9855681E+03  0.7818609E-02  0.9324517E-01
        4   -1    0    0  501    0  0.00000000000E+00  0.00000000000E+00  0.90653820846E+03  0.90653909805E+03  0.12699999809E+01 0. -1.
       -4   -1    0    0    0  501  0.00000000000E+00  0.00000000000E+00 -0.26786938936E+03  0.26787239996E+03  0.12699999809E+01 0.  1.
    10030    2    1    2    0    0  0.00000000000E+00  0.00000000000E+00  0.63866881909E+03  0.11744114980E+04  0.98556811341E+03 0.  0.
        5    1    3    3  502    0 -0.24291643368E+03  0.71594028134E+02 -0.18436512194E+03  0.31328371614E+03  0.46999998093E+01 0.  1.
       -5    1    3    3    0  502  0.24291643368E+03 -0.71594028134E+02  0.82303394103E+03  0.86112778187E+03  0.46999998093E+01 0. -1.
</event>
<event>
 5   0  0.9396660E-03  0.9977010E+03  0.7818609E-02  0.9311070E-01
       -1   -1    0    0    0  501  0.00000000000E+00  0.00000000000E+00  0.15858489664E+04  0.15858489664E+04  0.50400001928E-02 0.  1.
        1   -1    0    0  501    0  0.00000000000E+00  0.00000000000E+00 -0.15692024449E+03  0.15692024457E+03  0.50400001928E-02 0. -1.
    10030    2    1    2    0    0  0.00000000000E+00  0.00000000000E+00  0.14289287219E+04  0.17427692110E+04  0.99770097245E+03 0.  0.
        5    1    3    3  502    0 -0.23765736971E+03 -0.38456560106E+03  0.10827751141E+04  0.11733694067E+04  0.46999998093E+01 0.  1.
       -5    1    3    3    0  502  0.23765736971E+03  0.38456560106E+03  0.34615360783E+03  0.56939980428E+03  0.46999998093E+01 0. -1.
</event>
<event>
 5   0  0.1571895E-02  0.9169627E+03  0.7818609E-02  0.9404622E-01
       -2   -1    0    0    0  501  0.00000000000E+00  0.00000000000E+00  0.87666031765E+02  0.87666031802E+02  0.25500000920E-02 0.  1.
        2   -1    0    0  501    0  0.00000000000E+00  0.00000000000E+00 -0.23977945364E+04  0.23977945364E+04  0.25500000920E-02 0. -1.
    10030    2    1    2    0    0  0.00000000000E+00  0.00000000000E+00 -0.23101285046E+04  0.24854605682E+04  0.91696266453E+03 0.  0.
        2    1    3    3  502    0 -0.93750120606E+02 -0.43008047611E+03 -0.15026775159E+04  0.15658218346E+04  0.25500000920E-02 0. -1.
       -2    1    3    3    0  502  0.93750120606E+02  0.43008047611E+03 -0.80745098872E+03  0.91963873355E+03  0.25500000920E-02 0.  1.
</event>
<event>
 5   0  0.1663497E-02  0.1032911E+04  0.7818609E-02  0.9273167E-01
       -2   -1    0    0    0  501  0.00000000000E+00  0.00000000000E+00  0.62754986127E+03  0.62754986128E+03  0.25500000920E-02 0.  1.
        2   -1    0    0  501    0  0.00000000000E+00  0.00000000000E+00 -0.42502839957E+03  0.42502839958E+03  0.25500000920E-02 0. -1.
    10030    2    1    2    0    0  0.00000000000E+00  0.00000000000E+00  0.20252146170E+03  0.10525782609E+04  0.10329114448E+04 0.  0.
        1    1    3    3  502    0 -0.32282116450E+03  0.39114279694E+03  0.18308062766E+01  0.50715830243E+03  0.50400001928E-02 0.  1.
       -1    1    3    3    0  502  0.32282116450E+03 -0.39114279694E+03  0.20069065542E+03  0.54541995843E+03  0.50400001928E-02 0. -1.
</event>
<event>
 5   0  0.9759443E-03  0.9950935E+03  0.7818609E-02  0.9313943E-01
        1   -1    0    0  501    0  0.00000000000E+00  0.00000000000E+00  0.94533854481E+03  0.94533854483E+03  0.50400001928E-02 0. -1.
       -1   -1    0    0    0  501  0.00000000000E+00  0.00000000000E+00 -0.26186677113E+03  0.26186677118E+03  0.50400001928E-02 0.  1.
    10030    2    1    2    0    0  0.00000000000E+00  0.00000000000E+00  0.68347177368E+03  0.12072053160E+04  0.99509346776E+03 0.  0.
        2    1    3    3  502    0 -0.15729225627E+03  0.69667877341E+02  0.90811073042E+03  0.92426163273E+03  0.25500000920E-02 0. -1.
       -2    1    3    3    0  502  0.15729225627E+03 -0.69667877341E+02 -0.22463895674E+03  0.28294368328E+03  0.25500000920E-02 0.  1.
</event>
<event>
 5   0  0.1000773E-02  0.1051690E+04  0.7818609E-02  0.9253601E-01
        1   -1    0    0  501    0  0.00000000000E+00  0.00000000000E+00  0.96818849131E+03  0.96818849132E+03  0.50400001928E-02 0.  1.
       -1   -1    0    0    0  501  0.00000000000E+00  0.00000000000E+00 -0.28559837266E+03  0.28559837270E+03  0.50400001928E-02 0. -1.
    10030    2    1    2    0    0  0.00000000000E+00  0.00000000000E+00  0.68259011865E+03  0.12537868640E+04  0.10516901779E+04 0.  0.
        3    1    3    3  502    0 -0.17777038972E+03 -0.25419703494E+03  0.84750102752E+03  0.90248348787E+03  0.10100000352E+00 0.  1.
       -3    1    3    3    0  502  0.17777038972E+03  0.25419703494E+03 -0.16491090887E+03  0.35130337616E+03  0.10100000352E+00 0. -1.
</event>
<event>
 5   0  0.1571895E-02  0.9925888E+03  0.7818609E-02  0.9316711E-01
       -2   -1    0    0    0  501  0.00000000000E+00  0.00000000000E+00  0.28129982538E+03  0.28129982540E+03  0.25500000920E-02 0. -1.
        2   -1    0    0  501    0  0.00000000000E+00  0.00000000000E+00 -0.87560707852E+03  0.87560707853E+03  0.25500000920E-02 0.  1.
    10030    2    1    2    0    0  0.00000000000E+00  0.00000000000E+00 -0.59430725314E+03  0.11569069039E+04  0.99258877347E+03 0.  0.
        2    1    3    3  502    0  0.20920787153E+03  0.32969401289E+02 -0.82029147600E+03  0.84719125382E+03  0.25500000920E-02 0.  1.
       -2    1    3    3    0  502 -0.20920787153E+03 -0.32969401289E+02  0.22598422286E+03  0.30971565011E+03  0.25500000920E-02 0. -1.
</event>
<event>
 5   0  0.9507815E-03  0.9836580E+03  0.7818609E-02  0.9326652E-01
        1   -1    0    0  501    0  0.00000000000E+00  0.00000000000E+00  0.46821009888E+03  0.46821009890E+03  0.50400001928E-02 0.  1.
       -1   -1    0    0    0  501  0.00000000000E+00  0.00000000000E+00 -0.51663939238E+03  0.51663939240E+03  0.50400001928E-02 0. -1.
    10030    2    1    2    0    0  0.00000000000E+00  0.00000000000E+00 -0.48429293501E+02  0.98484949131E+03  0.98365803207E+03 0.  0.
        1    1    3    3  502    0 -0.23222722426E+03 -0.70312909779E+02 -0.45254399850E+03  0.51348754568E+03  0.50400001928E-02 0. -1.
       -1    1    3    3    0  502  0.23222722426E+03  0.70312909779E+02  0.40411470499E+03  0.47136194563E+03  0.50400001928E-02 0.  1.
</event>
<event>
 5   0  0.9507815E-03  0.9595654E+03  0.7818609E-02  0.9354039E-01
        1   -1    0    0  501    0  0.00000000000E+00  0.00000000000E+00  0.15265267070E+04  0.15265267070E+04  0.50400001928E-02 0. -1.
       -1   -1    0    0    0  501  0.00000000000E+00  0.00000000000E+00 -0.15079425485E+03  0.15079425493E+03  0.50400001928E-02 0.  1.
    10030    2    1    2    0    0  0.00000000000E+00  0.00000000000E+00  0.13757324522E+04  0.16773209619E+04  0.95956543783E+03 0.  0.
        1    1    3    3  502    0 -0.15411249774E+03 -0.13383573025E+03  0.14468463815E+04  0.14611731986E+04  0.50400001928E-02 0. -1.
       -1    1    3    3    0  502  0.15411249774E+03  0.13383573025E+03 -0.71113929294E+02  0.21614776338E+03  0.50400001928E-02 0.  1.
</event>
<event>
 5   0  0.9759443E-03  0.9439565E+03  0.7818609E-02  0.9372243E-01
       -1   -1    0    0    0  501  0.00000000000E+00  0.00000000000E+00  0.25814187291E+03  0.25814187296E+03  0.50400001928E-02 0. -1.
        1   -1    0    0  501    0  0.00000000000E+00  0.00000000000E+00 -0.86294968714E+03  0.86294968715E+03  0.50400001928E-02 0.  1.
    10030    2    1    2    0    0  0.00000000000E+00  0.00000000000E+00 -0.60480781423E+03  0.11210915601E+04  0.94395645768E+03 0.  0.
        2    1    3    3  502    0  0.25836322494E+03 -0.34553491470E+03 -0.75138384169E+02  0.43794030422E+03  0.25500000920E-02 0.  1.
       -2    1    3    3    0  502 -0.25836322494E+03  0.34553491470E+03 -0.52966943006E+03  0.68315125589E+03  0.25500000920E-02 0. -1.
</event>
<event>
 5   0  0.1656859E-02  0.1104104E+04  0.7818609E-02  0.9201201E-01
        2   -1    0    0  501    0  0.00000000000E+00  0.00000000000E+00  0.10236898733E+04  0.10236898733E+04  0.25500000920E-02 0.  1.
       -2   -1    0    0    0  501  0.00000000000E+00  0.00000000000E+00 -0.29770880256E+03  0.29770880257E+03  0.25500000920E-02 0. -1.
    10030    2    1    2    0    0  0.00000000000E+00  0.00000000000E+00  0.72598107070E+03  0.13213986758E+04  0.11041041371E+04 0.  0.
        4    1    3    3  502    0 -0.10890818932E+03  0.62897291023E+02  0.10063145693E+04  0.10141438203E+04  0.12699999809E+01 0.  1.
       -4    1    3    3    0  502  0.10890818932E+03 -0.62897291023E+02 -0.28033349861E+03  0.30725485556E+03  0.12699999809E+01 0. -1.
</event>
<event>
 5   0  0.6314750E-03  0.9258091E+03  0.7818609E-02  0.9393882E-01
       -4   -1    0    0    0  501  0.00000000000E+00  0.00000000000E+00  0.22636690429E+03  0.22637046684E+03  0.12699999809E+01 0.  1.
        4   -1    0    0  501    0  0.00000000000E+00  0.00000000000E+00 -0.94659608709E+03  0.94659693904E+03  0.12699999809E+01 0. -1.
    10030    2    1    2    0    0  0.00000000000E+00  0.00000000000E+00 -0.72022918280E+03  0.11729674059E+04  0.92580908372E+03 0.  0.
        2    1    3    3  502    0 -0.15659928560E+03 -0.12570314562E+03  0.16831144792E+03  0.26201786309E+03  0.25500000920E-02 0.  1.
       -2    1    3    3    0  502  0.15659928560E+03  0.12570314562E+03 -0.88854063071E+03  0.91094954279E+03  0.25500000920E-02 0. -1.
</event>
<event>
 5   0  0.1656859E-02  0.1284314E+04  0.7818609E-02  0.9042098E-01
       -2   -1    0    0    0  501  0.00000000000E+00  0.00000000000E+00  0.34017036221E+03  0.34017036222E+03  0.25500000920E-02 0. -1.
        2   -1    0    0  501    0  0.00000000000E+00  0.00000000000E+00 -0.12122319500E+04  0.12122319500E+04  0.25500000920E-02 0.  1.
    10030    2    1    2    0    0  0.00000000000E+00  0.00000000000E+00 -0.87206158777E+03  0.15524023122E+04  0.12843136401E+04 0.  0.
        4    1    3    3  502    0 -0.25515346607E+03 -0.57176942199E+03 -0.26364127665E+03  0.67936139044E+03  0.12699999809E+01 0. -1.
       -4    1    3    3    0  502  0.25515346607E+03  0.57176942199E+03 -0.60842031111E+03  0.87304092175E+03  0.12699999809E+01 0.  1.
</event>
<event>
 5   0  0.1663497E-02  0.1022136E+04  0.7818609E-02  0.9284594E-01
        2   -1    0    0  501    0  0.00000000000E+00  0.00000000000E+00  0.65255603611E+03  0.65255603611E+03  0.25500000920E-02 0. -1.
       -2   -1    0    0    0  501  0.00000000000E+00  0.00000000000E+00 -0.40025744429E+03  0.40025744430E+03  0.25500000920E-02 0.  1.
    10030    2    1    2    0    0  0.00000000000E+00  0.00000000000E+00  0.25229859182E+03  0.10528134804E+04  0.10221358252E+04 0.  0.
        1    1    3    3  502    0  0.49324358201E+03 -0.13236410476E+03  0.10604624840E+03  0.52158920066E+03  0.50400001928E-02 0. -1.
       -1    1    3    3    0  502 -0.49324358201E+03  0.13236410476E+03  0.14625234342E+03  0.53122427975E+03  0.50400001928E-02 0.  1.
</event>
<event>
 5   0  0.1617721E-02  0.1024101E+04  0.7818609E-02  0.9282500E-01
        2   -1    0    0  501    0  0.00000000000E+00  0.00000000000E+00  0.24664242004E+04  0.24664242004E+04  0.25500000920E-02 0. -1.
       -2   -1    0    0    0  501  0.00000000000E+00  0.00000000000E+00 -0.10630593467E+03  0.10630593470E+03  0.25500000920E-02 0.  1.
    10030    2    1    2    0    0  0.00000000000E+00  0.00000000000E+00  0.23601182657E+04  0.25727301351E+04  0.10241006395E+04 0.  0.
        5    1    3    3  502    0 -0.27141313373E+03 -0.36265959445E+03  0.17797633330E+04  0.18365093743E+04  0.46999998093E+01 0. -1.
       -5    1    3    3    0  502  0.27141313373E+03  0.36265959445E+03  0.58035493277E+03  0.73622076077E+03  0.46999998093E+01 0.  1.
</event>
<event>
 5   0  0.1598986E-02  0.9902191E+03  0.7818609E-02  0.9319338E-01
        2   -1    0    0  501    0  0.00000000000E+00  0.00000000000E+00  0.49982885976E+03  0.49982885976E+03  0.25500000920E-02 0.  1.
       -2   -1    0    0    0  501  0.00000000000E+00  0.00000000000E+00 -0.49043476698E+03  0.49043476699E+03  0.25500000920E-02 0. -1.
    10030    2    1    2    0    0  0.00000000000E+00  0.00000000000E+00  0.93940927722E+01  0.99026362675E+03  0.99021906742E+03 0.  0.
        3    1    3    3  502    0 -0.15023720493E+02 -0.10421352667E+03  0.48850313702E+03  0.49972141879E+03  0.10100000352E+00 0.  1.
       -3    1    3    3    0  502  0.15023720493E+02  0.10421352667E+03 -0.47910904424E+03  0.49054220797E+03  0.10100000352E+00 0. -1.
</event>
<event>
 5   0  0.1656859E-02  0.9678107E+03  0.7818609E-02  0.9344571E-01
        2   -1    0    0  501    0  0.00000000000E+00  0.00000000000E+00  0.64000604145E+03  0.64000604145E+03  0.25500000920E-02 0. -1.
       -2   -1    0    0    0  501  0.00000000000E+00  0.00000000000E+00 -0.36587842349E+03  0.36587842350E+03  0.25500000920E-02 0.  1.
    10030    2    1    2    0    0  0.00000000000E+00  0.00000000000E+00  0.27412761795E+03  0.10058844650E+04  0.96781072835E+03 0.  0.
        4    1    3    3  502    0 -0.33556700611E+03 -0.22942921377E+03  0.40991741702E+03  0.57730137831E+03  0.12699999809E+01 0. -1.
       -4    1    3    3    0  502  0.33556700611E+03  0.22942921377E+03 -0.13578979907E+03  0.42858308664E+03  0.12699999809E+01 0.  1.
</event>
<event>
 5   0  0.1000773E-02  0.1000448E+04  0.7818609E-02  0.9308053E-01
       -1   -1    0    0    0  501  0.00000000000E+00  0.00000000000E+00  0.32843596692E+03  0.32843596696E+03  0.50400001928E-02 0. -1.
        1   -1    0    0  501    0  0.00000000000E+00  0.00000000000E+00 -0.76186568078E+03  0.76186568079E+03  0.50400001928E-02 0.  1.
    10030    2    1    2    0    0  0.00000000000E+00  0.00000000000E+00 -0.43342971385E+03  0.10903016478E+04  0.10004480827E+04 0.  0.
        3    1    3    3  502    0  0.24791743330E+03  0.33550063343E+03  0.84121695208E+02  0.42555868992E+03  0.10100000352E+00 0. -1.
       -3    1    3    3    0  502 -0.24791743330E+03 -0.33550063343E+03 -0.51755140906E+03  0.66474295783E+03  0.10100000352E+00 0.  1.
</event>
<event>
 5   0  0.9759443E-03  0.1005033E+04  0.7818609E-02  0.9303042E-01
        1   -1    0    0  501    0  0.00000000000E+00  0.00000000000E+00  0.12836954793E+04  0.12836954793E+04  0.50400001928E-02 0. -1.
       -1   -1    0    0    0  501  0.00000000000E+00  0.00000000000E+00 -0.19671552153E+03  0.19671552159E+03  0.50400001928E-02 0.  1.
    10030    2    1    2    0    0  0.00000000000E+00  0.00000000000E+00  0.10869799577E+04  0.14804110009E+04  0.10050329860E+04 0.  0.
        2    1    3    3  502    0 -0.44271469870E+03  0.17988269725E+03  0.77248654046E+03  0.90834439747E+03  0.25500000920E-02 0. -1.
       -2    1    3    3    0  502  0.44271469870E+03 -0.17988269725E+03  0.31449341728E+03  0.57206660341E+03  0.25500000920E-02 0.  1.
</event>
<event>
 5   0  0.1000773E-02  0.8684154E+03  0.7818609E-02  0.9465948E-01
       -1   -1    0    0    0  501  0.00000000000E+00  0.00000000000E+00  0.66587449527E+03  0.66587449529E+03  0.50400001928E-02 0. -1.
        1   -1    0    0  501    0  0.00000000000E+00  0.00000000000E+00 -0.28314091309E+03  0.28314091314E+03  0.50400001928E-02 0.  1.
    10030    2    1    2    0    0  0.00000000000E+00  0.00000000000E+00  0.38273358218E+03  0.94901540843E+03  0.86841536750E+03 0.  0.
        3    1    3    3  502    0  0.40187282326E+02 -0.42613420010E+03  0.27115655558E+03  0.50668655201E+03  0.10100000352E+00 0. -1.
       -3    1    3    3    0  502 -0.40187282326E+02  0.42613420010E+03  0.11157702660E+03  0.44232885642E+03  0.10100000352E+00 0.  1.
</event>
<event>
 5   0  0.1656859E-02  0.1039150E+04  0.7818609E-02  0.9266618E-01
        2   -1    0    0  501    0  0.00000000000E+00  0.00000000000E+00  0.11978796277E+04  0.11978796277E+04  0.25500000920E-02 0. -1.
       -2   -1    0    0    0  501  0.00000000000E+00  0.00000000000E+00 -0.22536344184E+03  0.22536344186E+03  0.25500000920E-02 0.  1.
    10030    2    1    2    0    0  0.00000000000E+00  0.00000000000E+00  0.97251618582E+03  0.14232430695E+04  0.10391501832E+04 0.  0.
        4    1    3    3  502    0 -0.51508412499E+03  0.58231722926E+02  0.43775580088E+03  0.67847943483E+03  0.12699999809E+01 0. -1.
       -4    1    3    3    0  502  0.51508412499E+03 -0.58231722926E+02  0.53476038494E+03  0.74476363470E+03  0.12699999809E+01 0.  1.
</event>
<event>
 5   0  0.9507815E-03  0.9986907E+03  0.7818609E-02  0.9309982E-01
       -1   -1    0    0    0  501  0.00000000000E+00  0.00000000000E+00  0.46853255151E+03  0.46853255153E+03  0.50400001928E-02 0.  1.
        1   -1    0    0  501    0  0.00000000000E+00  0.00000000000E+00 -0.53218450202E+03  0.53218450204E+03  0.50400001928E-02 0. -1.
    10030    2    1    2    0    0  0.00000000000E+00  0.00000000000E+00 -0.63651950513E+02  0.10007170536E+04  0.99869066808E+03 0.  0.
        1    1    3    3  502    0  0.34392610185E+03 -0.13208247598E+03 -0.36957787367E+03  0.52184168933E+03  0.50400001928E-02 0. -1.
       -1    1    3    3    0  502 -0.34392610185E+03  0.13208247598E+03  0.30592592315E+03  0.47887536424E+03  0.50400001928E-02 0.  1.
</event>
<event>
 5   0  0.9396660E-03  0.1017845E+04  0.7818609E-02  0.9289186E-01
       -1   -1    0    0    0  501  0.00000000000E+00  0.00000000000E+00  0.72551847163E+03  0.72551847164E+03  0.50400001928E-02 0. -1.
        1   -1    0    0  501    0  0.00000000000E+00  0.00000000000E+00 -0.35698910449E+03  0.35698910452E+03  0.50400001928E-02 0.  1.
    10030    2    1    2    0    0  0.00000000000E+00  0.00000000000E+00  0.36852936714E+03  0.10825075762E+04  0.10178451542E+04 0.  0.
        5    1    3    3  502    0  0.43158739065E+03  0.23348078302E+03  0.32773919549E+03  0.59009831559E+03  0.46999998093E+01 0.  1.
       -5    1    3    3    0  502 -0.43158739065E+03 -0.23348078302E+03  0.40790171652E+02  0.49240926058E+03  0.46999998093E+01 0. -1.
</event>
<event>
 5   0  0.9507815E-03  0.9973351E+03  0.7818609E-02  0.9311472E-01
        1   -1    0    0  501    0  0.00000000000E+00  0.00000000000E+00  0.74778875755E+03  0.74778875757E+03  0.50400001928E-02 0.  1.
       -1   -1    0    0    0  501  0.00000000000E+00  0.00000000000E+00 -0.33253956730E+03  0.33253956733E+03  0.50400001928E-02 0. -1.
    10030    2    1    2    0    0  0.00000000000E+00  0.00000000000E+00  0.41524919026E+03  0.10803283249E+04  0.99733514907E+03 0.  0.
        1    1    3    3  502    0  0.63666782365E+02  0.35546792530E+02  0.74198267410E+03  0.74555705504E+03  0.50400001928E-02 0.  1.
       -1    1    3    3    0  502 -0.63666782365E+02 -0.35546792530E+02 -0.32673348384E+03  0.33477126986E+03  0.50400001928E-02 0. -1.
</event>
<event>
 5   0  0.9759443E-03  0.1007157E+04  0.7818609E-02  0.9300730E-01
       -1   -1    0    0    0  501  0.00000000000E+00  0.00000000000E+00  0.23139079840E+03  0.23139079845E+03  0.50400001928E-02 0.  1.
        1   -1    0    0  501    0  0.00000000000E+00  0.00000000000E+00 -0.10959431096E+04  0.10959431096E+04  0.50400001928E-02 0. -1.
    10030    2    1    2    0    0  0.00000000000E+00  0.00000000000E+00 -0.86455231122E+03  0.13273339081E+04  0.10071566932E+04 0.  0.
        2    1    3    3  502    0  0.31215661492E+03  0.12777166247E+03  0.60527247276E+02  0.34268191904E+03  0.25500000920E-02 0.  1.
       -2    1    3    3    0  502 -0.31215661492E+03 -0.12777166247E+03 -0.92507955849E+03  0.98465198904E+03  0.25500000920E-02 0. -1.
</event>
<event>
 5   0  0.1617721E-02  0.9863325E+03  0.7818609E-02  0.9323663E-01
       -2   -1    0    0    0  501  0.00000000000E+00  0.00000000000E+00  0.23154639611E+03  0.23154639612E+03  0.25500000920E-02 0.  1.
        2   -1    0    0  501    0  0.00000000000E+00  0.00000000000E+00 -0.10503854897E+04  0.10503854897E+04  0.25500000920E-02 0. -1.
    10030    2    1    2    0    0  0.00000000000E+00  0.00000000000E+00 -0.81883909358E+03  0.12819318858E+04  0.98633254974E+03 0.  0.
        5    1    3    3  502    0 -0.31858719419E+03  0.17652315076E+03  0.22683072137E+02  0.36495867549E+03  0.46999998093E+01 0.  1.
       -5    1    3    3    0  502  0.31858719419E+03 -0.17652315076E+03 -0.84152216571E+03  0.91697321032E+03  0.46999998093E+01 0. -1.
</event>
<event>
 5   0  0.1656859E-02  0.9844624E+03  0.7818609E-02  0.9325752E-01
       -2   -1    0    0    0  501  0.00000000000E+00  0.00000000000E+00  0.21495776722E+04  0.21495776722E+04  0.25500000920E-02 0.  1.
        2   -1    0    0  501    0  0.00000000000E+00  0.00000000000E+00 -0.11271589636E+03  0.11271589639E+03  0.25500000920E-02 0. -1.
    10030    2    1    2    0    0  0.00000000000E+00  0.00000000000E+00  0.20368617758E+04  0.22622935686E+04  0.98446244042E+03 0.  0.
        4    1    3    3  502    0  0.39298704469E+03  0.27743411961E+03  0.12581448109E+04  0.13469738253E+04  0.12699999809E+01 0.  1.
       -4    1    3    3    0  502 -0.39298704469E+03 -0.27743411961E+03  0.77871696496E+03  0.91531974328E+03  0.12699999809E+01 0. -1.
</event>
<event>
 5   0  0.1000773E-02  0.9998648E+03  0.7818609E-02  0.9308693E-01
       -1   -1    0    0    0  501  0.00000000000E+00  0.00000000000E+00  0.79982281919E+03  0.79982281920E+03  0.50400001928E-02 0.  1.
        1   -1    0    0  501    0  0.00000000000E+00  0.00000000000E+00 -0.31248470291E+03  0.31248470295E+03  0.50400001928E-02 0. -1.
    10030    2    1    2    0    0  0.00000000000E+00  0.00000000000E+00  0.48733811628E+03  0.11123075222E+04  0.99986478299E+03 0.  0.
        3    1    3    3  502    0 -0.42870947067E+03  0.15041804367E+03  0.11607590223E+02  0.45448008147E+03  0.10100000352E+00 0. -1.
       -3    1    3    3    0  502  0.42870947067E+03 -0.15041804367E+03  0.47573052605E+03  0.65782744069E+03  0.10100000352E+00 0.  1.
</event>
<event>
 5   0  0.9759443E-03  0.9889793E+03  0.7818609E-02  0.9320715E-01
        1   -1    0    0  501    0  0.00000000000E+00  0.00000000000E+00  0.35982271141E+03  0.35982271144E+03  0.50400001928E-02 0.  1.
       -1   -1    0    0    0  501  0.00000000000E+00  0.00000000000E+00 -0.67955691757E+03  0.67955691759E+03  0.50400001928E-02 0. -1.
    10030    2    1    2    0    0  0.00000000000E+00  0.00000000000E+00 -0.31973420617E+03  0.10393796290E+04  0.98897929738E+03 0.  0.
        2    1    3    3  502    0 -0.24921246202E+03 -0.15906836420E+03 -0.57643854244E+03  0.64783561876E+03  0.25500000920E-02 0. -1.
       -2    1    3    3    0  502  0.24921246202E+03  0.15906836420E+03  0.25670433627E+03  0.39154401027E+03  0.25500000920E-02 0.  1.
</event>
<event>
 5   0  0.1656859E-02  0.1006908E+04  0.7818609E-02  0.9301000E-01
        2   -1    0    0  501    0  0.00000000000E+00  0.00000000000E+00  0.16981865764E+03  0.16981865766E+03  0.25500000920E-02 0. -1.
       -2   -1    0    0    0  501  0.00000000000E+00  0.00000000000E+00 -0.14925686657E+04  0.14925686657E+04  0.25500000920E-02 0.  1.
    10030    2    1    2    0    0  0.00000000000E+00  0.00000000000E+00 -0.13227500081E+04  0.16623873234E+04  0.10069081532E+04 0.  0.
        4    1    3    3  502    0 -0.27738747907E+02  0.46852537473E+03 -0.36064722591E+03  0.59190666439E+03  0.12699999809E+01 0. -1.
       -4    1    3    3    0  502  0.27738747907E+02 -0.46852537473E+03 -0.96210278216E+03  0.10704806590E+04  0.12699999809E+01 0.  1.
</event>
<event>
 5   0  0.9507815E-03  0.9411143E+03  0.7818609E-02  0.9375597E-01
       -1   -1    0    0    0  501  0.00000000000E+00  0.00000000000E+00  0.47389860514E+03  0.47389860516E+03  0.50400001928E-02 0.  1.
        1   -1    0    0  501    0  0.00000000000E+00  0.00000000000E+00 -0.46723923086E+03  0.46723923089E+03  0.50400001928E-02 0. -1.
    10030    2    1    2    0    0  0.00000000000E+00  0.00000000000E+00  0.66593742777E+01  0.94113783605E+03  0.94111427530E+03 0.  0.
        1    1    3    3  502    0  0.20262390138E+03  0.27315896027E+03  0.32853278034E+03  0.47287001467E+03  0.50400001928E-02 0.  1.
       -1    1    3    3    0  502 -0.20262390138E+03 -0.27315896027E+03 -0.32187340607E+03  0.46826782138E+03  0.50400001928E-02 0. -1.
</event>
<event>
 5   0  0.1663497E-02  0.9999350E+03  0.7818609E-02  0.9308616E-01
       -2   -1    0    0    0  501  0.00000000000E+00  0.00000000000E+00  0.32047329036E+03  0.32047329037E+03  0.25500000920E-02 0. -1.
        2   -1    0    0  501    0  0.00000000000E+00  0.00000000000E+00 -0.77999475619E+03  0.77999475619E+03  0.25500000920E-02 0.  1.
    10030    2    1    2    0    0  0.00000000000E+00  0.00000000000E+00 -0.45952146583E+03  0.11004680466E+04  0.99993496986E+03 0.  0.
        1    1    3    3  502    0  0.45205885276E+03 -0.12990520519E+03 -0.43204116845E+02  0.47233374263E+03  0.50400001928E-02 0. -1.
       -1    1    3    3    0  502 -0.45205885276E+03  0.12990520519E+03 -0.41631734898E+03  0.62813430393E+03  0.50400001928E-02 0.  1.
</event>
<event>
 5   0  0.9471140E-03  0.9969204E+03  0.7818609E-02  0.9311929E-01
       -1   -1    0    0    0  501  0.00000000000E+00  0.00000000000E+00  0.25246441450E+03  0.25246441455E+03  0.50400001928E-02 0.  1.
        1   -1    0    0  501    0  0.00000000000E+00  0.00000000000E+00 -0.98414895085E+03  0.98414895087E+03  0.50400001928E-02 0. -1.
    10030    2    1    2    0    0  0.00000000000E+00  0.00000000000E+00 -0.73168453635E+03  0.12366133654E+04  0.99692043554E+03 0.  0.
        4    1    3    3  502    0 -0.62580704380E+02 -0.45837082029E+03 -0.13563968440E+03  0.48209946104E+03  0.12699999809E+01 0.  1.
       -4    1    3    3    0  502  0.62580704380E+02  0.45837082029E+03 -0.59604485196E+03  0.75451390438E+03  0.12699999809E+01 0. -1.
</event>
<event>
 5   0  0.9507815E-03  0.9997077E+03  0.7818609E-02  0.9308865E-01
        1   -1    0    0  501    0  0.00000000000E+00  0.00000000000E+00  0.45708088491E+03  0.45708088494E+03  0.50400001928E-02 0.  1.
       -1   -1    0    0    0  501  0.00000000000E+00  0.00000000000E+00 -0.54662942155E+03  0.54662942157E+03  0.50400001928E-02 0. -1.
    10030    2    1    2    0    0  0.00000000000E+00  0.00000000000E+00 -0.89548536632E+02  0.10037103065E+04  0.99970767676E+03 0.  0.
        1    1    3    3  502    0  0.53426991868E+02  0.90072051839E+02 -0.53549127264E+03  0.54563570363E+03  0.50400001928E-02 0. -1.
       -1    1    3    3    0  502 -0.53426991868E+02 -0.90072051839E+02  0.44594273600E+03  0.45807460288E+03  0.50400001928E-02 0.  1.
</event>
<event>
 5   0  0.1598986E-02  0.1026567E+04  0.7818609E-02  0.9279877E-01
       -2   -1    0    0    0  501  0.00000000000E+00  0.00000000000E+00  0.21404507651E+03  0.21404507653E+03  0.25500000920E-02 0. -1.
        2   -1    0    0  501    0  0.00000000000E+00  0.00000000000E+00 -0.12308623961E+04  0.12308623961E+04  0.25500000920E-02 0.  1.
    10030    2    1    2    0    0  0.00000000000E+00  0.00000000000E+00 -0.10168173195E+04  0.14449074726E+04  0.10265671644E+04 0.  0.
        3    1    3    3  502    0 -0.15398934955E+03 -0.30688599963E+03  0.28605895415E+02  0.34454323966E+03  0.10100000352E+00 0. -1.
       -3    1    3    3    0  502  0.15398934955E+03  0.30688599963E+03 -0.10454232150E+04  0.11003642329E+04  0.10100000352E+00 0.  1.
</event>
<event>
 5   0  0.9396660E-03  0.9843348E+03  0.7818609E-02  0.9325895E-01
        1   -1    0    0  501    0  0.00000000000E+00  0.00000000000E+00  0.21925773898E+04  0.21925773898E+04  0.50400001928E-02 0. -1.
       -1   -1    0    0    0  501  0.00000000000E+00  0.00000000000E+00 -0.11047671977E+03  0.11047671989E+03  0.50400001928E-02 0.  1.
    10030    2    1    2    0    0  0.00000000000E+00  0.00000000000E+00  0.20821006700E+04  0.23030541097E+04  0.98433481705E+03 0.  0.
        5    1    3    3  502    0  0.47877793449E+03 -0.11178244032E+03  0.98962768976E+03  0.11050378631E+04  0.46999998093E+01 0.  1.
       -5    1    3    3    0  502 -0.47877793449E+03  0.11178244032E+03  0.10924729803E+04  0.11980162466E+04  0.46999998093E+01 0. -1.
</event>
<event>
 5   0  0.1598986E-02  0.1008892E+04  0.7818609E-02  0.9298845E-01
        2   -1    0    0  501    0  0.00000000000E+00  0.00000000000E+00  0.53188617897E+03  0.53188617898E+03  0.25500000920E-02 0. -1.
       -2   -1    0    0    0  501  0.00000000000E+00  0.00000000000E+00 -0.47842175963E+03  0.47842175964E+03  0.25500000920E-02 0.  1.
    10030    2    1    2    0    0  0.00000000000E+00  0.00000000000E+00  0.53464419338E+02  0.10103079386E+04  0.10088923068E+04 0.  0.
        3    1    3    3  502    0  0.21303445712E+02  0.49015250238E+03  0.14421092389E+03  0.51137081766E+03  0.10100000352E+00 0. -1.
       -3    1    3    3    0  502 -0.21303445712E+02 -0.49015250238E+03 -0.90746504550E+02  0.49893712096E+03  0.10100000352E+00 0.  1.
</event>
<event>
 5   0  0.1656859E-02  0.6536262E+03  0.7818609E-02  0.9799999E-01
        2   -1    0    0  501    0  0.00000000000E+00  0.00000000000E+00  0.64737580596E+03  0.64737580596E+03  0.25500000920E-02 0.  1.
       -2   -1    0    0    0  501  0.00000000000E+00  0.00000000000E+00 -0.16498422497E+03  0.16498422499E+03  0.25500000920E-02 0. -1.
    10030    2    1    2    0    0  0.00000000000E+00  0.00000000000E+00  0.48239158099E+03  0.81236003096E+03  0.65362617947E+03 0.  0.
        4    1    3    3  502    0  0.26220158093E+03 -0.18512864692E+03  0.31763767965E+03  0.45157235675E+03  0.12699999809E+01 0.  1.
       -4    1    3    3    0  502 -0.26220158093E+03  0.18512864692E+03  0.16475390134E+03  0.36078767420E+03  0.12699999809E+01 0. -1.
</event>
<event>
 5   0  0.1598986E-02  0.1008141E+04  0.7818609E-02  0.9299661E-01
        2   -1    0    0  501    0  0.00000000000E+00  0.00000000000E+00  0.74856175128E+03  0.74856175128E+03  0.25500000920E-02 0.  1.
       -2   -1    0    0    0  501  0.00000000000E+00  0.00000000000E+00 -0.33943358438E+03  0.33943358439E+03  0.25500000920E-02 0. -1.
    10030    2    1    2    0    0  0.00000000000E+00  0.00000000000E+00  0.40912816690E+03  0.10879953357E+04  0.10081408599E+04 0.  0.
        3    1    3    3  502    0 -0.39567819073E+01 -0.48073160574E+03  0.41006113838E+02  0.48249356934E+03  0.10100000352E+00 0.  1.
       -3    1    3    3    0  502  0.39567819073E+01  0.48073160574E+03  0.36812205306E+03  0.60550176633E+03  0.10100000352E+00 0. -1.
</event>
<event>
 5   0  0.1663497E-02  0.9971228E+03  0.7818609E-02  0.9311706E-01
       -2   -1    0    0    0  501  0.00000000000E+00  0.00000000000E+00  0.21305002057E+03  0.21305002058E+03  0.25500000920E-02 0.  1.
        2   -1    0    0  501    0  0.00000000000E+00  0.00000000000E+00 -0.11666906951E+04  0.11666906951E+04  0.25500000920E-02 0. -1.
    10030    2    1    2    0    0  0.00000000000E+00  0.00000000000E+00 -0.95364067453E+03  0.13797407157E+04  0.99712281410E+03 0.  0.
        1    1    3    3  502    0 -0.42666579858E+03 -0.10298156252E+03 -0.80401885282E+03  0.91602140893E+03  0.50400001928E-02 0. -1.
       -1    1    3    3    0  502  0.42666579858E+03  0.10298156252E+03 -0.14962182170E+03  0.46371930675E+03  0.50400001928E-02 0.  1.
</event>
<event>
 5   0  0.9759443E-03  0.8040249E+03  0.7818609E-02  0.9554209E-01
       -1   -1    0    0    0  501  0.00000000000E+00  0.00000000000E+00  0.56172635102E+03  0.56172635104E+03  0.50400001928E-02 0.  1.
        1   -1    0    0  501    0  0.00000000000E+00  0.00000000000E+00 -0.28770948911E+03  0.28770948915E+03  0.50400001928E-02 0. -1.
    10030    2    1    2    0    0  0.00000000000E+00  0.00000000000E+00  0.27401686191E+03  0.84943584019E+03  0.80402487896E+03 0.  0.
        2    1    3    3  502    0 -0.34327129663E+03 -0.48397894825E+02  0.35206485898E+03  0.49409230336E+03  0.25500000920E-02 0.  1.
       -2    1    3    3    0  502  0.34327129663E+03  0.48397894825E+02 -0.78047997070E+02  0.35534353683E+03  0.25500000920E-02 0. -1.
</event>
<event>
 5   0  0.9471140E-03  0.9834207E+03  0.7818609E-02  0.9326918E-01
       -1   -1    0    0    0  501  0.00000000000E+00  0.00000000000E+00  0.41973612081E+03  0.41973612084E+03  0.50400001928E-02 0. -1.
        1   -1    0    0  501    0  0.00000000000E+00  0.00000000000E+00 -0.57602637794E+03  0.57602637796E+03  0.50400001928E-02 0.  1.
    10030    2    1    2    0    0  0.00000000000E+00  0.00000000000E+00 -0.15629025713E+03  0.99576249880E+03  0.98342071848E+03 0.  0.
        4    1    3    3  502    0  0.39497872345E+03  0.46992796544E+02  0.21455175340E+03  0.45194090620E+03  0.12699999809E+01 0. -1.
       -4    1    3    3    0  502 -0.39497872345E+03 -0.46992796544E+02 -0.37084201053E+03  0.54382159260E+03  0.12699999809E+01 0.  1.
</event>
<event>
 5   0  0.1617721E-02  0.1024837E+04  0.7818609E-02  0.9281716E-01
        2   -1    0    0  501    0  0.00000000000E+00  0.00000000000E+00  0.25337201639E+04  0.25337201639E+04  0.25500000920E-02 0.  1.
       -2   -1    0    0    0  501  0.00000000000E+00  0.00000000000E+00 -0.10363130685E+03  0.10363130688E+03  0.25500000920E-02 0. -1.
    10030    2    1    2    0    0  0.00000000000E+00  0.00000000000E+00  0.24300888571E+04  0.26373514708E+04  0.10248370248E+04 0.  0.
        5    1    3    3  502    0 -0.29410474336E+03 -0.34979238369E+03  0.18113839516E+04  0.18681504816E+04  0.46999998093E+01 0.  1.
       -5    1    3    3    0  502  0.29410474336E+03  0.34979238369E+03  0.61870490544E+03  0.76920098919E+03  0.46999998093E+01 0. -1.
</event>
<event>
 5   0  0.9507815E-03  0.9721269E+03  0.7818609E-02  0.9339655E-01
       -1   -1    0    0    0  501  0.00000000000E+00  0.00000000000E+00  0.27115872364E+03  0.27115872368E+03  0.50400001928E-02 0. -1.
        1   -1    0    0  501    0  0.00000000000E+00  0.00000000000E+00 -0.87128915912E+03  0.87128915913E+03  0.50400001928E-02 0.  1.
    10030    2    1    2    0    0  0.00000000000E+00  0.00000000000E+00 -0.60013043548E+03  0.11424478828E+04  0.97212685661E+03 0.  0.
        1    1    3    3  502    0  0.45707496736E+03 -0.62688424870E+02 -0.47987647197E+03  0.66567919659E+03  0.50400001928E-02 0.  1.
       -1    1    3    3    0  502 -0.45707496736E+03  0.62688424870E+02 -0.12025396351E+03  0.47676868622E+03  0.50400001928E-02 0. -1.
</event>
<event>
 5   0  0.9471140E-03  0.1065113E+04  0.7818609E-02  0.9239878E-01
       -1   -1    0    0    0  501  0.00000000000E+00  0.00000000000E+00  0.84946191079E+03  0.84946191081E+03  0.50400001928E-02 0. -1.
        1   -1    0    0  501    0  0.00000000000E+00  0.00000000000E+00 -0.33387780550E+03  0.33387780554E+03  0.50400001928E-02 0.  1.
    10030    2    1    2    0    0  0.00000000000E+00  0.00000000000E+00  0.51558410529E+03  0.11833397163E+04  0.10651130995E+04 0.  0.
        4    1    3    3  502    0 -0.39923564392E+03 -0.14253464193E+03 -0.10033872007E+03  0.43563137533E+03  0.12699999809E+01 0. -1.
       -4    1    3    3    0  502  0.39923564392E+03  0.14253464193E+03  0.61592282536E+03  0.74770834102E+03  0.12699999809E+01 0.  1.
</event>
<event>
 5   0  0.9396660E-03  0.1003180E+04  0.7818609E-02  0.9305064E-01
       -1   -1    0    0    0  501  0.00000000000E+00  0.00000000000E+00  0.28672905179E+03  0.28672905183E+03  0.50400001928E-02 0.  1.
        1   -1    0    0  501    0  0.00000000000E+00  0.00000000000E+00 -0.87745720546E+03  0.87745720547E+03  0.50400001928E-02 0. -1.
    10030    2    1    2    0    0  0.00000000000E+00  0.00000000000E+00 -0.59072815367E+03  0.11641862573E+04  0.10031798892E+04 0.  0.
        5    1    3    3  502    0 -0.66103179511E+02 -0.45232870673E+03 -0.53488632957E+03  0.70363084414E+03  0.46999998093E+01 0. -1.
       -5    1    3    3    0  502  0.66103179511E+02  0.45232870673E+03 -0.55841824101E+02  0.46055541316E+03  0.46999998093E+01 0.  1.
</event>
<event>
 5   0  0.1656859E-02  0.9805078E+03  0.7818609E-02  0.9330186E-01
        2   -1    0    0  501    0  0.00000000000E+00  0.00000000000E+00  0.87415407026E+03  0.87415407027E+03  0.25500000920E-02 0.  1.
       -2   -1    0    0    0  501  0.00000000000E+00  0.00000000000E+00 -0.27495025677E+03  0.27495025678E+03  0.25500000920E-02 0. -1.
    10030    2    1    2    0    0  0.00000000000E+00  0.00000000000E+00  0.59920381349E+03  0.11491043270E+04  0.98050779922E+03 0.  0.
        4    1    3    3  502    0  0.19484496786E+03 -0.35744085261E+03  0.61973633949E+03  0.74148720016E+03  0.12699999809E+01 0.  1.
       -4    1    3    3    0  502 -0.19484496786E+03  0.35744085261E+03 -0.20532525997E+02  0.40761712689E+03  0.12699999809E+01 0. -1.
</event>
<event>
 5   0  0.9507815E-03  0.9957836E+03  0.7818609E-02  0.9313181E-01
       -1   -1    0    0    0  501  0.00000000000E+00  0.00000000000E+00  0.59425740317E+03  0.59425740319E+03  0.50400001928E-02 0. -1.
        1   -1    0    0  501    0  0.00000000000E+00  0.00000000000E+00 -0.41715298863E+03  0.41715298866E+03  0.50400001928E-02 0.  1.
    10030    2    1    2    0    0  0.00000000000E+00  0.00000000000E+00  0.17710441454E+03  0.10114103918E+04  0.99578361459E+03 0.  0.
        1    1    3    3  502    0  0.11953554940E+03  0.33960662451E+03 -0.26075587072E+03  0.44453912215E+03  0.50400001928E-02 0.  1.
       -1    1    3    3    0  502 -0.11953554940E+03 -0.33960662451E+03  0.43786028526E+03  0.56687126970E+03  0.50400001928E-02 0. -1.
</event>
<event>
 5   0  0.1571895E-02  0.1023411E+04  0.7818609E-02  0.9283234E-01
        2   -1    0    0  501    0  0.00000000000E+00  0.00000000000E+00  0.17623770125E+03  0.17623770127E+03  0.25500000920E-02 0.  1.
       -2   -1    0    0    0  501  0.00000000000E+00  0.00000000000E+00 -0.14857359133E+04  0.14857359133E+04  0.25500000920E-02 0. -1.
    10030    2    1    2    0    0  0.00000000000E+00  0.00000000000E+00 -0.13094982121E+04  0.16619736146E+04  0.10234113192E+04 0.  0.
        2    1    3    3  502    0  0.46702622656E+03  0.54228691953E+02 -0.32677283165E+03  0.57256853812E+03  0.25500000920E-02 0.  1.
       -2    1    3    3    0  502 -0.46702622656E+03 -0.54228691953E+02 -0.98272538041E+03  0.10894050765E+04  0.25500000920E-02 0. -1.
</event>
<event>
 5   0  0.1617721E-02  0.1016212E+04  0.7818609E-02  0.9290941E-01
       -2   -1    0    0    0  501  0.00000000000E+00  0.00000000000E+00  0.64869308244E+03  0.64869308244E+03  0.25500000920E-02 0.  1.
        2   -1    0    0  501    0  0.00000000000E+00  0.00000000000E+00 -0.39798723005E+03  0.39798723006E+03  0.25500000920E-02 0. -1.
    10030    2    1    2    0    0  0.00000000000E+00  0.00000000000E+00  0.25070585238E+03  0.10466803125E+04  0.10162117162E+04 0.  0.
        5    1    3    3  502    0  0.21383677334E+03  0.45795676255E+03  0.17886159451E+03  0.53615680728E+03  0.46999998093E+01 0.  1.
       -5    1    3    3    0  502 -0.21383677334E+03 -0.45795676255E+03  0.71844257869E+02  0.51052350523E+03  0.46999998093E+01 0. -1.
</event>
<event>
 5   0  0.1000773E-02  0.1003342E+04  0.7818609E-02  0.9304887E-01
       -1   -1    0    0    0  501  0.00000000000E+00  0.00000000000E+00  0.37993363454E+03  0.37993363458E+03  0.50400001928E-02 0.  1.
        1   -1    0    0  501    0  0.00000000000E+00  0.00000000000E+00 -0.66241527094E+03  0.66241527096E+03  0.50400001928E-02 0. -1.
    10030    2    1    2    0    0  0.00000000000E+00  0.00000000000E+00 -0.28248163640E+03  0.10423489055E+04  0.10033420982E+04 0.  0.
        3    1    3    3  502    0  0.33149565662E+03 -0.34975858423E+02  0.24824955795E+03  0.41562066149E+03  0.10100000352E+00 0.  1.
       -3    1    3    3    0  502 -0.33149565662E+03  0.34975858423E+02 -0.53073119435E+03  0.62672824405E+03  0.10100000352E+00 0. -1.
</event>
<event>
 5   0  0.6314750E-03  0.9881621E+03  0.7818609E-02  0.9321625E-01
       -3   -1    0    0    0  501  0.00000000000E+00  0.00000000000E+00  0.30379475545E+03  0.30379477224E+03  0.10100000352E+00 0.  1.
        3   -1    0    0  501    0  0.00000000000E+00  0.00000000000E+00 -0.80355591477E+03  0.80355592112E+03  0.10100000352E+00 0. -1.
    10030    2    1    2    0    0  0.00000000000E+00  0.00000000000E+00 -0.49976115933E+03  0.11073506934E+04  0.98816210295E+03 0.  0.
        3    1    3    3  502    0  0.14871389222E+03 -0.46054596935E+03 -0.36136734941E+03  0.60399071437E+03  0.10100000352E+00 0. -1.
       -3    1    3    3    0  502 -0.14871389222E+03  0.46054596935E+03 -0.13839380992E+03  0.50335997899E+03  0.10100000352E+00 0.  1.
</event>
<event>
 5   0  0.9396660E-03  0.9936779E+03  0.7818609E-02  0.9315506E-01
        1   -1    0    0  501    0  0.00000000000E+00  0.00000000000E+00  0.15018397809E+04  0.15018397809E+04  0.50400001928E-02 0.  1.
       -1   -1    0    0    0  501  0.00000000000E+00  0.00000000000E+00 -0.16436437600E+03  0.16436437608E+03  0.50400001928E-02 0. -1.
    10030    2    1    2    0    0  0.00000000000E+00  0.00000000000E+00  0.13374754049E+04  0.16662041570E+04  0.99367793275E+03 0.  0.
        5    1    3    3  502    0  0.20812733722E+03  0.11613328643E+03  0.13996841920E+04  0.14198386726E+04  0.46999998093E+01 0.  1.
       -5    1    3    3    0  502 -0.20812733722E+03 -0.11613328643E+03 -0.62208787131E+02  0.24636548441E+03  0.46999998093E+01 0. -1.
</event>
<event>
 5   0  0.1571895E-02  0.6868008E+03  0.7818609E-02  0.9740075E-01
        2   -1    0    0  501    0  0.00000000000E+00  0.00000000000E+00  0.14157858740E+04  0.14157858740E+04  0.25500000920E-02 0.  1.
       -2   -1    0    0    0  501  0.00000000000E+00  0.00000000000E+00 -0.83292137265E+02  0.83292137304E+02  0.25500000920E-02 0. -1.
    10030    2    1    2    0    0  0.00000000000E+00  0.00000000000E+00  0.13324937368E+04  0.14990780113E+04  0.68680079030E+03 0.  0.
        2    1    3    3  502    0 -0.91124072869E+02  0.31153749668E+03  0.42158393586E+03  0.53206411594E+03  0.25500000920E-02 0. -1.
       -2    1    3    3    0  502  0.91124072869E+02 -0.31153749668E+03  0.91090980091E+03  0.96701389540E+03  0.25500000920E-02 0.  1.
</event>
<event>
 5   0  0.9471140E-03  0.9998839E+03  0.7818609E-02  0.9308672E-01
       -1   -1    0    0    0  501  0.00000000000E+00  0.00000000000E+00  0.23443690222E+03  0.23443690227E+03  0.50400001928E-02 0. -1.
        1   -1    0    0  501    0  0.00000000000E+00  0.00000000000E+00 -0.10661374810E+04  0.10661374811E+04  0.50400001928E-02 0.  1.
    10030    2    1    2    0    0  0.00000000000E+00  0.00000000000E+00 -0.83170057883E+03  0.13005743833E+04  0.99988393013E+03 0.  0.
        4    1    3    3  502    0  0.34061271267E+02 -0.14464389739E+03  0.20504456475E+03  0.25323292378E+03  0.12699999809E+01 0. -1.
       -4    1    3    3    0  502 -0.34061271267E+02  0.14464389739E+03 -0.10367451436E+04  0.10473414595E+04  0.12699999809E+01 0.  1.
</event>
<event>
 5   0  0.1598986E-02  0.9996483E+03  0.7818609E-02  0.9308931E-01
       -2   -1    0    0    0  501  0.00000000000E+00  0.00000000000E+00  0.47823217092E+03  0.47823217093E+03  0.25500000920E-02 0. -1.
        2   -1    0    0  501    0  0.00000000000E+00  0.00000000000E+00 -0.52239100417E+03  0.52239100417E+03  0.25500000920E-02 0.  1.
    10030    2    1    2    0    0  0.00000000000E+00  0.00000000000E+00 -0.44158833246E+02  0.10006231751E+04  0.99964830615E+03 0.  0.
        3    1    3    3  502    0  0.81910948611E+02 -0.28419359103E+03  0.38123879079E+03  0.48251261796E+03  0.10100000352E+00 0. -1.
       -3    1    3    3    0  502 -0.81910948611E+02  0.28419359103E+03 -0.42539762403E+03  0.51811055714E+03  0.10100000352E+00 0.  1.
</event>
<event>
 5   0  0.1617721E-02  0.1077773E+04  0.7818609E-02  0.9227131E-01
       -2   -1    0    0    0  501  0.00000000000E+00  0.00000000000E+00  0.14113750313E+03  0.14113750315E+03  0.25500000920E-02 0. -1.
        2   -1    0    0  501    0  0.00000000000E+00  0.00000000000E+00 -0.20575580174E+04  0.20575580174E+04  0.25500000920E-02 0.  1.
    10030    2    1    2    0    0  0.00000000000E+00  0.00000000000E+00 -0.19164205143E+04  0.21986955205E+04  0.10777728910E+04 0.  0.
        5    1    3    3  502    0 -0.17600043211E+03 -0.50499240646E+03 -0.82315080588E+03  0.98162763913E+03  0.46999998093E+01 0.  1.
       -5    1    3    3    0  502  0.17600043211E+03  0.50499240646E+03 -0.10932697084E+04  0.12170678814E+04  0.46999998093E+01 0. -1.
</event>
<event>
 5   0  0.1663497E-02  0.1043238E+04  0.7818609E-02  0.9262354E-01
        2   -1    0    0  501    0  0.00000000000E+00  0.00000000000E+00  0.10379086562E+04  0.10379086562E+04  0.25500000920E-02 0. -1.
       -2   -1    0    0    0  501  0.00000000000E+00  0.00000000000E+00 -0.26214857392E+03  0.26214857393E+03  0.25500000920E-02 0.  1.
    10030    2    1    2    0    0  0.00000000000E+00  0.00000000000E+00  0.77576008230E+03  0.13000572301E+04  0.10432377947E+04 0.  0.
        1    1    3    3  502    0 -0.87236166488E+02  0.30576746285E+03 -0.12741367041E+03  0.34254654211E+03  0.50400001928E-02 0.  1.
       -1    1    3    3    0  502  0.87236166488E+02 -0.30576746285E+03  0.90317375271E+03  0.95751068803E+03  0.50400001928E-02 0. -1.
</event>
<event>
 5   0  0.9471140E-03  0.1044533E+04  0.7818609E-02  0.9261006E-01
        1   -1    0    0  501    0  0.00000000000E+00  0.00000000000E+00  0.38061347654E+03  0.38061347657E+03  0.50400001928E-02 0. -1.
       -1   -1    0    0    0  501  0.00000000000E+00  0.00000000000E+00 -0.71663915482E+03  0.71663915484E+03  0.50400001928E-02 0.  1.
    10030    2    1    2    0    0  0.00000000000E+00  0.00000000000E+00 -0.33602567829E+03  0.10972526314E+04  0.10445334273E+04 0.  0.
        4    1    3    3  502    0  0.13417964014E+03  0.29768337024E+03 -0.59618965275E+03  0.67975236644E+03  0.12699999809E+01 0.  1.
       -4    1    3    3    0  502 -0.13417964014E+03 -0.29768337024E+03  0.26016397446E+03  0.41750026497E+03  0.12699999809E+01 0. -1.
</event>
<event>
 5   0  0.1663497E-02  0.1013969E+04  0.7818609E-02  0.9293355E-01
       -2   -1    0    0    0  501  0.00000000000E+00  0.00000000000E+00  0.11225628530E+03  0.11225628533E+03  0.25500000920E-02 0.  1.
        2   -1    0    0  501    0  0.00000000000E+00  0.00000000000E+00 -0.22897001356E+04  0.22897001356E+04  0.25500000920E-02 0. -1.
    10030    2    1    2    0    0  0.00000000000E+00  0.00000000000E+00 -0.21774438503E+04  0.24019564209E+04  0.10139688983E+04 0.  0.
        1    1    3    3  502    0 -0.15456034580E+03 -0.47147188881E+03 -0.13355685492E+04  0.14247519055E+04  0.50400001928E-02 0. -1.
       -1    1    3    3    0  502  0.15456034580E+03  0.47147188881E+03 -0.84187530106E+03  0.97720451544E+03  0.50400001928E-02 0.  1.
</event>
<event>
 5   0  0.9471140E-03  0.1029469E+04  0.7818609E-02  0.9276801E-01
        1   -1    0    0  501    0  0.00000000000E+00  0.00000000000E+00  0.13497785252E+04  0.13497785252E+04  0.50400001928E-02 0.  1.
       -1   -1    0    0    0  501  0.00000000000E+00  0.00000000000E+00 -0.19629277195E+03  0.19629277202E+03  0.50400001928E-02 0. -1.
    10030    2    1    2    0    0  0.00000000000E+00  0.00000000000E+00  0.11534857533E+04  0.15460712972E+04  0.10294693163E+04 0.  0.
        4    1    3    3  502    0  0.28538614836E+03 -0.32332415930E+03  0.99876697647E+03  0.10878974455E+04  0.12699999809E+01 0.  1.
       -4    1    3    3    0  502 -0.28538614836E+03  0.32332415930E+03  0.15471877679E+03  0.45817385178E+03  0.12699999809E+01 0. -1.
</event>
<event>
 5   0  0.1656859E-02  0.1043753E+04  0.7818609E-02  0.9261818E-01
       -2   -1    0    0    0  501  0.00000000000E+00  0.00000000000E+00  0.16544389358E+03  0.16544389360E+03  0.25500000920E-02 0.  1.
        2   -1    0    0  501    0  0.00000000000E+00  0.00000000000E+00 -0.16462080494E+04  0.16462080494E+04  0.25500000920E-02 0. -1.
    10030    2    1    2    0    0  0.00000000000E+00  0.00000000000E+00 -0.14807641559E+04  0.18116519430E+04  0.10437529772E+04 0.  0.
        4    1    3    3  502    0  0.83144535295E+02 -0.40780796128E+03 -0.19388681585E+03  0.45914491971E+03  0.12699999809E+01 0.  1.
       -4    1    3    3    0  502 -0.83144535295E+02  0.40780796128E+03 -0.12868773400E+04  0.13525070233E+04  0.12699999809E+01 0. -1.
</event>
<event>
 5   0  0.9507815E-03  0.9983300E+03  0.7818609E-02  0.9310378E-01
        1   -1    0    0  501    0  0.00000000000E+00  0.00000000000E+00  0.36299662767E+03  0.36299662771E+03  0.50400001928E-02 0. -1.
       -1   -1    0    0    0  501  0.00000000000E+00  0.00000000000E+00 -0.68641332353E+03  0.68641332355E+03  0.50400001928E-02 0.  1.
    10030    2    1    2    0    0  0.00000000000E+00  0.00000000000E+00 -0.32341669585E+03  0.10494099513E+04  0.99833004895E+03 0.  0.
        1    1    3    3  502    0 -0.32513828657E+03 -0.14345173220E+02  0.23613382632E+03  0.40209435876E+03  0.50400001928E-02 0.  1.
       -1    1    3    3    0  502  0.32513828657E+03  0.14345173220E+02 -0.55955052218E+03  0.64731559249E+03  0.50400001928E-02 0. -1.
</event>
<event>
 5   0  0.1617721E-02  0.1002162E+04  0.7818609E-02  0.9306176E-01
        2   -1    0    0  501    0  0.00000000000E+00  0.00000000000E+00  0.78897826881E+03  0.78897826882E+03  0.25500000920E-02 0. -1.
       -2   -1    0    0    0  501  0.00000000000E+00  0.00000000000E+00 -0.31823725766E+03  0.31823725767E+03  0.25500000920E-02 0.  1.
    10030    2    1    2    0    0  0.00000000000E+00  0.00000000000E+00  0.47074101116E+03  0.11072155265E+04  0.10021622237E+04 0.  0.
        5    1    3    3  502    0 -0.32927304638E+03 -0.10571681115E+03  0.63595725672E+03  0.72392023428E+03  0.46999998093E+01 0. -1.
       -5    1    3    3    0  502  0.32927304638E+03  0.10571681115E+03 -0.16521624556E+03  0.38329529221E+03  0.46999998093E+01 0.  1.
</event>
<event>
 5   0  0.1617721E-02  0.1080329E+04  0.7818609E-02  0.9224579E-01
        2   -1    0    0  501    0  0.00000000000E+00  0.00000000000E+00  0.14345437963E+04  0.14345437963E+04  0.25500000920E-02 0.  1.
       -2   -1    0    0    0  501  0.00000000000E+00  0.00000000000E+00 -0.20339423556E+03  0.20339423558E+03  0.25500000920E-02 0. -1.
    10030    2    1    2    0    0  0.00000000000E+00  0.00000000000E+00  0.12311495608E+04  0.16379380319E+04  0.10803294661E+04 0.  0.
        5    1    3    3  502    0 -0.16259144170E+03 -0.24850477081E+03 -0.68483442365E+02  0.30479939289E+03  0.46999998093E+01 0. -1.
       -5    1    3    3    0  502  0.16259144170E+03  0.24850477081E+03  0.12996330031E+04  0.13331386390E+04  0.46999998093E+01 0.  1.
</event>
<event>
 5   0  0.1571895E-02  0.1008203E+04  0.7818609E-02  0.9299594E-01
        2   -1    0    0  501    0  0.00000000000E+00  0.00000000000E+00  0.48889642059E+03  0.48889642060E+03  0.25500000920E-02 0. -1.
       -2   -1    0    0    0  501  0.00000000000E+00  0.00000000000E+00 -0.51977926809E+03  0.51977926809E+03  0.25500000920E-02 0.  1.
    10030    2    1    2    0    0  0.00000000000E+00  0.00000000000E+00 -0.30882847498E+02  0.10086756887E+04  0.10082028043E+04 0.  0.
        2    1    3    3  502    0  0.41415310593E+02 -0.83154043948E+02 -0.51114167687E+03  0.51951480905E+03  0.25500000920E-02 0.  1.
       -2    1    3    3    0  502 -0.41415310593E+02  0.83154043948E+02  0.48025882937E+03  0.48916087964E+03  0.25500000920E-02 0. -1.
</event>
<event>
 5   0  0.1571895E-02  0.1054143E+04  0.7818609E-02  0.9251077E-01
        2   -1    0    0  501    0  0.00000000000E+00  0.00000000000E+00  0.10644559005E+04  0.10644559005E+04  0.25500000920E-02 0.  1.
       -2   -1    0    0    0  501  0.00000000000E+00  0.00000000000E+00 -0.26098266909E+03  0.26098266910E+03  0.25500000920E-02 0. -1.
    10030    2    1    2    0    0  0.00000000000E+00  0.00000000000E+00  0.80347323143E+03  0.13254385696E+04  0.10541433338E+04 0.  0.
        2    1    3    3  502    0  0.64896726995E+02  0.28440377127E+02  0.10584403188E+04  0.10608092895E+04  0.25500000920E-02 0.  1.
       -2    1    3    3    0  502 -0.64896726995E+02 -0.28440377127E+02 -0.25496708739E+03  0.26462928010E+03  0.25500000920E-02 0. -1.
</event>
<event>
 5   0  0.1663497E-02  0.1010504E+04  0.7818609E-02  0.9297099E-01
       -2   -1    0    0    0  501  0.00000000000E+00  0.00000000000E+00  0.65694066702E+03  0.65694066702E+03  0.25500000920E-02 0.  1.
        2   -1    0    0  501    0  0.00000000000E+00  0.00000000000E+00 -0.38858822531E+03  0.38858822532E+03  0.25500000920E-02 0. -1.
    10030    2    1    2    0    0  0.00000000000E+00  0.00000000000E+00  0.26835244171E+03  0.10455288923E+04  0.10105036525E+04 0.  0.
        1    1    3    3  502    0  0.75182092023E+02  0.37120637144E+03  0.48018166057E+03  0.61157251764E+03  0.50400001928E-02 0.  1.
       -1    1    3    3    0  502 -0.75182092023E+02 -0.37120637144E+03 -0.21182921887E+03  0.43395637470E+03  0.50400001928E-02 0. -1.
</event>
<event>
 5   0  0.1000773E-02  0.9866961E+03  0.7818609E-02  0.9323258E-01
        1   -1    0    0  501    0  0.00000000000E+00  0.00000000000E+00  0.87746928462E+03  0.87746928464E+03  0.50400001928E-02 0.  1.
       -1   -1    0    0    0  501  0.00000000000E+00  0.00000000000E+00 -0.27737982606E+03  0.27737982611E+03  0.50400001928E-02 0. -1.
    10030    2    1    2    0    0  0.00000000000E+00  0.00000000000E+00  0.60008945856E+03  0.11548491107E+04  0.98669605771E+03 0.  0.
        3    1    3    3  502    0  0.18231738017E+03  0.32437625990E+03  0.67918266263E+03  0.77443442881E+03  0.10100000352E+00 0.  1.
       -3    1    3    3    0  502 -0.18231738017E+03 -0.32437625990E+03 -0.79093204070E+02  0.38041468194E+03  0.10100000352E+00 0. -1.
</event>
<event>
 5   0  0.1000773E-02  0.9831791E+03  0.7818609E-02  0.9327188E-01
       -1   -1    0    0    0  501  0.00000000000E+00  0.00000000000E+00  0.25574917681E+03  0.25574917686E+03  0.50400001928E-02 0.  1.
        1   -1    0    0  501    0  0.00000000000E+00  0.00000000000E+00 -0.94491134601E+03  0.94491134602E+03  0.50400001928E-02 0. -1.
    10030    2    1    2    0    0  0.00000000000E+00  0.00000000000E+00 -0.68916216919E+03  0.12006605229E+04  0.98317912699E+03 0.  0.
        3    1    3    3  502    0  0.13726225309E+03 -0.57601913016E+02  0.22756405288E+03  0.27192703961E+03  0.10100000352E+00 0.  1.
       -3    1    3    3    0  502 -0.13726225309E+03  0.57601913016E+02 -0.91672622207E+03  0.92873348327E+03  0.10100000352E+00 0. -1.
</event>
<event>
 5   0  0.6314750E-03  0.9722052E+03  0.7818609E-02  0.9339566E-01
       -3   -1    0    0    0  501  0.00000000000E+00  0.00000000000E+00  0.10457344795E+04  0.10457344844E+04  0.10100000352E+00 0. -1.
        3   -1    0    0  501    0  0.00000000000E+00  0.00000000000E+00 -0.22596149787E+03  0.22596152044E+03  0.10100000352E+00 0.  1.
    10030    2    1    2    0    0  0.00000000000E+00  0.00000000000E+00  0.81977298165E+03  0.12716960048E+04  0.97220521871E+03 0.  0.
        1    1    3    3  502    0  0.61830110207E+02 -0.46059771694E+03  0.59635874376E+03  0.75605355013E+03  0.50400001928E-02 0. -1.
       -1    1    3    3    0  502 -0.61830110207E+02  0.46059771694E+03  0.22341423789E+03  0.51564245471E+03  0.50400001928E-02 0.  1.
</event>
<event>
 5   0  0.1598986E-02  0.1013123E+04  0.7818609E-02  0.9294267E-01
        2   -1    0    0  501    0  0.00000000000E+00  0.00000000000E+00  0.66874397173E+03  0.66874397173E+03  0.25500000920E-02 0.  1.
       -2   -1    0    0    0  501  0.00000000000E+00  0.00000000000E+00 -0.38371145951E+03  0.38371145952E+03  0.25500000920E-02 0. -1.
    10030    2    1    2    0    0  0.00000000000E+00  0.00000000000E+00  0.28503251222E+03  0.10524554313E+04  0.10131233399E+04 0.  0.
        3    1    3    3  502    0  0.14413217224E+03 -0.66577433778E+02  0.64222996786E+03  0.66156328464E+03  0.10100000352E+00 0.  1.
       -3    1    3    3    0  502 -0.14413217224E+03  0.66577433778E+02 -0.35719745564E+03  0.39089214661E+03  0.10100000352E+00 0. -1.
</event>
<event>
 5   0  0.9507815E-03  0.9929565E+03  0.7818609E-02  0.9316304E-01
       -1   -1    0    0    0  501  0.00000000000E+00  0.00000000000E+00  0.52628386817E+03  0.52628386819E+03  0.50400001928E-02 0. -1.
        1   -1    0    0  501    0  0.00000000000E+00  0.00000000000E+00 -0.46836062465E+03  0.46836062467E+03  0.50400001928E-02 0.  1.
    10030    2    1    2    0    0  0.00000000000E+00  0.00000000000E+00  0.57923243523E+02  0.99464449287E+03  0.99295647692E+03 0.  0.
        1    1    3    3  502    0 -0.33605569705E+03  0.10883599350E+03  0.37842707942E+03  0.51767341004E+03  0.50400001928E-02 0. -1.
       -1    1    3    3    0  502  0.33605569705E+03 -0.10883599350E+03 -0.32050383590E+03  0.47697108283E+03  0.50400001928E-02 0.  1.
</event>
<event>
 5   0  0.1571895E-02  0.1004916E+04  0.7818609E-02  0.9303170E-01
       -2   -1    0    0    0  501  0.00000000000E+00  0.00000000000E+00  0.23859507537E+03  0.23859507539E+03  0.25500000920E-02 0.  1.
        2   -1    0    0  501    0  0.00000000000E+00  0.00000000000E+00 -0.10581272955E+04  0.10581272955E+04  0.25500000920E-02 0. -1.
    10030    2    1    2    0    0  0.00000000000E+00  0.00000000000E+00 -0.81953222016E+03  0.12967223709E+04  0.10049158409E+04 0.  0.
        2    1    3    3  502    0  0.15595973204E+03 -0.15587718007E+03 -0.99235879806E+03  0.10165614184E+04  0.25500000920E-02 0. -1.
       -2    1    3    3    0  502 -0.15595973204E+03  0.15587718007E+03  0.17282657790E+03  0.28016095252E+03  0.25500000920E-02 0.  1.
</event>
<event>
 5   0  0.9471140E-03  0.1005822E+04  0.7818609E-02  0.9302183E-01
       -1   -1    0    0    0  501  0.00000000000E+00  0.00000000000E+00  0.33580329080E+03  0.33580329084E+03  0.50400001928E-02 0.  1.
        1   -1    0    0  501    0  0.00000000000E+00  0.00000000000E+00 -0.75317712446E+03  0.75317712448E+03  0.50400001928E-02 0. -1.
    10030    2    1    2    0    0  0.00000000000E+00  0.00000000000E+00 -0.41737383366E+03  0.10889804153E+04  0.10058217675E+04 0.  0.
        4    1    3    3  502    0  0.14654658389E+03  0.28493465931E+03  0.21098719495E+03  0.38364159141E+03  0.12699999809E+01 0.  1.
       -4    1    3    3    0  502 -0.14654658389E+03 -0.28493465931E+03 -0.62836102862E+03  0.70533882391E+03  0.12699999809E+01 0. -1.
</event>
<event>
 5   0  0.9507815E-03  0.1022898E+04  0.7818609E-02  0.9283781E-01
       -1   -1    0    0    0  501  0.00000000000E+00  0.00000000000E+00  0.29860236493E+03  0.29860236498E+03  0.50400001928E-02 0. -1.
        1   -1    0    0  501    0  0.00000000000E+00  0.00000000000E+00 -0.87601437445E+03  0.87601437446E+03  0.50400001928E-02 0.  1.
    10030    2    1    2    0    0  0.00000000000E+00  0.00000000000E+00 -0.57741200952E+03  0.11746167394E+04  0.10228977739E+04 0.  0.
        1    1    3    3  502    0 -0.49004214164E+03 -0.12543601812E+03 -0.37543644547E+03  0.62994287030E+03  0.50400001928E-02 0.  1.
       -1    1    3    3    0  502  0.49004214164E+03  0.12543601812E+03 -0.20197556404E+03  0.54467386914E+03  0.50400001928E-02 0. -1.
</event>
<event>
 5   0  0.9759443E-03  0.1181631E+04  0.7818609E-02  0.9129089E-01
        1   -1    0    0  501    0  0.00000000000E+00  0.00000000000E+00  0.85357937387E+03  0.85357937389E+03  0.50400001928E-02 0.  1.
       -1   -1    0    0    0  501  0.00000000000E+00  0.00000000000E+00 -0.40894004084E+03  0.40894004087E+03  0.50400001928E-02 0. -1.
    10030    2    1    2    0    0  0.00000000000E+00  0.00000000000E+00  0.44463933303E+03  0.12625194148E+04  0.11816307106E+04 0.  0.
        2    1    3    3  502    0  0.50579803653E+03 -0.12900828003E+03  0.51800967023E+03  0.73539704143E+03  0.25500000920E-02 0.  1.
       -2    1    3    3    0  502 -0.50579803653E+03  0.12900828003E+03 -0.73370337197E+02  0.52712237333E+03  0.25500000920E-02 0. -1.
</event>
<event>
 5   0  0.1000773E-02  0.1166620E+04  0.7818609E-02  0.9142586E-01
        1   -1    0    0  501    0  0.00000000000E+00  0.00000000000E+00  0.78413573652E+03  0.78413573654E+03  0.50400001928E-02 0. -1.
       -1   -1    0    0    0  501  0.00000000000E+00  0.00000000000E+00 -0.43391823811E+03  0.43391823814E+03  0.50400001928E-02 0.  1.
    10030    2    1    2    0    0  0.00000000000E+00  0.00000000000E+00  0.35021749841E+03  0.12180539747E+04  0.11666204134E+04 0.  0.
        3    1    3    3  502    0  0.36191367520E+03 -0.94942495709E+01  0.65263378559E+03  0.74632601279E+03  0.10100000352E+00 0. -1.
       -3    1    3    3    0  502 -0.36191367520E+03  0.94942495709E+01 -0.30241628718E+03  0.47172796188E+03  0.10100000352E+00 0.  1.
</event>
<event>
 5   0  0.1656859E-02  0.9966527E+03  0.7818609E-02  0.9312224E-01
       -2   -1    0    0    0  501  0.00000000000E+00  0.00000000000E+00  0.25582504598E+03  0.25582504599E+03  0.25500000920E-02 0. -1.
        2   -1    0    0  501    0  0.00000000000E+00  0.00000000000E+00 -0.97069904895E+03  0.97069904895E+03  0.25500000920E-02 0.  1.
    10030    2    1    2    0    0  0.00000000000E+00  0.00000000000E+00 -0.71487400297E+03  0.12265240949E+04  0.99665265532E+03 0.  0.
        4    1    3    3  502    0 -0.27705267437E+03 -0.41095750103E+03 -0.42118461796E+03  0.65041705646E+03  0.12699999809E+01 0.  1.
       -4    1    3    3    0  502  0.27705267437E+03  0.41095750103E+03 -0.29368938501E+03  0.57610703849E+03  0.12699999809E+01 0. -1.
</event>
<event>
 5   0  0.1656859E-02  0.1014738E+04  0.7818609E-02  0.9292526E-01
        2   -1    0    0  501    0  0.00000000000E+00  0.00000000000E+00  0.32240580333E+03  0.32240580334E+03  0.25500000920E-02 0.  1.
       -2   -1    0    0    0  501  0.00000000000E+00  0.00000000000E+00 -0.79844553970E+03  0.79844553970E+03  0.25500000920E-02 0. -1.
    10030    2    1    2    0    0  0.00000000000E+00  0.00000000000E+00 -0.47603973637E+03  0.11208513430E+04  0.10147383419E+04 0.  0.
        4    1    3    3  502    0  0.42023750787E+03 -0.12100353849E+03  0.46137408763E+02  0.43974048339E+03  0.12699999809E+01 0.  1.
       -4    1    3    3    0  502 -0.42023750787E+03  0.12100353849E+03 -0.52217714513E+03  0.68111085966E+03  0.12699999809E+01 0. -1.
</event>
<event>
 5   0  0.9759443E-03  0.1118621E+04  0.7818609E-02  0.9187230E-01
        1   -1    0    0  501    0  0.00000000000E+00  0.00000000000E+00  0.16655382118E+04  0.16655382118E+04  0.50400001928E-02 0.  1.
       -1   -1    0    0    0  501  0.00000000000E+00  0.00000000000E+00 -0.18782426295E+03  0.18782426302E+03  0.50400001928E-02 0. -1.
    10030    2    1    2    0    0  0.00000000000E+00  0.00000000000E+00  0.14777139488E+04  0.18533624748E+04  0.11186214500E+04 0.  0.
        2    1    3    3  502    0  0.35919281452E+03  0.38124459442E+02  0.14463736778E+04  0.14907950121E+04  0.25500000920E-02 0.  1.
       -2    1    3    3    0  502 -0.35919281452E+03 -0.38124459442E+02  0.31340271075E+02  0.36256746270E+03  0.25500000920E-02 0. -1.
</event>
<event>
 5   0  0.1656859E-02  0.9853443E+03  0.7818609E-02  0.9324767E-01
        2   -1    0    0  501    0  0.00000000000E+00  0.00000000000E+00  0.30616935315E+03  0.30616935316E+03  0.25500000920E-02 0.  1.
       -2   -1    0    0    0  501  0.00000000000E+00  0.00000000000E+00 -0.79278296963E+03  0.79278296963E+03  0.25500000920E-02 0. -1.
    10030    2    1    2    0    0  0.00000000000E+00  0.00000000000E+00 -0.48661361648E+03  0.10989523228E+04  0.98534430329E+03 0.  0.
        4    1    3    3  502    0  0.60220621804E+02 -0.56387521681E+02  0.29840902286E+03  0.30960560995E+03  0.12699999809E+01 0.  1.
       -4    1    3    3    0  502 -0.60220621804E+02  0.56387521681E+02 -0.78502263934E+03  0.78934671284E+03  0.12699999809E+01 0. -1.
</event>
<event>
 5   0  0.1663497E-02  0.1040533E+04  0.7818609E-02  0.9265173E-01
       -2   -1    0    0    0  501  0.00000000000E+00  0.00000000000E+00  0.61036973248E+03  0.61036973248E+03  0.25500000920E-02 0. -1.
        2   -1    0    0  501    0  0.00000000000E+00  0.00000000000E+00 -0.44346402469E+03  0.44346402470E+03  0.25500000920E-02 0.  1.
    10030    2    1    2    0    0  0.00000000000E+00  0.00000000000E+00  0.16690570779E+03  0.10538337572E+04  0.10405325908E+04 0.  0.
        1    1    3    3  502    0  0.22774692343E+03  0.17188225180E+03  0.52405986081E+03  0.59670001454E+03  0.50400001928E-02 0. -1.
       -1    1    3    3    0  502 -0.22774692343E+03 -0.17188225180E+03 -0.35715415302E+03  0.45713374264E+03  0.50400001928E-02 0.  1.
</event>
<event>
 5   0  0.1656859E-02  0.9982526E+03  0.7818609E-02  0.9310463E-01
        2   -1    0    0  501    0  0.00000000000E+00  0.00000000000E+00  0.10482364971E+04  0.10482364971E+04  0.25500000920E-02 0. -1.
       -2   -1    0    0    0  501  0.00000000000E+00  0.00000000000E+00 -0.23766300962E+03  0.23766300964E+03  0.25500000920E-02 0.  1.
    10030    2    1    2    0    0  0.00000000000E+00  0.00000000000E+00  0.81057348752E+03  0.12858995068E+04  0.99825255465E+03 0.  0.
        4    1    3    3  502    0  0.22151260531E+03  0.18756285313E+03 -0.11776860967E+03  0.31323907245E+03  0.12699999809E+01 0.  1.
       -4    1    3    3    0  502 -0.22151260531E+03 -0.18756285313E+03  0.92834209719E+03  0.97266043433E+03  0.12699999809E+01 0. -1.
</event>
<event>
 5   0  0.1000773E-02  0.9786661E+03  0.7818609E-02  0.9332258E-01
        1   -1    0    0  501    0  0.00000000000E+00  0.00000000000E+00  0.34840589594E+03  0.34840589598E+03  0.50400001928E-02 0. -1.
       -1   -1    0    0    0  501  0.00000000000E+00  0.00000000000E+00 -0.68726400940E+03  0.68726400942E+03  0.50400001928E-02 0.  1.
    10030    2    1    2    0    0  0.00000000000E+00  0.00000000000E+00 -0.33885811346E+03  0.10356699054E+04  0.97866609826E+03 0.  0.
        3    1    3    3  502    0  0.20299085796E+03  0.23584247332E+02 -0.63994464883E+03  0.67178171224E+03  0.10100000352E+00 0.  1.
       -3    1    3    3    0  502 -0.20299085796E+03 -0.23584247332E+02  0.30108653537E+03  0.36388819316E+03  0.10100000352E+00 0. -1.
</event>
<event>
 5   0  0.1617721E-02  0.1049568E+04  0.7818609E-02  0.9255790E-01
       -2   -1    0    0    0  501  0.00000000000E+00  0.00000000000E+00  0.23185956061E+03  0.23185956062E+03  0.25500000920E-02 0.  1.
        2   -1    0    0  501    0  0.00000000000E+00  0.00000000000E+00 -0.11877808719E+04  0.11877808719E+04  0.25500000920E-02 0. -1.
    10030    2    1    2    0    0  0.00000000000E+00  0.00000000000E+00 -0.95592131134E+03  0.14196404326E+04  0.10495681990E+04 0.  0.
        5    1    3    3  502    0 -0.14278325927E+03 -0.76654683330E+02 -0.11530575659E+04  0.11643997766E+04  0.46999998093E+01 0. -1.
       -5    1    3    3    0  502  0.14278325927E+03  0.76654683330E+02  0.19713625452E+03  0.25524065595E+03  0.46999998093E+01 0.  1.
</event>
<event>
 5   0  0.1000773E-02  0.9872783E+03  0.7818609E-02  0.9322609E-01
        1   -1    0    0  501    0  0.00000000000E+00  0.00000000000E+00  0.83749359982E+03  0.83749359984E+03  0.50400001928E-02 0. -1.
       -1   -1    0    0    0  501  0.00000000000E+00  0.00000000000E+00 -0.29096298164E+03  0.29096298168E+03  0.50400001928E-02 0.  1.
    10030    2    1    2    0    0  0.00000000000E+00  0.00000000000E+00  0.54653061818E+03  0.11284565815E+04  0.98727834969E+03 0.  0.
        3    1    3    3  502    0  0.22744844860E+03  0.43752611110E+03  0.24725790901E+03  0.55163246680E+03  0.10100000352E+00 0.  1.
       -3    1    3    3    0  502 -0.22744844860E+03 -0.43752611110E+03  0.29927270917E+03  0.57682411472E+03  0.10100000352E+00 0. -1.
</event>
<event>
 5   0  0.1000773E-02  0.9935809E+03  0.7818609E-02  0.9315613E-01
        1   -1    0    0  501    0  0.00000000000E+00  0.00000000000E+00  0.11716985395E+04  0.11716985395E+04  0.50400001928E-02 0.  1.
       -1   -1    0    0    0  501  0.00000000000E+00  0.00000000000E+00 -0.21063504473E+03  0.21063504479E+03  0.50400001928E-02 0. -1.
    10030    2    1    2    0    0  0.00000000000E+00  0.00000000000E+00  0.96106349475E+03  0.13823335843E+04  0.99358094653E+03 0.  0.
        3    1    3    3  502    0  0.34946093180E+03  0.32543894948E+03  0.28993712832E+03  0.55865642507E+03  0.10100000352E+00 0. -1.
       -3    1    3    3    0  502 -0.34946093180E+03 -0.32543894948E+03  0.67112636643E+03  0.82367715922E+03  0.10100000352E+00 0.  1.
</event>
<event>
 5   0  0.1598986E-02  0.1003240E+04  0.7818609E-02  0.9304999E-01
        2   -1    0    0  501    0  0.00000000000E+00  0.00000000000E+00  0.57039123047E+03  0.57039123047E+03  0.25500000920E-02 0.  1.
       -2   -1    0    0    0  501  0.00000000000E+00  0.00000000000E+00 -0.44114011613E+03  0.44114011614E+03  0.25500000920E-02 0. -1.
    10030    2    1    2    0    0  0.00000000000E+00  0.00000000000E+00  0.12925111433E+03  0.10115313466E+04  0.10032396596E+04 0.  0.
        3    1    3    3  502    0  0.44782750448E+03 -0.67062968249E+02  0.28222287958E+03  0.53356975125E+03  0.10100000352E+00 0.  1.
       -3    1    3    3    0  502 -0.44782750448E+03  0.67062968249E+02 -0.15297176525E+03  0.47796159537E+03  0.10100000352E+00 0. -1.
</event>
<event>
 5   0  0.9507815E-03  0.1028520E+04  0.7818609E-02  0.9277806E-01
       -1   -1    0    0    0  501  0.00000000000E+00  0.00000000000E+00  0.27747848000E+03  0.27747848004E+03  0.50400001928E-02 0.  1.
        1   -1    0    0  501    0  0.00000000000E+00  0.00000000000E+00 -0.95309444440E+03  0.95309444441E+03  0.50400001928E-02 0. -1.
    10030    2    1    2    0    0  0.00000000000E+00  0.00000000000E+00 -0.67561596440E+03  0.12305729245E+04  0.10285197086E+04 0.  0.
        1    1    3    3  502    0 -0.15119050834E+03 -0.18676143256E+03  0.20618215077E+03  0.31662198570E+03  0.50400001928E-02 0.  1.
       -1    1    3    3    0  502  0.15119050834E+03  0.18676143256E+03 -0.88179811517E+03  0.91395093876E+03  0.50400001928E-02 0. -1.
</event>
<event>
 5   0  0.9471140E-03  0.9999115E+03  0.7818609E-02  0.9308642E-01
       -1   -1    0    0    0  501  0.00000000000E+00  0.00000000000E+00  0.74065168826E+03  0.74065168827E+03  0.50400001928E-02 0.  1.
        1   -1    0    0  501    0  0.00000000000E+00  0.00000000000E+00 -0.33748081506E+03  0.33748081510E+03  0.50400001928E-02 0. -1.
    10030    2    1    2    0    0  0.00000000000E+00  0.00000000000E+00  0.40317087319E+03  0.10781325034E+04  0.99991146700E+03 0.  0.
        4    1    3    3  502    0  0.15243489430E+03 -0.10730222632E+03 -0.29860538406E+03  0.35201839876E+03  0.12699999809E+01 0. -1.
       -4    1    3    3    0  502 -0.15243489430E+03  0.10730222632E+03  0.70177625726E+03  0.72611410462E+03  0.12699999809E+01 0.  1.
</event>
<event>
 5   0  0.9396660E-03  0.9442426E+03  0.7818609E-02  0.9371906E-01
        1   -1    0    0  501    0  0.00000000000E+00  0.00000000000E+00  0.88081569094E+03  0.88081569095E+03  0.50400001928E-02 0. -1.
       -1   -1    0    0    0  501  0.00000000000E+00  0.00000000000E+00 -0.25305920977E+03  0.25305920982E+03  0.50400001928E-02 0.  1.
    10030    2    1    2    0    0  0.00000000000E+00  0.00000000000E+00  0.62775648117E+03  0.11338749008E+04  0.94424260174E+03 0.  0.
        5    1    3    3  502    0  0.28115101143E+03 -0.34532073558E+03  0.50216031854E+03  0.67117760478E+03  0.46999998093E+01 0.  1.
       -5    1    3    3    0  502 -0.28115101143E+03  0.34532073558E+03  0.12559616263E+03  0.46269729599E+03  0.46999998093E+01 0. -1.
</event>
<event>
 5   0  0.9471140E-03  0.1006460E+04  0.7818609E-02  0.9301488E-01
       -1   -1    0    0    0  501  0.00000000000E+00  0.00000000000E+00  0.25318450162E+03  0.25318450167E+03  0.50400001928E-02 0.  1.
        1   -1    0    0  501    0  0.00000000000E+00  0.00000000000E+00 -0.10002206007E+04  0.10002206007E+04  0.50400001928E-02 0. -1.
    10030    2    1    2    0    0  0.00000000000E+00  0.00000000000E+00 -0.74703609908E+03  0.12534051024E+04  0.10064598439E+04 0.  0.
        4    1    3    3  502    0  0.23455773995E+03 -0.26122771526E+03  0.75471011278E+02  0.35910268592E+03  0.12699999809E+01 0.  1.
       -4    1    3    3    0  502 -0.23455773995E+03  0.26122771526E+03 -0.82250711036E+03  0.89430241645E+03  0.12699999809E+01 0. -1.
</event>
<event>
 5   0  0.9507815E-03  0.1436323E+04  0.7818609E-02  0.8927938E-01
        1   -1    0    0  501    0  0.00000000000E+00  0.00000000000E+00  0.90699597016E+03  0.90699597017E+03  0.50400001928E-02 0. -1.
       -1   -1    0    0    0  501  0.00000000000E+00  0.00000000000E+00 -0.56864177418E+03  0.56864177421E+03  0.50400001928E-02 0.  1.
    10030    2    1    2    0    0  0.00000000000E+00  0.00000000000E+00  0.33835419597E+03  0.14756377444E+04  0.14363228017E+04 0.  0.
        1    1    3    3  502    0  0.27197767447E+03  0.63264161928E+03  0.37859099528E+03  0.78583612515E+03  0.50400001928E-02 0.  1.
       -1    1    3    3    0  502 -0.27197767447E+03 -0.63264161928E+03 -0.40236799306E+02  0.68980161923E+03  0.50400001928E-02 0. -1.
</event>
<event>
 5   0  0.1656859E-02  0.1022554E+04  0.7818609E-02  0.9284148E-01
        2   -1    0    0  501    0  0.00000000000E+00  0.00000000000E+00  0.50656444328E+03  0.50656444328E+03  0.25500000920E-02 0.  1.
       -2   -1    0    0    0  501  0.00000000000E+00  0.00000000000E+00 -0.51603380780E+03  0.51603380781E+03  0.25500000920E-02 0. -1.
    10030    2    1    2    0    0  0.00000000000E+00  0.00000000000E+00 -0.94693645284E+01  0.10225982511E+04  0.10225544065E+04 0.  0.
        4    1    3    3  502    0  0.31094508066E+03  0.36026943921E+03 -0.19161659269E+03  0.51302967118E+03  0.12699999809E+01 0.  1.
       -4    1    3    3    0  502 -0.31094508066E+03 -0.36026943921E+03  0.18214722816E+03  0.50956857992E+03  0.12699999809E+01 0. -1.
</event>
<event>
 5   0  0.9471140E-03  0.9856838E+03  0.7818609E-02  0.9324387E-01
        1   -1    0    0  501    0  0.00000000000E+00  0.00000000000E+00  0.47265698794E+03  0.47265698796E+03  0.50400001928E-02 0.  1.
       -1   -1    0    0    0  501  0.00000000000E+00  0.00000000000E+00 -0.51388880685E+03  0.51388880687E+03  0.50400001928E-02 0. -1.
    10030    2    1    2    0    0  0.00000000000E+00  0.00000000000E+00 -0.41231818909E+02  0.98654579483E+03  0.98568379434E+03 0.  0.
        4    1    3    3  502    0 -0.45136233788E+03  0.19133449165E+03 -0.71203903458E+02  0.49538717840E+03  0.12699999809E+01 0. -1.
       -4    1    3    3    0  502  0.45136233788E+03 -0.19133449165E+03  0.29972084549E+02  0.49115861644E+03  0.12699999809E+01 0.  1.
</event>
<event>
 5   0  0.9471140E-03  0.9623442E+03  0.7818609E-02  0.9350837E-01
        1   -1    0    0  501    0  0.00000000000E+00  0.00000000000E+00  0.92749087571E+03  0.92749087572E+03  0.50400001928E-02 0. -1.
       -1   -1    0    0    0  501  0.00000000000E+00  0.00000000000E+00 -0.24962680293E+03  0.24962680298E+03  0.50400001928E-02 0.  1.
    10030    2    1    2    0    0  0.00000000000E+00  0.00000000000E+00  0.67786407278E+03  0.11771176787E+04  0.96234418393E+03 0.  0.
        4    1    3    3  502    0 -0.10736321655E+03  0.22975772064E+03  0.83910467308E+03  0.87659211481E+03  0.12699999809E+01 0. -1.
       -4    1    3    3    0  502  0.10736321655E+03 -0.22975772064E+03 -0.16124060031E+03  0.30052556389E+03  0.12699999809E+01 0.  1.
</event>
<event>
 5   0  0.1000773E-02  0.9260445E+03  0.7818609E-02  0.9393598E-01
       -1   -1    0    0    0  501  0.00000000000E+00  0.00000000000E+00  0.12079327647E+03  0.12079327657E+03  0.50400001928E-02 0. -1.
        1   -1    0    0  501    0  0.00000000000E+00  0.00000000000E+00 -0.17748469861E+04  0.17748469861E+04  0.50400001928E-02 0.  1.
    10030    2    1    2    0    0  0.00000000000E+00  0.00000000000E+00 -0.16540537097E+04  0.18956402627E+04  0.92604445420E+03 0.  0.
        3    1    3    3  502    0 -0.38151560467E+02 -0.16354975266E+03 -0.17103040705E+04  0.17185296293E+04  0.10100000352E+00 0.  1.
       -3    1    3    3    0  502  0.38151560467E+02  0.16354975266E+03  0.56250360830E+02  0.17711063337E+03  0.10100000352E+00 0. -1.
</event>
<event>
 5   0  0.1000773E-02  0.1005469E+04  0.7818609E-02  0.9302567E-01
        1   -1    0    0  501    0  0.00000000000E+00  0.00000000000E+00  0.87992846734E+03  0.87992846735E+03  0.50400001928E-02 0.  1.
       -1   -1    0    0    0  501  0.00000000000E+00  0.00000000000E+00 -0.28722991196E+03  0.28722991201E+03  0.50400001928E-02 0. -1.
    10030    2    1    2    0    0  0.00000000000E+00  0.00000000000E+00  0.59269855537E+03  0.11671583794E+04  0.10054685997E+04 0.  0.
        3    1    3    3  502    0  0.40741943588E+03  0.21388881314E+03  0.53140333156E+03  0.70294276589E+03  0.10100000352E+00 0.  1.
       -3    1    3    3    0  502 -0.40741943588E+03 -0.21388881314E+03  0.61295223810E+02  0.46421561346E+03  0.10100000352E+00 0. -1.
</event>
<event>
 5   0  0.1656859E-02  0.9388429E+03  0.7818609E-02  0.9378287E-01
       -2   -1    0    0    0  501  0.00000000000E+00  0.00000000000E+00  0.47334961300E+03  0.47334961301E+03  0.25500000920E-02 0. -1.
        2   -1    0    0  501    0  0.00000000000E+00  0.00000000000E+00 -0.46552585310E+03  0.46552585310E+03  0.25500000920E-02 0.  1.
    10030    2    1    2    0    0  0.00000000000E+00  0.00000000000E+00  0.78237599035E+01  0.93887546611E+03  0.93884286739E+03 0.  0.
        4    1    3    3  502    0 -0.36029755860E+03 -0.28723129006E+03  0.93573929025E+02  0.47018489748E+03  0.12699999809E+01 0.  1.
       -4    1    3    3    0  502  0.36029755860E+03  0.28723129006E+03 -0.85750169122E+02  0.46869056863E+03  0.12699999809E+01 0. -1.
</event>
<event>
 5   0  0.9759443E-03  0.1004666E+04  0.7818609E-02  0.9303442E-01
       -1   -1    0    0    0  501  0.00000000000E+00  0.00000000000E+00  0.26661139260E+03  0.26661139265E+03  0.50400001928E-02 0.  1.
        1   -1    0    0  501    0  0.00000000000E+00  0.00000000000E+00 -0.94646445907E+03  0.94646445908E+03  0.50400001928E-02 0. -1.
    10030    2    1    2    0    0  0.00000000000E+00  0.00000000000E+00 -0.67985306646E+03  0.12130758517E+04  0.10046655314E+04 0.  0.
        2    1    3    3  502    0  0.95716723466E+01 -0.32288707789E+03  0.12457099913E+03  0.34621614031E+03  0.25500000920E-02 0.  1.
       -2    1    3    3    0  502 -0.95716723466E+01  0.32288707789E+03 -0.80442406560E+03  0.86685971143E+03  0.25500000920E-02 0. -1.
</event>
<event>
 5   0  0.9471140E-03  0.6422646E+03  0.7818609E-02  0.9821403E-01
       -1   -1    0    0    0  501  0.00000000000E+00  0.00000000000E+00  0.12584337972E+03  0.12584337982E+03  0.50400001928E-02 0. -1.
        1   -1    0    0  501    0  0.00000000000E+00  0.00000000000E+00 -0.81947849773E+03  0.81947849774E+03  0.50400001928E-02 0.  1.
    10030    2    1    2    0    0  0.00000000000E+00  0.00000000000E+00 -0.69363511800E+03  0.94532187756E+03  0.64226456798E+03 0.  0.
        4    1    3    3  502    0  0.18864603441E+03 -0.24844503226E+03 -0.23460765669E+03  0.39032630686E+03  0.12699999809E+01 0.  1.
       -4    1    3    3    0  502 -0.18864603441E+03  0.24844503226E+03 -0.45902746132E+03  0.55499557070E+03  0.12699999809E+01 0. -1.
</event>
<event>
 5   0  0.1656859E-02  0.1000377E+04  0.7818609E-02  0.9308132E-01
        2   -1    0    0  501    0  0.00000000000E+00  0.00000000000E+00  0.12003351238E+04  0.12003351238E+04  0.25500000920E-02 0.  1.
       -2   -1    0    0    0  501  0.00000000000E+00  0.00000000000E+00 -0.20843204301E+03  0.20843204302E+03  0.25500000920E-02 0. -1.
    10030    2    1    2    0    0  0.00000000000E+00  0.00000000000E+00  0.99190308077E+03  0.14087671668E+04  0.10003765334E+04 0.  0.
        4    1    3    3  502    0 -0.21035200972E+03 -0.17588861732E+03 -0.93159452625E+02  0.28959466536E+03  0.12699999809E+01 0. -1.
       -4    1    3    3    0  502  0.21035200972E+03  0.17588861732E+03  0.10850625334E+04  0.11191725014E+04  0.12699999809E+01 0.  1.
</event>
<event>
 5   0  0.1617721E-02  0.1008648E+04  0.7818609E-02  0.9299110E-01
       -2   -1    0    0    0  501  0.00000000000E+00  0.00000000000E+00  0.45555329451E+03  0.45555329452E+03  0.25500000920E-02 0. -1.
        2   -1    0    0  501    0  0.00000000000E+00  0.00000000000E+00 -0.55831655470E+03  0.55831655470E+03  0.25500000920E-02 0.  1.
    10030    2    1    2    0    0  0.00000000000E+00  0.00000000000E+00 -0.10276326019E+03  0.10138698492E+04  0.10086484935E+04 0.  0.
        5    1    3    3  502    0 -0.42893102814E+03 -0.26461004555E+03 -0.33384960952E+02  0.50511082816E+03  0.46999998093E+01 0.  1.
       -5    1    3    3    0  502  0.42893102814E+03  0.26461004555E+03 -0.69378299235E+02  0.50875902106E+03  0.46999998093E+01 0. -1.
</event>
<event>
 5   0  0.9471140E-03  0.1044500E+04  0.7818609E-02  0.9261041E-01
       -1   -1    0    0    0  501  0.00000000000E+00  0.00000000000E+00  0.51917864118E+03  0.51917864121E+03  0.50400001928E-02 0. -1.
        1   -1    0    0  501    0  0.00000000000E+00  0.00000000000E+00 -0.52533942272E+03  0.52533942274E+03  0.50400001928E-02 0.  1.
    10030    2    1    2    0    0  0.00000000000E+00  0.00000000000E+00 -0.61607815344E+01  0.10445180639E+04  0.10444998950E+04 0.  0.
        4    1    3    3  502    0 -0.15577846900E+03 -0.36081535652E+03  0.34085689586E+03  0.52023041939E+03  0.12699999809E+01 0. -1.
       -4    1    3    3    0  502  0.15577846900E+03  0.36081535652E+03 -0.34701767740E+03  0.52428764455E+03  0.12699999809E+01 0.  1.
</event>
<event>
 5   0  0.1656859E-02  0.1006237E+04  0.7818609E-02  0.9301730E-01
        2   -1    0    0  501    0  0.00000000000E+00  0.00000000000E+00  0.77569169802E+03  0.77569169803E+03  0.25500000920E-02 0. -1.
       -2   -1    0    0    0  501  0.00000000000E+00  0.00000000000E+00 -0.32632604794E+03  0.32632604795E+03  0.25500000920E-02 0.  1.
    10030    2    1    2    0    0  0.00000000000E+00  0.00000000000E+00  0.44936565009E+03  0.11020177460E+04  0.10062373602E+04 0.  0.
        4    1    3    3  502    0 -0.17039897766E+03 -0.35954580798E+03  0.56191815992E+03  0.68852206281E+03  0.12699999809E+01 0. -1.
       -4    1    3    3    0  502  0.17039897766E+03  0.35954580798E+03 -0.11255250984E+03  0.41349568316E+03  0.12699999809E+01 0.  1.
</event>
<event>
 5   0  0.1598986E-02  0.1026261E+04  0.7818609E-02  0.9280202E-01
       -2   -1    0    0    0  501  0.00000000000E+00  0.00000000000E+00  0.19892520550E+03  0.19892520551E+03  0.25500000920E-02 0.  1.
        2   -1    0    0  501    0  0.00000000000E+00  0.00000000000E+00 -0.13236267438E+04  0.13236267438E+04  0.25500000920E-02 0. -1.
    10030    2    1    2    0    0  0.00000000000E+00  0.00000000000E+00 -0.11247015383E+04  0.15225519493E+04  0.10262606336E+04 0.  0.
        3    1    3    3  502    0 -0.24952127947E+03 -0.43302560538E+03 -0.73492425371E+03  0.88875514778E+03  0.10100000352E+00 0. -1.
       -3    1    3    3    0  502  0.24952127947E+03  0.43302560538E+03 -0.38977728456E+03  0.63379680149E+03  0.10100000352E+00 0.  1.
</event>
<event>
 5   0  0.9396660E-03  0.1036583E+04  0.7818609E-02  0.9269307E-01
        1   -1    0    0  501    0  0.00000000000E+00  0.00000000000E+00  0.65998627839E+03  0.65998627841E+03  0.50400001928E-02 0. -1.
       -1   -1    0    0    0  501  0.00000000000E+00  0.00000000000E+00 -0.40701738105E+03  0.40701738108E+03  0.50400001928E-02 0.  1.
    10030    2    1    2    0    0  0.00000000000E+00  0.00000000000E+00  0.25296889734E+03  0.10670036595E+04  0.10365826288E+04 0.  0.
        5    1    3    3  502    0 -0.47486960558E+02  0.24658931619E+03 -0.34018867882E+03  0.42286135965E+03  0.46999998093E+01 0.  1.
       -5    1    3    3    0  502  0.47486960558E+02 -0.24658931619E+03  0.59315757616E+03  0.64414229984E+03  0.46999998093E+01 0. -1.
</event>
<event>
 5   0  0.1571895E-02  0.9970503E+03  0.7818609E-02  0.9311786E-01
        2   -1    0    0  501    0  0.00000000000E+00  0.00000000000E+00  0.33750726842E+03  0.33750726843E+03  0.25500000920E-02 0.  1.
       -2   -1    0    0    0  501  0.00000000000E+00  0.00000000000E+00 -0.73636144607E+03  0.73636144608E+03  0.25500000920E-02 0. -1.
    10030    2    1    2    0    0  0.00000000000E+00  0.00000000000E+00 -0.39885417765E+03  0.10738687145E+04  0.99705033021E+03 0.  0.
        2    1    3    3  502    0 -0.37516531919E+03 -0.32603417671E+03 -0.15799176785E+03  0.52154453292E+03  0.25500000920E-02 0.  1.
       -2    1    3    3    0  502  0.37516531919E+03  0.32603417671E+03 -0.24086240980E+03  0.55232418159E+03  0.25500000920E-02 0. -1.
</event>
<event>
 5   0  0.9396660E-03  0.9879490E+03  0.7818609E-02  0.9321862E-01
       -1   -1    0    0    0  501  0.00000000000E+00  0.00000000000E+00  0.13384121716E+03  0.13384121726E+03  0.50400001928E-02 0.  1.
        1   -1    0    0  501    0  0.00000000000E+00  0.00000000000E+00 -0.18231363763E+04  0.18231363763E+04  0.50400001928E-02 0. -1.
    10030    2    1    2    0    0  0.00000000000E+00  0.00000000000E+00 -0.16892951591E+04  0.19569775935E+04  0.98794896984E+03 0.  0.
        5    1    3    3  502    0 -0.86975760364E+02  0.27664292698E+03 -0.52573983679E+02  0.29475787640E+03  0.46999998093E+01 0.  1.
       -5    1    3    3    0  502  0.86975760364E+02 -0.27664292698E+03 -0.16367211754E+04  0.16622197171E+04  0.46999998093E+01 0. -1.
</event>
<event>
 5   0  0.1571895E-02  0.9305398E+03  0.7818609E-02  0.9388190E-01
       -2   -1    0    0    0  501  0.00000000000E+00  0.00000000000E+00  0.17135300464E+03  0.17135300466E+03  0.25500000920E-02 0. -1.
        2   -1    0    0  501    0  0.00000000000E+00  0.00000000000E+00 -0.12633338874E+04  0.12633338874E+04  0.25500000920E-02 0.  1.
    10030    2    1    2    0    0  0.00000000000E+00  0.00000000000E+00 -0.10919808827E+04  0.14346868921E+04  0.93053975194E+03 0.  0.
        2    1    3    3  502    0  0.35707338435E+03  0.28942190090E+03 -0.43470837561E+03  0.63264350970E+03  0.25500000920E-02 0. -1.
       -2    1    3    3    0  502 -0.35707338435E+03 -0.28942190090E+03 -0.65727250714E+03  0.80204338235E+03  0.25500000920E-02 0.  1.
</event>
<event>
 5   0  0.1000773E-02  0.5399662E+03  0.7818609E-02  0.1003843E+00
       -1   -1    0    0    0  501  0.00000000000E+00  0.00000000000E+00  0.97077745808E+02  0.97077745939E+02  0.50400001928E-02 0. -1.
        1   -1    0    0  501    0  0.00000000000E+00  0.00000000000E+00 -0.75085058970E+03  0.75085058972E+03  0.50400001928E-02 0.  1.
    10030    2    1    2    0    0  0.00000000000E+00  0.00000000000E+00 -0.65377284389E+03  0.84792833566E+03  0.53996623135E+03 0.  0.
        3    1    3    3  502    0 -0.15516998643E+03  0.22080070072E+03 -0.33907028736E+03  0.43335821684E+03  0.10100000352E+00 0.  1.
       -3    1    3    3    0  502  0.15516998643E+03 -0.22080070072E+03 -0.31470255653E+03  0.41457011882E+03  0.10100000352E+00 0. -1.
</event>
<event>
 5   0  0.1598986E-02  0.9723040E+03  0.7818609E-02  0.9339454E-01
       -2   -1    0    0    0  501  0.00000000000E+00  0.00000000000E+00  0.23646055176E+03  0.23646055177E+03  0.25500000920E-02 0.  1.
        2   -1    0    0  501    0  0.00000000000E+00  0.00000000000E+00 -0.99950616389E+03  0.99950616389E+03  0.25500000920E-02 0. -1.
    10030    2    1    2    0    0  0.00000000000E+00  0.00000000000E+00 -0.76304561214E+03  0.12359667157E+04  0.97230402448E+03 0.  0.
        3    1    3    3  502    0  0.19115249129E+03  0.43905267090E+03 -0.48815934973E+03  0.68381728823E+03  0.10100000352E+00 0. -1.
       -3    1    3    3    0  502 -0.19115249129E+03 -0.43905267090E+03 -0.27488626240E+03  0.55214942743E+03  0.10100000352E+00 0.  1.
</event>
<event>
 5   0  0.9759443E-03  0.9977445E+03  0.7818609E-02  0.9311022E-01
        1   -1    0    0  501    0  0.00000000000E+00  0.00000000000E+00  0.58433533390E+03  0.58433533392E+03  0.50400001928E-02 0.  1.
       -1   -1    0    0    0  501  0.00000000000E+00  0.00000000000E+00 -0.42590871043E+03  0.42590871046E+03  0.50400001928E-02 0. -1.
    10030    2    1    2    0    0  0.00000000000E+00  0.00000000000E+00  0.15842662346E+03  0.10102440444E+04  0.99774447339E+03 0.  0.
        2    1    3    3  502    0  0.12836208018E+03 -0.15215240931E+03 -0.38395185719E+03  0.43248839052E+03  0.25500000920E-02 0. -1.
       -2    1    3    3    0  502 -0.12836208018E+03  0.15215240931E+03  0.54237848066E+03  0.57775565386E+03  0.25500000920E-02 0.  1.
</event>
<event>
 5   0  0.9507815E-03  0.1006160E+04  0.7818609E-02  0.9301815E-01
       -1   -1    0    0    0  501  0.00000000000E+00  0.00000000000E+00  0.61803030747E+03  0.61803030749E+03  0.50400001928E-02 0. -1.
        1   -1    0    0  501    0  0.00000000000E+00  0.00000000000E+00 -0.40950948546E+03  0.40950948549E+03  0.50400001928E-02 0.  1.
    10030    2    1    2    0    0  0.00000000000E+00  0.00000000000E+00  0.20852082201E+03  0.10275397930E+04  0.10061595763E+04 0.  0.
        1    1    3    3  502    0  0.44666528487E+03 -0.11888966327E+02  0.34033926125E+03  0.56167787655E+03  0.50400001928E-02 0. -1.
       -1    1    3    3    0  502 -0.44666528487E+03  0.11888966327E+02 -0.13181843923E+03  0.46586191643E+03  0.50400001928E-02 0.  1.
</event>
<event>
 5   0  0.1571895E-02  0.9829897E+03  0.7818609E-02  0.9327401E-01
       -2   -1    0    0    0  501  0.00000000000E+00  0.00000000000E+00  0.20165174826E+03  0.20165174828E+03  0.25500000920E-02 0. -1.
        2   -1    0    0  501    0  0.00000000000E+00  0.00000000000E+00 -0.11979423896E+04  0.11979423896E+04  0.25500000920E-02 0.  1.
    10030    2    1    2    0    0  0.00000000000E+00  0.00000000000E+00 -0.99629064131E+03  0.13995941378E+04  0.98298967886E+03 0.  0.
        2    1    3    3  502    0 -0.19809003423E+03 -0.15332739867E+02 -0.11382163517E+04  0.11554268553E+04  0.25500000920E-02 0.  1.
       -2    1    3    3    0  502  0.19809003423E+03  0.15332739867E+02  0.14192571044E+03  0.24416728254E+03  0.25500000920E-02 0. -1.
</event>
<event>
 5   0  0.1000773E-02  0.9821971E+03  0.7818609E-02  0.9328289E-01
       -1   -1    0    0    0  501  0.00000000000E+00  0.00000000000E+00  0.20940507118E+03  0.20940507124E+03  0.50400001928E-02 0. -1.
        1   -1    0    0  501    0  0.00000000000E+00  0.00000000000E+00 -0.11517285302E+04  0.11517285302E+04  0.50400001928E-02 0.  1.
    10030    2    1    2    0    0  0.00000000000E+00  0.00000000000E+00 -0.94232345897E+03  0.13611336014E+04  0.98219711848E+03 0.  0.
        3    1    3    3  502    0 -0.21078393313E+03 -0.36641804654E+03 -0.12475004267E+03  0.44074327521E+03  0.10100000352E+00 0. -1.
       -3    1    3    3    0  502  0.21078393313E+03  0.36641804654E+03 -0.81757341630E+03  0.92039032619E+03  0.10100000352E+00 0.  1.
</event>
<event>
 5   0  0.1656859E-02  0.9906837E+03  0.7818609E-02  0.9318822E-01
       -2   -1    0    0    0  501  0.00000000000E+00  0.00000000000E+00  0.21324297789E+03  0.21324297790E+03  0.25500000920E-02 0. -1.
        2   -1    0    0  501    0  0.00000000000E+00  0.00000000000E+00 -0.11506289730E+04  0.11506289731E+04  0.25500000920E-02 0.  1.
    10030    2    1    2    0    0  0.00000000000E+00  0.00000000000E+00 -0.93738599516E+03  0.13638719510E+04  0.99068370062E+03 0.  0.
        4    1    3    3  502    0  0.11698745994E+03  0.23753613216E+03  0.10763621912E+03  0.28582625567E+03  0.12699999809E+01 0. -1.
       -4    1    3    3    0  502 -0.11698745994E+03 -0.23753613216E+03 -0.10450222143E+04  0.10780456953E+04  0.12699999809E+01 0.  1.
</event>
<event>
 5   0  0.1598986E-02  0.1002343E+04  0.7818609E-02  0.9305979E-01
        2   -1    0    0  501    0  0.00000000000E+00  0.00000000000E+00  0.15376925016E+04  0.15376925016E+04  0.25500000920E-02 0.  1.
       -2   -1    0    0    0  501  0.00000000000E+00  0.00000000000E+00 -0.16334396076E+03  0.16334396078E+03  0.25500000920E-02 0. -1.
    10030    2    1    2    0    0  0.00000000000E+00  0.00000000000E+00  0.13743485409E+04  0.17010364624E+04  0.10023428229E+04 0.  0.
        3    1    3    3  502    0  0.27220780358E+03 -0.39055972255E+03  0.42133208744E+03  0.63573164411E+03  0.10100000352E+00 0. -1.
       -3    1    3    3    0  502 -0.27220780358E+03  0.39055972255E+03  0.95301645344E+03  0.10653048183E+04  0.10100000352E+00 0.  1.
</event>
<event>
 5   0  0.1617721E-02  0.9763021E+03  0.7818609E-02  0.9334925E-01
        2   -1    0    0  501    0  0.00000000000E+00  0.00000000000E+00  0.10294400516E+04  0.10294400516E+04  0.25500000920E-02 0. -1.
       -2   -1    0    0    0  501  0.00000000000E+00  0.00000000000E+00 -0.23147673967E+03  0.23147673968E+03  0.25500000920E-02 0.  1.
    10030    2    1    2    0    0  0.00000000000E+00  0.00000000000E+00  0.79796331191E+03  0.12609167913E+04  0.97630205743E+03 0.  0.
        5    1    3    3  502    0 -0.70191850779E+02 -0.34538597455E+03  0.83514756141E+03  0.90648326331E+03  0.46999998093E+01 0. -1.
       -5    1    3    3    0  502  0.70191850779E+02  0.34538597455E+03 -0.37184249499E+02  0.35443352796E+03  0.46999998093E+01 0.  1.
</event>
<event>
 5   0  0.9471140E-03  0.9772818E+03  0.7818609E-02  0.9333819E-01
        1   -1    0    0  501    0  0.00000000000E+00  0.00000000000E+00  0.31525609097E+03  0.31525609101E+03  0.50400001928E-02 0.  1.
       -1   -1    0    0    0  501  0.00000000000E+00  0.00000000000E+00 -0.75738396515E+03  0.75738396517E+03  0.50400001928E-02 0. -1.
    10030    2    1    2    0    0  0.00000000000E+00  0.00000000000E+00 -0.44212787418E+03  0.10726400562E+04  0.97728175722E+03 0.  0.
        4    1    3    3  502    0  0.43561366296E+02 -0.18209225409E+03 -0.71644991843E+03  0.74051149900E+03  0.12699999809E+01 0. -1.
       -4    1    3    3    0  502 -0.43561366296E+02  0.18209225409E+03  0.27432204425E+03  0.33212855718E+03  0.12699999809E+01 0.  1.
</event>
<event>
 5   0  0.1000773E-02  0.6155339E+03  0.7818609E-02  0.9873692E-01
        1   -1    0    0  501    0  0.00000000000E+00  0.00000000000E+00  0.45433083970E+03  0.45433083973E+03  0.50400001928E-02 0.  1.
       -1   -1    0    0    0  501  0.00000000000E+00  0.00000000000E+00 -0.20848353915E+03  0.20848353921E+03  0.50400001928E-02 0. -1.
    10030    2    1    2    0    0  0.00000000000E+00  0.00000000000E+00  0.24584730055E+03  0.66281437894E+03  0.61553391925E+03 0.  0.
        3    1    3    3  502    0 -0.18372502157E+03  0.14789283692E+03  0.33583126237E+03  0.41037765747E+03  0.10100000352E+00 0.  1.
       -3    1    3    3    0  502  0.18372502157E+03 -0.14789283692E+03 -0.89983961820E+02  0.25243672148E+03  0.10100000352E+00 0. -1.
</event>
<event>
 5   0  0.9396660E-03  0.9998923E+03  0.7818609E-02  0.9308663E-01
        1   -1    0    0  501    0  0.00000000000E+00  0.00000000000E+00  0.10506323618E+04  0.10506323618E+04  0.50400001928E-02 0. -1.
       -1   -1    0    0    0  501  0.00000000000E+00  0.00000000000E+00 -0.23790065745E+03  0.23790065750E+03  0.50400001928E-02 0.  1.
    10030    2    1    2    0    0  0.00000000000E+00  0.00000000000E+00  0.81273170433E+03  0.12885330193E+04  0.99989225349E+03 0.  0.
        5    1    3    3  502    0  0.36406389891E+03  0.10180859523E+03  0.82793398556E+03  0.91016717530E+03  0.46999998093E+01 0. -1.
       -5    1    3    3    0  502 -0.36406389891E+03 -0.10180859523E+03 -0.15202281223E+02  0.37836584400E+03  0.46999998093E+01 0.  1.
</event>
<event>
 5   0  0.1571895E-02  0.1091239E+04  0.7818609E-02  0.9213773E-01
       -2   -1    0    0    0  501  0.00000000000E+00  0.00000000000E+00  0.17723204799E+03  0.17723204801E+03  0.25500000920E-02 0.  1.
        2   -1    0    0  501    0  0.00000000000E+00  0.00000000000E+00 -0.16797238710E+04  0.16797238710E+04  0.25500000920E-02 0. -1.
    10030    2    1    2    0    0  0.00000000000E+00  0.00000000000E+00 -0.15024918230E+04  0.18569559190E+04  0.10912394820E+04 0.  0.
        2    1    3    3  502    0  0.92061154878E+02  0.65354424026E+02  0.15713759781E+03  0.19349077919E+03  0.25500000920E-02 0.  1.
       -2    1    3    3    0  502 -0.92061154878E+02 -0.65354424026E+02 -0.16596294208E+04  0.16634651398E+04  0.25500000920E-02 0. -1.
</event>
<event>
 5   0  0.1663497E-02  0.1007600E+04  0.7818609E-02  0.9300248E-01
       -2   -1    0    0    0  501  0.00000000000E+00  0.00000000000E+00  0.18925181142E+03  0.18925181144E+03  0.25500000920E-02 0. -1.
        2   -1    0    0  501    0  0.00000000000E+00  0.00000000000E+00 -0.13411476275E+04  0.13411476275E+04  0.25500000920E-02 0.  1.
    10030    2    1    2    0    0  0.00000000000E+00  0.00000000000E+00 -0.11518958161E+04  0.15303994389E+04  0.10076003531E+04 0.  0.
        1    1    3    3  502    0 -0.10790762715E+03  0.40620033731E+03 -0.99788328145E+03  0.10827805934E+04  0.50400001928E-02 0.  1.
       -1    1    3    3    0  502  0.10790762715E+03 -0.40620033731E+03 -0.15401253463E+03  0.44761884554E+03  0.50400001928E-02 0. -1.
</event>
<event>
 5   0  0.1617721E-02  0.9516660E+03  0.7818609E-02  0.9363205E-01
       -2   -1    0    0    0  501  0.00000000000E+00  0.00000000000E+00  0.36603893973E+03  0.36603893973E+03  0.25500000920E-02 0.  1.
        2   -1    0    0  501    0  0.00000000000E+00  0.00000000000E+00 -0.61856003340E+03  0.61856003340E+03  0.25500000920E-02 0. -1.
    10030    2    1    2    0    0  0.00000000000E+00  0.00000000000E+00 -0.25252109367E+03  0.98459897314E+03  0.95166603131E+03 0.  0.
        5    1    3    3  502    0 -0.25525344384E+03  0.83032660489E+02  0.28020413689E+03  0.38805307836E+03  0.46999998093E+01 0.  1.
       -5    1    3    3    0  502  0.25525344384E+03 -0.83032660489E+02 -0.53272523056E+03  0.59654589477E+03  0.46999998093E+01 0. -1.
</event>
<event>
 5   0  0.1656859E-02  0.1031786E+04  0.7818609E-02  0.9274353E-01
       -2   -1    0    0    0  501  0.00000000000E+00  0.00000000000E+00  0.14210602421E+03  0.14210602423E+03  0.25500000920E-02 0.  1.
        2   -1    0    0  501    0  0.00000000000E+00  0.00000000000E+00 -0.18728677257E+04  0.18728677257E+04  0.25500000920E-02 0. -1.
    10030    2    1    2    0    0  0.00000000000E+00  0.00000000000E+00 -0.17307617014E+04  0.20149737499E+04  0.10317863856E+04 0.  0.
        4    1    3    3  502    0 -0.55688315843E+02 -0.10835449557E+03 -0.18443698714E+04  0.18483894937E+04  0.12699999809E+01 0. -1.
       -4    1    3    3    0  502  0.55688315843E+02  0.10835449557E+03  0.11360816991E+03  0.16658425617E+03  0.12699999809E+01 0.  1.
</event>
<event>
 5   0  0.1571895E-02  0.5459126E+03  0.7818609E-02  0.1002444E+00
       -2   -1    0    0    0  501  0.00000000000E+00  0.00000000000E+00  0.66303877441E+02  0.66303877490E+02  0.25500000920E-02 0. -1.
        2   -1    0    0  501    0  0.00000000000E+00  0.00000000000E+00 -0.11236919564E+04  0.11236919564E+04  0.25500000920E-02 0.  1.
    10030    2    1    2    0    0  0.00000000000E+00  0.00000000000E+00 -0.10573880790E+04  0.11899958339E+04  0.54591257099E+03 0.  0.
        2    1    3    3  502    0 -0.26930411913E+02 -0.16602925172E+03 -0.99730230511E+03  0.10113865964E+04  0.25500000920E-02 0.  1.
       -2    1    3    3    0  502  0.26930411913E+02  0.16602925172E+03 -0.60085773874E+02  0.17860923756E+03  0.25500000920E-02 0. -1.
</event>
<event>
 5   0  0.1617721E-02  0.1144799E+04  0.7818609E-02  0.9162595E-01
        2   -1    0    0  501    0  0.00000000000E+00  0.00000000000E+00  0.12919275265E+04  0.12919275265E+04  0.25500000920E-02 0.  1.
       -2   -1    0    0    0  501  0.00000000000E+00  0.00000000000E+00 -0.25360636415E+03  0.25360636417E+03  0.25500000920E-02 0. -1.
    10030    2    1    2    0    0  0.00000000000E+00  0.00000000000E+00  0.10383211623E+04  0.15455338907E+04  0.11447987470E+04 0.  0.
        5    1    3    3  502    0  0.31195247024E+03 -0.72365994045E+02 -0.12132011267E+03  0.34247896361E+03  0.46999998093E+01 0. -1.
       -5    1    3    3    0  502 -0.31195247024E+03  0.72365994045E+02  0.11596412750E+04  0.12030549271E+04  0.46999998093E+01 0.  1.
</event>
<event>
 5   0  0.1617721E-02  0.1000438E+04  0.7818609E-02  0.9308065E-01
        2   -1    0    0  501    0  0.00000000000E+00  0.00000000000E+00  0.60253058180E+03  0.60253058181E+03  0.25500000920E-02 0.  1.
       -2   -1    0    0    0  501  0.00000000000E+00  0.00000000000E+00 -0.41528023189E+03  0.41528023190E+03  0.25500000920E-02 0. -1.
    10030    2    1    2    0    0  0.00000000000E+00  0.00000000000E+00  0.18725034991E+03  0.10178108137E+04  0.10004379836E+04 0.  0.
        5    1    3    3  502    0 -0.61395051324E+02 -0.47113917549E+03 -0.65472904623E+02  0.47963555565E+03  0.46999998093E+01 0. -1.
       -5    1    3    3    0  502  0.61395051324E+02  0.47113917549E+03  0.25272325453E+03  0.53817525806E+03  0.46999998093E+01 0.  1.
</event>
<event>
 5   0  0.9759443E-03  0.5825020E+03  0.7818609E-02  0.9942389E-01
       -1   -1    0    0    0  501  0.00000000000E+00  0.00000000000E+00  0.78037019814E+02  0.78037019977E+02  0.50400001928E-02 0.  1.
        1   -1    0    0  501    0  0.00000000000E+00  0.00000000000E+00 -0.10870116393E+04  0.10870116393E+04  0.50400001928E-02 0. -1.
    10030    2    1    2    0    0  0.00000000000E+00  0.00000000000E+00 -0.10089746195E+04  0.11650486593E+04  0.58250201352E+03 0.  0.
        2    1    3    3  502    0  0.25033367167E+03 -0.10114600885E+03 -0.72294188849E+03  0.77171396023E+03  0.25500000920E-02 0.  1.
       -2    1    3    3    0  502 -0.25033367167E+03  0.10114600885E+03 -0.28603273101E+03  0.39333469907E+03  0.25500000920E-02 0. -1.
</event>
<event>
 5   0  0.9759443E-03  0.1001525E+04  0.7818609E-02  0.9306873E-01
       -1   -1    0    0    0  501  0.00000000000E+00  0.00000000000E+00  0.12407043073E+04  0.12407043073E+04  0.50400001928E-02 0.  1.
        1   -1    0    0  501    0  0.00000000000E+00  0.00000000000E+00 -0.20211361663E+03  0.20211361669E+03  0.50400001928E-02 0. -1.
    10030    2    1    2    0    0  0.00000000000E+00  0.00000000000E+00  0.10385906907E+04  0.14428179240E+04  0.10015253063E+04 0.  0.
        2    1    3    3  502    0  0.19963292136E+03 -0.11361579301E+03 -0.12174256410E+03  0.25996750495E+03  0.25500000920E-02 0. -1.
       -2    1    3    3    0  502 -0.19963292136E+03  0.11361579301E+03  0.11603332548E+04  0.11828504191E+04  0.25500000920E-02 0.  1.
</event>
<event>
 5   0  0.6314750E-03  0.1358796E+04  0.7818609E-02  0.8984196E-01
        4   -1    0    0  501    0  0.00000000000E+00  0.00000000000E+00  0.79287194380E+03  0.79287296093E+03  0.12699999809E+01 0.  1.
       -4   -1    0    0    0  501  0.00000000000E+00  0.00000000000E+00 -0.58216237767E+03  0.58216376294E+03  0.12699999809E+01 0. -1.
    10030    2    1    2    0    0  0.00000000000E+00  0.00000000000E+00  0.21070956613E+03  0.13750367239E+04  0.13587963316E+04 0.  0.
        4    1    3    3  502    0 -0.42105585472E+03 -0.14708589254E+02  0.64471276650E+03  0.77016916297E+03  0.12699999809E+01 0.  1.
       -4    1    3    3    0  502  0.42105585472E+03  0.14708589254E+02 -0.43400320038E+03  0.60486756090E+03  0.12699999809E+01 0. -1.
</event>
<event>
 5   0  0.9396660E-03  0.1010353E+04  0.7818609E-02  0.9297262E-01
        1   -1    0    0  501    0  0.00000000000E+00  0.00000000000E+00  0.67148978984E+03  0.67148978986E+03  0.50400001928E-02 0. -1.
       -1   -1    0    0    0  501  0.00000000000E+00  0.00000000000E+00 -0.38005520165E+03  0.38005520169E+03  0.50400001928E-02 0.  1.
    10030    2    1    2    0    0  0.00000000000E+00  0.00000000000E+00  0.29143458819E+03  0.10515449915E+04  0.10103527850E+04 0.  0.
        5    1    3    3  502    0 -0.37500476027E+03 -0.19504024306E+03 -0.14216775669E+03  0.44598545680E+03  0.46999998093E+01 0.  1.
       -5    1    3    3    0  502  0.37500476027E+03  0.19504024306E+03  0.43360234488E+03  0.60555953475E+03  0.46999998093E+01 0. -1.
</event>
<event>
 5   0  0.1598986E-02  0.1003969E+04  0.7818609E-02  0.9304202E-01
        2   -1    0    0  501    0  0.00000000000E+00  0.00000000000E+00  0.11638228007E+04  0.11638228007E+04  0.25500000920E-02 0.  1.
       -2   -1    0    0    0  501  0.00000000000E+00  0.00000000000E+00 -0.21651806403E+03  0.21651806404E+03  0.25500000920E-02 0. -1.
    10030    2    1    2    0    0  0.00000000000E+00  0.00000000000E+00  0.94730473665E+03  0.13803408647E+04  0.10039694411E+04 0.  0.
        3    1    3    3  502    0 -0.22370087269E+03 -0.31840403482E+03  0.90965612351E+03  0.98939248181E+03  0.10100000352E+00 0.  1.
       -3    1    3    3    0  502  0.22370087269E+03  0.31840403482E+03  0.37648613140E+02  0.39094838291E+03  0.10100000352E+00 0. -1.
</event>
<event>
 5   0  0.9507815E-03  0.1003137E+04  0.7818609E-02  0.9305110E-01
        1   -1    0    0  501    0  0.00000000000E+00  0.00000000000E+00  0.36298387388E+03  0.36298387391E+03  0.50400001928E-02 0. -1.
       -1   -1    0    0    0  501  0.00000000000E+00  0.00000000000E+00 -0.69306437158E+03  0.69306437160E+03  0.50400001928E-02 0.  1.
    10030    2    1    2    0    0  0.00000000000E+00  0.00000000000E+00 -0.33008049770E+03  0.10560482455E+04  0.10031374591E+04 0.  0.
        1    1    3    3  502    0 -0.11513660031E+03  0.40442244046E+03 -0.45287945654E+03  0.61799170647E+03  0.50400001928E-02 0.  1.
       -1    1    3    3    0  502  0.11513660031E+03 -0.40442244046E+03  0.12279895884E+03  0.43805653904E+03  0.50400001928E-02 0. -1.
</event>
<event>
 5   0  0.9759443E-03  0.8020122E+03  0.7818609E-02  0.9557109E-01
       -1   -1    0    0    0  501  0.00000000000E+00  0.00000000000E+00  0.29943410142E+03  0.29943410146E+03  0.50400001928E-02 0.  1.
        1   -1    0    0  501    0  0.00000000000E+00  0.00000000000E+00 -0.53703266999E+03  0.53703267002E+03  0.50400001928E-02 0. -1.
    10030    2    1    2    0    0  0.00000000000E+00  0.00000000000E+00 -0.23759856858E+03  0.83646677148E+03  0.80201220689E+03 0.  0.
        2    1    3    3  502    0  0.80605802394E+02 -0.26436538551E+03 -0.42183178668E+03  0.50430983403E+03  0.25500000920E-02 0. -1.
       -2    1    3    3    0  502 -0.80605802394E+02  0.26436538551E+03  0.18423321811E+03  0.33215693745E+03  0.25500000920E-02 0.  1.
</event>
<event>
 5   0  0.9396660E-03  0.1079718E+04  0.7818609E-02  0.9225188E-01
        1   -1    0    0  501    0  0.00000000000E+00  0.00000000000E+00  0.19021666999E+04  0.19021666999E+04  0.50400001928E-02 0. -1.
       -1   -1    0    0    0  501  0.00000000000E+00  0.00000000000E+00 -0.15321892327E+03  0.15321892335E+03  0.50400001928E-02 0.  1.
    10030    2    1    2    0    0  0.00000000000E+00  0.00000000000E+00  0.17489477766E+04  0.20553856232E+04  0.10797183591E+04 0.  0.
        5    1    3    3  502    0  0.51534481005E+02 -0.40222183943E+03  0.19610871680E+03  0.45046523689E+03  0.46999998093E+01 0.  1.
       -5    1    3    3    0  502 -0.51534481005E+02  0.40222183943E+03  0.15528390598E+04  0.16049203863E+04  0.46999998093E+01 0. -1.
</event>
<event>
 5   0  0.1571895E-02  0.9911047E+03  0.7818609E-02  0.9318355E-01
       -2   -1    0    0    0  501  0.00000000000E+00  0.00000000000E+00  0.19825402256E+03  0.19825402258E+03  0.25500000920E-02 0.  1.
        2   -1    0    0  501    0  0.00000000000E+00  0.00000000000E+00 -0.12386741343E+04  0.12386741343E+04  0.25500000920E-02 0. -1.
    10030    2    1    2    0    0  0.00000000000E+00  0.00000000000E+00 -0.10404201117E+04  0.14369281569E+04  0.99110469634E+03 0.  0.
        2    1    3    3  502    0  0.14188442362E+03 -0.71577835168E+02  0.16030865587E+03  0.22572868960E+03  0.25500000920E-02 0.  1.
       -2    1    3    3    0  502 -0.14188442362E+03  0.71577835168E+02 -0.12007287676E+04  0.12111994673E+04  0.25500000920E-02 0. -1.
</event>
<event>
 5   0  0.1656859E-02  0.9721929E+03  0.7818609E-02  0.9339580E-01
        2   -1    0    0  501    0  0.00000000000E+00  0.00000000000E+00  0.16344254467E+04  0.16344254467E+04  0.25500000920E-02 0. -1.
       -2   -1    0    0    0  501  0.00000000000E+00  0.00000000000E+00 -0.14457053365E+03  0.14457053368E+03  0.25500000920E-02 0.  1.
    10030    2    1    2    0    0  0.00000000000E+00  0.00000000000E+00  0.14898549130E+04  0.17789959803E+04  0.97219290074E+03 0.  0.
        4    1    3    3  502    0  0.35126330654E+03 -0.14038667938E+03  0.18630798614E+03  0.42167120943E+03  0.12699999809E+01 0.  1.
       -4    1    3    3    0  502 -0.35126330654E+03  0.14038667938E+03  0.13035469269E+04  0.13573247709E+04  0.12699999809E+01 0. -1.
</event>
<event>
 5   0  0.1000773E-02  0.9898327E+03  0.7818609E-02  0.9319767E-01
       -1   -1    0    0    0  501  0.00000000000E+00  0.00000000000E+00  0.42822133477E+03  0.42822133480E+03  0.50400001928E-02 0.  1.
        1   -1    0    0  501    0  0.00000000000E+00  0.00000000000E+00 -0.57199898620E+03  0.57199898622E+03  0.50400001928E-02 0. -1.
    10030    2    1    2    0    0  0.00000000000E+00  0.00000000000E+00 -0.14377765143E+03  0.10002203210E+04  0.98983265127E+03 0.  0.
        3    1    3    3  502    0  0.34523592858E+03  0.35110545841E+03 -0.12220363143E+03  0.50734271162E+03  0.10100000352E+00 0. -1.
       -3    1    3    3    0  502 -0.34523592858E+03 -0.35110545841E+03 -0.21574020002E+02  0.49287760939E+03  0.10100000352E+00 0.  1.
</event>
<event>
 5   0  0.1571895E-02  0.1007191E+04  0.7818609E-02  0.9300693E-01
       -2   -1    0    0    0  501  0.00000000000E+00  0.00000000000E+00  0.16323433658E+03  0.16323433660E+03  0.25500000920E-02 0.  1.
        2   -1    0    0  501    0  0.00000000000E+00  0.00000000000E+00 -0.15536450429E+04  0.15536450429E+04  0.25500000920E-02 0. -1.
    10030    2    1    2    0    0  0.00000000000E+00  0.00000000000E+00 -0.13904107063E+04  0.17168793795E+04  0.10071905835E+04 0.  0.
        2    1    3    3  502    0  0.25788646429E+03  0.35328683654E+03 -0.26976225916E+03  0.51389560595E+03  0.25500000920E-02 0.  1.
       -2    1    3    3    0  502 -0.25788646429E+03 -0.35328683654E+03 -0.11206484471E+04  0.12029837736E+04  0.25500000920E-02 0. -1.
</event>
<event>
 5   0  0.9396660E-03  0.1019811E+04  0.7818609E-02  0.9287079E-01
        1   -1    0    0  501    0  0.00000000000E+00  0.00000000000E+00  0.91383059232E+03  0.91383059234E+03  0.50400001928E-02 0.  1.
       -1   -1    0    0    0  501  0.00000000000E+00  0.00000000000E+00 -0.28452071345E+03  0.28452071349E+03  0.50400001928E-02 0. -1.
    10030    2    1    2    0    0  0.00000000000E+00  0.00000000000E+00  0.62930987887E+03  0.11983513058E+04  0.10198112220E+04 0.  0.
        5    1    3    3  502    0 -0.81372805874E+02  0.17725649291E+03  0.86823749563E+03  0.88988754157E+03  0.46999998093E+01 0.  1.
       -5    1    3    3    0  502  0.81372805874E+02 -0.17725649291E+03 -0.23892761676E+03  0.30846376426E+03  0.46999998093E+01 0. -1.
</event>
<event>
 5   0  0.6314750E-03  0.9890588E+03  0.7818609E-02  0.9320627E-01
       -3   -1    0    0    0  501  0.00000000000E+00  0.00000000000E+00  0.21188083108E+03  0.21188085515E+03  0.10100000352E+00 0.  1.
        3   -1    0    0  501    0  0.00000000000E+00  0.00000000000E+00 -0.11542303999E+04  0.11542304044E+04  0.10100000352E+00 0. -1.
    10030    2    1    2    0    0  0.00000000000E+00  0.00000000000E+00 -0.94234956886E+03  0.13661112595E+04  0.98905877652E+03 0.  0.
        1    1    3    3  502    0 -0.89034289956E+02  0.83220969847E+02  0.19081394316E+03  0.22641288731E+03  0.50400001928E-02 0.  1.
       -1    1    3    3    0  502  0.89034289956E+02 -0.83220969847E+02 -0.11331635120E+04  0.11396983722E+04  0.50400001928E-02 0. -1.
</event>
<event>
 5   0  0.9471140E-03  0.1041127E+04  0.7818609E-02  0.9264553E-01
        1   -1    0    0  501    0  0.00000000000E+00  0.00000000000E+00  0.11036288421E+04  0.11036288421E+04  0.50400001928E-02 0.  1.
       -1   -1    0    0    0  501  0.00000000000E+00  0.00000000000E+00 -0.24554142351E+03  0.24554142356E+03  0.50400001928E-02 0. -1.
    10030    2    1    2    0    0  0.00000000000E+00  0.00000000000E+00  0.85808741860E+03  0.13491702657E+04  0.10411274599E+04 0.  0.
        4    1    3    3  502    0  0.11725496388E+03  0.37706209351E+03  0.86861150409E+03  0.95415517965E+03  0.12699999809E+01 0.  1.
       -4    1    3    3    0  502 -0.11725496388E+03 -0.37706209351E+03 -0.10524085489E+02  0.39501508603E+03  0.12699999809E+01 0. -1.
</event>
<event>
 5   0  0.9759443E-03  0.8701972E+03  0.7818609E-02  0.9463623E-01
        1   -1    0    0  501    0  0.00000000000E+00  0.00000000000E+00  0.81240226498E+03  0.81240226499E+03  0.50400001928E-02 0.  1.
       -1   -1    0    0    0  501  0.00000000000E+00  0.00000000000E+00 -0.23302593101E+03  0.23302593107E+03  0.50400001928E-02 0. -1.
    10030    2    1    2    0    0  0.00000000000E+00  0.00000000000E+00  0.57937633397E+03  0.10454281961E+04  0.87019720567E+03 0.  0.
        2    1    3    3  502    0 -0.11608319671E+03  0.39279284448E+03  0.46604519660E+03  0.62045116852E+03  0.25500000920E-02 0.  1.
       -2    1    3    3    0  502  0.11608319671E+03 -0.39279284448E+03  0.11333113736E+03  0.42497702754E+03  0.25500000920E-02 0. -1.
</event>
<event>
 5   0  0.9396660E-03  0.1013316E+04  0.7818609E-02  0.9294060E-01
        1   -1    0    0  501    0  0.00000000000E+00  0.00000000000E+00  0.93646180821E+03  0.93646180823E+03  0.50400001928E-02 0. -1.
       -1   -1    0    0    0  501  0.00000000000E+00  0.00000000000E+00 -0.27411916105E+03  0.27411916109E+03  0.50400001928E-02 0.  1.
    10030    2    1    2    0    0  0.00000000000E+00  0.00000000000E+00  0.66234264717E+03  0.12105809693E+04  0.10133155979E+04 0.  0.
        5    1    3    3  502    0 -0.41236301291E+02  0.32567489061E+03 -0.12984788458E+03  0.35305400443E+03  0.46999998093E+01 0.  1.
       -5    1    3    3    0  502  0.41236301291E+02 -0.32567489061E+03  0.79219053175E+03  0.85752696488E+03  0.46999998093E+01 0. -1.
</event>
<event>
 5   0  0.9507815E-03  0.9851842E+03  0.7818609E-02  0.9324945E-01
        1   -1    0    0  501    0  0.00000000000E+00  0.00000000000E+00  0.13577554322E+04  0.13577554322E+04  0.50400001928E-02 0. -1.
       -1   -1    0    0    0  501  0.00000000000E+00  0.00000000000E+00 -0.17871184540E+03  0.17871184547E+03  0.50400001928E-02 0.  1.
    10030    2    1    2    0    0  0.00000000000E+00  0.00000000000E+00  0.11790435868E+04  0.15364672777E+04  0.98518420400E+03 0.  0.
        1    1    3    3  502    0 -0.24777754495E+02 -0.22637257538E+03  0.12707332936E+04  0.12909769880E+04  0.50400001928E-02 0. -1.
       -1    1    3    3    0  502  0.24777754495E+02  0.22637257538E+03 -0.91689706764E+02  0.24549028973E+03  0.50400001928E-02 0.  1.
</event>
<event>
 5   0  0.1598986E-02  0.1033366E+04  0.7818609E-02  0.9272688E-01
       -2   -1    0    0    0  501  0.00000000000E+00  0.00000000000E+00  0.26422317273E+03  0.26422317274E+03  0.25500000920E-02 0.  1.
        2   -1    0    0  501    0  0.00000000000E+00  0.00000000000E+00 -0.10103627835E+04  0.10103627835E+04  0.25500000920E-02 0. -1.
    10030    2    1    2    0    0  0.00000000000E+00  0.00000000000E+00 -0.74613961077E+03  0.12745859562E+04  0.10333658796E+04 0.  0.
        3    1    3    3  502    0  0.39272449995E+03 -0.30163488346E+03 -0.19118523497E+03  0.53081817984E+03  0.10100000352E+00 0. -1.
       -3    1    3    3    0  502 -0.39272449995E+03  0.30163488346E+03 -0.55495437580E+03  0.74376777640E+03  0.10100000352E+00 0.  1.
</event>
<event>
 5   0  0.1598986E-02  0.1005462E+04  0.7818609E-02  0.9302574E-01
        2   -1    0    0  501    0  0.00000000000E+00  0.00000000000E+00  0.56803470264E+03  0.56803470265E+03  0.25500000920E-02 0. -1.
       -2   -1    0    0    0  501  0.00000000000E+00  0.00000000000E+00 -0.44493516307E+03  0.44493516308E+03  0.25500000920E-02 0.  1.
    10030    2    1    2    0    0  0.00000000000E+00  0.00000000000E+00  0.12309953958E+03  0.10129698657E+04  0.10054623077E+04 0.  0.
        3    1    3    3  502    0  0.39488201682E+03 -0.45903670033E+02 -0.24848108335E+03  0.46880893028E+03  0.10100000352E+00 0.  1.
       -3    1    3    3    0  502 -0.39488201682E+03  0.45903670033E+02  0.37158062293E+03  0.54416093544E+03  0.10100000352E+00 0. -1.
</event>
<event>
 5   0  0.9396660E-03  0.1018026E+04  0.7818609E-02  0.9288992E-01
        1   -1    0    0  501    0  0.00000000000E+00  0.00000000000E+00  0.88574530545E+03  0.88574530547E+03  0.50400001928E-02 0.  1.
       -1   -1    0    0    0  501  0.00000000000E+00  0.00000000000E+00 -0.29251553148E+03  0.29251553152E+03  0.50400001928E-02 0. -1.
    10030    2    1    2    0    0  0.00000000000E+00  0.00000000000E+00  0.59322977397E+03  0.11782608370E+04  0.10180260484E+04 0.  0.
        5    1    3    3  502    0  0.23119477369E+03  0.10890033999E+03 -0.21285286712E+03  0.33262402269E+03  0.46999998093E+01 0. -1.
       -5    1    3    3    0  502 -0.23119477369E+03 -0.10890033999E+03  0.80608264109E+03  0.84563681430E+03  0.46999998093E+01 0.  1.
</event>
<event>
 5   0  0.1000773E-02  0.9691538E+03  0.7818609E-02  0.9343039E-01
       -1   -1    0    0    0  501  0.00000000000E+00  0.00000000000E+00  0.54040118268E+03  0.54040118271E+03  0.50400001928E-02 0.  1.
        1   -1    0    0  501    0  0.00000000000E+00  0.00000000000E+00 -0.43451938540E+03  0.43451938543E+03  0.50400001928E-02 0. -1.
    10030    2    1    2    0    0  0.00000000000E+00  0.00000000000E+00  0.10588179728E+03  0.97492056814E+03  0.96915383670E+03 0.  0.
        3    1    3    3  502    0 -0.22469200882E+03  0.42150000282E+02  0.48274386118E+03  0.53413927684E+03  0.10100000352E+00 0.  1.
       -3    1    3    3    0  502  0.22469200882E+03 -0.42150000282E+02 -0.37686206390E+03  0.44078129130E+03  0.10100000352E+00 0. -1.
</event>
<event>
 5   0  0.1000773E-02  0.1120374E+04  0.7818609E-02  0.9185558E-01
        1   -1    0    0  501    0  0.00000000000E+00  0.00000000000E+00  0.97298830630E+03  0.97298830631E+03  0.50400001928E-02 0.  1.
       -1   -1    0    0    0  501  0.00000000000E+00  0.00000000000E+00 -0.32252148304E+03  0.32252148308E+03  0.50400001928E-02 0. -1.
    10030    2    1    2    0    0  0.00000000000E+00  0.00000000000E+00  0.65046682325E+03  0.12955097894E+04  0.11203742795E+04 0.  0.
        3    1    3    3  502    0  0.48457569314E+03 -0.21218462166E+03  0.11210123188E+03  0.54074264899E+03  0.10100000352E+00 0. -1.
       -3    1    3    3    0  502 -0.48457569314E+03  0.21218462166E+03  0.53836559137E+03  0.75476714040E+03  0.10100000352E+00 0.  1.
</event>
<event>
 5   0  0.1571895E-02  0.9848294E+03  0.7818609E-02  0.9325342E-01
       -2   -1    0    0    0  501  0.00000000000E+00  0.00000000000E+00  0.52158605200E+03  0.52158605201E+03  0.25500000920E-02 0. -1.
        2   -1    0    0  501    0  0.00000000000E+00  0.00000000000E+00 -0.46487483859E+03  0.46487483860E+03  0.25500000920E-02 0.  1.
    10030    2    1    2    0    0  0.00000000000E+00  0.00000000000E+00  0.56711213407E+02  0.98646089061E+03  0.98482938978E+03 0.  0.
        2    1    3    3  502    0  0.27375682930E+03  0.39739029165E+03 -0.69839374802E+02  0.48758525794E+03  0.25500000920E-02 0.  1.
       -2    1    3    3    0  502 -0.27375682930E+03 -0.39739029165E+03  0.12655058821E+03  0.49887563267E+03  0.25500000920E-02 0. -1.
</event>
<event>
 5   0  0.1571895E-02  0.9229007E+03  0.7818609E-02  0.9397399E-01
        2   -1    0    0  501    0  0.00000000000E+00  0.00000000000E+00  0.40676151689E+03  0.40676151690E+03  0.25500000920E-02 0. -1.
       -2   -1    0    0    0  501  0.00000000000E+00  0.00000000000E+00 -0.52349201448E+03  0.52349201448E+03  0.25500000920E-02 0.  1.
    10030    2    1    2    0    0  0.00000000000E+00  0.00000000000E+00 -0.11673049759E+03  0.93025353138E+03  0.92290065748E+03 0.  0.
        2    1    3    3  502    0  0.20589401066E+02 -0.39530975489E+03  0.18067959257E+03  0.43513083196E+03  0.25500000920E-02 0. -1.
       -2    1    3    3    0  502 -0.20589401066E+02  0.39530975489E+03 -0.29741009015E+03  0.49512269942E+03  0.25500000920E-02 0.  1.
</event>
<event>
 5   0  0.9471140E-03  0.1010472E+04  0.7818609E-02  0.9297134E-01
        1   -1    0    0  501    0  0.00000000000E+00  0.00000000000E+00  0.16855500946E+04  0.16855500946E+04  0.50400001928E-02 0.  1.
       -1   -1    0    0    0  501  0.00000000000E+00  0.00000000000E+00 -0.15144211310E+03  0.15144211319E+03  0.50400001928E-02 0. -1.
    10030    2    1    2    0    0  0.00000000000E+00  0.00000000000E+00  0.15341079815E+04  0.18369922078E+04  0.10104717080E+04 0.  0.
        4    1    3    3  502    0  0.21665812260E+03  0.19104129638E+03  0.13481145303E+02  0.28917273936E+03  0.12699999809E+01 0. -1.
       -4    1    3    3    0  502 -0.21665812260E+03 -0.19104129638E+03  0.15206268362E+04  0.15478194685E+04  0.12699999809E+01 0.  1.
</event>
<event>
 5   0  0.1663497E-02  0.1032984E+04  0.7818609E-02  0.9273090E-01
       -2   -1    0    0    0  501  0.00000000000E+00  0.00000000000E+00  0.20015704883E+03  0.20015704885E+03  0.25500000920E-02 0.  1.
        2   -1    0    0  501    0  0.00000000000E+00  0.00000000000E+00 -0.13327733915E+04  0.13327733915E+04  0.25500000920E-02 0. -1.
    10030    2    1    2    0    0  0.00000000000E+00  0.00000000000E+00 -0.11326163427E+04  0.15329304404E+04  0.10329840053E+04 0.  0.
        1    1    3    3  502    0  0.39631349920E+03  0.25828666729E+03 -0.25862734449E+03  0.53913309626E+03  0.50400001928E-02 0.  1.
       -1    1    3    3    0  502 -0.39631349920E+03 -0.25828666729E+03 -0.87398899821E+03  0.99379734411E+03  0.50400001928E-02 0. -1.
</event>
<event>
 5   0  0.6314750E-03  0.1005814E+04  0.7818609E-02  0.9302191E-01
       -3   -1    0    0    0  501  0.00000000000E+00  0.00000000000E+00  0.41924001730E+03  0.41924002947E+03  0.10100000352E+00 0.  1.
        3   -1    0    0  501    0  0.00000000000E+00  0.00000000000E+00 -0.60327178097E+03  0.60327178943E+03  0.10100000352E+00 0. -1.
    10030    2    1    2    0    0  0.00000000000E+00  0.00000000000E+00 -0.18403176367E+03  0.10225118189E+04  0.10058144609E+04 0.  0.
        4    1    3    3  502    0 -0.18021634535E+01 -0.64682105305E+02 -0.59902056179E+03  0.60250665464E+03  0.12699999809E+01 0. -1.
       -4    1    3    3    0  502  0.18021634535E+01  0.64682105305E+02  0.41498879812E+03  0.42000516426E+03  0.12699999809E+01 0.  1.
</event>
<event>
 5   0  0.1617721E-02  0.9978276E+03  0.7818609E-02  0.9310931E-01
        2   -1    0    0  501    0  0.00000000000E+00  0.00000000000E+00  0.19937146934E+04  0.19937146934E+04  0.25500000920E-02 0.  1.
       -2   -1    0    0    0  501  0.00000000000E+00  0.00000000000E+00 -0.12484985038E+03  0.12484985041E+03  0.25500000920E-02 0. -1.
    10030    2    1    2    0    0  0.00000000000E+00  0.00000000000E+00  0.18688648430E+04  0.21185645438E+04  0.99782760276E+03 0.  0.
        5    1    3    3  502    0 -0.42141587257E+03 -0.13086782726E+03  0.14286137230E+04  0.14952180394E+04  0.46999998093E+01 0.  1.
       -5    1    3    3    0  502  0.42141587257E+03  0.13086782726E+03  0.44025112006E+03  0.62334650443E+03  0.46999998093E+01 0. -1.
</event>
<event>
 5   0  0.1617721E-02  0.9903928E+03  0.7818609E-02  0.9319145E-01
       -2   -1    0    0    0  501  0.00000000000E+00  0.00000000000E+00  0.15944561294E+03  0.15944561296E+03  0.25500000920E-02 0.  1.
        2   -1    0    0  501    0  0.00000000000E+00  0.00000000000E+00 -0.15379506077E+04  0.15379506077E+04  0.25500000920E-02 0. -1.
    10030    2    1    2    0    0  0.00000000000E+00  0.00000000000E+00 -0.13785049947E+04  0.16973962206E+04  0.99039280556E+03 0.  0.
        5    1    3    3  502    0 -0.55237411009E+02  0.21519709565E+01  0.15410254174E+03  0.16378487697E+03  0.46999998093E+01 0.  1.
       -5    1    3    3    0  502  0.55237411009E+02 -0.21519709565E+01 -0.15326075365E+04  0.15336113437E+04  0.46999998093E+01 0. -1.
</event>
<event>
 5   0  0.1571895E-02  0.9754193E+03  0.7818609E-02  0.9335923E-01
        2   -1    0    0  501    0  0.00000000000E+00  0.00000000000E+00  0.15043719534E+04  0.15043719534E+04  0.25500000920E-02 0. -1.
       -2   -1    0    0    0  501  0.00000000000E+00  0.00000000000E+00 -0.15811297590E+03  0.15811297592E+03  0.25500000920E-02 0.  1.
    10030    2    1    2    0    0  0.00000000000E+00  0.00000000000E+00  0.13462589775E+04  0.16624849293E+04  0.97541934865E+03 0.  0.
        2    1    3    3  502    0  0.24514674181E+02  0.14159093030E+03  0.14674723993E+04  0.14744911677E+04  0.25500000920E-02 0. -1.
       -2    1    3    3    0  502 -0.24514674181E+02 -0.14159093030E+03 -0.12121342180E+03  0.18799376166E+03  0.25500000920E-02 0.  1.
</event>
<event>
 5   0  0.9396660E-03  0.9935963E+03  0.7818609E-02  0.9315596E-01
       -1   -1    0    0    0  501  0.00000000000E+00  0.00000000000E+00  0.22339117715E+03  0.22339117721E+03  0.50400001928E-02 0.  1.
        1   -1    0    0  501    0  0.00000000000E+00  0.00000000000E+00 -0.11048260169E+04  0.11048260169E+04  0.50400001928E-02 0. -1.
    10030    2    1    2    0    0  0.00000000000E+00  0.00000000000E+00 -0.88143483974E+03  0.13282171941E+04  0.99359626511E+03 0.  0.
        5    1    3    3  502    0 -0.25670106232E+02  0.33784795075E+03  0.44932419725E+02  0.34182042730E+03  0.46999998093E+01 0.  1.
       -5    1    3    3    0  502  0.25670106232E+02 -0.33784795075E+03 -0.92636725947E+03  0.98639676682E+03  0.46999998093E+01 0. -1.
</event>
<event>
 5   0  0.1598986E-02  0.1071907E+04  0.7818609E-02  0.9233014E-01
       -2   -1    0    0    0  501  0.00000000000E+00  0.00000000000E+00  0.26300270680E+03  0.26300270681E+03  0.25500000920E-02 0.  1.
        2   -1    0    0  501    0  0.00000000000E+00  0.00000000000E+00 -0.10921802843E+04  0.10921802843E+04  0.25500000920E-02 0. -1.
    10030    2    1    2    0    0  0.00000000000E+00  0.00000000000E+00 -0.82917757746E+03  0.13551829911E+04  0.10719074047E+04 0.  0.
        3    1    3    3  502    0  0.57505979296E+02  0.41359648189E+03 -0.83934928413E+03  0.93748398304E+03  0.10100000352E+00 0.  1.
       -3    1    3    3    0  502 -0.57505979296E+02 -0.41359648189E+03  0.10171706673E+02  0.41769900803E+03  0.10100000352E+00 0. -1.
</event>
<event>
 5   0  0.1000773E-02  0.9869285E+03  0.7818609E-02  0.9322999E-01
       -1   -1    0    0    0  501  0.00000000000E+00  0.00000000000E+00  0.41120818652E+03  0.41120818655E+03  0.50400001928E-02 0.  1.
        1   -1    0    0  501    0  0.00000000000E+00  0.00000000000E+00 -0.59217440582E+03  0.59217440584E+03  0.50400001928E-02 0. -1.
    10030    2    1    2    0    0  0.00000000000E+00  0.00000000000E+00 -0.18096621930E+03  0.10033825924E+04  0.98692849497E+03 0.  0.
        3    1    3    3  502    0  0.23856110330E+02 -0.48614401156E+03 -0.78767753703E+01  0.48679273595E+03  0.10100000352E+00 0. -1.
       -3    1    3    3    0  502 -0.23856110330E+02  0.48614401156E+03 -0.17308944393E+03  0.51658985644E+03  0.10100000352E+00 0.  1.
</event>
<event>
 5   0  0.1656859E-02  0.1020589E+04  0.7818609E-02  0.9286247E-01
        2   -1    0    0  501    0  0.00000000000E+00  0.00000000000E+00  0.87448363460E+03  0.87448363460E+03  0.25500000920E-02 0. -1.
       -2   -1    0    0    0  501  0.00000000000E+00  0.00000000000E+00 -0.29777609354E+03  0.29777609355E+03  0.25500000920E-02 0.  1.
    10030    2    1    2    0    0  0.00000000000E+00  0.00000000000E+00  0.57670754105E+03  0.11722597282E+04  0.10205886940E+04 0.  0.
        4    1    3    3  502    0  0.49823508518E+03  0.11012620815E+03  0.28178296498E+03  0.58289727575E+03  0.12699999809E+01 0.  1.
       -4    1    3    3    0  502 -0.49823508518E+03 -0.11012620815E+03  0.29492457607E+03  0.58936245240E+03  0.12699999809E+01 0. -1.
</event>
<event>
 5   0  0.9759443E-03  0.1026559E+04  0.7818609E-02  0.9279885E-01
       -1   -1    0    0    0  501  0.00000000000E+00  0.00000000000E+00  0.16984305302E+03  0.16984305310E+03  0.50400001928E-02 0.  1.
        1   -1    0    0  501    0  0.00000000000E+00  0.00000000000E+00 -0.15511731562E+04  0.15511731562E+04  0.50400001928E-02 0. -1.
    10030    2    1    2    0    0  0.00000000000E+00  0.00000000000E+00 -0.13813301032E+04  0.17210162093E+04  0.10265592719E+04 0.  0.
        2    1    3    3  502    0 -0.15329254732E+03  0.11610238840E+03  0.10717084482E+03  0.22014531484E+03  0.25500000920E-02 0.  1.
       -2    1    3    3    0  502  0.15329254732E+03 -0.11610238840E+03 -0.14885009480E+04  0.15008708945E+04  0.25500000920E-02 0. -1.
</event>
<event>
 5   0  0.9507815E-03  0.1005879E+04  0.7818609E-02  0.9302120E-01
        1   -1    0    0  501    0  0.00000000000E+00  0.00000000000E+00  0.34608846348E+03  0.34608846352E+03  0.50400001928E-02 0. -1.
       -1   -1    0    0    0  501  0.00000000000E+00  0.00000000000E+00 -0.73087770340E+03  0.73087770342E+03  0.50400001928E-02 0.  1.
    10030    2    1    2    0    0  0.00000000000E+00  0.00000000000E+00 -0.38478923992E+03  0.10769661669E+04  0.10058793991E+04 0.  0.
        1    1    3    3  502    0 -0.28876214819E+03 -0.22713421763E+03  0.17535377869E+03  0.40709025875E+03  0.50400001928E-02 0. -1.
       -1    1    3    3    0  502  0.28876214819E+03  0.22713421763E+03 -0.56014301861E+03  0.66987590819E+03  0.50400001928E-02 0.  1.
</event>
<event>
 5   0  0.1617721E-02  0.9876545E+03  0.7818609E-02  0.9322190E-01
        2   -1    0    0  501    0  0.00000000000E+00  0.00000000000E+00  0.38218485210E+03  0.38218485211E+03  0.25500000920E-02 0.  1.
       -2   -1    0    0    0  501  0.00000000000E+00  0.00000000000E+00 -0.63808220515E+03  0.63808220516E+03  0.25500000920E-02 0. -1.
    10030    2    1    2    0    0  0.00000000000E+00  0.00000000000E+00 -0.25589735306E+03  0.10202670573E+04  0.98765450074E+03 0.  0.
        5    1    3    3  502    0  0.37696611196E+03 -0.30047725230E+03 -0.23850227758E+03  0.53786192942E+03  0.46999998093E+01 0. -1.
       -5    1    3    3    0  502 -0.37696611196E+03  0.30047725230E+03 -0.17395075477E+02  0.48240512784E+03  0.46999998093E+01 0.  1.
</event>
<event>
 5   0  0.9396660E-03  0.1022681E+04  0.7818609E-02  0.9284013E-01
        1   -1    0    0  501    0  0.00000000000E+00  0.00000000000E+00  0.56349047146E+03  0.56349047149E+03  0.50400001928E-02 0.  1.
       -1   -1    0    0    0  501  0.00000000000E+00  0.00000000000E+00 -0.46401660559E+03  0.46401660562E+03  0.50400001928E-02 0. -1.
    10030    2    1    2    0    0  0.00000000000E+00  0.00000000000E+00  0.99473865871E+02  0.10275070771E+04  0.10226806655E+04 0.  0.
        5    1    3    3  502    0 -0.20920691757E+03  0.42628313095E+03 -0.14079453684E+03  0.49530801901E+03  0.46999998093E+01 0. -1.
       -5    1    3    3    0  502  0.20920691757E+03 -0.42628313095E+03  0.24026840271E+03  0.53219905809E+03  0.46999998093E+01 0.  1.
</event>
<event>
 5   0  0.1598986E-02  0.9727338E+03  0.7818609E-02  0.9338966E-01
        2   -1    0    0  501    0  0.00000000000E+00  0.00000000000E+00  0.10505220212E+04  0.10505220212E+04  0.25500000920E-02 0.  1.
       -2   -1    0    0    0  501  0.00000000000E+00  0.00000000000E+00 -0.22517640300E+03  0.22517640301E+03  0.25500000920E-02 0. -1.
    10030    2    1    2    0    0  0.00000000000E+00  0.00000000000E+00  0.82534561824E+03  0.12756984242E+04  0.97273381769E+03 0.  0.
        3    1    3    3  502    0  0.26436785852E+03  0.84148172082E+02  0.93656901005E+03  0.97679721553E+03  0.10100000352E+00 0.  1.
       -3    1    3    3    0  502 -0.26436785852E+03 -0.84148172082E+02 -0.11122339181E+03  0.29890120872E+03  0.10100000352E+00 0. -1.
</event>
<event>
 5   0  0.1663497E-02  0.1016912E+04  0.7818609E-02  0.9290188E-01
        2   -1    0    0  501    0  0.00000000000E+00  0.00000000000E+00  0.53523768072E+03  0.53523768073E+03  0.25500000920E-02 0. -1.
       -2   -1    0    0    0  501  0.00000000000E+00  0.00000000000E+00 -0.48301413058E+03  0.48301413059E+03  0.25500000920E-02 0.  1.
    10030    2    1    2    0    0  0.00000000000E+00  0.00000000000E+00  0.52223550143E+02  0.10182518113E+04  0.10169117228E+04 0.  0.
        1    1    3    3  502    0 -0.37507392758E+03 -0.15629075223E+02  0.36949611094E+03  0.52673721642E+03  0.50400001928E-02 0. -1.
       -1    1    3    3    0  502  0.37507392758E+03  0.15629075223E+02 -0.31727256079E+03  0.49151459490E+03  0.50400001928E-02 0.  1.
</event>
<event>
 5   0  0.9759443E-03  0.1005045E+04  0.7818609E-02  0.9303029E-01
        1   -1    0    0  501    0  0.00000000000E+00  0.00000000000E+00  0.95369224432E+03  0.95369224433E+03  0.50400001928E-02 0.  1.
       -1   -1    0    0    0  501  0.00000000000E+00  0.00000000000E+00 -0.26479080784E+03  0.26479080789E+03  0.50400001928E-02 0. -1.
    10030    2    1    2    0    0  0.00000000000E+00  0.00000000000E+00  0.68890143647E+03  0.12184830522E+04  0.10050451529E+04 0.  0.
        2    1    3    3  502    0  0.57119978654E+02  0.48138116358E+03  0.50500769895E+03  0.70001663739E+03  0.25500000920E-02 0.  1.
       -2    1    3    3    0  502 -0.57119978654E+02 -0.48138116358E+03  0.18389373752E+03  0.51846641484E+03  0.25500000920E-02 0. -1.
</event>
<event>
 5   0  0.9759443E-03  0.9893232E+03  0.7818609E-02  0.9320333E-01
        1   -1    0    0  501    0  0.00000000000E+00  0.00000000000E+00  0.63436303154E+03  0.63436303156E+03  0.50400001928E-02 0.  1.
       -1   -1    0    0    0  501  0.00000000000E+00  0.00000000000E+00 -0.38572566726E+03  0.38572566729E+03  0.50400001928E-02 0. -1.
    10030    2    1    2    0    0  0.00000000000E+00  0.00000000000E+00  0.24863736428E+03  0.10200886988E+04  0.98932321038E+03 0.  0.
        2    1    3    3  502    0  0.23721183513E+03 -0.46950758612E+02 -0.32062859739E+03  0.40159248739E+03  0.25500000920E-02 0. -1.
       -2    1    3    3    0  502 -0.23721183513E+03  0.46950758612E+02  0.56926596167E+03  0.61849621145E+03  0.25500000920E-02 0.  1.
</event>
<event>
 5   0  0.1598986E-02  0.1043772E+04  0.7818609E-02  0.9261798E-01
       -2   -1    0    0    0  501  0.00000000000E+00  0.00000000000E+00  0.34101116074E+03  0.34101116075E+03  0.25500000920E-02 0. -1.
        2   -1    0    0  501    0  0.00000000000E+00  0.00000000000E+00 -0.79869848060E+03  0.79869848061E+03  0.25500000920E-02 0.  1.
    10030    2    1    2    0    0  0.00000000000E+00  0.00000000000E+00 -0.45768731986E+03  0.11397096414E+04  0.10437721896E+04 0.  0.
        3    1    3    3  502    0 -0.17850948033E+03 -0.39686870771E+03  0.85723678934E+02  0.44353011742E+03  0.10100000352E+00 0.  1.
       -3    1    3    3    0  502  0.17850948033E+03  0.39686870771E+03 -0.54341099880E+03  0.69617952393E+03  0.10100000352E+00 0. -1.
</event>
<event>
 5   0  0.1598986E-02  0.9860178E+03  0.7818609E-02  0.9324015E-01
        2   -1    0    0  501    0  0.00000000000E+00  0.00000000000E+00  0.15236786049E+04  0.15236786049E+04  0.25500000920E-02 0.  1.
       -2   -1    0    0    0  501  0.00000000000E+00  0.00000000000E+00 -0.15952037898E+03  0.15952037900E+03  0.25500000920E-02 0. -1.
    10030    2    1    2    0    0  0.00000000000E+00  0.00000000000E+00  0.13641582259E+04  0.16831989839E+04  0.98601782644E+03 0.  0.
        3    1    3    3  502    0  0.10260175549E+03 -0.24542652704E+03 -0.26500892612E+02  0.26732678114E+03  0.10100000352E+00 0. -1.
       -3    1    3    3    0  502 -0.10260175549E+03  0.24542652704E+03  0.13906591185E+04  0.14158722027E+04  0.10100000352E+00 0.  1.
</event>
<event>
 5   0  0.9471140E-03  0.9970741E+03  0.7818609E-02  0.9311760E-01
        1   -1    0    0  501    0  0.00000000000E+00  0.00000000000E+00  0.39867332056E+03  0.39867332059E+03  0.50400001928E-02 0. -1.
       -1   -1    0    0    0  501  0.00000000000E+00  0.00000000000E+00 -0.62341563195E+03  0.62341563198E+03  0.50400001928E-02 0.  1.
    10030    2    1    2    0    0  0.00000000000E+00  0.00000000000E+00 -0.22474231140E+03  0.10220889526E+04  0.99707407971E+03 0.  0.
        4    1    3    3  502    0  0.32937762137E+03  0.35995617369E+03 -0.21730887142E+03  0.53411873486E+03  0.12699999809E+01 0.  1.
       -4    1    3    3    0  502 -0.32937762137E+03 -0.35995617369E+03 -0.74334399788E+01  0.48797021770E+03  0.12699999809E+01 0. -1.
</event>
<event>
 5   0  0.9471140E-03  0.9488156E+03  0.7818609E-02  0.9366536E-01
       -1   -1    0    0    0  501  0.00000000000E+00  0.00000000000E+00  0.67322795009E+03  0.67322795011E+03  0.50400001928E-02 0. -1.
        1   -1    0    0  501    0  0.00000000000E+00  0.00000000000E+00 -0.33430394487E+03  0.33430394490E+03  0.50400001928E-02 0.  1.
    10030    2    1    2    0    0  0.00000000000E+00  0.00000000000E+00  0.33892400523E+03  0.10075318950E+04  0.94881559755E+03 0.  0.
        4    1    3    3  502    0  0.95550072207E+01 -0.79758380399E+02  0.66595195000E+03  0.67078037391E+03  0.12699999809E+01 0. -1.
       -4    1    3    3    0  502 -0.95550072207E+01  0.79758380399E+02 -0.32702794477E+03  0.33675152111E+03  0.12699999809E+01 0.  1.
</event>
<event>
 5   0  0.9507815E-03  0.9563895E+03  0.7818609E-02  0.9357713E-01
       -1   -1    0    0    0  501  0.00000000000E+00  0.00000000000E+00  0.52544055158E+03  0.52544055160E+03  0.50400001928E-02 0.  1.
        1   -1    0    0  501    0  0.00000000000E+00  0.00000000000E+00 -0.43519712398E+03  0.43519712401E+03  0.50400001928E-02 0. -1.
    10030    2    1    2    0    0  0.00000000000E+00  0.00000000000E+00  0.90243427602E+02  0.96063767561E+03  0.95638949575E+03 0.  0.
        1    1    3    3  502    0  0.53807550878E+02 -0.30500701319E+03 -0.32083947219E+03  0.44594001566E+03  0.50400001928E-02 0. -1.
       -1    1    3    3    0  502 -0.53807550878E+02  0.30500701319E+03  0.41108289979E+03  0.51469765995E+03  0.50400001928E-02 0.  1.
</event>
<event>
 5   0  0.9507815E-03  0.9847919E+03  0.7818609E-02  0.9325384E-01
       -1   -1    0    0    0  501  0.00000000000E+00  0.00000000000E+00  0.24387975162E+03  0.24387975167E+03  0.50400001928E-02 0.  1.
        1   -1    0    0  501    0  0.00000000000E+00  0.00000000000E+00 -0.99415299413E+03  0.99415299415E+03  0.50400001928E-02 0. -1.
    10030    2    1    2    0    0  0.00000000000E+00  0.00000000000E+00 -0.75027324251E+03  0.12380327458E+04  0.98479192792E+03 0.  0.
        1    1    3    3  502    0  0.20138149294E+03 -0.17010634112E+03 -0.89797131391E+03  0.93586492274E+03  0.50400001928E-02 0. -1.
       -1    1    3    3    0  502 -0.20138149294E+03  0.17010634112E+03  0.14769807140E+03  0.30216782308E+03  0.50400001928E-02 0.  1.
</event>
<event>
 5   0  0.9759443E-03  0.9139305E+03  0.7818609E-02  0.9408333E-01
        1   -1    0    0  501    0  0.00000000000E+00  0.00000000000E+00  0.40252199711E+03  0.40252199714E+03  0.50400001928E-02 0. -1.
       -1   -1    0    0    0  501  0.00000000000E+00  0.00000000000E+00 -0.51877225352E+03  0.51877225354E+03  0.50400001928E-02 0.  1.
    10030    2    1    2    0    0  0.00000000000E+00  0.00000000000E+00 -0.11625025641E+03  0.92129425069E+03  0.91393050843E+03 0.  0.
        2    1    3    3  502    0 -0.69714801030E+02 -0.32176169132E+03 -0.37757988430E+03  0.50095639383E+03  0.25500000920E-02 0.  1.
       -2    1    3    3    0  502  0.69714801030E+02  0.32176169132E+03  0.26132962790E+03  0.42033785686E+03  0.25500000920E-02 0. -1.
</event>
<event>
 5   0  0.9396660E-03  0.9966253E+03  0.7818609E-02  0.9312254E-01
       -1   -1    0    0    0  501  0.00000000000E+00  0.00000000000E+00  0.45693940819E+03  0.45693940822E+03  0.50400001928E-02 0. -1.
        1   -1    0    0  501    0  0.00000000000E+00  0.00000000000E+00 -0.54343197392E+03  0.54343197394E+03  0.50400001928E-02 0.  1.
    10030    2    1    2    0    0  0.00000000000E+00  0.00000000000E+00 -0.86492565730E+02  0.10003713822E+04  0.99662527477E+03 0.  0.
        5    1    3    3  502    0 -0.50791596661E+01  0.28049213989E+03  0.37011684154E+03  0.46444612691E+03  0.46999998093E+01 0. -1.
       -5    1    3    3    0  502  0.50791596661E+01 -0.28049213989E+03 -0.45660940727E+03  0.53592525525E+03  0.46999998093E+01 0.  1.
</event>
<event>
 5   0  0.9759443E-03  0.9963376E+03  0.7818609E-02  0.9312571E-01
       -1   -1    0    0    0  501  0.00000000000E+00  0.00000000000E+00  0.17400294209E+03  0.17400294216E+03  0.50400001928E-02 0. -1.
        1   -1    0    0  501    0  0.00000000000E+00  0.00000000000E+00 -0.14262525328E+04  0.14262525328E+04  0.50400001928E-02 0.  1.
    10030    2    1    2    0    0  0.00000000000E+00  0.00000000000E+00 -0.12522495907E+04  0.16002554750E+04  0.99633756717E+03 0.  0.
        2    1    3    3  502    0  0.35059376530E+03  0.34666599713E+03 -0.74058772886E+03  0.88969853657E+03  0.25500000920E-02 0.  1.
       -2    1    3    3    0  502 -0.35059376530E+03 -0.34666599713E+03 -0.51166186187E+03  0.71055693841E+03  0.25500000920E-02 0. -1.
</event>
<event>
 5   0  0.1663497E-02  0.9591267E+03  0.7818609E-02  0.9354546E-01
        2   -1    0    0  501    0  0.00000000000E+00  0.00000000000E+00  0.36153300206E+03  0.36153300207E+03  0.25500000920E-02 0.  1.
       -2   -1    0    0    0  501  0.00000000000E+00  0.00000000000E+00 -0.63612723323E+03  0.63612723323E+03  0.25500000920E-02 0. -1.
    10030    2    1    2    0    0  0.00000000000E+00  0.00000000000E+00 -0.27459423117E+03  0.99766023530E+03  0.95912666176E+03 0.  0.
        1    1    3    3  502    0  0.35660949967E+03 -0.28016483042E+03  0.24911340542E+02  0.45418415029E+03  0.50400001928E-02 0.  1.
       -1    1    3    3    0  502 -0.35660949967E+03  0.28016483042E+03 -0.29950557171E+03  0.54347608501E+03  0.50400001928E-02 0. -1.
</event>
<event>
 5   0  0.1663497E-02  0.1001180E+04  0.7818609E-02  0.9307252E-01
        2   -1    0    0  501    0  0.00000000000E+00  0.00000000000E+00  0.69622209816E+03  0.69622209816E+03  0.25500000920E-02 0. -1.
       -2   -1    0    0    0  501  0.00000000000E+00  0.00000000000E+00 -0.35992855386E+03  0.35992855387E+03  0.25500000920E-02 0.  1.
    10030    2    1    2    0    0  0.00000000000E+00  0.00000000000E+00  0.33629354430E+03  0.10561506520E+04  0.10011797300E+04 0.  0.
        1    1    3    3  502    0  0.10065036422E+03  0.46615633591E+03  0.32867973892E+03  0.57919132946E+03  0.50400001928E-02 0. -1.
       -1    1    3    3    0  502 -0.10065036422E+03 -0.46615633591E+03  0.76138053773E+01  0.47695932256E+03  0.50400001928E-02 0.  1.
</event>
<event>
 5   0  0.1571895E-02  0.9883520E+03  0.7818609E-02  0.9321413E-01
        2   -1    0    0  501    0  0.00000000000E+00  0.00000000000E+00  0.72541791855E+03  0.72541791855E+03  0.25500000920E-02 0. -1.
       -2   -1    0    0    0  501  0.00000000000E+00  0.00000000000E+00 -0.33664719299E+03  0.33664719300E+03  0.25500000920E-02 0.  1.
    10030    2    1    2    0    0  0.00000000000E+00  0.00000000000E+00  0.38877072555E+03  0.10620651116E+04  0.98835197381E+03 0.  0.
        2    1    3    3  502    0  0.29905189536E+03 -0.33710969944E+03 -0.23558598195E+02  0.45125380124E+03  0.25500000920E-02 0.  1.
       -2    1    3    3    0  502 -0.29905189536E+03  0.33710969944E+03  0.41232932375E+03  0.61081131031E+03  0.25500000920E-02 0. -1.
</event>
<event>
 5   0  0.9471140E-03  0.9838571E+03  0.7818609E-02  0.9326429E-01
        1   -1    0    0  501    0  0.00000000000E+00  0.00000000000E+00  0.47394657356E+03  0.47394657358E+03  0.50400001928E-02 0.  1.
       -1   -1    0    0    0  501  0.00000000000E+00  0.00000000000E+00 -0.51059281281E+03  0.51059281283E+03  0.50400001928E-02 0. -1.
    10030    2    1    2    0    0  0.00000000000E+00  0.00000000000E+00 -0.36646239255E+02  0.98453938642E+03  0.98385713219E+03 0.  0.
        4    1    3    3  502    0 -0.27289546148E+03  0.79870134477E+01  0.39117498931E+03  0.47702747346E+03  0.12699999809E+01 0.  1.
       -4    1    3    3    0  502  0.27289546148E+03 -0.79870134477E+01 -0.42782122856E+03  0.50751191295E+03  0.12699999809E+01 0. -1.
</event>
<event>
 5   0  0.9471140E-03  0.1003028E+04  0.7818609E-02  0.9305230E-01
       -1   -1    0    0    0  501  0.00000000000E+00  0.00000000000E+00  0.33552734012E+03  0.33552734016E+03  0.50400001928E-02 0.  1.
        1   -1    0    0  501    0  0.00000000000E+00  0.00000000000E+00 -0.74961499762E+03  0.74961499763E+03  0.50400001928E-02 0. -1.
    10030    2    1    2    0    0  0.00000000000E+00  0.00000000000E+00 -0.41408765749E+03  0.10851423378E+04  0.10030280680E+04 0.  0.
        4    1    3    3  502    0 -0.18864230334E+03  0.31420505473E+03  0.16333384430E+03  0.40123595629E+03  0.12699999809E+01 0.  1.
       -4    1    3    3    0  502  0.18864230334E+03 -0.31420505473E+03 -0.57742150179E+03  0.68390638150E+03  0.12699999809E+01 0. -1.
</event>
<event>
 5   0  0.9507815E-03  0.1052147E+04  0.7818609E-02  0.9253131E-01
        1   -1    0    0  501    0  0.00000000000E+00  0.00000000000E+00  0.98088857302E+03  0.98088857303E+03  0.50400001928E-02 0. -1.
       -1   -1    0    0    0  501  0.00000000000E+00  0.00000000000E+00 -0.28214527357E+03  0.28214527361E+03  0.50400001928E-02 0.  1.
    10030    2    1    2    0    0  0.00000000000E+00  0.00000000000E+00  0.69874329945E+03  0.12630338466E+04  0.10521465199E+04 0.  0.
        1    1    3    3  502    0  0.22022367275E+03  0.46408397928E+03  0.21313060206E+03  0.55614481875E+03  0.50400001928E-02 0.  1.
       -1    1    3    3    0  502 -0.22022367275E+03 -0.46408397928E+03  0.48561269739E+03  0.70688902789E+03  0.50400001928E-02 0. -1.
</event>
<event>
 5   0  0.9759443E-03  0.1021139E+04  0.7818609E-02  0.9285659E-01
        1   -1    0    0  501    0  0.00000000000E+00  0.00000000000E+00  0.85039792645E+03  0.85039792646E+03  0.50400001928E-02 0. -1.
       -1   -1    0    0    0  501  0.00000000000E+00  0.00000000000E+00 -0.30654022571E+03  0.30654022575E+03  0.50400001928E-02 0.  1.
    10030    2    1    2    0    0  0.00000000000E+00  0.00000000000E+00  0.54385770074E+03  0.11569381522E+04  0.10211389178E+04 0.  0.
        2    1    3    3  502    0  0.41920625334E+03  0.16911444651E+03  0.54087355703E+03  0.70489558344E+03  0.25500000920E-02 0. -1.
       -2    1    3    3    0  502 -0.41920625334E+03 -0.16911444651E+03  0.29841437077E+01  0.45204256877E+03  0.25500000920E-02 0.  1.
</event>
<event>
 5   0  0.6314750E-03  0.9839799E+03  0.7818609E-02  0.9326292E-01
        4   -1    0    0  501    0  0.00000000000E+00  0.00000000000E+00  0.26504958363E+03  0.26505262625E+03  0.12699999809E+01 0. -1.
       -4   -1    0    0    0  501  0.00000000000E+00  0.00000000000E+00 -0.91323211467E+03  0.91323299774E+03  0.12699999809E+01 0.  1.
    10030    2    1    2    0    0  0.00000000000E+00  0.00000000000E+00 -0.64818253104E+03  0.11782856240E+04  0.98397988706E+03 0.  0.
        5    1    3    3  502    0 -0.38692925889E+03  0.20466388765E+03 -0.59300365159E+03  0.73707325219E+03  0.46999998093E+01 0. -1.
       -5    1    3    3    0  502  0.38692925889E+03 -0.20466388765E+03 -0.55178879445E+02  0.44121237179E+03  0.46999998093E+01 0.  1.
</event>
<event>
 5   0  0.1598986E-02  0.8283408E+03  0.7818609E-02  0.9519877E-01
        2   -1    0    0  501    0  0.00000000000E+00  0.00000000000E+00  0.11076623314E+04  0.11076623314E+04  0.25500000920E-02 0.  1.
       -2   -1    0    0    0  501  0.00000000000E+00  0.00000000000E+00 -0.15486410439E+03  0.15486410441E+03  0.25500000920E-02 0. -1.
    10030    2    1    2    0    0  0.00000000000E+00  0.00000000000E+00  0.95279822706E+03  0.12625264359E+04  0.82834083551E+03 0.  0.
        3    1    3    3  502    0 -0.42848927647E+02  0.13198729440E+03 -0.11837694979E+03  0.18240007929E+03  0.10100000352E+00 0. -1.
       -3    1    3    3    0  502  0.42848927647E+02 -0.13198729440E+03  0.10711751768E+04  0.10801263566E+04  0.10100000352E+00 0.  1.
</event>
<event>
 5   0  0.1663497E-02  0.1000527E+04  0.7818609E-02  0.9307967E-01
       -2   -1    0    0    0  501  0.00000000000E+00  0.00000000000E+00  0.22370322538E+03  0.22370322539E+03  0.25500000920E-02 0. -1.
        2   -1    0    0  501    0  0.00000000000E+00  0.00000000000E+00 -0.11187309075E+04  0.11187309075E+04  0.25500000920E-02 0.  1.
    10030    2    1    2    0    0  0.00000000000E+00  0.00000000000E+00 -0.89502768207E+03  0.13424341328E+04  0.10005272857E+04 0.  0.
        1    1    3    3  502    0  0.35552475546E+03 -0.19157679231E+03 -0.84363962025E+03  0.93532204506E+03  0.50400001928E-02 0.  1.
       -1    1    3    3    0  502 -0.35552475546E+03  0.19157679231E+03 -0.51388061819E+02  0.40711208778E+03  0.50400001928E-02 0. -1.
</event>
<event>
 5   0  0.1598986E-02  0.1007093E+04  0.7818609E-02  0.9300799E-01
       -2   -1    0    0    0  501  0.00000000000E+00  0.00000000000E+00  0.20616851301E+03  0.20616851302E+03  0.25500000920E-02 0.  1.
        2   -1    0    0  501    0  0.00000000000E+00  0.00000000000E+00 -0.12298631694E+04  0.12298631694E+04  0.25500000920E-02 0. -1.
    10030    2    1    2    0    0  0.00000000000E+00  0.00000000000E+00 -0.10236946563E+04  0.14360316824E+04  0.10070929666E+04 0.  0.
        3    1    3    3  502    0 -0.13155935213E+03  0.84039816982E+02 -0.11944859670E+04  0.12046440510E+04  0.10100000352E+00 0. -1.
       -3    1    3    3    0  502  0.13155935213E+03 -0.84039816982E+02  0.17079131066E+03  0.23138763141E+03  0.10100000352E+00 0.  1.
</event>
<event>
 5   0  0.9471140E-03  0.1039710E+04  0.7818609E-02  0.9266032E-01
        1   -1    0    0  501    0  0.00000000000E+00  0.00000000000E+00  0.77901202616E+03  0.77901202618E+03  0.50400001928E-02 0.  1.
       -1   -1    0    0    0  501  0.00000000000E+00  0.00000000000E+00 -0.34691304672E+03  0.34691304676E+03  0.50400001928E-02 0. -1.
    10030    2    1    2    0    0  0.00000000000E+00  0.00000000000E+00  0.43209897944E+03  0.11259250729E+04  0.10397104125E+04 0.  0.
        4    1    3    3  502    0  0.96173776714E+02  0.14011113208E+03 -0.31598074236E+03  0.35878401177E+03  0.12699999809E+01 0. -1.
       -4    1    3    3    0  502 -0.96173776714E+02 -0.14011113208E+03  0.74807972180E+03  0.76714106117E+03  0.12699999809E+01 0.  1.
</event>
<event>
 5   0  0.1571895E-02  0.9769924E+03  0.7818609E-02  0.9334145E-01
       -2   -1    0    0    0  501  0.00000000000E+00  0.00000000000E+00  0.12855514924E+03  0.12855514926E+03  0.25500000920E-02 0.  1.
        2   -1    0    0  501    0  0.00000000000E+00  0.00000000000E+00 -0.18562347870E+04  0.18562347870E+04  0.25500000920E-02 0. -1.
    10030    2    1    2    0    0  0.00000000000E+00  0.00000000000E+00 -0.17276796378E+04  0.19847899363E+04  0.97699240548E+03 0.  0.
        2    1    3    3  502    0  0.21670332457E+02  0.18899975531E+02  0.12683440696E+03  0.13005298605E+03  0.25500000920E-02 0.  1.
       -2    1    3    3    0  502 -0.21670332457E+02 -0.18899975531E+02 -0.18545140448E+04  0.18547369503E+04  0.25500000920E-02 0. -1.
</event>
<event>
 5   0  0.1571895E-02  0.9680684E+03  0.7818609E-02  0.9344277E-01
       -2   -1    0    0    0  501  0.00000000000E+00  0.00000000000E+00  0.49861280995E+03  0.49861280996E+03  0.25500000920E-02 0.  1.
        2   -1    0    0  501    0  0.00000000000E+00  0.00000000000E+00 -0.46988185145E+03  0.46988185146E+03  0.25500000920E-02 0. -1.
    10030    2    1    2    0    0  0.00000000000E+00  0.00000000000E+00  0.28730958498E+02  0.96849466142E+03  0.96806840730E+03 0.  0.
        2    1    3    3  502    0  0.21850848033E+03 -0.35739966564E+03 -0.22824621309E+03  0.47705011348E+03  0.25500000920E-02 0. -1.
       -2    1    3    3    0  502 -0.21850848033E+03  0.35739966564E+03  0.25697717159E+03  0.49144454794E+03  0.25500000920E-02 0.  1.
</event>
<event>
 5   0  0.9471140E-03  0.1019944E+04  0.7818609E-02  0.9286937E-01
        1   -1    0    0  501    0  0.00000000000E+00  0.00000000000E+00  0.64996421135E+03  0.64996421137E+03  0.50400001928E-02 0.  1.
       -1   -1    0    0    0  501  0.00000000000E+00  0.00000000000E+00 -0.40013173412E+03  0.40013173415E+03  0.50400001928E-02 0. -1.
    10030    2    1    2    0    0  0.00000000000E+00  0.00000000000E+00  0.24983247723E+03  0.10500959455E+04  0.10199437377E+04 0.  0.
        4    1    3    3  502    0 -0.50182127809E+03 -0.67473191962E+02  0.18747830689E+03  0.53993236172E+03  0.12699999809E+01 0. -1.
       -4    1    3    3    0  502  0.50182127809E+03  0.67473191962E+02  0.62354170340E+02  0.51016358380E+03  0.12699999809E+01 0.  1.
</event>
<event>
 5   0  0.9759443E-03  0.1022239E+04  0.7818609E-02  0.9284484E-01
       -1   -1    0    0    0  501  0.00000000000E+00  0.00000000000E+00  0.35875790639E+03  0.35875790642E+03  0.50400001928E-02 0.  1.
        1   -1    0    0  501    0  0.00000000000E+00  0.00000000000E+00 -0.72818828363E+03  0.72818828365E+03  0.50400001928E-02 0. -1.
    10030    2    1    2    0    0  0.00000000000E+00  0.00000000000E+00 -0.36943037724E+03  0.10869461901E+04  0.10222393147E+04 0.  0.
        2    1    3    3  502    0 -0.16318187440E+03  0.17217960549E+03 -0.66610814252E+03  0.70708853634E+03  0.25500000920E-02 0. -1.
       -2    1    3    3    0  502  0.16318187440E+03 -0.17217960549E+03  0.29667776528E+03  0.37985765373E+03  0.25500000920E-02 0.  1.
</event>
<event>
 5   0  0.9396660E-03  0.1007274E+04  0.7818609E-02  0.9300603E-01
        1   -1    0    0  501    0  0.00000000000E+00  0.00000000000E+00  0.16311818286E+04  0.16311818286E+04  0.50400001928E-02 0. -1.
       -1   -1    0    0    0  501  0.00000000000E+00  0.00000000000E+00 -0.15550084635E+03  0.15550084643E+03  0.50400001928E-02 0.  1.
    10030    2    1    2    0    0  0.00000000000E+00  0.00000000000E+00  0.14756809823E+04  0.17866826751E+04  0.10072738555E+04 0.  0.
        5    1    3    3  502    0 -0.89829343420E+02 -0.46944234725E+03  0.10193223849E+04  0.11258266486E+04  0.46999998093E+01 0. -1.
       -5    1    3    3    0  502  0.89829343420E+02  0.46944234725E+03  0.45635859739E+03  0.66085602648E+03  0.46999998093E+01 0.  1.
</event>
<event>
 5   0  0.1656859E-02  0.9873402E+03  0.7818609E-02  0.9322540E-01
        2   -1    0    0  501    0  0.00000000000E+00  0.00000000000E+00  0.12112455626E+04  0.12112455626E+04  0.25500000920E-02 0. -1.
       -2   -1    0    0    0  501  0.00000000000E+00  0.00000000000E+00 -0.20120624904E+03  0.20120624905E+03  0.25500000920E-02 0.  1.
    10030    2    1    2    0    0  0.00000000000E+00  0.00000000000E+00  0.10100393136E+04  0.14124518116E+04  0.98734021760E+03 0.  0.
        4    1    3    3  502    0  0.16369607363E+03 -0.17473356496E+03 -0.11257973898E+03  0.26458275411E+03  0.12699999809E+01 0.  1.
       -4    1    3    3    0  502 -0.16369607363E+03  0.17473356496E+03  0.11226190525E+04  0.11478690575E+04  0.12699999809E+01 0. -1.
</event>
<event>
 5   0  0.9396660E-03  0.9943224E+03  0.7818609E-02  0.9314794E-01
        1   -1    0    0  501    0  0.00000000000E+00  0.00000000000E+00  0.32747786574E+03  0.32747786578E+03  0.50400001928E-02 0. -1.
       -1   -1    0    0    0  501  0.00000000000E+00  0.00000000000E+00 -0.75476634641E+03  0.75476634643E+03  0.50400001928E-02 0.  1.
    10030    2    1    2    0    0  0.00000000000E+00  0.00000000000E+00 -0.42728848067E+03  0.10822442122E+04  0.99432242715E+03 0.  0.
        5    1    3    3  502    0 -0.22473165330E+03  0.21645282164E+03 -0.63489525324E+03  0.70743919355E+03  0.46999998093E+01 0.  1.
       -5    1    3    3    0  502  0.22473165330E+03 -0.21645282164E+03  0.20760677256E+03  0.37480501865E+03  0.46999998093E+01 0. -1.
</event>
<event>
 5   0  0.1663497E-02  0.9553315E+03  0.7818609E-02  0.9358940E-01
       -2   -1    0    0    0  501  0.00000000000E+00  0.00000000000E+00  0.60060266472E+03  0.60060266473E+03  0.25500000920E-02 0. -1.
        2   -1    0    0  501    0  0.00000000000E+00  0.00000000000E+00 -0.37989271617E+03  0.37989271618E+03  0.25500000920E-02 0.  1.
    10030    2    1    2    0    0  0.00000000000E+00  0.00000000000E+00  0.22070994855E+03  0.98049538091E+03  0.95533151868E+03 0.  0.
        1    1    3    3  502    0  0.20519874329E+03  0.17042358863E+03 -0.29633215883E+03  0.39870223499E+03  0.50400001928E-02 0.  1.
       -1    1    3    3    0  502 -0.20519874329E+03 -0.17042358863E+03  0.51704210738E+03  0.58179314591E+03  0.50400001928E-02 0. -1.
</event>
<event>
 5   0  0.9396660E-03  0.9743220E+03  0.7818609E-02  0.9337165E-01
        1   -1    0    0  501    0  0.00000000000E+00  0.00000000000E+00  0.69863178849E+03  0.69863178851E+03  0.50400001928E-02 0. -1.
       -1   -1    0    0    0  501  0.00000000000E+00  0.00000000000E+00 -0.33970087009E+03  0.33970087013E+03  0.50400001928E-02 0.  1.
    10030    2    1    2    0    0  0.00000000000E+00  0.00000000000E+00  0.35893091840E+03  0.10383326586E+04  0.97432197235E+03 0.  0.
        5    1    3    3  502    0  0.74837127191E+02  0.93723462879E+02  0.68262720176E+03  0.69309932166E+03  0.46999998093E+01 0. -1.
       -5    1    3    3    0  502 -0.74837127191E+02 -0.93723462879E+02 -0.32369628336E+03  0.34523333698E+03  0.46999998093E+01 0.  1.
</event>
<event>
 5   0  0.9507815E-03  0.1056101E+04  0.7818609E-02  0.9249068E-01
       -1   -1    0    0    0  501  0.00000000000E+00  0.00000000000E+00  0.46732993008E+03  0.46732993011E+03  0.50400001928E-02 0.  1.
        1   -1    0    0  501    0  0.00000000000E+00  0.00000000000E+00 -0.59666043514E+03  0.59666043516E+03  0.50400001928E-02 0. -1.
    10030    2    1    2    0    0  0.00000000000E+00  0.00000000000E+00 -0.12933050505E+03  0.10639903653E+04  0.10561009033E+04 0.  0.
        1    1    3    3  502    0 -0.35117521910E+03  0.10733303607E+03  0.31763339943E+03  0.48552589179E+03  0.50400001928E-02 0.  1.
       -1    1    3    3    0  502  0.35117521910E+03 -0.10733303607E+03 -0.44696390448E+03  0.57846447348E+03  0.50400001928E-02 0. -1.
</event>
<event>
 5   0  0.1000773E-02  0.1003112E+04  0.7818609E-02  0.9305138E-01
        1   -1    0    0  501    0  0.00000000000E+00  0.00000000000E+00  0.50381479559E+03  0.50381479562E+03  0.50400001928E-02 0.  1.
       -1   -1    0    0    0  501  0.00000000000E+00  0.00000000000E+00 -0.49930717930E+03  0.49930717933E+03  0.50400001928E-02 0. -1.
    10030    2    1    2    0    0  0.00000000000E+00  0.00000000000E+00  0.45076162885E+01  0.10031219749E+04  0.10031118472E+04 0.  0.
        3    1    3    3  502    0  0.46224817575E+03 -0.19399238661E+03  0.18125712422E+02  0.50163230926E+03  0.10100000352E+00 0.  1.
       -3    1    3    3    0  502 -0.46224817575E+03  0.19399238661E+03 -0.13618096133E+02  0.50148966568E+03  0.10100000352E+00 0. -1.
</event>
<event>
 5   0  0.9396660E-03  0.8828242E+03  0.7818609E-02  0.9447310E-01
        1   -1    0    0  501    0  0.00000000000E+00  0.00000000000E+00  0.66427023042E+03  0.66427023044E+03  0.50400001928E-02 0. -1.
       -1   -1    0    0    0  501  0.00000000000E+00  0.00000000000E+00 -0.29332137528E+03  0.29332137532E+03  0.50400001928E-02 0.  1.
    10030    2    1    2    0    0  0.00000000000E+00  0.00000000000E+00  0.37094885514E+03  0.95759160576E+03  0.88282423522E+03 0.  0.
        5    1    3    3  502    0 -0.13563732635E+03  0.24440265268E+03 -0.18505902156E+03  0.33525970887E+03  0.46999998093E+01 0.  1.
       -5    1    3    3    0  502  0.13563732635E+03 -0.24440265268E+03  0.55600787670E+03  0.62233189689E+03  0.46999998093E+01 0. -1.
</event>
<event>
 5   0  0.1656859E-02  0.9916289E+03  0.7818609E-02  0.9317774E-01
        2   -1    0    0  501    0  0.00000000000E+00  0.00000000000E+00  0.57610157376E+03  0.57610157377E+03  0.25500000920E-02 0. -1.
       -2   -1    0    0    0  501  0.00000000000E+00  0.00000000000E+00 -0.42671632099E+03  0.42671632100E+03  0.25500000920E-02 0.  1.
    10030    2    1    2    0    0  0.00000000000E+00  0.00000000000E+00  0.14938525277E+03  0.10028178948E+04  0.99162885009E+03 0.  0.
        4    1    3    3  502    0 -0.61239980246E+02  0.34945740406E+03  0.42495241322E+03  0.55358556596E+03  0.12699999809E+01 0. -1.
       -4    1    3    3    0  502  0.61239980246E+02 -0.34945740406E+03 -0.27556716045E+03  0.44923232881E+03  0.12699999809E+01 0.  1.
</event>
<event>
 5   0  0.1598986E-02  0.9963579E+03  0.7818609E-02  0.9312548E-01
        2   -1    0    0  501    0  0.00000000000E+00  0.00000000000E+00  0.32382628560E+03  0.32382628561E+03  0.25500000920E-02 0. -1.
       -2   -1    0    0    0  501  0.00000000000E+00  0.00000000000E+00 -0.76640549558E+03  0.76640549559E+03  0.25500000920E-02 0.  1.
    10030    2    1    2    0    0  0.00000000000E+00  0.00000000000E+00 -0.44257920999E+03  0.10902317812E+04  0.99635785721E+03 0.  0.
        3    1    3    3  502    0 -0.76291721055E+02 -0.32984774896E+03  0.17860485224E+03  0.38277887565E+03  0.10100000352E+00 0. -1.
       -3    1    3    3    0  502  0.76291721055E+02  0.32984774896E+03 -0.62118406223E+03  0.70745290555E+03  0.10100000352E+00 0.  1.
</event>
<event>
 5   0  0.1571895E-02  0.9854085E+03  0.7818609E-02  0.9324695E-01
       -2   -1    0    0    0  501  0.00000000000E+00  0.00000000000E+00  0.31554481990E+03  0.31554481991E+03  0.25500000920E-02 0.  1.
        2   -1    0    0  501    0  0.00000000000E+00  0.00000000000E+00 -0.76932806497E+03  0.76932806497E+03  0.25500000920E-02 0. -1.
    10030    2    1    2    0    0  0.00000000000E+00  0.00000000000E+00 -0.45378324507E+03  0.10848728849E+04  0.98540851573E+03 0.  0.
        2    1    3    3  502    0 -0.32953358633E+03  0.15688910048E+03  0.13750180993E+03  0.39001707925E+03  0.25500000920E-02 0.  1.
       -2    1    3    3    0  502  0.32953358633E+03 -0.15688910048E+03 -0.59128505499E+03  0.69485580564E+03  0.25500000920E-02 0. -1.
</event>
<event>
 5   0  0.1663497E-02  0.1009088E+04  0.7818609E-02  0.9298633E-01
       -2   -1    0    0    0  501  0.00000000000E+00  0.00000000000E+00  0.47329750977E+03  0.47329750977E+03  0.25500000920E-02 0. -1.
        2   -1    0    0  501    0  0.00000000000E+00  0.00000000000E+00 -0.53785364510E+03  0.53785364510E+03  0.25500000920E-02 0.  1.
    10030    2    1    2    0    0  0.00000000000E+00  0.00000000000E+00 -0.64556135330E+02  0.10111511549E+04  0.10090882833E+04 0.  0.
        1    1    3    3  502    0  0.42442513003E+03 -0.72476660745E+02 -0.29582759126E+03  0.52240168561E+03  0.50400001928E-02 0.  1.
       -1    1    3    3    0  502 -0.42442513003E+03  0.72476660745E+02  0.23127145593E+03  0.48874946927E+03  0.50400001928E-02 0. -1.
</event>
<event>
 5   0  0.1617721E-02  0.1019589E+04  0.7818609E-02  0.9287317E-01
        2   -1    0    0  501    0  0.00000000000E+00  0.00000000000E+00  0.70997371959E+03  0.70997371959E+03  0.25500000920E-02 0.  1.
       -2   -1    0    0    0  501  0.00000000000E+00  0.00000000000E+00 -0.36605660266E+03  0.36605660267E+03  0.25500000920E-02 0. -1.
    10030    2    1    2    0    0  0.00000000000E+00  0.00000000000E+00  0.34391711693E+03  0.10760303223E+04  0.10195892659E+04 0.  0.
        5    1    3    3  502    0 -0.20037160783E+02 -0.17996961613E+03  0.67486444126E+03  0.69875221261E+03  0.46999998093E+01 0.  1.
       -5    1    3    3    0  502  0.20037160783E+02  0.17996961613E+03 -0.33094732434E+03  0.37727810966E+03  0.46999998093E+01 0. -1.
</event>
<event>
 5   0  0.1598986E-02  0.1004321E+04  0.7818609E-02  0.9303818E-01
        2   -1    0    0  501    0  0.00000000000E+00  0.00000000000E+00  0.98006172915E+03  0.98006172916E+03  0.25500000920E-02 0. -1.
       -2   -1    0    0    0  501  0.00000000000E+00  0.00000000000E+00 -0.25729529755E+03  0.25729529756E+03  0.25500000920E-02 0.  1.
    10030    2    1    2    0    0  0.00000000000E+00  0.00000000000E+00  0.72276643161E+03  0.12373570267E+04  0.10043212120E+04 0.  0.
        3    1    3    3  502    0 -0.37297902284E+03 -0.32810007627E+03  0.45193767328E+03  0.67157328882E+03  0.10100000352E+00 0. -1.
       -3    1    3    3    0  502  0.37297902284E+03  0.32810007627E+03  0.27082875833E+03  0.56578373789E+03  0.10100000352E+00 0.  1.
</event>
<event>
 5   0  0.9507815E-03  0.7361348E+03  0.7818609E-02  0.9657357E-01
       -1   -1    0    0    0  501  0.00000000000E+00  0.00000000000E+00  0.19613733740E+03  0.19613733746E+03  0.50400001928E-02 0.  1.
        1   -1    0    0  501    0  0.00000000000E+00  0.00000000000E+00 -0.69070789645E+03  0.69070789647E+03  0.50400001928E-02 0. -1.
    10030    2    1    2    0    0  0.00000000000E+00  0.00000000000E+00 -0.49457055905E+03  0.88684523394E+03  0.73613479137E+03 0.  0.
        1    1    3    3  502    0 -0.74793149186E+02 -0.25486331931E+03 -0.55425395973E+03  0.61461107914E+03  0.50400001928E-02 0. -1.
       -1    1    3    3    0  502  0.74793149186E+02  0.25486331931E+03  0.59683400680E+02  0.27223415480E+03  0.50400001928E-02 0.  1.
</event>
<event>
 5   0  0.1000773E-02  0.1013637E+04  0.7818609E-02  0.9293713E-01
       -1   -1    0    0    0  501  0.00000000000E+00  0.00000000000E+00  0.58768006493E+03  0.58768006495E+03  0.50400001928E-02 0.  1.
        1   -1    0    0  501    0  0.00000000000E+00  0.00000000000E+00 -0.43708340749E+03  0.43708340752E+03  0.50400001928E-02 0. -1.
    10030    2    1    2    0    0  0.00000000000E+00  0.00000000000E+00  0.15059665744E+03  0.10247634725E+04  0.10136374210E+04 0.  0.
        3    1    3    3  502    0  0.38952485875E+03 -0.32060755572E+03  0.26327247798E+02  0.50518506960E+03  0.10100000352E+00 0. -1.
       -3    1    3    3    0  502 -0.38952485875E+03  0.32060755572E+03  0.12426940964E+03  0.51957840288E+03  0.10100000352E+00 0.  1.
</event>
<event>
 5   0  0.9396660E-03  0.9892948E+03  0.7818609E-02  0.9320365E-01
        1   -1    0    0  501    0  0.00000000000E+00  0.00000000000E+00  0.72704429314E+03  0.72704429316E+03  0.50400001928E-02 0. -1.
       -1   -1    0    0    0  501  0.00000000000E+00  0.00000000000E+00 -0.33653525839E+03  0.33653525843E+03  0.50400001928E-02 0.  1.
    10030    2    1    2    0    0  0.00000000000E+00  0.00000000000E+00  0.39050903475E+03  0.10635795516E+04  0.98929477727E+03 0.  0.
        5    1    3    3  502    0 -0.20771758654E+03  0.44659752947E+03  0.24402611113E+03  0.54969699108E+03  0.46999998093E+01 0.  1.
       -5    1    3    3    0  502  0.20771758654E+03 -0.44659752947E+03  0.14648292362E+03  0.51388256051E+03  0.46999998093E+01 0. -1.
</event>
<event>
 5   0  0.1000773E-02  0.1021118E+04  0.7818609E-02  0.9285682E-01
        1   -1    0    0  501    0  0.00000000000E+00  0.00000000000E+00  0.29431283278E+03  0.29431283283E+03  0.50400001928E-02 0. -1.
       -1   -1    0    0    0  501  0.00000000000E+00  0.00000000000E+00 -0.88569130163E+03  0.88569130164E+03  0.50400001928E-02 0.  1.
    10030    2    1    2    0    0  0.00000000000E+00  0.00000000000E+00 -0.59137846884E+03  0.11800041345E+04  0.10211176543E+04 0.  0.
        3    1    3    3  502    0  0.43016283761E+03  0.25418993762E+03 -0.17439127297E+03  0.52921159996E+03  0.10100000352E+00 0. -1.
       -3    1    3    3    0  502 -0.43016283761E+03 -0.25418993762E+03 -0.41698719587E+03  0.65079253451E+03  0.10100000352E+00 0.  1.
</event>
<event>
 5   0  0.1571895E-02  0.9741538E+03  0.7818609E-02  0.9337356E-01
       -2   -1    0    0    0  501  0.00000000000E+00  0.00000000000E+00  0.45917000104E+03  0.45917000105E+03  0.25500000920E-02 0.  1.
        2   -1    0    0  501    0  0.00000000000E+00  0.00000000000E+00 -0.51667989831E+03  0.51667989831E+03  0.25500000920E-02 0. -1.
    10030    2    1    2    0    0  0.00000000000E+00  0.00000000000E+00 -0.57509897263E+02  0.97584989937E+03  0.97415380603E+03 0.  0.
        2    1    3    3  502    0  0.15947486211E+03  0.35597562292E+03 -0.32096994068E+03  0.50514609628E+03  0.25500000920E-02 0. -1.
       -2    1    3    3    0  502 -0.15947486211E+03 -0.35597562292E+03  0.26346004341E+03  0.47070380309E+03  0.25500000920E-02 0.  1.
</event>
<event>
 5   0  0.1598986E-02  0.1019724E+04  0.7818609E-02  0.9287172E-01
       -2   -1    0    0    0  501  0.00000000000E+00  0.00000000000E+00  0.66975409120E+03  0.66975409120E+03  0.25500000920E-02 0.  1.
        2   -1    0    0  501    0  0.00000000000E+00  0.00000000000E+00 -0.38814166635E+03  0.38814166635E+03  0.25500000920E-02 0. -1.
    10030    2    1    2    0    0  0.00000000000E+00  0.00000000000E+00  0.28161242485E+03  0.10578957576E+04  0.10197244118E+04 0.  0.
        3    1    3    3  502    0 -0.43752832438E+03 -0.26174254261E+03  0.13625265469E+03  0.52773571924E+03  0.10100000352E+00 0. -1.
       -3    1    3    3    0  502  0.43752832438E+03  0.26174254261E+03  0.14535977017E+03  0.53016003832E+03  0.10100000352E+00 0.  1.
</event>
<event>
 5   0  0.1000773E-02  0.1052644E+04  0.7818609E-02  0.9252619E-01
        1   -1    0    0  501    0  0.00000000000E+00  0.00000000000E+00  0.40075897485E+03  0.40075897488E+03  0.50400001928E-02 0.  1.
       -1   -1    0    0    0  501  0.00000000000E+00  0.00000000000E+00 -0.69122514735E+03  0.69122514737E+03  0.50400001928E-02 0. -1.
    10030    2    1    2    0    0  0.00000000000E+00  0.00000000000E+00 -0.29046617250E+03  0.10919841222E+04  0.10526436842E+04 0.  0.
        3    1    3    3  502    0  0.50684687058E+03 -0.14147776888E+03 -0.13460510183E+03  0.54316503288E+03  0.10100000352E+00 0. -1.
       -3    1    3    3    0  502 -0.50684687058E+03  0.14147776888E+03 -0.15586107067E+03  0.54881908937E+03  0.10100000352E+00 0.  1.
</event>
<event>
 5   0  0.9759443E-03  0.1002192E+04  0.7818609E-02  0.9306144E-01
       -1   -1    0    0    0  501  0.00000000000E+00  0.00000000000E+00  0.55678011408E+03  0.55678011411E+03  0.50400001928E-02 0.  1.
        1   -1    0    0  501    0  0.00000000000E+00  0.00000000000E+00 -0.45098121702E+03  0.45098121705E+03  0.50400001928E-02 0. -1.
    10030    2    1    2    0    0  0.00000000000E+00  0.00000000000E+00  0.10579889706E+03  0.10077613312E+04  0.10021923438E+04 0.  0.
        2    1    3    3  502    0  0.19620447015E+02  0.42153515584E+03 -0.21882522883E+03  0.47535390008E+03  0.25500000920E-02 0. -1.
       -2    1    3    3    0  502 -0.19620447015E+02 -0.42153515584E+03  0.32462412589E+03  0.53240743107E+03  0.25500000920E-02 0.  1.
</event>
<event>
 5   0  0.1571895E-02  0.1019856E+04  0.7818609E-02  0.9287032E-01
       -2   -1    0    0    0  501  0.00000000000E+00  0.00000000000E+00  0.42214178807E+03  0.42214178808E+03  0.25500000920E-02 0. -1.
        2   -1    0    0  501    0  0.00000000000E+00  0.00000000000E+00 -0.61596935878E+03  0.61596935878E+03  0.25500000920E-02 0.  1.
    10030    2    1    2    0    0  0.00000000000E+00  0.00000000000E+00 -0.19382757070E+03  0.10381111469E+04  0.10198556888E+04 0.  0.
        2    1    3    3  502    0  0.87487922106E+02 -0.49885056004E+03 -0.15730870999E+03  0.53033201677E+03  0.25500000920E-02 0.  1.
       -2    1    3    3    0  502 -0.87487922106E+02  0.49885056004E+03 -0.36518860715E+02  0.50777913009E+03  0.25500000920E-02 0. -1.
</event>
<event>
 5   0  0.9471140E-03  0.9946406E+03  0.7818609E-02  0.9314443E-01
        1   -1    0    0  501    0  0.00000000000E+00  0.00000000000E+00  0.36102121145E+03  0.36102121149E+03  0.50400001928E-02 0. -1.
       -1   -1    0    0    0  501  0.00000000000E+00  0.00000000000E+00 -0.68507740138E+03  0.68507740140E+03  0.50400001928E-02 0.  1.
    10030    2    1    2    0    0  0.00000000000E+00  0.00000000000E+00 -0.32405618993E+03  0.10460986129E+04  0.99464058517E+03 0.  0.
        4    1    3    3  502    0  0.21588918157E+03 -0.30686897865E+03 -0.50533413816E+03  0.62939726157E+03  0.12699999809E+01 0.  1.
       -4    1    3    3    0  502 -0.21588918157E+03  0.30686897865E+03  0.18127794823E+03  0.41670135132E+03  0.12699999809E+01 0. -1.
</event>
<event>
 5   0  0.6314750E-03  0.1003798E+04  0.7818609E-02  0.9304388E-01
        3   -1    0    0  501    0  0.00000000000E+00  0.00000000000E+00  0.78195676891E+03  0.78195677544E+03  0.10100000352E+00 0.  1.
       -3   -1    0    0    0  501  0.00000000000E+00  0.00000000000E+00 -0.32214420426E+03  0.32214422009E+03  0.10100000352E+00 0. -1.
    10030    2    1    2    0    0  0.00000000000E+00  0.00000000000E+00  0.45981256466E+03  0.11041009955E+04  0.10037984926E+04 0.  0.
        1    1    3    3  502    0 -0.19772787813E+03 -0.25804177974E+03 -0.19069162423E+03  0.37688880251E+03  0.50400001928E-02 0. -1.
       -1    1    3    3    0  502  0.19772787813E+03  0.25804177974E+03  0.65050418889E+03  0.72721219301E+03  0.50400001928E-02 0.  1.
</event>
<event>
 5   0  0.1663497E-02  0.1043309E+04  0.7818609E-02  0.9262279E-01
       -2   -1    0    0    0  501  0.00000000000E+00  0.00000000000E+00  0.21038447667E+03  0.21038447668E+03  0.25500000920E-02 0.  1.
        2   -1    0    0  501    0  0.00000000000E+00  0.00000000000E+00 -0.12934580628E+04  0.12934580628E+04  0.25500000920E-02 0. -1.
    10030    2    1    2    0    0  0.00000000000E+00  0.00000000000E+00 -0.10830735861E+04  0.15038425395E+04  0.10433091539E+04 0.  0.
        1    1    3    3  502    0 -0.31200155824E+03  0.13216234668E+03  0.30165292196E+02  0.34017907505E+03  0.50400001928E-02 0.  1.
       -1    1    3    3    0  502  0.31200155824E+03 -0.13216234668E+03 -0.11132388783E+04  0.11636634645E+04  0.50400001928E-02 0. -1.
</event>
<event>
 5   0  0.9471140E-03  0.1038911E+04  0.7818609E-02  0.9266868E-01
       -1   -1    0    0    0  501  0.00000000000E+00  0.00000000000E+00  0.66349134011E+03  0.66349134013E+03  0.50400001928E-02 0.  1.
        1   -1    0    0  501    0  0.00000000000E+00  0.00000000000E+00 -0.40668841434E+03  0.40668841437E+03  0.50400001928E-02 0. -1.
    10030    2    1    2    0    0  0.00000000000E+00  0.00000000000E+00  0.25680292577E+03  0.10701797545E+04  0.10389114323E+04 0.  0.
        4    1    3    3  502    0  0.26864894526E+03 -0.25184961737E+03  0.50580543495E+03  0.62565264842E+03  0.12699999809E+01 0.  1.
       -4    1    3    3    0  502 -0.26864894526E+03  0.25184961737E+03 -0.24900250918E+03  0.44452710607E+03  0.12699999809E+01 0. -1.
</event>
<event>
 5   0  0.9507815E-03  0.9952867E+03  0.7818609E-02  0.9313729E-01
       -1   -1    0    0    0  501  0.00000000000E+00  0.00000000000E+00  0.58444521952E+03  0.58444521954E+03  0.50400001928E-02 0. -1.
        1   -1    0    0  501    0  0.00000000000E+00  0.00000000000E+00 -0.42373327794E+03  0.42373327797E+03  0.50400001928E-02 0.  1.
    10030    2    1    2    0    0  0.00000000000E+00  0.00000000000E+00  0.16071194158E+03  0.10081784975E+04  0.99528666959E+03 0.  0.
        1    1    3    3  502    0  0.18108442992E+03 -0.16173702205E+02 -0.38888916617E+03  0.42928771587E+03  0.50400001928E-02 0.  1.
       -1    1    3    3    0  502 -0.18108442992E+03  0.16173702205E+02  0.54960110775E+03  0.57889078164E+03  0.50400001928E-02 0. -1.
</event>
<event>
 5   0  0.9759443E-03  0.1004263E+04  0.7818609E-02  0.9303881E-01
       -1   -1    0    0    0  501  0.00000000000E+00  0.00000000000E+00  0.44557313694E+03  0.44557313697E+03  0.50400001928E-02 0.  1.
        1   -1    0    0  501    0  0.00000000000E+00  0.00000000000E+00 -0.56586930280E+03  0.56586930283E+03  0.50400001928E-02 0. -1.
    10030    2    1    2    0    0  0.00000000000E+00  0.00000000000E+00 -0.12029616587E+03  0.10114424398E+04  0.10042632332E+04 0.  0.
        2    1    3    3  502    0  0.30088639460E+03  0.14751568120E+03 -0.43677681673E+03  0.55051565490E+03  0.25500000920E-02 0. -1.
       -2    1    3    3    0  502 -0.30088639460E+03 -0.14751568120E+03  0.31648065086E+03  0.46092678489E+03  0.25500000920E-02 0.  1.
</event>
<event>
 5   0  0.1663497E-02  0.9293482E+03  0.7818609E-02  0.9389620E-01
       -2   -1    0    0    0  501  0.00000000000E+00  0.00000000000E+00  0.11001917565E+03  0.11001917568E+03  0.25500000920E-02 0. -1.
        2   -1    0    0  501    0  0.00000000000E+00  0.00000000000E+00 -0.19625854436E+04  0.19625854436E+04  0.25500000920E-02 0.  1.
    10030    2    1    2    0    0  0.00000000000E+00  0.00000000000E+00 -0.18525662679E+04  0.20726046193E+04  0.92934822899E+03 0.  0.
        1    1    3    3  502    0  0.21245164491E+03 -0.69792585222E+02 -0.17874530364E+02  0.22433502900E+03  0.50400001928E-02 0. -1.
       -1    1    3    3    0  502 -0.21245164491E+03  0.69792585222E+02 -0.18346917376E+04  0.18482695903E+04  0.50400001928E-02 0.  1.
</event>
<event>
 5   0  0.1617721E-02  0.1007559E+04  0.7818609E-02  0.9300293E-01
        2   -1    0    0  501    0  0.00000000000E+00  0.00000000000E+00  0.13407626444E+04  0.13407626444E+04  0.25500000920E-02 0.  1.
       -2   -1    0    0    0  501  0.00000000000E+00  0.00000000000E+00 -0.18929067378E+03  0.18929067379E+03  0.25500000920E-02 0. -1.
    10030    2    1    2    0    0  0.00000000000E+00  0.00000000000E+00  0.11514719706E+04  0.15300533182E+04  0.10075591582E+04 0.  0.
        5    1    3    3  502    0  0.44841251404E+03 -0.10884130943E+03  0.88266669105E+03  0.99601344915E+03  0.46999998093E+01 0.  1.
       -5    1    3    3    0  502 -0.44841251404E+03  0.10884130943E+03  0.26880527953E+03  0.53403986901E+03  0.46999998093E+01 0. -1.
</event>
<event>
 5   0  0.9396660E-03  0.7969409E+03  0.7818609E-02  0.9564456E-01
        1   -1    0    0  501    0  0.00000000000E+00  0.00000000000E+00  0.10126675090E+04  0.10126675090E+04  0.50400001928E-02 0. -1.
       -1   -1    0    0    0  501  0.00000000000E+00  0.00000000000E+00 -0.15679251485E+03  0.15679251493E+03  0.50400001928E-02 0.  1.
    10030    2    1    2    0    0  0.00000000000E+00  0.00000000000E+00  0.85587499411E+03  0.11694600239E+04  0.79694086479E+03 0.  0.
        5    1    3    3  502    0 -0.31864590018E+03 -0.31663102149E+02  0.77587416495E+03  0.83936915096E+03  0.46999998093E+01 0.  1.
       -5    1    3    3    0  502  0.31864590018E+03  0.31663102149E+02  0.80000829164E+02  0.33009087295E+03  0.46999998093E+01 0. -1.
</event>
<event>
 5   0  0.1656859E-02  0.1023851E+04  0.7818609E-02  0.9282765E-01
       -2   -1    0    0    0  501  0.00000000000E+00  0.00000000000E+00  0.13613033754E+03  0.13613033756E+03  0.25500000920E-02 0.  1.
        2   -1    0    0  501    0  0.00000000000E+00  0.00000000000E+00 -0.19251244259E+04  0.19251244259E+04  0.25500000920E-02 0. -1.
    10030    2    1    2    0    0  0.00000000000E+00  0.00000000000E+00 -0.17889940883E+04  0.20612547634E+04  0.10238512351E+04 0.  0.
        4    1    3    3  502    0  0.42183546580E+03 -0.69872255274E+01 -0.14782393001E+04  0.15372660872E+04  0.12699999809E+01 0. -1.
       -4    1    3    3    0  502 -0.42183546580E+03  0.69872255274E+01 -0.31075478821E+03  0.52398867624E+03  0.12699999809E+01 0.  1.
</event>
<event>
 5   0  0.9471140E-03  0.9855335E+03  0.7818609E-02  0.9324555E-01
       -1   -1    0    0    0  501  0.00000000000E+00  0.00000000000E+00  0.16104621127E+03  0.16104621135E+03  0.50400001928E-02 0.  1.
        1   -1    0    0  501    0  0.00000000000E+00  0.00000000000E+00 -0.15077602107E+04  0.15077602107E+04  0.50400001928E-02 0. -1.
    10030    2    1    2    0    0  0.00000000000E+00  0.00000000000E+00 -0.13467139994E+04  0.16688064221E+04  0.98553349920E+03 0.  0.
        4    1    3    3  502    0 -0.10195755822E+03  0.52004895723E+02 -0.14849376988E+04  0.14893426184E+04  0.12699999809E+01 0. -1.
       -4    1    3    3    0  502  0.10195755822E+03 -0.52004895723E+02  0.13822369935E+03  0.17946380365E+03  0.12699999809E+01 0.  1.
</event>
<event>
 5   0  0.9396660E-03  0.9909071E+03  0.7818609E-02  0.9318574E-01
       -1   -1    0    0    0  501  0.00000000000E+00  0.00000000000E+00  0.61134049940E+03  0.61134049942E+03  0.50400001928E-02 0.  1.
        1   -1    0    0  501    0  0.00000000000E+00  0.00000000000E+00 -0.40153437396E+03  0.40153437400E+03  0.50400001928E-02 0. -1.
    10030    2    1    2    0    0  0.00000000000E+00  0.00000000000E+00  0.20980612544E+03  0.10128748734E+04  0.99090710913E+03 0.  0.
        5    1    3    3  502    0  0.32928567719E+03 -0.61868398575E+02 -0.26814727034E+03  0.42916407647E+03  0.46999998093E+01 0. -1.
       -5    1    3    3    0  502 -0.32928567719E+03  0.61868398575E+02  0.47795339578E+03  0.58371079695E+03  0.46999998093E+01 0.  1.
</event>
<event>
 5   0  0.9759443E-03  0.9910509E+03  0.7818609E-02  0.9318415E-01
        1   -1    0    0  501    0  0.00000000000E+00  0.00000000000E+00  0.78089299541E+03  0.78089299542E+03  0.50400001928E-02 0.  1.
       -1   -1    0    0    0  501  0.00000000000E+00  0.00000000000E+00 -0.31444191513E+03  0.31444191517E+03  0.50400001928E-02 0. -1.
    10030    2    1    2    0    0  0.00000000000E+00  0.00000000000E+00  0.46645108028E+03  0.10953349106E+04  0.99105093516E+03 0.  0.
        2    1    3    3  502    0 -0.38820038275E+03 -0.30688673539E+03  0.20469265739E+03  0.53551665662E+03  0.25500000920E-02 0.  1.
       -2    1    3    3    0  502  0.38820038275E+03  0.30688673539E+03  0.26175842288E+03  0.55981825397E+03  0.25500000920E-02 0. -1.
</event>
<event>
 5   0  0.9759443E-03  0.1013350E+04  0.7818609E-02  0.9294023E-01
       -1   -1    0    0    0  501  0.00000000000E+00  0.00000000000E+00  0.40696828520E+03  0.40696828524E+03  0.50400001928E-02 0. -1.
        1   -1    0    0  501    0  0.00000000000E+00  0.00000000000E+00 -0.63080940460E+03  0.63080940462E+03  0.50400001928E-02 0.  1.
    10030    2    1    2    0    0  0.00000000000E+00  0.00000000000E+00 -0.22384111939E+03  0.10377776899E+04  0.10133497357E+04 0.  0.
        2    1    3    3  502    0  0.22983084009E+03  0.27399616124E+03  0.25565125193E+03  0.43960627162E+03  0.25500000920E-02 0. -1.
       -2    1    3    3    0  502 -0.22983084009E+03 -0.27399616124E+03 -0.47949237132E+03  0.59817141823E+03  0.25500000920E-02 0.  1.
</event>
<event>
 5   0  0.9396660E-03  0.1073464E+04  0.7818609E-02  0.9231449E-01
        1   -1    0    0  501    0  0.00000000000E+00  0.00000000000E+00  0.21836931761E+04  0.21836931761E+04  0.50400001928E-02 0. -1.
       -1   -1    0    0    0  501  0.00000000000E+00  0.00000000000E+00 -0.13192389085E+03  0.13192389095E+03  0.50400001928E-02 0.  1.
    10030    2    1    2    0    0  0.00000000000E+00  0.00000000000E+00  0.20517692852E+04  0.23156170670E+04  0.10734641127E+04 0.  0.
        5    1    3    3  502    0  0.34625021598E+03  0.40261616387E+03  0.11939512873E+04  0.13067252022E+04  0.46999998093E+01 0. -1.
       -5    1    3    3    0  502 -0.34625021598E+03 -0.40261616387E+03  0.85781799791E+03  0.10088918649E+04  0.46999998093E+01 0.  1.
</event>
<event>
 5   0  0.9396660E-03  0.9750702E+03  0.7818609E-02  0.9336318E-01
        1   -1    0    0  501    0  0.00000000000E+00  0.00000000000E+00  0.69110244120E+03  0.69110244122E+03  0.50400001928E-02 0. -1.
       -1   -1    0    0    0  501  0.00000000000E+00  0.00000000000E+00 -0.34392945641E+03  0.34392945645E+03  0.50400001928E-02 0.  1.
    10030    2    1    2    0    0  0.00000000000E+00  0.00000000000E+00  0.34717298479E+03  0.10350318977E+04  0.97507022712E+03 0.  0.
        5    1    3    3  502    0  0.12129235869E+03  0.50195114768E+02 -0.32479292170E+03  0.35034828073E+03  0.46999998093E+01 0.  1.
       -5    1    3    3    0  502 -0.12129235869E+03 -0.50195114768E+02  0.67196590649E+03  0.68468361694E+03  0.46999998093E+01 0. -1.
</event>
<event>
 5   0  0.9759443E-03  0.9981272E+03  0.7818609E-02  0.9310601E-01
        1   -1    0    0  501    0  0.00000000000E+00  0.00000000000E+00  0.70760606065E+03  0.70760606067E+03  0.50400001928E-02 0. -1.
       -1   -1    0    0    0  501  0.00000000000E+00  0.00000000000E+00 -0.35198182530E+03  0.35198182534E+03  0.50400001928E-02 0.  1.
    10030    2    1    2    0    0  0.00000000000E+00  0.00000000000E+00  0.35562423535E+03  0.10595878860E+04  0.99812719199E+03 0.  0.
        2    1    3    3  502    0 -0.71659138300E+02 -0.47058275565E+03  0.18641862577E+02  0.47637241846E+03  0.25500000920E-02 0.  1.
       -2    1    3    3    0  502  0.71659138300E+02  0.47058275565E+03  0.33698237277E+03  0.58321546755E+03  0.25500000920E-02 0. -1.
</event>
<event>
 5   0  0.9759443E-03  0.7744864E+03  0.7818609E-02  0.9597699E-01
        1   -1    0    0  501    0  0.00000000000E+00  0.00000000000E+00  0.35855120990E+03  0.35855120994E+03  0.50400001928E-02 0. -1.
       -1   -1    0    0    0  501  0.00000000000E+00  0.00000000000E+00 -0.41823119856E+03  0.41823119859E+03  0.50400001928E-02 0.  1.
    10030    2    1    2    0    0  0.00000000000E+00  0.00000000000E+00 -0.59679988657E+02  0.77678240852E+03  0.77448641637E+03 0.  0.
        2    1    3    3  502    0  0.14869500071E+03  0.35503585382E+03  0.12672471500E+02  0.38512498266E+03  0.25500000920E-02 0. -1.
       -2    1    3    3    0  502 -0.14869500071E+03 -0.35503585382E+03 -0.72352460157E+02  0.39165742586E+03  0.25500000920E-02 0.  1.
</event>
<event>
 5   0  0.6314750E-03  0.8777525E+03  0.7818609E-02  0.9453827E-01
        4   -1    0    0  501    0  0.00000000000E+00  0.00000000000E+00  0.33032659927E+03  0.33032904063E+03  0.12699999809E+01 0.  1.
       -4   -1    0    0    0  501  0.00000000000E+00  0.00000000000E+00 -0.58309142474E+03  0.58309280780E+03  0.12699999809E+01 0. -1.
    10030    2    1    2    0    0  0.00000000000E+00  0.00000000000E+00 -0.25276482547E+03  0.91342184843E+03  0.87775248002E+03 0.  0.
        4    1    3    3  502    0 -0.26535992645E+03  0.30509272419E+03  0.51177490856E+02  0.40757601670E+03  0.12699999809E+01 0. -1.
       -4    1    3    3    0  502  0.26535992645E+03 -0.30509272419E+03 -0.30394231633E+03  0.50584583172E+03  0.12699999809E+01 0.  1.
</event>
<event>
 5   0  0.1663497E-02  0.1068244E+04  0.7818609E-02  0.9236709E-01
        2   -1    0    0  501    0  0.00000000000E+00  0.00000000000E+00  0.21377624359E+04  0.21377624359E+04  0.25500000920E-02 0. -1.
       -2   -1    0    0    0  501  0.00000000000E+00  0.00000000000E+00 -0.13345084980E+03  0.13345084983E+03  0.25500000920E-02 0.  1.
    10030    2    1    2    0    0  0.00000000000E+00  0.00000000000E+00  0.20043115861E+04  0.22712132857E+04  0.10682438182E+04 0.  0.
        1    1    3    3  502    0  0.28340010648E+03  0.51451136002E+02  0.45819668447E+02  0.29165438757E+03  0.50400001928E-02 0.  1.
       -1    1    3    3    0  502 -0.28340010648E+03 -0.51451136002E+02  0.19584919176E+04  0.19795588981E+04  0.50400001928E-02 0. -1.
</event>
<event>
 5   0  0.9396660E-03  0.1010084E+04  0.7818609E-02  0.9297553E-01
        1   -1    0    0  501    0  0.00000000000E+00  0.00000000000E+00  0.11457113074E+04  0.11457113074E+04  0.50400001928E-02 0.  1.
       -1   -1    0    0    0  501  0.00000000000E+00  0.00000000000E+00 -0.22262800238E+03  0.22262800244E+03  0.50400001928E-02 0. -1.
    10030    2    1    2    0    0  0.00000000000E+00  0.00000000000E+00  0.92308330501E+03  0.13683393099E+04  0.10100839960E+04 0.  0.
        5    1    3    3  502    0  0.47590256377E+03  0.13991682195E+03  0.58995321008E+03  0.77079624243E+03  0.46999998093E+01 0.  1.
       -5    1    3    3    0  502 -0.47590256377E+03 -0.13991682195E+03  0.33313009494E+03  0.59754306742E+03  0.46999998093E+01 0. -1.
</event>
<event>
 5   0  0.9759443E-03  0.9710089E+03  0.7818609E-02  0.9340926E-01
       -1   -1    0    0    0  501  0.00000000000E+00  0.00000000000E+00  0.33245334749E+03  0.33245334753E+03  0.50400001928E-02 0.  1.
        1   -1    0    0  501    0  0.00000000000E+00  0.00000000000E+00 -0.70901555585E+03  0.70901555587E+03  0.50400001928E-02 0. -1.
    10030    2    1    2    0    0  0.00000000000E+00  0.00000000000E+00 -0.37656220836E+03  0.10414689034E+04  0.97100894948E+03 0.  0.
        2    1    3    3  502    0  0.15949594264E+03 -0.42888592490E+03 -0.36232914664E+03  0.58366471780E+03  0.25500000920E-02 0. -1.
       -2    1    3    3    0  502 -0.15949594264E+03  0.42888592490E+03 -0.14233061716E+02  0.45780418559E+03  0.25500000920E-02 0.  1.
</event>
<event>
 5   0  0.9507815E-03  0.9839294E+03  0.7818609E-02  0.9326348E-01
       -1   -1    0    0    0  501  0.00000000000E+00  0.00000000000E+00  0.61542267742E+03  0.61542267744E+03  0.50400001928E-02 0.  1.
        1   -1    0    0  501    0  0.00000000000E+00  0.00000000000E+00 -0.39327323113E+03  0.39327323116E+03  0.50400001928E-02 0. -1.
    10030    2    1    2    0    0  0.00000000000E+00  0.00000000000E+00  0.22214944628E+03  0.10086959086E+04  0.98392939764E+03 0.  0.
        1    1    3    3  502    0 -0.73830280869E+02  0.14781516888E+03  0.58612732846E+03  0.60897083651E+03  0.50400001928E-02 0.  1.
       -1    1    3    3    0  502  0.73830280869E+02 -0.14781516888E+03 -0.36397788218E+03  0.39972507210E+03  0.50400001928E-02 0. -1.
</event>
<event>
 5   0  0.1617721E-02  0.1035144E+04  0.7818609E-02  0.9270817E-01
        2   -1    0    0  501    0  0.00000000000E+00  0.00000000000E+00  0.39777121013E+03  0.39777121014E+03  0.25500000920E-02 0.  1.
       -2   -1    0    0    0  501  0.00000000000E+00  0.00000000000E+00 -0.67345474480E+03  0.67345474480E+03  0.25500000920E-02 0. -1.
    10030    2    1    2    0    0  0.00000000000E+00  0.00000000000E+00 -0.27568353466E+03  0.10712259549E+04  0.10351442582E+04 0.  0.
        5    1    3    3  502    0 -0.41005566658E+03  0.11916126060E+03  0.16477864480E+03  0.45773261573E+03  0.46999998093E+01 0.  1.
       -5    1    3    3    0  502  0.41005566658E+03 -0.11916126060E+03 -0.44046217946E+03  0.61349333921E+03  0.46999998093E+01 0. -1.
</event>
<event>
 5   0  0.1617721E-02  0.1011895E+04  0.7818609E-02  0.9295593E-01
       -2   -1    0    0    0  501  0.00000000000E+00  0.00000000000E+00  0.24293063916E+03  0.24293063917E+03  0.25500000920E-02 0. -1.
        2   -1    0    0  501    0  0.00000000000E+00  0.00000000000E+00 -0.10537292700E+04  0.10537292700E+04  0.25500000920E-02 0.  1.
    10030    2    1    2    0    0  0.00000000000E+00  0.00000000000E+00 -0.81079863083E+03  0.12966599092E+04  0.10118954987E+04 0.  0.
        5    1    3    3  502    0 -0.77994958981E+01  0.11954719548E+03  0.22446452598E+03  0.25447745972E+03  0.46999998093E+01 0. -1.
       -5    1    3    3    0  502  0.77994958981E+01 -0.11954719548E+03 -0.10352631568E+04  0.10421824494E+04  0.46999998093E+01 0.  1.
</event>
<event>
 5   0  0.1656859E-02  0.9598970E+03  0.7818609E-02  0.9353657E-01
       -2   -1    0    0    0  501  0.00000000000E+00  0.00000000000E+00  0.14529931545E+03  0.14529931547E+03  0.25500000920E-02 0. -1.
        2   -1    0    0  501    0  0.00000000000E+00  0.00000000000E+00 -0.15853518526E+04  0.15853518526E+04  0.25500000920E-02 0.  1.
    10030    2    1    2    0    0  0.00000000000E+00  0.00000000000E+00 -0.14400525371E+04  0.17306511680E+04  0.95989695061E+03 0.  0.
        4    1    3    3  502    0  0.22446589382E+03  0.24925775248E+03 -0.10112514287E+03  0.35034593201E+03  0.12699999809E+01 0. -1.
       -4    1    3    3    0  502 -0.22446589382E+03 -0.24925775248E+03 -0.13389273943E+04  0.13803052360E+04  0.12699999809E+01 0.  1.
</event>
<event>
 5   0  0.9396660E-03  0.1004210E+04  0.7818609E-02  0.9303940E-01
        1   -1    0    0  501    0  0.00000000000E+00  0.00000000000E+00  0.11279781173E+04  0.11279781173E+04  0.50400001928E-02 0.  1.
       -1   -1    0    0    0  501  0.00000000000E+00  0.00000000000E+00 -0.22350540212E+03  0.22350540218E+03  0.50400001928E-02 0. -1.
    10030    2    1    2    0    0  0.00000000000E+00  0.00000000000E+00  0.90447271513E+03  0.13514835194E+04  0.10042095453E+04 0.  0.
        5    1    3    3  502    0  0.27598682548E+03  0.29144663575E+03  0.46304818126E+02  0.40407436878E+03  0.46999998093E+01 0. -1.
       -5    1    3    3    0  502 -0.27598682548E+03 -0.29144663575E+03  0.85816789701E+03  0.94740915067E+03  0.46999998093E+01 0.  1.
</event>
<event>
 5   0  0.1571895E-02  0.1003514E+04  0.7818609E-02  0.9304699E-01
       -2   -1    0    0    0  501  0.00000000000E+00  0.00000000000E+00  0.46665876264E+03  0.46665876265E+03  0.25500000920E-02 0.  1.
        2   -1    0    0  501    0  0.00000000000E+00  0.00000000000E+00 -0.53949502154E+03  0.53949502155E+03  0.25500000920E-02 0. -1.
    10030    2    1    2    0    0  0.00000000000E+00  0.00000000000E+00 -0.72836258899E+02  0.10061537842E+04  0.10035139844E+04 0.  0.
        2    1    3    3  502    0 -0.46060792259E+02  0.97862735743E+02 -0.52766757580E+03  0.53863882351E+03  0.25500000920E-02 0. -1.
       -2    1    3    3    0  502  0.46060792259E+02 -0.97862735743E+02  0.45483131690E+03  0.46751496069E+03  0.25500000920E-02 0.  1.
</event>
<event>
 5   0  0.9759443E-03  0.5736846E+03  0.7818609E-02  0.9961558E-01
        1   -1    0    0  501    0  0.00000000000E+00  0.00000000000E+00  0.10390793710E+04  0.10390793710E+04  0.50400001928E-02 0.  1.
       -1   -1    0    0    0  501  0.00000000000E+00  0.00000000000E+00 -0.79184034970E+02  0.79184035131E+02  0.50400001928E-02 0. -1.
    10030    2    1    2    0    0  0.00000000000E+00  0.00000000000E+00  0.95989533604E+03  0.11182634062E+04  0.57368457308E+03 0.  0.
        2    1    3    3  502    0  0.38358255247E+01  0.45461396439E+02  0.10319617104E+04  0.10329697110E+04  0.25500000920E-02 0.  1.
       -2    1    3    3    0  502 -0.38358255247E+01 -0.45461396439E+02 -0.72066374321E+02  0.85293695183E+02  0.25500000920E-02 0. -1.
</event>
<event>
 5   0  0.1571895E-02  0.1028434E+04  0.7818609E-02  0.9277897E-01
        2   -1    0    0  501    0  0.00000000000E+00  0.00000000000E+00  0.79555763194E+03  0.79555763195E+03  0.25500000920E-02 0. -1.
       -2   -1    0    0    0  501  0.00000000000E+00  0.00000000000E+00 -0.33236959461E+03  0.33236959462E+03  0.25500000920E-02 0.  1.
    10030    2    1    2    0    0  0.00000000000E+00  0.00000000000E+00  0.46318803733E+03  0.11279272266E+04  0.10284340866E+04 0.  0.
        2    1    3    3  502    0  0.44924475480E+03  0.85593529413E+02  0.48943827709E+03  0.66984843740E+03  0.25500000920E-02 0. -1.
       -2    1    3    3    0  502 -0.44924475480E+03 -0.85593529413E+02 -0.26250239759E+02  0.45807878917E+03  0.25500000920E-02 0.  1.
</event>
<event>
 5   0  0.9396660E-03  0.1004740E+04  0.7818609E-02  0.9303362E-01
        1   -1    0    0  501    0  0.00000000000E+00  0.00000000000E+00  0.51907754646E+03  0.51907754649E+03  0.50400001928E-02 0.  1.
       -1   -1    0    0    0  501  0.00000000000E+00  0.00000000000E+00 -0.48619984496E+03  0.48619984499E+03  0.50400001928E-02 0. -1.
    10030    2    1    2    0    0  0.00000000000E+00  0.00000000000E+00  0.32877701498E+02  0.10052773915E+04  0.10047396133E+04 0.  0.
        5    1    3    3  502    0 -0.11236320192E+03 -0.44141064519E+03 -0.19553413510E+03  0.49570609722E+03  0.46999998093E+01 0. -1.
       -5    1    3    3    0  502  0.11236320192E+03  0.44141064519E+03  0.22841183659E+03  0.50957129426E+03  0.46999998093E+01 0.  1.
</event>
<event>
 5   0  0.1656859E-02  0.7667809E+03  0.7818609E-02  0.9609385E-01
       -2   -1    0    0    0  501  0.00000000000E+00  0.00000000000E+00  0.93131678714E+02  0.93131678749E+02  0.25500000920E-02 0.  1.
        2   -1    0    0  501    0  0.00000000000E+00  0.00000000000E+00 -0.15782841688E+04  0.15782841688E+04  0.25500000920E-02 0. -1.
    10030    2    1    2    0    0  0.00000000000E+00  0.00000000000E+00 -0.14851524901E+04  0.16714158476E+04  0.76678094437E+03 0.  0.
        4    1    3    3  502    0 -0.20945378324E+03  0.10393453722E+03 -0.14048621273E+04  0.14241883600E+04  0.12699999809E+01 0. -1.
       -4    1    3    3    0  502  0.20945378324E+03 -0.10393453722E+03 -0.80290362873E+02  0.24722748757E+03  0.12699999809E+01 0.  1.
</event>
<event>
 5   0  0.9507815E-03  0.1017718E+04  0.7818609E-02  0.9289323E-01
       -1   -1    0    0    0  501  0.00000000000E+00  0.00000000000E+00  0.37160395618E+03  0.37160395621E+03  0.50400001928E-02 0.  1.
        1   -1    0    0  501    0  0.00000000000E+00  0.00000000000E+00 -0.69680994623E+03  0.69680994624E+03  0.50400001928E-02 0. -1.
    10030    2    1    2    0    0  0.00000000000E+00  0.00000000000E+00 -0.32520599005E+03  0.10684139025E+04  0.10177177069E+04 0.  0.
        1    1    3    3  502    0  0.17992019471E+01  0.49190706429E+03 -0.29932700434E+03  0.57582328242E+03  0.50400001928E-02 0. -1.
       -1    1    3    3    0  502 -0.17992019471E+01 -0.49190706429E+03 -0.25878985706E+02  0.49259062004E+03  0.50400001928E-02 0.  1.
</event>
<event>
 5   0  0.9396660E-03  0.1013119E+04  0.7818609E-02  0.9294272E-01
        1   -1    0    0  501    0  0.00000000000E+00  0.00000000000E+00  0.51550418617E+03  0.51550418620E+03  0.50400001928E-02 0.  1.
       -1   -1    0    0    0  501  0.00000000000E+00  0.00000000000E+00 -0.49777012104E+03  0.49777012107E+03  0.50400001928E-02 0. -1.
    10030    2    1    2    0    0  0.00000000000E+00  0.00000000000E+00  0.17734065130E+02  0.10132743073E+04  0.10131191069E+04 0.  0.
        5    1    3    3  502    0  0.19809765723E+03  0.23317328001E+03  0.41262186542E+03  0.51370356640E+03  0.46999998093E+01 0.  1.
       -5    1    3    3    0  502 -0.19809765723E+03 -0.23317328001E+03 -0.39488780029E+03  0.49957074087E+03  0.46999998093E+01 0. -1.
</event>
<event>
 5   0  0.9471140E-03  0.8507369E+03  0.7818609E-02  0.9489348E-01
        1   -1    0    0  501    0  0.00000000000E+00  0.00000000000E+00  0.14166488079E+04  0.14166488079E+04  0.50400001928E-02 0.  1.
       -1   -1    0    0    0  501  0.00000000000E+00  0.00000000000E+00 -0.12772277501E+03  0.12772277511E+03  0.50400001928E-02 0. -1.
    10030    2    1    2    0    0  0.00000000000E+00  0.00000000000E+00  0.12889260329E+04  0.15443715831E+04  0.85073689716E+03 0.  0.
        4    1    3    3  502    0  0.14942921477E+03  0.36576338199E+03  0.93048478157E+03  0.10108983547E+04  0.12699999809E+01 0.  1.
       -4    1    3    3    0  502 -0.14942921477E+03 -0.36576338199E+03  0.35844125136E+03  0.53347322839E+03  0.12699999809E+01 0. -1.
</event>
<event>
 5   0  0.1571895E-02  0.9784483E+03  0.7818609E-02  0.9332503E-01
       -2   -1    0    0    0  501  0.00000000000E+00  0.00000000000E+00  0.22306370620E+03  0.22306370622E+03  0.25500000920E-02 0.  1.
        2   -1    0    0  501    0  0.00000000000E+00  0.00000000000E+00 -0.10729682308E+04  0.10729682308E+04  0.25500000920E-02 0. -1.
    10030    2    1    2    0    0  0.00000000000E+00  0.00000000000E+00 -0.84990452457E+03  0.12960319370E+04  0.97844830257E+03 0.  0.
        2    1    3    3  502    0  0.16282560393E+03  0.27818607785E+03 -0.91242715497E+03  0.96768950823E+03  0.25500000920E-02 0. -1.
       -2    1    3    3    0  502 -0.16282560393E+03 -0.27818607785E+03  0.62522630400E+02  0.32834242876E+03  0.25500000920E-02 0.  1.
</event>
<event>
 5   0  0.1598986E-02  0.9492783E+03  0.7818609E-02  0.9365995E-01
        2   -1    0    0  501    0  0.00000000000E+00  0.00000000000E+00  0.21418881087E+03  0.21418881088E+03  0.25500000920E-02 0.  1.
       -2   -1    0    0    0  501  0.00000000000E+00  0.00000000000E+00 -0.10517930388E+04  0.10517930388E+04  0.25500000920E-02 0. -1.
    10030    2    1    2    0    0  0.00000000000E+00  0.00000000000E+00 -0.83760422789E+03  0.12659818496E+04  0.94927825270E+03 0.  0.
        3    1    3    3  502    0 -0.22167700802E+03  0.45027857798E+02 -0.97528383257E+03  0.10011726965E+04  0.10100000352E+00 0. -1.
       -3    1    3    3    0  502  0.22167700802E+03 -0.45027857798E+02  0.13767960468E+03  0.26480915318E+03  0.10100000352E+00 0.  1.
</event>
<event>
 5   0  0.9396660E-03  0.9859050E+03  0.7818609E-02  0.9324140E-01
        1   -1    0    0  501    0  0.00000000000E+00  0.00000000000E+00  0.32056082877E+03  0.32056082881E+03  0.50400001928E-02 0. -1.
       -1   -1    0    0    0  501  0.00000000000E+00  0.00000000000E+00 -0.75805328268E+03  0.75805328270E+03  0.50400001928E-02 0.  1.
    10030    2    1    2    0    0  0.00000000000E+00  0.00000000000E+00 -0.43749245391E+03  0.10786141115E+04  0.98590504325E+03 0.  0.
        5    1    3    3  502    0 -0.28983232123E+03  0.85227499453E+02  0.20738490429E+03  0.36646567318E+03  0.46999998093E+01 0. -1.
       -5    1    3    3    0  502  0.28983232123E+03 -0.85227499453E+02 -0.64487735820E+03  0.71214843833E+03  0.46999998093E+01 0.  1.
</event>
<event>
 5   0  0.1617721E-02  0.9986620E+03  0.7818609E-02  0.9310014E-01
        2   -1    0    0  501    0  0.00000000000E+00  0.00000000000E+00  0.77616661598E+03  0.77616661599E+03  0.25500000920E-02 0.  1.
       -2   -1    0    0    0  501  0.00000000000E+00  0.00000000000E+00 -0.32123440726E+03  0.32123440727E+03  0.25500000920E-02 0. -1.
    10030    2    1    2    0    0  0.00000000000E+00  0.00000000000E+00  0.45493220872E+03  0.10974010233E+04  0.99866195047E+03 0.  0.
        5    1    3    3  502    0 -0.36613500608E+03  0.96266168790E+02  0.58521129364E+03  0.69700528415E+03  0.46999998093E+01 0.  1.
       -5    1    3    3    0  502  0.36613500608E+03 -0.96266168790E+02 -0.13027908492E+03  0.40039573911E+03  0.46999998093E+01 0. -1.
</event>
<event>
 5   0  0.1617721E-02  0.1023748E+04  0.7818609E-02  0.9282875E-01
       -2   -1    0    0    0  501  0.00000000000E+00  0.00000000000E+00  0.14079400885E+03  0.14079400887E+03  0.25500000920E-02 0.  1.
        2   -1    0    0  501    0  0.00000000000E+00  0.00000000000E+00 -0.18609814300E+04  0.18609814300E+04  0.25500000920E-02 0. -1.
    10030    2    1    2    0    0  0.00000000000E+00  0.00000000000E+00 -0.17201874212E+04  0.20017754389E+04  0.10237480861E+04 0.  0.
        5    1    3    3  502    0 -0.34550451287E+03 -0.66486686817E+02 -0.13319339449E+03  0.37623984142E+03  0.46999998093E+01 0.  1.
       -5    1    3    3    0  502  0.34550451287E+03  0.66486686817E+02 -0.15869940267E+04  0.16255355975E+04  0.46999998093E+01 0. -1.
</event>
<event>
 5   0  0.1617721E-02  0.9462647E+03  0.7818609E-02  0.9369527E-01
       -2   -1    0    0    0  501  0.00000000000E+00  0.00000000000E+00  0.45157752220E+03  0.45157752221E+03  0.25500000920E-02 0.  1.
        2   -1    0    0  501    0  0.00000000000E+00  0.00000000000E+00 -0.49571599456E+03  0.49571599457E+03  0.25500000920E-02 0. -1.
    10030    2    1    2    0    0  0.00000000000E+00  0.00000000000E+00 -0.44138472361E+02  0.94729351678E+03  0.94626465759E+03 0.  0.
        5    1    3    3  502    0  0.36056315996E+03 -0.27485293481E+03  0.11328939838E+03  0.46733981841E+03  0.46999998093E+01 0.  1.
       -5    1    3    3    0  502 -0.36056315996E+03  0.27485293481E+03 -0.15742787074E+03  0.47995369837E+03  0.46999998093E+01 0. -1.
</event>
<event>
 5   0  0.9471140E-03  0.9742537E+03  0.7818609E-02  0.9337242E-01
       -1   -1    0    0    0  501  0.00000000000E+00  0.00000000000E+00  0.54480807049E+03  0.54480807052E+03  0.50400001928E-02 0. -1.
        1   -1    0    0  501    0  0.00000000000E+00  0.00000000000E+00 -0.43555259590E+03  0.43555259592E+03  0.50400001928E-02 0.  1.
    10030    2    1    2    0    0  0.00000000000E+00  0.00000000000E+00  0.10925547460E+03  0.98036066644E+03  0.97425370288E+03 0.  0.
        4    1    3    3  502    0 -0.25733613757E+03  0.34254488772E+03  0.28788253962E+03  0.51617521959E+03  0.12699999809E+01 0. -1.
       -4    1    3    3    0  502  0.25733613757E+03 -0.34254488772E+03 -0.17862706502E+03  0.46418544685E+03  0.12699999809E+01 0.  1.
</event>
<event>
 5   0  0.1656859E-02  0.9672023E+03  0.7818609E-02  0.9345267E-01
       -2   -1    0    0    0  501  0.00000000000E+00  0.00000000000E+00  0.26591049173E+03  0.26591049175E+03  0.25500000920E-02 0.  1.
        2   -1    0    0  501    0  0.00000000000E+00  0.00000000000E+00 -0.87950682082E+03  0.87950682082E+03  0.25500000920E-02 0. -1.
    10030    2    1    2    0    0  0.00000000000E+00  0.00000000000E+00 -0.61359632908E+03  0.11454173126E+04  0.96720233915E+03 0.  0.
        4    1    3    3  502    0  0.37621696298E+03  0.14482895636E+03 -0.62313888965E+03  0.74217135388E+03  0.12699999809E+01 0. -1.
       -4    1    3    3    0  502 -0.37621696298E+03 -0.14482895636E+03  0.95425605701E+01  0.40324595868E+03  0.12699999809E+01 0.  1.
</event>
<event>
 5   0  0.9507815E-03  0.9649662E+03  0.7818609E-02  0.9347826E-01
       -1   -1    0    0    0  501  0.00000000000E+00  0.00000000000E+00  0.15734253856E+03  0.15734253864E+03  0.50400001928E-02 0.  1.
        1   -1    0    0  501    0  0.00000000000E+00  0.00000000000E+00 -0.14795106747E+04  0.14795106747E+04  0.50400001928E-02 0. -1.
    10030    2    1    2    0    0  0.00000000000E+00  0.00000000000E+00 -0.13221681361E+04  0.16368532133E+04  0.96496624906E+03 0.  0.
        1    1    3    3  502    0  0.14827927391E+03  0.44997606469E+03 -0.81585292166E+03  0.94344114372E+03  0.50400001928E-02 0. -1.
       -1    1    3    3    0  502 -0.14827927391E+03 -0.44997606469E+03 -0.50631521446E+03  0.69341206961E+03  0.50400001928E-02 0.  1.
</event>
<event>
 5   0  0.6314750E-03  0.1011390E+04  0.7818609E-02  0.9296140E-01
        3   -1    0    0  501    0  0.00000000000E+00  0.00000000000E+00  0.85262602285E+03  0.85262602884E+03  0.10100000352E+00 0. -1.
       -3   -1    0    0    0  501  0.00000000000E+00  0.00000000000E+00 -0.29992899912E+03  0.29992901613E+03  0.10100000352E+00 0.  1.
    10030    2    1    2    0    0  0.00000000000E+00  0.00000000000E+00  0.55269702373E+03  0.11525550450E+04  0.10113897032E+04 0.  0.
        5    1    3    3  502    0  0.16291961507E+03  0.45596507141E+03  0.11019602027E+03  0.49660064459E+03  0.46999998093E+01 0. -1.
       -5    1    3    3    0  502 -0.16291961507E+03 -0.45596507141E+03  0.44250100346E+03  0.65595440038E+03  0.46999998093E+01 0.  1.
</event>
<event>
 5   0  0.9507815E-03  0.9965501E+03  0.7818609E-02  0.9312337E-01
       -1   -1    0    0    0  501  0.00000000000E+00  0.00000000000E+00  0.45688551709E+03  0.45688551711E+03  0.50400001928E-02 0.  1.
        1   -1    0    0  501    0  0.00000000000E+00  0.00000000000E+00 -0.54341408780E+03  0.54341408782E+03  0.50400001928E-02 0. -1.
    10030    2    1    2    0    0  0.00000000000E+00  0.00000000000E+00 -0.86528570713E+02  0.10002996049E+04  0.99655010215E+03 0.  0.
        1    1    3    3  502    0  0.87194608969E+02 -0.47977184987E+03 -0.14609042518E+03  0.50904453647E+03  0.50400001928E-02 0.  1.
       -1    1    3    3    0  502 -0.87194608969E+02  0.47977184987E+03  0.59561854471E+02  0.49125506846E+03  0.50400001928E-02 0. -1.
</event>
<event>
 5   0  0.9759443E-03  0.9966322E+03  0.7818609E-02  0.9312246E-01
        1   -1    0    0  501    0  0.00000000000E+00  0.00000000000E+00  0.33004084416E+03  0.33004084420E+03  0.50400001928E-02 0. -1.
       -1   -1    0    0    0  501  0.00000000000E+00  0.00000000000E+00 -0.75238843559E+03  0.75238843560E+03  0.50400001928E-02 0.  1.
    10030    2    1    2    0    0  0.00000000000E+00  0.00000000000E+00 -0.42234759143E+03  0.10824292798E+04  0.99663215771E+03 0.  0.
        2    1    3    3  502    0  0.48001609580E+03  0.12580814259E+03 -0.16169095618E+03  0.52190718168E+03  0.25500000920E-02 0. -1.
       -2    1    3    3    0  502 -0.48001609580E+03 -0.12580814259E+03 -0.26065663525E+03  0.56052209812E+03  0.25500000920E-02 0.  1.
</event>
<event>
 5   0  0.1656859E-02  0.9676660E+03  0.7818609E-02  0.9344737E-01
       -2   -1    0    0    0  501  0.00000000000E+00  0.00000000000E+00  0.61986105554E+03  0.61986105554E+03  0.25500000920E-02 0. -1.
        2   -1    0    0  501    0  0.00000000000E+00  0.00000000000E+00 -0.37765617587E+03  0.37765617588E+03  0.25500000920E-02 0.  1.
    10030    2    1    2    0    0  0.00000000000E+00  0.00000000000E+00  0.24220487966E+03  0.99751723143E+03  0.96766596678E+03 0.  0.
        4    1    3    3  502    0  0.39565060559E+03 -0.16249256054E+03 -0.11203695997E+03  0.44215057077E+03  0.12699999809E+01 0.  1.
       -4    1    3    3    0  502 -0.39565060559E+03  0.16249256054E+03  0.35424183963E+03  0.55536666066E+03  0.12699999809E+01 0. -1.
</event>
<event>
 5   0  0.9471140E-03  0.1189280E+04  0.7818609E-02  0.9122292E-01
       -1   -1    0    0    0  501  0.00000000000E+00  0.00000000000E+00  0.35730438597E+03  0.35730438600E+03  0.50400001928E-02 0.  1.
        1   -1    0    0  501    0  0.00000000000E+00  0.00000000000E+00 -0.98962371821E+03  0.98962371822E+03  0.50400001928E-02 0. -1.
    10030    2    1    2    0    0  0.00000000000E+00  0.00000000000E+00 -0.63231933224E+03  0.13469281042E+04  0.11892802782E+04 0.  0.
        4    1    3    3  502    0 -0.12136185404E+03  0.36352594113E+03  0.19876854987E+03  0.43172949727E+03  0.12699999809E+01 0.  1.
       -4    1    3    3    0  502  0.12136185404E+03 -0.36352594113E+03 -0.83108788211E+03  0.91519860696E+03  0.12699999809E+01 0. -1.
</event>
<event>
 5   0  0.1000773E-02  0.8072497E+03  0.7818609E-02  0.9549582E-01
       -1   -1    0    0    0  501  0.00000000000E+00  0.00000000000E+00  0.67255098664E+03  0.67255098666E+03  0.50400001928E-02 0. -1.
        1   -1    0    0  501    0  0.00000000000E+00  0.00000000000E+00 -0.24223146085E+03  0.24223146091E+03  0.50400001928E-02 0.  1.
    10030    2    1    2    0    0  0.00000000000E+00  0.00000000000E+00  0.43031952578E+03  0.91478244756E+03  0.80724967148E+03 0.  0.
        3    1    3    3  502    0 -0.16488470578E+03 -0.22243303971E+02 -0.20156422897E+03  0.26136158741E+03  0.10100000352E+00 0.  1.
       -3    1    3    3    0  502  0.16488470578E+03  0.22243303971E+02  0.63188375475E+03  0.65342086016E+03  0.10100000352E+00 0. -1.
</event>
<event>
 5   0  0.1663497E-02  0.8587100E+03  0.7818609E-02  0.9478721E-01
       -2   -1    0    0    0  501  0.00000000000E+00  0.00000000000E+00  0.23180450961E+03  0.23180450962E+03  0.25500000920E-02 0.  1.
        2   -1    0    0  501    0  0.00000000000E+00  0.00000000000E+00 -0.79526372465E+03  0.79526372465E+03  0.25500000920E-02 0. -1.
    10030    2    1    2    0    0  0.00000000000E+00  0.00000000000E+00 -0.56345921504E+03  0.10270682343E+04  0.85871000393E+03 0.  0.
        1    1    3    3  502    0 -0.28444412635E+03  0.16805732008E+03 -0.60970733405E+03  0.69346575768E+03  0.50400001928E-02 0. -1.
       -1    1    3    3    0  502  0.28444412635E+03 -0.16805732008E+03  0.46248119018E+02  0.33360247659E+03  0.50400001928E-02 0.  1.
</event>
<event>
 5   0  0.1617721E-02  0.9682661E+03  0.7818609E-02  0.9344051E-01
       -2   -1    0    0    0  501  0.00000000000E+00  0.00000000000E+00  0.19745473276E+03  0.19745473278E+03  0.25500000920E-02 0.  1.
        2   -1    0    0  501    0  0.00000000000E+00  0.00000000000E+00 -0.11870305906E+04  0.11870305906E+04  0.25500000920E-02 0. -1.
    10030    2    1    2    0    0  0.00000000000E+00  0.00000000000E+00 -0.98957585785E+03  0.13844853234E+04  0.96826609579E+03 0.  0.
        5    1    3    3  502    0 -0.45998507215E+03  0.59118724517E+02 -0.69333488224E+03  0.83415624382E+03  0.46999998093E+01 0.  1.
       -5    1    3    3    0  502  0.45998507215E+03 -0.59118724517E+02 -0.29624097561E+03  0.55032907957E+03  0.46999998093E+01 0. -1.
</event>
<event>
 5   0  0.9471140E-03  0.9947997E+03  0.7818609E-02  0.9314267E-01
        1   -1    0    0  501    0  0.00000000000E+00  0.00000000000E+00  0.70695327951E+03  0.70695327953E+03  0.50400001928E-02 0. -1.
       -1   -1    0    0    0  501  0.00000000000E+00  0.00000000000E+00 -0.34996175215E+03  0.34996175219E+03  0.50400001928E-02 0.  1.
    10030    2    1    2    0    0  0.00000000000E+00  0.00000000000E+00  0.35699152736E+03  0.10569150317E+04  0.99479969524E+03 0.  0.
        4    1    3    3  502    0  0.62309613264E+02 -0.25512027344E+03  0.62728853962E+03  0.68004512105E+03  0.12699999809E+01 0. -1.
       -4    1    3    3    0  502 -0.62309613264E+02  0.25512027344E+03 -0.27029701226E+03  0.37686991066E+03  0.12699999809E+01 0.  1.
</event>
<event>
 5   0  0.1656859E-02  0.1002779E+04  0.7818609E-02  0.9305503E-01
        2   -1    0    0  501    0  0.00000000000E+00  0.00000000000E+00  0.43472166921E+03  0.43472166922E+03  0.25500000920E-02 0.  1.
       -2   -1    0    0    0  501  0.00000000000E+00  0.00000000000E+00 -0.57828079458E+03  0.57828079458E+03  0.25500000920E-02 0. -1.
    10030    2    1    2    0    0  0.00000000000E+00  0.00000000000E+00 -0.14355912536E+03  0.10130024638E+04  0.10027785245E+04 0.  0.
        4    1    3    3  502    0  0.18656328640E+03  0.46429951539E+03 -0.10387898839E+03  0.51105024895E+03  0.12699999809E+01 0.  1.
       -4    1    3    3    0  502 -0.18656328640E+03 -0.46429951539E+03 -0.39680136975E+02  0.50195221485E+03  0.12699999809E+01 0. -1.
</event>
<event>
 5   0  0.1571895E-02  0.9758453E+03  0.7818609E-02  0.9335441E-01
        2   -1    0    0  501    0  0.00000000000E+00  0.00000000000E+00  0.19466393454E+04  0.19466393454E+04  0.25500000920E-02 0. -1.
       -2   -1    0    0    0  501  0.00000000000E+00  0.00000000000E+00 -0.12229717760E+03  0.12229717763E+03  0.25500000920E-02 0.  1.
    10030    2    1    2    0    0  0.00000000000E+00  0.00000000000E+00  0.18243421678E+04  0.20689365231E+04  0.97584527008E+03 0.  0.
        2    1    3    3  502    0  0.42851976304E+03  0.15661046779E+02  0.41860878664E+03  0.59925601537E+03  0.25500000920E-02 0.  1.
       -2    1    3    3    0  502 -0.42851976304E+03 -0.15661046779E+02  0.14057333812E+04  0.14696805077E+04  0.25500000920E-02 0. -1.
</event>
<event>
 5   0  0.9507815E-03  0.1009416E+04  0.7818609E-02  0.9298277E-01
       -1   -1    0    0    0  501  0.00000000000E+00  0.00000000000E+00  0.59208133474E+03  0.59208133476E+03  0.50400001928E-02 0. -1.
        1   -1    0    0  501    0  0.00000000000E+00  0.00000000000E+00 -0.43022849613E+03  0.43022849616E+03  0.50400001928E-02 0.  1.
    10030    2    1    2    0    0  0.00000000000E+00  0.00000000000E+00  0.16185283861E+03  0.10223098309E+04  0.10094161922E+04 0.  0.
        1    1    3    3  502    0 -0.14061101804E+03 -0.30782124358E+03 -0.29829585998E+03  0.45111616741E+03  0.50400001928E-02 0.  1.
       -1    1    3    3    0  502  0.14061101804E+03  0.30782124358E+03  0.46014869859E+03  0.57119366351E+03  0.50400001928E-02 0. -1.
</event>
<event>
 5   0  0.1571895E-02  0.9905653E+03  0.7818609E-02  0.9318954E-01
       -2   -1    0    0    0  501  0.00000000000E+00  0.00000000000E+00  0.33431983000E+03  0.33431983001E+03  0.25500000920E-02 0. -1.
        2   -1    0    0  501    0  0.00000000000E+00  0.00000000000E+00 -0.73374317631E+03  0.73374317631E+03  0.25500000920E-02 0.  1.
    10030    2    1    2    0    0  0.00000000000E+00  0.00000000000E+00 -0.39942334631E+03  0.10680630063E+04  0.99056528098E+03 0.  0.
        2    1    3    3  502    0  0.45318081701E+03  0.19425684692E+03 -0.25024308458E+03  0.55292872676E+03  0.25500000920E-02 0.  1.
       -2    1    3    3    0  502 -0.45318081701E+03 -0.19425684692E+03 -0.14918026172E+03  0.51513427956E+03  0.25500000920E-02 0. -1.
</event>
<event>
 5   0  0.9759443E-03  0.1007298E+04  0.7818609E-02  0.9300577E-01
       -1   -1    0    0    0  501  0.00000000000E+00  0.00000000000E+00  0.78631595083E+03  0.78631595085E+03  0.50400001928E-02 0. -1.
        1   -1    0    0  501    0  0.00000000000E+00  0.00000000000E+00 -0.32259574963E+03  0.32259574967E+03  0.50400001928E-02 0.  1.
    10030    2    1    2    0    0  0.00000000000E+00  0.00000000000E+00  0.46372020121E+03  0.11089117005E+04  0.10072977388E+04 0.  0.
        2    1    3    3  502    0 -0.37424449534E+03  0.13872724698E+03 -0.10630474087E+03  0.41304344722E+03  0.25500000920E-02 0.  1.
       -2    1    3    3    0  502  0.37424449534E+03 -0.13872724698E+03  0.57002494208E+03  0.69586825330E+03  0.25500000920E-02 0. -1.
</event>
<event>
 5   0  0.9471140E-03  0.9831023E+03  0.7818609E-02  0.9327275E-01
       -1   -1    0    0    0  501  0.00000000000E+00  0.00000000000E+00  0.40201095148E+03  0.40201095151E+03  0.50400001928E-02 0.  1.
        1   -1    0    0  501    0  0.00000000000E+00  0.00000000000E+00 -0.60103467582E+03  0.60103467584E+03  0.50400001928E-02 0. -1.
    10030    2    1    2    0    0  0.00000000000E+00  0.00000000000E+00 -0.19902372434E+03  0.10030456274E+04  0.98310227733E+03 0.  0.
        4    1    3    3  502    0 -0.12139725178E+03  0.41523353991E+03 -0.33762296086E+03  0.54876867805E+03  0.12699999809E+01 0. -1.
       -4    1    3    3    0  502  0.12139725178E+03 -0.41523353991E+03  0.13859923652E+03  0.45427694930E+03  0.12699999809E+01 0.  1.
</event>
<event>
 5   0  0.1663497E-02  0.1016562E+04  0.7818609E-02  0.9290564E-01
       -2   -1    0    0    0  501  0.00000000000E+00  0.00000000000E+00  0.46902751581E+03  0.46902751582E+03  0.25500000920E-02 0. -1.
        2   -1    0    0  501    0  0.00000000000E+00  0.00000000000E+00 -0.55082006362E+03  0.55082006363E+03  0.25500000920E-02 0.  1.
    10030    2    1    2    0    0  0.00000000000E+00  0.00000000000E+00 -0.81792547812E+02  0.10198475794E+04  0.10165623761E+04 0.  0.
        1    1    3    3  502    0 -0.83511049373E+02  0.46939555652E+02 -0.54168109922E+03  0.55008711177E+03  0.50400001928E-02 0.  1.
       -1    1    3    3    0  502  0.83511049373E+02 -0.46939555652E+02  0.45988855141E+03  0.46976046768E+03  0.50400001928E-02 0. -1.
</event>
<event>
 5   0  0.1571895E-02  0.1023098E+04  0.7818609E-02  0.9283568E-01
        2   -1    0    0  501    0  0.00000000000E+00  0.00000000000E+00  0.18237637178E+04  0.18237637178E+04  0.25500000920E-02 0.  1.
       -2   -1    0    0    0  501  0.00000000000E+00  0.00000000000E+00 -0.14348474259E+03  0.14348474261E+03  0.25500000920E-02 0. -1.
    10030    2    1    2    0    0  0.00000000000E+00  0.00000000000E+00  0.16802789752E+04  0.19672484604E+04  0.10230977815E+04 0.  0.
        2    1    3    3  502    0  0.33497557179E+03 -0.35080737446E+03  0.11526095012E+04  0.12505131386E+04  0.25500000920E-02 0. -1.
       -2    1    3    3    0  502 -0.33497557179E+03  0.35080737446E+03  0.52766947408E+03  0.71673532183E+03  0.25500000920E-02 0.  1.
</event>
<event>
 5   0  0.9507815E-03  0.1014108E+04  0.7818609E-02  0.9293206E-01
        1   -1    0    0  501    0  0.00000000000E+00  0.00000000000E+00  0.39286017633E+03  0.39286017636E+03  0.50400001928E-02 0.  1.
       -1   -1    0    0    0  501  0.00000000000E+00  0.00000000000E+00 -0.65444065882E+03  0.65444065884E+03  0.50400001928E-02 0. -1.
    10030    2    1    2    0    0  0.00000000000E+00  0.00000000000E+00 -0.26158048249E+03  0.10473008352E+04  0.10141078299E+04 0.  0.
        1    1    3    3  502    0  0.32264207620E+03  0.22677638153E+03  0.19835505075E+03  0.44144100709E+03  0.50400001928E-02 0.  1.
       -1    1    3    3    0  502 -0.32264207620E+03 -0.22677638153E+03 -0.45993553324E+03  0.60585982811E+03  0.50400001928E-02 0. -1.
</event>
<event>
 5   0  0.9759443E-03  0.1062613E+04  0.7818609E-02  0.9242418E-01
        1   -1    0    0  501    0  0.00000000000E+00  0.00000000000E+00  0.41996722688E+03  0.41996722691E+03  0.50400001928E-02 0.  1.
       -1   -1    0    0    0  501  0.00000000000E+00  0.00000000000E+00 -0.67216280805E+03  0.67216280806E+03  0.50400001928E-02 0. -1.
    10030    2    1    2    0    0  0.00000000000E+00  0.00000000000E+00 -0.25219558116E+03  0.10921300350E+04  0.10626125362E+04 0.  0.
        2    1    3    3  502    0 -0.47708742460E+03 -0.72035435707E+02  0.10253340245E+03  0.49326931116E+03  0.25500000920E-02 0.  1.
       -2    1    3    3    0  502  0.47708742460E+03  0.72035435707E+02 -0.35472898361E+03  0.59886072382E+03  0.25500000920E-02 0. -1.
</event>
<event>
 5   0  0.1663497E-02  0.9785035E+03  0.7818609E-02  0.9332441E-01
       -2   -1    0    0    0  501  0.00000000000E+00  0.00000000000E+00  0.62435902689E+03  0.62435902689E+03  0.25500000920E-02 0.  1.
        2   -1    0    0  501    0  0.00000000000E+00  0.00000000000E+00 -0.38338080181E+03  0.38338080182E+03  0.25500000920E-02 0. -1.
    10030    2    1    2    0    0  0.00000000000E+00  0.00000000000E+00  0.24097822507E+03  0.10077398287E+04  0.97850347849E+03 0.  0.
        1    1    3    3  502    0  0.22792966688E+03 -0.43059550339E+03  0.16657941768E+03  0.51489137010E+03  0.50400001928E-02 0.  1.
       -1    1    3    3    0  502 -0.22792966688E+03  0.43059550339E+03  0.74398807395E+02  0.49284845861E+03  0.50400001928E-02 0. -1.
</event>
<event>
 5   0  0.9759443E-03  0.1001598E+04  0.7818609E-02  0.9306793E-01
       -1   -1    0    0    0  501  0.00000000000E+00  0.00000000000E+00  0.22592154255E+03  0.22592154261E+03  0.50400001928E-02 0. -1.
        1   -1    0    0  501    0  0.00000000000E+00  0.00000000000E+00 -0.11101192148E+04  0.11101192148E+04  0.50400001928E-02 0.  1.
    10030    2    1    2    0    0  0.00000000000E+00  0.00000000000E+00 -0.88419767227E+03  0.13360407574E+04  0.10015984135E+04 0.  0.
        2    1    3    3  502    0  0.15629490411E+03 -0.32945099460E+03  0.15790999838E+02  0.36498686356E+03  0.25500000920E-02 0. -1.
       -2    1    3    3    0  502 -0.15629490411E+03  0.32945099460E+03 -0.89998867211E+03  0.97105389388E+03  0.25500000920E-02 0.  1.
</event>
<event>
 5   0  0.1000773E-02  0.1004289E+04  0.7818609E-02  0.9303853E-01
       -1   -1    0    0    0  501  0.00000000000E+00  0.00000000000E+00  0.17347661982E+03  0.17347661989E+03  0.50400001928E-02 0. -1.
        1   -1    0    0  501    0  0.00000000000E+00  0.00000000000E+00 -0.14535060325E+04  0.14535060325E+04  0.50400001928E-02 0.  1.
    10030    2    1    2    0    0  0.00000000000E+00  0.00000000000E+00 -0.12800294127E+04  0.16269826524E+04  0.10042894274E+04 0.  0.
        3    1    3    3  502    0 -0.13798469381E+03 -0.45454140856E+03 -0.37628419945E+03  0.60600121847E+03  0.10100000352E+00 0. -1.
       -3    1    3    3    0  502  0.13798469381E+03  0.45454140856E+03 -0.90374521326E+03  0.10209814340E+04  0.10100000352E+00 0.  1.
</event>
<event>
 5   0  0.1656859E-02  0.9643735E+03  0.7818609E-02  0.9348506E-01
        2   -1    0    0  501    0  0.00000000000E+00  0.00000000000E+00  0.28453937291E+03  0.28453937293E+03  0.25500000920E-02 0.  1.
       -2   -1    0    0    0  501  0.00000000000E+00  0.00000000000E+00 -0.81712434817E+03  0.81712434818E+03  0.25500000920E-02 0. -1.
    10030    2    1    2    0    0  0.00000000000E+00  0.00000000000E+00 -0.53258497526E+03  0.11016637211E+04  0.96437347461E+03 0.  0.
        4    1    3    3  502    0  0.31664349802E+03  0.15817192361E+03  0.10776957685E+03  0.36999642816E+03  0.12699999809E+01 0.  1.
       -4    1    3    3    0  502 -0.31664349802E+03 -0.15817192361E+03 -0.64035455211E+03  0.73166729294E+03  0.12699999809E+01 0. -1.
</event>
<event>
 5   0  0.1656859E-02  0.1017614E+04  0.7818609E-02  0.9289435E-01
       -2   -1    0    0    0  501  0.00000000000E+00  0.00000000000E+00  0.10786347299E+04  0.10786347299E+04  0.25500000920E-02 0. -1.
        2   -1    0    0  501    0  0.00000000000E+00  0.00000000000E+00 -0.24001115745E+03  0.24001115746E+03  0.25500000920E-02 0.  1.
    10030    2    1    2    0    0  0.00000000000E+00  0.00000000000E+00  0.83862357247E+03  0.13186458874E+04  0.10176136202E+04 0.  0.
        4    1    3    3  502    0  0.28942645167E+03  0.16924063835E+03  0.91524546937E+03  0.97472352321E+03  0.12699999809E+01 0. -1.
       -4    1    3    3    0  502 -0.28942645167E+03 -0.16924063835E+03 -0.76621896904E+02  0.34392236418E+03  0.12699999809E+01 0.  1.
</event>
<event>
 5   0  0.1656859E-02  0.1004879E+04  0.7818609E-02  0.9303210E-01
        2   -1    0    0  501    0  0.00000000000E+00  0.00000000000E+00  0.22535701007E+04  0.22535701008E+04  0.25500000920E-02 0. -1.
       -2   -1    0    0    0  501  0.00000000000E+00  0.00000000000E+00 -0.11202013774E+03  0.11202013777E+03  0.25500000920E-02 0.  1.
    10030    2    1    2    0    0  0.00000000000E+00  0.00000000000E+00  0.21415499630E+04  0.23655902385E+04  0.10048785660E+04 0.  0.
        4    1    3    3  502    0  0.21623386558E+03 -0.44077159061E+03  0.81934878545E+03  0.95518099062E+03  0.12699999809E+01 0. -1.
       -4    1    3    3    0  502 -0.21623386558E+03  0.44077159061E+03  0.13222011776E+04  0.14104092479E+04  0.12699999809E+01 0.  1.
</event>
<event>
 5   0  0.1598986E-02  0.1030169E+04  0.7818609E-02  0.9276061E-01
        2   -1    0    0  501    0  0.00000000000E+00  0.00000000000E+00  0.25316773339E+04  0.25316773339E+04  0.25500000920E-02 0.  1.
       -2   -1    0    0    0  501  0.00000000000E+00  0.00000000000E+00 -0.10479688758E+03  0.10479688761E+03  0.25500000920E-02 0. -1.
    10030    2    1    2    0    0  0.00000000000E+00  0.00000000000E+00  0.24268804463E+04  0.26364742215E+04  0.10301687337E+04 0.  0.
        3    1    3    3  502    0 -0.27180963643E+03  0.22846165005E+03  0.25846520408E+03  0.43918045940E+03  0.10100000352E+00 0. -1.
       -3    1    3    3    0  502  0.27180963643E+03 -0.22846165005E+03  0.21684152422E+04  0.21972937621E+04  0.10100000352E+00 0.  1.
</event>
<event>
 5   0  0.9507815E-03  0.1014768E+04  0.7818609E-02  0.9292495E-01
       -1   -1    0    0    0  501  0.00000000000E+00  0.00000000000E+00  0.23692654694E+03  0.23692654699E+03  0.50400001928E-02 0.  1.
        1   -1    0    0  501    0  0.00000000000E+00  0.00000000000E+00 -0.10865744443E+04  0.10865744443E+04  0.50400001928E-02 0. -1.
    10030    2    1    2    0    0  0.00000000000E+00  0.00000000000E+00 -0.84964789733E+03  0.13235009913E+04  0.10147676209E+04 0.  0.
        1    1    3    3  502    0 -0.31594545552E+03 -0.82540704295E+02 -0.93130576589E+03  0.98689661482E+03  0.50400001928E-02 0. -1.
       -1    1    3    3    0  502  0.31594545552E+03  0.82540704295E+02  0.81657868557E+02  0.33660437646E+03  0.50400001928E-02 0.  1.
</event>
<event>
 5   0  0.1571895E-02  0.1058019E+04  0.7818609E-02  0.9247104E-01
       -2   -1    0    0    0  501  0.00000000000E+00  0.00000000000E+00  0.28121263133E+03  0.28121263134E+03  0.25500000920E-02 0. -1.
        2   -1    0    0  501    0  0.00000000000E+00  0.00000000000E+00 -0.99515758305E+03  0.99515758305E+03  0.25500000920E-02 0.  1.
    10030    2    1    2    0    0  0.00000000000E+00  0.00000000000E+00 -0.71394495172E+03  0.12763702144E+04  0.10580186814E+04 0.  0.
        2    1    3    3  502    0 -0.23518505230E+03  0.39836208033E+03 -0.47408967201E+02  0.46502899485E+03  0.25500000920E-02 0. -1.
       -2    1    3    3    0  502  0.23518505230E+03 -0.39836208033E+03 -0.66653598452E+03  0.81134121955E+03  0.25500000920E-02 0.  1.
</event>
<event>
 5   0  0.1663497E-02  0.9841328E+03  0.7818609E-02  0.9326121E-01
        2   -1    0    0  501    0  0.00000000000E+00  0.00000000000E+00  0.96815720089E+03  0.96815720090E+03  0.25500000920E-02 0. -1.
       -2   -1    0    0    0  501  0.00000000000E+00  0.00000000000E+00 -0.25009298686E+03  0.25009298687E+03  0.25500000920E-02 0.  1.
    10030    2    1    2    0    0  0.00000000000E+00  0.00000000000E+00  0.71806421403E+03  0.12182501878E+04  0.98413276773E+03 0.  0.
        1    1    3    3  502    0  0.22732603761E+03  0.21568785752E+03 -0.11060227681E+03  0.33231196626E+03  0.50400001928E-02 0.  1.
       -1    1    3    3    0  502 -0.22732603761E+03 -0.21568785752E+03  0.82866649085E+03  0.88593822151E+03  0.50400001928E-02 0. -1.
</event>
<event>
 5   0  0.9759443E-03  0.9681980E+03  0.7818609E-02  0.9344129E-01
       -1   -1    0    0    0  501  0.00000000000E+00  0.00000000000E+00  0.97619365421E+03  0.97619365423E+03  0.50400001928E-02 0.  1.
        1   -1    0    0  501    0  0.00000000000E+00  0.00000000000E+00 -0.24006693804E+03  0.24006693809E+03  0.50400001928E-02 0. -1.
    10030    2    1    2    0    0  0.00000000000E+00  0.00000000000E+00  0.73612671618E+03  0.12162605923E+04  0.96819795814E+03 0.  0.
        2    1    3    3  502    0 -0.41761380101E+02  0.13826423646E+03 -0.21236960086E+03  0.25683040966E+03  0.25500000920E-02 0. -1.
       -2    1    3    3    0  502  0.41761380101E+02 -0.13826423646E+03  0.94849631704E+03  0.95943018265E+03  0.25500000920E-02 0.  1.
</event>
<event>
 5   0  0.9759443E-03  0.9745130E+03  0.7818609E-02  0.9336949E-01
       -1   -1    0    0    0  501  0.00000000000E+00  0.00000000000E+00  0.35604256789E+03  0.35604256792E+03  0.50400001928E-02 0.  1.
        1   -1    0    0  501    0  0.00000000000E+00  0.00000000000E+00 -0.66682730766E+03  0.66682730768E+03  0.50400001928E-02 0. -1.
    10030    2    1    2    0    0  0.00000000000E+00  0.00000000000E+00 -0.31078473977E+03  0.10228698756E+04  0.97451302091E+03 0.  0.
        2    1    3    3  502    0  0.45641906961E+03  0.14579242374E+03 -0.62424638223E+02  0.48318798970E+03  0.25500000920E-02 0.  1.
       -2    1    3    3    0  502 -0.45641906961E+03 -0.14579242374E+03 -0.24836010155E+03  0.53968188590E+03  0.25500000920E-02 0. -1.
</event>
<event>
 5   0  0.1656859E-02  0.9739851E+03  0.7818609E-02  0.9337547E-01
       -2   -1    0    0    0  501  0.00000000000E+00  0.00000000000E+00  0.22540815262E+03  0.22540815263E+03  0.25500000920E-02 0. -1.
        2   -1    0    0  501    0  0.00000000000E+00  0.00000000000E+00 -0.10521436508E+04  0.10521436508E+04  0.25500000920E-02 0.  1.
    10030    2    1    2    0    0  0.00000000000E+00  0.00000000000E+00 -0.82673549819E+03  0.12775518034E+04  0.97398512644E+03 0.  0.
        4    1    3    3  502    0 -0.12371765544E+03 -0.25611197561E+03  0.10513508526E+03  0.30323984133E+03  0.12699999809E+01 0. -1.
       -4    1    3    3    0  502  0.12371765544E+03  0.25611197561E+03 -0.93187058345E+03  0.97431196211E+03  0.12699999809E+01 0.  1.
</event>
<event>
 5   0  0.1656859E-02  0.9935624E+03  0.7818609E-02  0.9315634E-01
        2   -1    0    0  501    0  0.00000000000E+00  0.00000000000E+00  0.81586468634E+03  0.81586468635E+03  0.25500000920E-02 0.  1.
       -2   -1    0    0    0  501  0.00000000000E+00  0.00000000000E+00 -0.30249077712E+03  0.30249077713E+03  0.25500000920E-02 0. -1.
    10030    2    1    2    0    0  0.00000000000E+00  0.00000000000E+00  0.51337390922E+03  0.11183554635E+04  0.99356236443E+03 0.  0.
        4    1    3    3  502    0  0.14984255724E+02 -0.47577523664E+03  0.41667818247E+03  0.63262067968E+03  0.12699999809E+01 0.  1.
       -4    1    3    3    0  502 -0.14984255724E+02  0.47577523664E+03  0.96695726753E+02  0.48573478379E+03  0.12699999809E+01 0. -1.
</event>
<event>
 5   0  0.1656859E-02  0.1028597E+04  0.7818609E-02  0.9277725E-01
        2   -1    0    0  501    0  0.00000000000E+00  0.00000000000E+00  0.35096068989E+03  0.35096068990E+03  0.25500000920E-02 0.  1.
       -2   -1    0    0    0  501  0.00000000000E+00  0.00000000000E+00 -0.75365385564E+03  0.75365385564E+03  0.25500000920E-02 0. -1.
    10030    2    1    2    0    0  0.00000000000E+00  0.00000000000E+00 -0.40269316575E+03  0.11046145455E+04  0.10285968639E+04 0.  0.
        4    1    3    3  502    0  0.44591861135E+03  0.22888268963E+03 -0.32505816503E+03  0.59740699453E+03  0.12699999809E+01 0. -1.
       -4    1    3    3    0  502 -0.44591861135E+03 -0.22888268963E+03 -0.77635000719E+02  0.50720755101E+03  0.12699999809E+01 0.  1.
</event>
<event>
 5   0  0.1000773E-02  0.1026853E+04  0.7818609E-02  0.9279574E-01
       -1   -1    0    0    0  501  0.00000000000E+00  0.00000000000E+00  0.76018384915E+03  0.76018384917E+03  0.50400001928E-02 0.  1.
        1   -1    0    0  501    0  0.00000000000E+00  0.00000000000E+00 -0.34676695400E+03  0.34676695404E+03  0.50400001928E-02 0. -1.
    10030    2    1    2    0    0  0.00000000000E+00  0.00000000000E+00  0.41341689515E+03  0.11069508032E+04  0.10268527409E+04 0.  0.
        3    1    3    3  502    0 -0.41218557335E+03 -0.22321961966E+03  0.43253070028E+03  0.63781404999E+03  0.10100000352E+00 0.  1.
       -3    1    3    3    0  502  0.41218557335E+03  0.22321961966E+03 -0.19113805130E+02  0.46913675322E+03  0.10100000352E+00 0. -1.
</event>
<event>
 5   0  0.6314750E-03  0.9797820E+03  0.7818609E-02  0.9331002E-01
        3   -1    0    0  501    0  0.00000000000E+00  0.00000000000E+00  0.67954435626E+03  0.67954436376E+03  0.10100000352E+00 0. -1.
       -3   -1    0    0    0  501  0.00000000000E+00  0.00000000000E+00 -0.35316776965E+03  0.35316778409E+03  0.10100000352E+00 0.  1.
    10030    2    1    2    0    0  0.00000000000E+00  0.00000000000E+00  0.32637658661E+03  0.10327121479E+04  0.97978196760E+03 0.  0.
        3    1    3    3  502    0  0.19357790366E+03 -0.18934296724E+03  0.59349544439E+03  0.65234961236E+03  0.10100000352E+00 0. -1.
       -3    1    3    3    0  502 -0.19357790366E+03  0.18934296724E+03 -0.26711885778E+03  0.38036253550E+03  0.10100000352E+00 0.  1.
</event>
<event>
 5   0  0.9396660E-03  0.9908022E+03  0.7818609E-02  0.9318691E-01
        1   -1    0    0  501    0  0.00000000000E+00  0.00000000000E+00  0.97505737985E+03  0.97505737987E+03  0.50400001928E-02 0. -1.
       -1   -1    0    0    0  501  0.00000000000E+00  0.00000000000E+00 -0.25170031850E+03  0.25170031855E+03  0.50400001928E-02 0.  1.
    10030    2    1    2    0    0  0.00000000000E+00  0.00000000000E+00  0.72335706136E+03  0.12267576984E+04  0.99080220650E+03 0.  0.
        5    1    3    3  502    0  0.22648258385E+03  0.31321273591E+03  0.74531117118E+03  0.83958764319E+03  0.46999998093E+01 0. -1.
       -5    1    3    3    0  502 -0.22648258385E+03 -0.31321273591E+03 -0.21954109822E+02  0.38717005522E+03  0.46999998093E+01 0.  1.
</event>
<event>
 5   0  0.1571895E-02  0.1034340E+04  0.7818609E-02  0.9271663E-01
       -2   -1    0    0    0  501  0.00000000000E+00  0.00000000000E+00  0.14913645144E+03  0.14913645146E+03  0.25500000920E-02 0. -1.
        2   -1    0    0  501    0  0.00000000000E+00  0.00000000000E+00 -0.17934232767E+04  0.17934232767E+04  0.25500000920E-02 0.  1.
    10030    2    1    2    0    0  0.00000000000E+00  0.00000000000E+00 -0.16442868252E+04  0.19425597281E+04  0.10343399507E+04 0.  0.
        2    1    3    3  502    0  0.36363884776E+03 -0.63940293086E+02 -0.14202585319E+03  0.39559185490E+03  0.25500000920E-02 0. -1.
       -2    1    3    3    0  502 -0.36363884776E+03  0.63940293086E+02 -0.15022609720E+04  0.15469678732E+04  0.25500000920E-02 0.  1.
</event>
<event>
 5   0  0.9759443E-03  0.1004531E+04  0.7818609E-02  0.9303590E-01
        1   -1    0    0  501    0  0.00000000000E+00  0.00000000000E+00  0.31835067424E+03  0.31835067428E+03  0.50400001928E-02 0.  1.
       -1   -1    0    0    0  501  0.00000000000E+00  0.00000000000E+00 -0.79242930609E+03  0.79242930611E+03  0.50400001928E-02 0. -1.
    10030    2    1    2    0    0  0.00000000000E+00  0.00000000000E+00 -0.47407863185E+03  0.11107799804E+04  0.10045305449E+04 0.  0.
        2    1    3    3  502    0 -0.38656944797E+03  0.56832734502E+02 -0.58602241104E+03  0.70433526396E+03  0.25500000920E-02 0. -1.
       -2    1    3    3    0  502  0.38656944797E+03 -0.56832734502E+02  0.11194377919E+03  0.40644471644E+03  0.25500000920E-02 0.  1.
</event>
<event>
 5   0  0.9759443E-03  0.9817302E+03  0.7818609E-02  0.9328813E-01
        1   -1    0    0  501    0  0.00000000000E+00  0.00000000000E+00  0.50856305199E+03  0.50856305202E+03  0.50400001928E-02 0. -1.
       -1   -1    0    0    0  501  0.00000000000E+00  0.00000000000E+00 -0.47378306669E+03  0.47378306672E+03  0.50400001928E-02 0.  1.
    10030    2    1    2    0    0  0.00000000000E+00  0.00000000000E+00  0.34779985299E+02  0.98234611874E+03  0.98173023261E+03 0.  0.
        2    1    3    3  502    0 -0.27575421274E+03  0.58232968239E+02 -0.38475403163E+03  0.47693514161E+03  0.25500000920E-02 0.  1.
       -2    1    3    3    0  502  0.27575421274E+03 -0.58232968239E+02  0.41953401693E+03  0.50541097713E+03  0.25500000920E-02 0. -1.
</event>
<event>
 5   0  0.9507815E-03  0.9292382E+03  0.7818609E-02  0.9389753E-01
       -1   -1    0    0    0  501  0.00000000000E+00  0.00000000000E+00  0.23311316940E+03  0.23311316946E+03  0.50400001928E-02 0. -1.
        1   -1    0    0  501    0  0.00000000000E+00  0.00000000000E+00 -0.92603488828E+03  0.92603488830E+03  0.50400001928E-02 0.  1.
    10030    2    1    2    0    0  0.00000000000E+00  0.00000000000E+00 -0.69292171888E+03  0.11591480578E+04  0.92923824249E+03 0.  0.
        1    1    3    3  502    0  0.35254450688E+03  0.30165655365E+03 -0.37667366471E+03  0.59763480103E+03  0.50400001928E-02 0.  1.
       -1    1    3    3    0  502 -0.35254450688E+03 -0.30165655365E+03 -0.31624805418E+03  0.56151325673E+03  0.50400001928E-02 0. -1.
</event>
<event>
 5   0  0.1571895E-02  0.9732361E+03  0.7818609E-02  0.9338396E-01
       -2   -1    0    0    0  501  0.00000000000E+00  0.00000000000E+00  0.19349033232E+03  0.19349033234E+03  0.25500000920E-02 0. -1.
        2   -1    0    0  501    0  0.00000000000E+00  0.00000000000E+00 -0.12238189118E+04  0.12238189118E+04  0.25500000920E-02 0.  1.
    10030    2    1    2    0    0  0.00000000000E+00  0.00000000000E+00 -0.10303285795E+04  0.14173092441E+04  0.97323610281E+03 0.  0.
        2    1    3    3  502    0 -0.44472981176E+03  0.10811377685E+03 -0.27444104955E+03  0.53365820888E+03  0.25500000920E-02 0. -1.
       -2    1    3    3    0  502  0.44472981176E+03 -0.10811377685E+03 -0.75588752990E+03  0.88365103524E+03  0.25500000920E-02 0.  1.
</event>
<event>
 5   0  0.1656859E-02  0.1041053E+04  0.7818609E-02  0.9264631E-01
       -2   -1    0    0    0  501  0.00000000000E+00  0.00000000000E+00  0.27533091309E+03  0.27533091311E+03  0.25500000920E-02 0. -1.
        2   -1    0    0  501    0  0.00000000000E+00  0.00000000000E+00 -0.98407987232E+03  0.98407987233E+03  0.25500000920E-02 0.  1.
    10030    2    1    2    0    0  0.00000000000E+00  0.00000000000E+00 -0.70874895923E+03  0.12594107854E+04  0.10410525632E+04 0.  0.
        4    1    3    3  502    0  0.20968511810E+02  0.49167403309E+03 -0.14920556243E+03  0.51424405302E+03  0.12699999809E+01 0. -1.
       -4    1    3    3    0  502 -0.20968511810E+02 -0.49167403309E+03 -0.55954339680E+03  0.74516673242E+03  0.12699999809E+01 0.  1.
</event>
<event>
 5   0  0.9507815E-03  0.9981747E+03  0.7818609E-02  0.9310549E-01
       -1   -1    0    0    0  501  0.00000000000E+00  0.00000000000E+00  0.18198895155E+03  0.18198895162E+03  0.50400001928E-02 0.  1.
        1   -1    0    0  501    0  0.00000000000E+00  0.00000000000E+00 -0.13686995220E+04  0.13686995220E+04  0.50400001928E-02 0. -1.
    10030    2    1    2    0    0  0.00000000000E+00  0.00000000000E+00 -0.11867105704E+04  0.15506884736E+04  0.99817471627E+03 0.  0.
        1    1    3    3  502    0  0.41035183595E+03  0.27211406469E+03 -0.72007465216E+03  0.87232000905E+03  0.50400001928E-02 0. -1.
       -1    1    3    3    0  502 -0.41035183595E+03 -0.27211406469E+03 -0.46663591828E+03  0.67836846457E+03  0.50400001928E-02 0.  1.
</event>
<event>
 5   0  0.1663497E-02  0.9972209E+03  0.7818609E-02  0.9311598E-01
       -2   -1    0    0    0  501  0.00000000000E+00  0.00000000000E+00  0.14818197892E+03  0.14818197894E+03  0.25500000920E-02 0. -1.
        2   -1    0    0  501    0  0.00000000000E+00  0.00000000000E+00 -0.16777505357E+04  0.16777505357E+04  0.25500000920E-02 0.  1.
    10030    2    1    2    0    0  0.00000000000E+00  0.00000000000E+00 -0.15295685567E+04  0.18259325146E+04  0.99722092744E+03 0.  0.
        1    1    3    3  502    0  0.25884693822E+03  0.14382196206E+03 -0.14993088221E+04  0.15282713889E+04  0.50400001928E-02 0.  1.
       -1    1    3    3    0  502 -0.25884693822E+03 -0.14382196206E+03 -0.30259734692E+02  0.29766112572E+03  0.50400001928E-02 0. -1.
</event>
<event>
 5   0  0.9759443E-03  0.9886260E+03  0.7818609E-02  0.9321108E-01
       -1   -1    0    0    0  501  0.00000000000E+00  0.00000000000E+00  0.49952843343E+03  0.49952843346E+03  0.50400001928E-02 0. -1.
        1   -1    0    0  501    0  0.00000000000E+00  0.00000000000E+00 -0.48915203605E+03  0.48915203607E+03  0.50400001928E-02 0.  1.
    10030    2    1    2    0    0  0.00000000000E+00  0.00000000000E+00  0.10376397386E+02  0.98868046953E+03  0.98862601686E+03 0.  0.
        2    1    3    3  502    0 -0.22942410131E+03 -0.34306855162E+03  0.27725814262E+03  0.49719566272E+03  0.25500000920E-02 0. -1.
       -2    1    3    3    0  502  0.22942410131E+03  0.34306855162E+03 -0.26688174524E+03  0.49148480681E+03  0.25500000920E-02 0.  1.
</event>
<event>
 5   0  0.9471140E-03  0.9749331E+03  0.7818609E-02  0.9336473E-01
       -1   -1    0    0    0  501  0.00000000000E+00  0.00000000000E+00  0.16196404885E+03  0.16196404893E+03  0.50400001928E-02 0.  1.
        1   -1    0    0  501    0  0.00000000000E+00  0.00000000000E+00 -0.14671380488E+04  0.14671380488E+04  0.50400001928E-02 0. -1.
    10030    2    1    2    0    0  0.00000000000E+00  0.00000000000E+00 -0.13051739999E+04  0.16291020977E+04  0.97493306164E+03 0.  0.
        4    1    3    3  502    0  0.57088098654E+02 -0.20491161203E+03  0.80316679814E+02  0.22737678357E+03  0.12699999809E+01 0.  1.
       -4    1    3    3    0  502 -0.57088098654E+02  0.20491161203E+03 -0.13854906797E+04  0.14017253141E+04  0.12699999809E+01 0. -1.
</event>
<event>
 5   0  0.9507815E-03  0.9854176E+03  0.7818609E-02  0.9324685E-01
       -1   -1    0    0    0  501  0.00000000000E+00  0.00000000000E+00  0.12224566181E+03  0.12224566191E+03  0.50400001928E-02 0.  1.
        1   -1    0    0  501    0  0.00000000000E+00  0.00000000000E+00 -0.19858534726E+04  0.19858534726E+04  0.50400001928E-02 0. -1.
    10030    2    1    2    0    0  0.00000000000E+00  0.00000000000E+00 -0.18636078108E+04  0.21080991345E+04  0.98541762137E+03 0.  0.
        1    1    3    3  502    0  0.23382385264E+02  0.23281478836E+03 -0.41967713049E+01  0.23402366234E+03  0.50400001928E-02 0.  1.
       -1    1    3    3    0  502 -0.23382385264E+02 -0.23281478836E+03 -0.18594110395E+04  0.18740754722E+04  0.50400001928E-02 0. -1.
</event>
<event>
 5   0  0.9507815E-03  0.1004292E+04  0.7818609E-02  0.9303850E-01
       -1   -1    0    0    0  501  0.00000000000E+00  0.00000000000E+00  0.23886819122E+03  0.23886819127E+03  0.50400001928E-02 0. -1.
        1   -1    0    0  501    0  0.00000000000E+00  0.00000000000E+00 -0.10556049926E+04  0.10556049926E+04  0.50400001928E-02 0.  1.
    10030    2    1    2    0    0  0.00000000000E+00  0.00000000000E+00 -0.81673680141E+03  0.12944731839E+04  0.10042917012E+04 0.  0.
        1    1    3    3  502    0  0.13773115062E+03  0.10571032245E+03 -0.10156854246E+04  0.10304180821E+04  0.50400001928E-02 0.  1.
       -1    1    3    3    0  502 -0.13773115062E+03 -0.10571032245E+03  0.19894862317E+03  0.26405510184E+03  0.50400001928E-02 0. -1.
</event>
<event>
 5   0  0.9507815E-03  0.9968291E+03  0.7818609E-02  0.9312029E-01
       -1   -1    0    0    0  501  0.00000000000E+00  0.00000000000E+00  0.39067859188E+03  0.39067859192E+03  0.50400001928E-02 0. -1.
        1   -1    0    0  501    0  0.00000000000E+00  0.00000000000E+00 -0.63586042735E+03  0.63586042737E+03  0.50400001928E-02 0.  1.
    10030    2    1    2    0    0  0.00000000000E+00  0.00000000000E+00 -0.24518183546E+03  0.10265390193E+04  0.99682908548E+03 0.  0.
        1    1    3    3  502    0 -0.24868049112E+03  0.40955915876E+03 -0.26392708547E+03  0.54702668825E+03  0.50400001928E-02 0. -1.
       -1    1    3    3    0  502  0.24868049112E+03 -0.40955915876E+03  0.18745250008E+02  0.47951233103E+03  0.50400001928E-02 0.  1.
</event>
<event>
 5   0  0.9759443E-03  0.9982225E+03  0.7818609E-02  0.9310496E-01
        1   -1    0    0  501    0  0.00000000000E+00  0.00000000000E+00  0.63326658383E+03  0.63326658385E+03  0.50400001928E-02 0.  1.
       -1   -1    0    0    0  501  0.00000000000E+00  0.00000000000E+00 -0.39337627750E+03  0.39337627753E+03  0.50400001928E-02 0. -1.
    10030    2    1    2    0    0  0.00000000000E+00  0.00000000000E+00  0.23989030633E+03  0.10266428614E+04  0.99822252317E+03 0.  0.
        2    1    3    3  502    0 -0.37533521930E+03 -0.25318071947E+03 -0.96119551321E+02  0.46283471316E+03  0.25500000920E-02 0. -1.
       -2    1    3    3    0  502  0.37533521930E+03  0.25318071947E+03  0.33600985765E+03  0.56380814822E+03  0.25500000920E-02 0.  1.
</event>
<event>
 5   0  0.9471140E-03  0.9782485E+03  0.7818609E-02  0.9332728E-01
        1   -1    0    0  501    0  0.00000000000E+00  0.00000000000E+00  0.94396595633E+03  0.94396595634E+03  0.50400001928E-02 0.  1.
       -1   -1    0    0    0  501  0.00000000000E+00  0.00000000000E+00 -0.25344402991E+03  0.25344402996E+03  0.50400001928E-02 0. -1.
    10030    2    1    2    0    0  0.00000000000E+00  0.00000000000E+00  0.69052192642E+03  0.11974099863E+04  0.97824850852E+03 0.  0.
        4    1    3    3  502    0 -0.39503605229E+03 -0.52056249912E+02  0.69250208908E+03  0.79895187092E+03  0.12699999809E+01 0.  1.
       -4    1    3    3    0  502  0.39503605229E+03  0.52056249912E+02 -0.19801626632E+01  0.39845811538E+03  0.12699999809E+01 0. -1.
</event>
<event>
 5   0  0.1571895E-02  0.9814588E+03  0.7818609E-02  0.9329118E-01
        2   -1    0    0  501    0  0.00000000000E+00  0.00000000000E+00  0.64238465400E+03  0.64238465400E+03  0.25500000920E-02 0. -1.
       -2   -1    0    0    0  501  0.00000000000E+00  0.00000000000E+00 -0.37487716187E+03  0.37487716188E+03  0.25500000920E-02 0.  1.
    10030    2    1    2    0    0  0.00000000000E+00  0.00000000000E+00  0.26750749213E+03  0.10172618159E+04  0.98145878350E+03 0.  0.
        2    1    3    3  502    0 -0.69695571923E+02  0.24668163383E+02  0.63657910683E+03  0.64085797981E+03  0.25500000920E-02 0. -1.
       -2    1    3    3    0  502  0.69695571923E+02 -0.24668163383E+02 -0.36907161470E+03  0.37640383607E+03  0.25500000920E-02 0.  1.
</event>
<event>
 5   0  0.9759443E-03  0.1000722E+04  0.7818609E-02  0.9307753E-01
       -1   -1    0    0    0  501  0.00000000000E+00  0.00000000000E+00  0.35202940974E+03  0.35202940978E+03  0.50400001928E-02 0. -1.
        1   -1    0    0  501    0  0.00000000000E+00  0.00000000000E+00 -0.71119357750E+03  0.71119357752E+03  0.50400001928E-02 0.  1.
    10030    2    1    2    0    0  0.00000000000E+00  0.00000000000E+00 -0.35916416776E+03  0.10632229873E+04  0.10007218501E+04 0.  0.
        2    1    3    3  502    0 -0.29908834307E+03  0.40052170707E+03 -0.15607368551E+03  0.52367019212E+03  0.25500000920E-02 0. -1.
       -2    1    3    3    0  502  0.29908834307E+03 -0.40052170707E+03 -0.20309048225E+03  0.53955279518E+03  0.25500000920E-02 0.  1.
</event>
<event>
 5   0  0.9396660E-03  0.9932375E+03  0.7818609E-02  0.9315993E-01
        1   -1    0    0  501    0  0.00000000000E+00  0.00000000000E+00  0.15132280938E+04  0.15132280938E+04  0.50400001928E-02 0. -1.
       -1   -1    0    0    0  501  0.00000000000E+00  0.00000000000E+00 -0.16298283089E+03  0.16298283096E+03  0.50400001928E-02 0.  1.
    10030    2    1    2    0    0  0.00000000000E+00  0.00000000000E+00  0.13502452629E+04  0.16762109247E+04  0.99323753166E+03 0.  0.
        5    1    3    3  502    0 -0.32819428515E+03  0.23484378914E+02  0.13028303104E+04  0.13437454791E+04  0.46999998093E+01 0. -1.
       -5    1    3    3    0  502  0.32819428515E+03 -0.23484378914E+02  0.47414952517E+02  0.33246544569E+03  0.46999998093E+01 0.  1.
</event>
<event>
 5   0  0.1663497E-02  0.9822095E+03  0.7818609E-02  0.9328275E-01
       -2   -1    0    0    0  501  0.00000000000E+00  0.00000000000E+00  0.12941102895E+03  0.12941102897E+03  0.25500000920E-02 0.  1.
        2   -1    0    0  501    0  0.00000000000E+00  0.00000000000E+00 -0.18637042629E+04  0.18637042630E+04  0.25500000920E-02 0. -1.
    10030    2    1    2    0    0  0.00000000000E+00  0.00000000000E+00 -0.17342932340E+04  0.19931152919E+04  0.98220952214E+03 0.  0.
        1    1    3    3  502    0 -0.22912094182E+03 -0.20912731733E+03 -0.16397244674E+04  0.16688100461E+04  0.50400001928E-02 0. -1.
       -1    1    3    3    0  502  0.22912094182E+03  0.20912731733E+03 -0.94568766580E+02  0.32430524583E+03  0.50400001928E-02 0.  1.
</event>
<event>
 5   0  0.1663497E-02  0.9954715E+03  0.7818609E-02  0.9313526E-01
        2   -1    0    0  501    0  0.00000000000E+00  0.00000000000E+00  0.64974466949E+03  0.64974466950E+03  0.25500000920E-02 0. -1.
       -2   -1    0    0    0  501  0.00000000000E+00  0.00000000000E+00 -0.38128955808E+03  0.38128955809E+03  0.25500000920E-02 0.  1.
    10030    2    1    2    0    0  0.00000000000E+00  0.00000000000E+00  0.26845511141E+03  0.10310342276E+04  0.99547146198E+03 0.  0.
        1    1    3    3  502    0  0.31225902759E+03  0.71502267618E+02  0.52878638742E+03  0.61825020673E+03  0.50400001928E-02 0. -1.
       -1    1    3    3    0  502 -0.31225902759E+03 -0.71502267618E+02 -0.26033127601E+03  0.41278402086E+03  0.50400001928E-02 0.  1.
</event>
<event>
 5   0  0.1571895E-02  0.9602194E+03  0.7818609E-02  0.9353285E-01
        2   -1    0    0  501    0  0.00000000000E+00  0.00000000000E+00  0.14845886500E+04  0.14845886500E+04  0.25500000920E-02 0.  1.
       -2   -1    0    0    0  501  0.00000000000E+00  0.00000000000E+00 -0.15526545333E+03  0.15526545335E+03  0.25500000920E-02 0. -1.
    10030    2    1    2    0    0  0.00000000000E+00  0.00000000000E+00  0.13293231967E+04  0.16398541034E+04  0.96021941195E+03 0.  0.
        2    1    3    3  502    0  0.80119812291E+02 -0.51768170657E+02 -0.13891932903E+03  0.16851619447E+03  0.25500000920E-02 0. -1.
       -2    1    3    3    0  502 -0.80119812291E+02  0.51768170657E+02  0.14682425257E+04  0.14713379089E+04  0.25500000920E-02 0.  1.
</event>
<event>
 5   0  0.1617721E-02  0.9915726E+03  0.7818609E-02  0.9317836E-01
       -2   -1    0    0    0  501  0.00000000000E+00  0.00000000000E+00  0.20860716173E+03  0.20860716174E+03  0.25500000920E-02 0.  1.
        2   -1    0    0  501    0  0.00000000000E+00  0.00000000000E+00 -0.11783106781E+04  0.11783106781E+04  0.25500000920E-02 0. -1.
    10030    2    1    2    0    0  0.00000000000E+00  0.00000000000E+00 -0.96970351640E+03  0.13869178399E+04  0.99157258173E+03 0.  0.
        5    1    3    3  502    0  0.18133472259E+03 -0.42326591706E+02 -0.11275079686E+04  0.11427905019E+04  0.46999998093E+01 0. -1.
       -5    1    3    3    0  502 -0.18133472259E+03  0.42326591706E+02  0.15780445224E+03  0.24412733793E+03  0.46999998093E+01 0.  1.
</event>
<event>
 5   0  0.9471140E-03  0.1012249E+04  0.7818609E-02  0.9295211E-01
       -1   -1    0    0    0  501  0.00000000000E+00  0.00000000000E+00  0.25377144299E+03  0.25377144304E+03  0.50400001928E-02 0.  1.
        1   -1    0    0  501    0  0.00000000000E+00  0.00000000000E+00 -0.10094202982E+04  0.10094202982E+04  0.50400001928E-02 0. -1.
    10030    2    1    2    0    0  0.00000000000E+00  0.00000000000E+00 -0.75564885521E+03  0.12631917413E+04  0.10122490715E+04 0.  0.
        4    1    3    3  502    0 -0.33299177486E+03  0.24237413795E+03 -0.74491182782E+03  0.85118974912E+03  0.12699999809E+01 0. -1.
       -4    1    3    3    0  502  0.33299177486E+03 -0.24237413795E+03 -0.10737027387E+02  0.41200199214E+03  0.12699999809E+01 0.  1.
</event>
<event>
 5   0  0.1663497E-02  0.1172081E+04  0.7818609E-02  0.9137651E-01
       -2   -1    0    0    0  501  0.00000000000E+00  0.00000000000E+00  0.45503537267E+03  0.45503537267E+03  0.25500000920E-02 0.  1.
        2   -1    0    0  501    0  0.00000000000E+00  0.00000000000E+00 -0.75476235930E+03  0.75476235930E+03  0.25500000920E-02 0. -1.
    10030    2    1    2    0    0  0.00000000000E+00  0.00000000000E+00 -0.29972698663E+03  0.12097977320E+04  0.11720811771E+04 0.  0.
        1    1    3    3  502    0 -0.10590779223E+03 -0.82804137649E+02  0.43890453561E+03  0.45903178220E+03  0.50400001928E-02 0.  1.
       -1    1    3    3    0  502  0.10590779223E+03  0.82804137649E+02 -0.73863152224E+03  0.75076594978E+03  0.50400001928E-02 0. -1.
</event>
<event>
 5   0  0.9507815E-03  0.9892621E+03  0.7818609E-02  0.9320401E-01
        1   -1    0    0  501    0  0.00000000000E+00  0.00000000000E+00  0.10375239545E+04  0.10375239545E+04  0.50400001928E-02 0.  1.
       -1   -1    0    0    0  501  0.00000000000E+00  0.00000000000E+00 -0.23581130214E+03  0.23581130220E+03  0.50400001928E-02 0. -1.
    10030    2    1    2    0    0  0.00000000000E+00  0.00000000000E+00  0.80171265235E+03  0.12733352567E+04  0.98926209824E+03 0.  0.
        1    1    3    3  502    0 -0.24465588035E+03  0.42976033881E+03  0.41432087795E+03  0.64514512982E+03  0.50400001928E-02 0. -1.
       -1    1    3    3    0  502  0.24465588035E+03 -0.42976033881E+03  0.38739177440E+03  0.62819012688E+03  0.50400001928E-02 0.  1.
</event>
<event>
 5   0  0.6314750E-03  0.5759813E+03  0.7818609E-02  0.9956529E-01
       -4   -1    0    0    0  501  0.00000000000E+00  0.00000000000E+00  0.22696626834E+03  0.22696982148E+03  0.12699999809E+01 0.  1.
        4   -1    0    0  501    0  0.00000000000E+00  0.00000000000E+00 -0.36541515767E+03  0.36541736461E+03  0.12699999809E+01 0. -1.
    10030    2    1    2    0    0  0.00000000000E+00  0.00000000000E+00 -0.13844888934E+03  0.59238718609E+03  0.57598132199E+03 0.  0.
        3    1    3    3  502    0  0.25216666987E+03  0.11249695185E+03  0.14929232786E+02  0.27652574159E+03  0.10100000352E+00 0.  1.
       -3    1    3    3    0  502 -0.25216666987E+03 -0.11249695185E+03 -0.15337812212E+03  0.31586144450E+03  0.10100000352E+00 0. -1.
</event>
<event>
 5   0  0.9507815E-03  0.1004305E+04  0.7818609E-02  0.9303836E-01
        1   -1    0    0  501    0  0.00000000000E+00  0.00000000000E+00  0.76346109018E+03  0.76346109019E+03  0.50400001928E-02 0. -1.
       -1   -1    0    0    0  501  0.00000000000E+00  0.00000000000E+00 -0.33028131609E+03  0.33028131613E+03  0.50400001928E-02 0.  1.
    10030    2    1    2    0    0  0.00000000000E+00  0.00000000000E+00  0.43317977408E+03  0.10937424063E+04  0.10043046026E+04 0.  0.
        1    1    3    3  502    0  0.85983802502E+02 -0.30006493702E+03 -0.21179041898E+03  0.37720997113E+03  0.50400001928E-02 0.  1.
       -1    1    3    3    0  502 -0.85983802502E+02  0.30006493702E+03  0.64497019306E+03  0.71653243520E+03  0.50400001928E-02 0. -1.
</event>
<event>
 5   0  0.9396660E-03  0.9602053E+03  0.7818609E-02  0.9353301E-01
        1   -1    0    0  501    0  0.00000000000E+00  0.00000000000E+00  0.79708780887E+03  0.79708780889E+03  0.50400001928E-02 0. -1.
       -1   -1    0    0    0  501  0.00000000000E+00  0.00000000000E+00 -0.28917586976E+03  0.28917586980E+03  0.50400001928E-02 0.  1.
    10030    2    1    2    0    0  0.00000000000E+00  0.00000000000E+00  0.50791193911E+03  0.10862636787E+04  0.96020531229E+03 0.  0.
        5    1    3    3  502    0  0.30368745840E+03 -0.29224678722E+03  0.51400884147E+03  0.66472658750E+03  0.46999998093E+01 0. -1.
       -5    1    3    3    0  502 -0.30368745840E+03  0.29224678722E+03 -0.60969023527E+01  0.42153709119E+03  0.46999998093E+01 0.  1.
</event>
<event>
 5   0  0.6314750E-03  0.1058871E+04  0.7818609E-02  0.9246232E-01
       -4   -1    0    0    0  501  0.00000000000E+00  0.00000000000E+00  0.99700277283E+03  0.99700358171E+03  0.12699999809E+01 0.  1.
        4   -1    0    0  501    0  0.00000000000E+00  0.00000000000E+00 -0.28114247409E+03  0.28114534255E+03  0.12699999809E+01 0. -1.
    10030    2    1    2    0    0  0.00000000000E+00  0.00000000000E+00  0.71586029874E+03  0.12781489243E+04  0.10588714300E+04 0.  0.
        5    1    3    3  502    0 -0.40458427977E+03 -0.13701996612E+03 -0.19594913055E+02  0.42763180561E+03  0.46999998093E+01 0.  1.
       -5    1    3    3    0  502  0.40458427977E+03  0.13701996612E+03  0.73545521180E+03  0.85051711865E+03  0.46999998093E+01 0. -1.
</event>
<event>
 5   0  0.1663497E-02  0.1104911E+04  0.7818609E-02  0.9200418E-01
       -2   -1    0    0    0  501  0.00000000000E+00  0.00000000000E+00  0.18788591079E+03  0.18788591080E+03  0.25500000920E-02 0. -1.
        2   -1    0    0  501    0  0.00000000000E+00  0.00000000000E+00 -0.16244277073E+04  0.16244277073E+04  0.25500000920E-02 0.  1.
    10030    2    1    2    0    0  0.00000000000E+00  0.00000000000E+00 -0.14365417965E+04  0.18123136181E+04  0.11049109997E+04 0.  0.
        1    1    3    3  502    0 -0.12632713559E+03 -0.47683067752E+03 -0.31024770020E+03  0.58273465293E+03  0.50400001928E-02 0. -1.
       -1    1    3    3    0  502  0.12632713559E+03  0.47683067752E+03 -0.11262940963E+04  0.12295789652E+04  0.50400001928E-02 0.  1.
</event>
<event>
 5   0  0.1598986E-02  0.1005078E+04  0.7818609E-02  0.9302992E-01
        2   -1    0    0  501    0  0.00000000000E+00  0.00000000000E+00  0.17856860705E+04  0.17856860705E+04  0.25500000920E-02 0. -1.
       -2   -1    0    0    0  501  0.00000000000E+00  0.00000000000E+00 -0.14142781754E+03  0.14142781756E+03  0.25500000920E-02 0.  1.
    10030    2    1    2    0    0  0.00000000000E+00  0.00000000000E+00  0.16442582530E+04  0.19271138881E+04  0.10050784721E+04 0.  0.
        3    1    3    3  502    0  0.88703522158E+02  0.48642275922E+03  0.64988234267E+03  0.81659199423E+03  0.10100000352E+00 0. -1.
       -3    1    3    3    0  502 -0.88703522158E+02 -0.48642275922E+03  0.99437591034E+03  0.11105218939E+04  0.10100000352E+00 0.  1.
</event>
<event>
 5   0  0.9507815E-03  0.1006568E+04  0.7818609E-02  0.9301370E-01
       -1   -1    0    0    0  501  0.00000000000E+00  0.00000000000E+00  0.57846114449E+03  0.57846114451E+03  0.50400001928E-02 0.  1.
        1   -1    0    0  501    0  0.00000000000E+00  0.00000000000E+00 -0.43787691297E+03  0.43787691300E+03  0.50400001928E-02 0. -1.
    10030    2    1    2    0    0  0.00000000000E+00  0.00000000000E+00  0.14058423152E+03  0.10163380575E+04  0.10065679912E+04 0.  0.
        1    1    3    3  502    0 -0.12232850181E+03  0.84859819463E+02 -0.41513340114E+03  0.44102289293E+03  0.50400001928E-02 0. -1.
       -1    1    3    3    0  502  0.12232850181E+03 -0.84859819463E+02  0.55571763266E+03  0.57531516458E+03  0.50400001928E-02 0.  1.
</event>
<event>
 5   0  0.9759443E-03  0.1004606E+04  0.7818609E-02  0.9303507E-01
        1   -1    0    0  501    0  0.00000000000E+00  0.00000000000E+00  0.99579408115E+03  0.99579408116E+03  0.50400001928E-02 0. -1.
       -1   -1    0    0    0  501  0.00000000000E+00  0.00000000000E+00 -0.25337409696E+03  0.25337409701E+03  0.50400001928E-02 0.  1.
    10030    2    1    2    0    0  0.00000000000E+00  0.00000000000E+00  0.74241998419E+03  0.12491681782E+04  0.10046062435E+04 0.  0.
        2    1    3    3  502    0 -0.14778101780E+03 -0.35099889667E+03 -0.36040949893E+02  0.38254203006E+03  0.25500000920E-02 0.  1.
       -2    1    3    3    0  502  0.14778101780E+03  0.35099889667E+03  0.77846093408E+03  0.86662614811E+03  0.25500000920E-02 0. -1.
</event>
<event>
 5   0  0.6314750E-03  0.9705456E+03  0.7818609E-02  0.9341453E-01
        3   -1    0    0  501    0  0.00000000000E+00  0.00000000000E+00  0.10199330334E+04  0.10199330384E+04  0.10100000352E+00 0.  1.
       -3   -1    0    0    0  501  0.00000000000E+00  0.00000000000E+00 -0.23088738832E+03  0.23088741041E+03  0.10100000352E+00 0. -1.
    10030    2    1    2    0    0  0.00000000000E+00  0.00000000000E+00  0.78904564509E+03  0.12508204488E+04  0.97054560179E+03 0.  0.
        1    1    3    3  502    0 -0.37691227385E+03  0.10295334543E+03  0.23614874173E+02  0.39143315627E+03  0.50400001928E-02 0. -1.
       -1    1    3    3    0  502  0.37691227385E+03 -0.10295334543E+03  0.76543077092E+03  0.85938729256E+03  0.50400001928E-02 0.  1.
</event>
<event>
 5   0  0.9471140E-03  0.9990953E+03  0.7818609E-02  0.9309538E-01
        1   -1    0    0  501    0  0.00000000000E+00  0.00000000000E+00  0.69277943279E+03  0.69277943281E+03  0.50400001928E-02 0.  1.
       -1   -1    0    0    0  501  0.00000000000E+00  0.00000000000E+00 -0.36021252933E+03  0.36021252937E+03  0.50400001928E-02 0. -1.
    10030    2    1    2    0    0  0.00000000000E+00  0.00000000000E+00  0.33256690346E+03  0.10529919622E+04  0.99909525428E+03 0.  0.
        4    1    3    3  502    0 -0.31396201664E+03 -0.10766508802E+03  0.55976282689E+03  0.65076874106E+03  0.12699999809E+01 0.  1.
       -4    1    3    3    0  502  0.31396201664E+03  0.10766508802E+03 -0.22719592344E+03  0.40222322111E+03  0.12699999809E+01 0. -1.
</event>
<event>
 5   0  0.9759443E-03  0.1069472E+04  0.7818609E-02  0.9235468E-01
       -1   -1    0    0    0  501  0.00000000000E+00  0.00000000000E+00  0.68748731357E+03  0.68748731359E+03  0.50400001928E-02 0.  1.
        1   -1    0    0  501    0  0.00000000000E+00  0.00000000000E+00 -0.41592435026E+03  0.41592435030E+03  0.50400001928E-02 0. -1.
    10030    2    1    2    0    0  0.00000000000E+00  0.00000000000E+00  0.27156296330E+03  0.11034116639E+04  0.10694722329E+04 0.  0.
        2    1    3    3  502    0 -0.20424589652E+03 -0.36463867273E+03 -0.20836812506E+03  0.46700644904E+03  0.25500000920E-02 0. -1.
       -2    1    3    3    0  502  0.20424589652E+03  0.36463867273E+03  0.47993108836E+03  0.63640521484E+03  0.25500000920E-02 0.  1.
</event>
<event>
 5   0  0.1000773E-02  0.1015339E+04  0.7818609E-02  0.9291880E-01
        1   -1    0    0  501    0  0.00000000000E+00  0.00000000000E+00  0.36917978125E+03  0.36917978129E+03  0.50400001928E-02 0.  1.
       -1   -1    0    0    0  501  0.00000000000E+00  0.00000000000E+00 -0.69810993721E+03  0.69810993723E+03  0.50400001928E-02 0. -1.
    10030    2    1    2    0    0  0.00000000000E+00  0.00000000000E+00 -0.32893015595E+03  0.10672897185E+04  0.10153385129E+04 0.  0.
        3    1    3    3  502    0  0.49270443143E+03  0.85851258385E+02 -0.72826707114E+02  0.50540264620E+03  0.10100000352E+00 0. -1.
       -3    1    3    3    0  502 -0.49270443143E+03 -0.85851258385E+02 -0.25610344884E+03  0.56188707231E+03  0.10100000352E+00 0.  1.
</event>
<event>
 5   0  0.1663497E-02  0.1034654E+04  0.7818609E-02  0.9271333E-01
        2   -1    0    0  501    0  0.00000000000E+00  0.00000000000E+00  0.80719585229E+03  0.80719585229E+03  0.25500000920E-02 0. -1.
       -2   -1    0    0    0  501  0.00000000000E+00  0.00000000000E+00 -0.33155167504E+03  0.33155167505E+03  0.25500000920E-02 0.  1.
    10030    2    1    2    0    0  0.00000000000E+00  0.00000000000E+00  0.47564417724E+03  0.11387475273E+04  0.10346538299E+04 0.  0.
        1    1    3    3  502    0 -0.75101428567E+02 -0.51169466036E+03  0.22409813471E+03  0.56364139666E+03  0.50400001928E-02 0.  1.
       -1    1    3    3    0  502  0.75101428567E+02  0.51169466036E+03  0.25154604253E+03  0.57510613069E+03  0.50400001928E-02 0. -1.
</event>
<event>
 5   0  0.9396660E-03  0.9419710E+03  0.7818609E-02  0.9374585E-01
       -1   -1    0    0    0  501  0.00000000000E+00  0.00000000000E+00  0.35357968766E+03  0.35357968770E+03  0.50400001928E-02 0. -1.
        1   -1    0    0  501    0  0.00000000000E+00  0.00000000000E+00 -0.62737580398E+03  0.62737580400E+03  0.50400001928E-02 0.  1.
    10030    2    1    2    0    0  0.00000000000E+00  0.00000000000E+00 -0.27379611631E+03  0.98095549169E+03  0.94197099922E+03 0.  0.
        5    1    3    3  502    0 -0.39742934314E+03 -0.12233768499E+03 -0.36715664372E+03  0.55474560204E+03  0.46999998093E+01 0.  1.
       -5    1    3    3    0  502  0.39742934314E+03  0.12233768499E+03  0.93360527405E+02  0.42620988965E+03  0.46999998093E+01 0. -1.
</event>
<event>
 5   0  0.1571895E-02  0.1008794E+04  0.7818609E-02  0.9298951E-01
       -2   -1    0    0    0  501  0.00000000000E+00  0.00000000000E+00  0.25997455301E+03  0.25997455303E+03  0.25500000920E-02 0.  1.
        2   -1    0    0  501    0  0.00000000000E+00  0.00000000000E+00 -0.97862098591E+03  0.97862098591E+03  0.25500000920E-02 0. -1.
    10030    2    1    2    0    0  0.00000000000E+00  0.00000000000E+00 -0.71864643289E+03  0.12385955389E+04  0.10087944357E+04 0.  0.
        2    1    3    3  502    0 -0.34495870867E+02 -0.32179209651E+03 -0.83433408701E+03  0.89490417768E+03  0.25500000920E-02 0. -1.
       -2    1    3    3    0  502  0.34495870867E+02  0.32179209651E+03  0.11568765411E+03  0.34369136126E+03  0.25500000920E-02 0.  1.
</event>
<event>
 5   0  0.9759443E-03  0.9808848E+03  0.7818609E-02  0.9329762E-01
       -1   -1    0    0    0  501  0.00000000000E+00  0.00000000000E+00  0.55403267105E+03  0.55403267107E+03  0.50400001928E-02 0.  1.
        1   -1    0    0  501    0  0.00000000000E+00  0.00000000000E+00 -0.43415081650E+03  0.43415081653E+03  0.50400001928E-02 0. -1.
    10030    2    1    2    0    0  0.00000000000E+00  0.00000000000E+00  0.11988185455E+03  0.98818348760E+03  0.98088477719E+03 0.  0.
        2    1    3    3  502    0  0.20903173821E+03  0.41396589006E+03  0.22072708450E+03  0.51359757744E+03  0.25500000920E-02 0. -1.
       -2    1    3    3    0  502 -0.20903173821E+03 -0.41396589006E+03 -0.10084522995E+03  0.47458591016E+03  0.25500000920E-02 0.  1.
</event>
<event>
 5   0  0.1598986E-02  0.1017517E+04  0.7818609E-02  0.9289538E-01
       -2   -1    0    0    0  501  0.00000000000E+00  0.00000000000E+00  0.33633607606E+03  0.33633607607E+03  0.25500000920E-02 0.  1.
        2   -1    0    0  501    0  0.00000000000E+00  0.00000000000E+00 -0.76957335857E+03  0.76957335857E+03  0.25500000920E-02 0. -1.
    10030    2    1    2    0    0  0.00000000000E+00  0.00000000000E+00 -0.43323728251E+03  0.11059094346E+04  0.10175171422E+04 0.  0.
        3    1    3    3  502    0  0.69395772347E+02  0.28745282742E+03  0.23333838674E+03  0.37668516581E+03  0.10100000352E+00 0.  1.
       -3    1    3    3    0  502 -0.69395772347E+02 -0.28745282742E+03 -0.66657566925E+03  0.72922426883E+03  0.10100000352E+00 0. -1.
</event>
<event>
 5   0  0.9507815E-03  0.8904003E+03  0.7818609E-02  0.9437662E-01
        1   -1    0    0  501    0  0.00000000000E+00  0.00000000000E+00  0.93472610050E+03  0.93472610051E+03  0.50400001928E-02 0. -1.
       -1   -1    0    0    0  501  0.00000000000E+00  0.00000000000E+00 -0.21204411106E+03  0.21204411112E+03  0.50400001928E-02 0.  1.
    10030    2    1    2    0    0  0.00000000000E+00  0.00000000000E+00  0.72268198944E+03  0.11467702116E+04  0.89040028100E+03 0.  0.
        1    1    3    3  502    0 -0.28815820037E+03 -0.22072504095E+03  0.69333758031E+03  0.78260570688E+03  0.50400001928E-02 0.  1.
       -1    1    3    3    0  502  0.28815820037E+03  0.22072504095E+03  0.29344409126E+02  0.36416450474E+03  0.50400001928E-02 0. -1.
</event>
<event>
 5   0  0.1598986E-02  0.1002582E+04  0.7818609E-02  0.9305718E-01
       -2   -1    0    0    0  501  0.00000000000E+00  0.00000000000E+00  0.58406279633E+03  0.58406279634E+03  0.25500000920E-02 0. -1.
        2   -1    0    0  501    0  0.00000000000E+00  0.00000000000E+00 -0.43024934215E+03  0.43024934215E+03  0.25500000920E-02 0.  1.
    10030    2    1    2    0    0  0.00000000000E+00  0.00000000000E+00  0.15381345419E+03  0.10143121385E+04  0.10025819346E+04 0.  0.
        3    1    3    3  502    0 -0.12541689756E+03  0.39358587679E+03  0.36422486458E+03  0.55072588715E+03  0.10100000352E+00 0. -1.
       -3    1    3    3    0  502  0.12541689756E+03 -0.39358587679E+03 -0.21041141039E+03  0.46358625134E+03  0.10100000352E+00 0.  1.
</event>
<event>
 5   0  0.1000773E-02  0.1005030E+04  0.7818609E-02  0.9303045E-01
       -1   -1    0    0    0  501  0.00000000000E+00  0.00000000000E+00  0.38127425849E+03  0.38127425852E+03  0.50400001928E-02 0. -1.
        1   -1    0    0  501    0  0.00000000000E+00  0.00000000000E+00 -0.66230950298E+03  0.66230950300E+03  0.50400001928E-02 0.  1.
    10030    2    1    2    0    0  0.00000000000E+00  0.00000000000E+00 -0.28103524449E+03  0.10435837615E+04  0.10050304765E+04 0.  0.
        3    1    3    3  502    0 -0.40391266041E+03 -0.22834668693E+03 -0.34088055997E+03  0.57574926230E+03  0.10100000352E+00 0.  1.
       -3    1    3    3    0  502  0.40391266041E+03  0.22834668693E+03  0.59845315477E+02  0.46783449922E+03  0.10100000352E+00 0. -1.
</event>
<event>
 5   0  0.9396660E-03  0.1008838E+04  0.7818609E-02  0.9298905E-01
       -1   -1    0    0    0  501  0.00000000000E+00  0.00000000000E+00  0.20432748766E+03  0.20432748772E+03  0.50400001928E-02 0. -1.
        1   -1    0    0  501    0  0.00000000000E+00  0.00000000000E+00 -0.12452475171E+04  0.12452475171E+04  0.50400001928E-02 0.  1.
    10030    2    1    2    0    0  0.00000000000E+00  0.00000000000E+00 -0.10409200295E+04  0.14495750049E+04  0.10088375424E+04 0.  0.
        5    1    3    3  502    0  0.15404700316E+03  0.25002602854E+03 -0.11097067989E+04  0.11479175770E+04  0.46999998093E+01 0.  1.
       -5    1    3    3    0  502 -0.15404700316E+03 -0.25002602854E+03  0.68786769413E+02  0.30165742785E+03  0.46999998093E+01 0. -1.
</event>
<event>
 5   0  0.1000773E-02  0.1006460E+04  0.7818609E-02  0.9301488E-01
       -1   -1    0    0    0  501  0.00000000000E+00  0.00000000000E+00  0.22549666547E+03  0.22549666553E+03  0.50400001928E-02 0.  1.
        1   -1    0    0  501    0  0.00000000000E+00  0.00000000000E+00 -0.11230342774E+04  0.11230342774E+04  0.50400001928E-02 0. -1.
    10030    2    1    2    0    0  0.00000000000E+00  0.00000000000E+00 -0.89753761196E+03  0.13485309430E+04  0.10064601032E+04 0.  0.
        3    1    3    3  502    0  0.33928210027E+03  0.21380848735E+03 -0.85608659876E+03  0.94536272806E+03  0.10100000352E+00 0. -1.
       -3    1    3    3    0  502 -0.33928210027E+03 -0.21380848735E+03 -0.41451013200E+02  0.40316821492E+03  0.10100000352E+00 0.  1.
</event>
<event>
 5   0  0.1617721E-02  0.1026019E+04  0.7818609E-02  0.9280459E-01
       -2   -1    0    0    0  501  0.00000000000E+00  0.00000000000E+00  0.19286397993E+03  0.19286397995E+03  0.25500000920E-02 0. -1.
        2   -1    0    0  501    0  0.00000000000E+00  0.00000000000E+00 -0.13645834137E+04  0.13645834137E+04  0.25500000920E-02 0.  1.
    10030    2    1    2    0    0  0.00000000000E+00  0.00000000000E+00 -0.11717194338E+04  0.15574473937E+04  0.10260194699E+04 0.  0.
        5    1    3    3  502    0 -0.39971502854E+03  0.98566298443E+02 -0.12128364636E+03  0.42920767945E+03  0.46999998093E+01 0. -1.
       -5    1    3    3    0  502  0.39971502854E+03 -0.98566298443E+02 -0.10504357874E+04  0.11282397142E+04  0.46999998093E+01 0.  1.
</event>
<event>
 5   0  0.1663497E-02  0.1011107E+04  0.7818609E-02  0.9296446E-01
        2   -1    0    0  501    0  0.00000000000E+00  0.00000000000E+00  0.56724959026E+03  0.56724959026E+03  0.25500000920E-02 0. -1.
       -2   -1    0    0    0  501  0.00000000000E+00  0.00000000000E+00 -0.45056740731E+03  0.45056740732E+03  0.25500000920E-02 0.  1.
    10030    2    1    2    0    0  0.00000000000E+00  0.00000000000E+00  0.11668218295E+03  0.10178169976E+04  0.10111066753E+04 0.  0.
        1    1    3    3  502    0 -0.71102264558E+02 -0.32250459220E+03  0.44366001351E+03  0.55308132461E+03  0.50400001928E-02 0. -1.
       -1    1    3    3    0  502  0.71102264558E+02  0.32250459220E+03 -0.32697783057E+03  0.46473567297E+03  0.50400001928E-02 0.  1.
</event>
<event>
 5   0  0.1663497E-02  0.1007110E+04  0.7818609E-02  0.9300781E-01
        2   -1    0    0  501    0  0.00000000000E+00  0.00000000000E+00  0.27416960295E+03  0.27416960296E+03  0.25500000920E-02 0. -1.
       -2   -1    0    0    0  501  0.00000000000E+00  0.00000000000E+00 -0.92485642446E+03  0.92485642447E+03  0.25500000920E-02 0.  1.
    10030    2    1    2    0    0  0.00000000000E+00  0.00000000000E+00 -0.65068682152E+03  0.11990260274E+04  0.10071097630E+04 0.  0.
        1    1    3    3  502    0 -0.20300542882E+03 -0.41239469663E+03 -0.80518910731E+02  0.46665178126E+03  0.50400001928E-02 0. -1.
       -1    1    3    3    0  502  0.20300542882E+03  0.41239469663E+03 -0.57016791079E+03  0.73237424617E+03  0.50400001928E-02 0.  1.
</event>
<event>
 5   0  0.9759443E-03  0.9979805E+03  0.7818609E-02  0.9310763E-01
        1   -1    0    0  501    0  0.00000000000E+00  0.00000000000E+00  0.96892770133E+03  0.96892770134E+03  0.50400001928E-02 0. -1.
       -1   -1    0    0    0  501  0.00000000000E+00  0.00000000000E+00 -0.25697610295E+03  0.25697610300E+03  0.50400001928E-02 0.  1.
    10030    2    1    2    0    0  0.00000000000E+00  0.00000000000E+00  0.71195159838E+03  0.12259038043E+04  0.99798049033E+03 0.  0.
        2    1    3    3  502    0  0.33994519505E+02  0.14043628400E+03 -0.23071548074E+03  0.27222712995E+03  0.25500000920E-02 0.  1.
       -2    1    3    3    0  502 -0.33994519505E+02 -0.14043628400E+03  0.94266707912E+03  0.95367667439E+03  0.25500000920E-02 0. -1.
</event>
<event>
 5   0  0.6314750E-03  0.1000590E+04  0.7818609E-02  0.9307898E-01
        4   -1    0    0  501    0  0.00000000000E+00  0.00000000000E+00  0.42381121204E+03  0.42381311489E+03  0.12699999809E+01 0. -1.
       -4   -1    0    0    0  501  0.00000000000E+00  0.00000000000E+00 -0.59057742238E+03  0.59057878791E+03  0.12699999809E+01 0.  1.
    10030    2    1    2    0    0  0.00000000000E+00  0.00000000000E+00 -0.16676621034E+03  0.10143919028E+04  0.10005898078E+04 0.  0.
        4    1    3    3  502    0  0.43008688964E+02 -0.79057386615E+02  0.41553698805E+03  0.42517339879E+03  0.12699999809E+01 0. -1.
       -4    1    3    3    0  502 -0.43008688964E+02  0.79057386615E+02 -0.58230319839E+03  0.58921850400E+03  0.12699999809E+01 0.  1.
</event>
<event>
 5   0  0.1571895E-02  0.9940487E+03  0.7818609E-02  0.9315096E-01
        2   -1    0    0  501    0  0.00000000000E+00  0.00000000000E+00  0.70550213580E+03  0.70550213580E+03  0.25500000920E-02 0. -1.
       -2   -1    0    0    0  501  0.00000000000E+00  0.00000000000E+00 -0.35015228075E+03  0.35015228076E+03  0.25500000920E-02 0.  1.
    10030    2    1    2    0    0  0.00000000000E+00  0.00000000000E+00  0.35534985504E+03  0.10556544166E+04  0.99404865461E+03 0.  0.
        2    1    3    3  502    0  0.10247099856E+03  0.74097437345E+01 -0.33875270659E+03  0.35398955645E+03  0.25500000920E-02 0.  1.
       -2    1    3    3    0  502 -0.10247099856E+03 -0.74097437345E+01  0.69410256163E+03  0.70166486012E+03  0.25500000920E-02 0. -1.
</event>
<event>
 5   0  0.9396660E-03  0.9884430E+03  0.7818609E-02  0.9321312E-01
        1   -1    0    0  501    0  0.00000000000E+00  0.00000000000E+00  0.28196330418E+03  0.28196330423E+03  0.50400001928E-02 0. -1.
       -1   -1    0    0    0  501  0.00000000000E+00  0.00000000000E+00 -0.86626481247E+03  0.86626481249E+03  0.50400001928E-02 0.  1.
    10030    2    1    2    0    0  0.00000000000E+00  0.00000000000E+00 -0.58430150829E+03  0.11482281167E+04  0.98844299554E+03 0.  0.
        5    1    3    3  502    0  0.76028287155E+02 -0.47725989882E+03 -0.17212611609E+03  0.51303684206E+03  0.46999998093E+01 0. -1.
       -5    1    3    3    0  502 -0.76028287155E+02  0.47725989882E+03 -0.41217539220E+03  0.63519127466E+03  0.46999998093E+01 0.  1.
</event>
<event>
 5   0  0.9471140E-03  0.9501187E+03  0.7818609E-02  0.9365012E-01
       -1   -1    0    0    0  501  0.00000000000E+00  0.00000000000E+00  0.91963628436E+03  0.91963628437E+03  0.50400001928E-02 0.  1.
        1   -1    0    0  501    0  0.00000000000E+00  0.00000000000E+00 -0.24540285530E+03  0.24540285535E+03  0.50400001928E-02 0. -1.
    10030    2    1    2    0    0  0.00000000000E+00  0.00000000000E+00  0.67423342906E+03  0.11650391397E+04  0.95011866640E+03 0.  0.
        4    1    3    3  502    0 -0.19646784180E+03 -0.28277658557E+02 -0.19211563674E+03  0.27624132496E+03  0.12699999809E+01 0. -1.
       -4    1    3    3    0  502  0.19646784180E+03  0.28277658557E+02  0.86634906580E+03  0.88879781477E+03  0.12699999809E+01 0.  1.
</event>
<event>
 5   0  0.1000773E-02  0.9904103E+03  0.7818609E-02  0.9319126E-01
        1   -1    0    0  501    0  0.00000000000E+00  0.00000000000E+00  0.32987156409E+03  0.32987156413E+03  0.50400001928E-02 0. -1.
       -1   -1    0    0    0  501  0.00000000000E+00  0.00000000000E+00 -0.74340490936E+03  0.74340490938E+03  0.50400001928E-02 0.  1.
    10030    2    1    2    0    0  0.00000000000E+00  0.00000000000E+00 -0.41353334528E+03  0.10732764735E+04  0.99041029928E+03 0.  0.
        3    1    3    3  502    0  0.26413808922E+03  0.42024671384E+02 -0.65840186782E+03  0.71065324381E+03  0.10100000352E+00 0.  1.
       -3    1    3    3    0  502 -0.26413808922E+03 -0.42024671384E+02  0.24486852254E+03  0.36262322970E+03  0.10100000352E+00 0. -1.
</event>
<event>
 5   0  0.9396660E-03  0.9846989E+03  0.7818609E-02  0.9325488E-01
        1   -1    0    0  501    0  0.00000000000E+00  0.00000000000E+00  0.72928864282E+03  0.72928864283E+03  0.50400001928E-02 0. -1.
       -1   -1    0    0    0  501  0.00000000000E+00  0.00000000000E+00 -0.33238965730E+03  0.33238965734E+03  0.50400001928E-02 0.  1.
    10030    2    1    2    0    0  0.00000000000E+00  0.00000000000E+00  0.39689898552E+03  0.10616783002E+04  0.98469894300E+03 0.  0.
        5    1    3    3  502    0 -0.48616708246E+03 -0.56596927287E+02  0.14115110402E+03  0.50941865731E+03  0.46999998093E+01 0. -1.
       -5    1    3    3    0  502  0.48616708246E+03  0.56596927287E+02  0.25574788150E+03  0.55225964286E+03  0.46999998093E+01 0.  1.
</event>
<event>
 5   0  0.1571895E-02  0.5352117E+03  0.7818609E-02  0.1004976E+00
       -2   -1    0    0    0  501  0.00000000000E+00  0.00000000000E+00  0.13941725626E+03  0.13941725628E+03  0.25500000920E-02 0.  1.
        2   -1    0    0  501    0  0.00000000000E+00  0.00000000000E+00 -0.51365867498E+03  0.51365867498E+03  0.25500000920E-02 0. -1.
    10030    2    1    2    0    0  0.00000000000E+00  0.00000000000E+00 -0.37424141872E+03  0.65307593127E+03  0.53521167076E+03 0.  0.
        2    1    3    3  502    0  0.19168172388E+03 -0.18632289499E+03 -0.17193994501E+03  0.31783871564E+03  0.25500000920E-02 0. -1.
       -2    1    3    3    0  502 -0.19168172388E+03  0.18632289499E+03 -0.20230147371E+03  0.33523721562E+03  0.25500000920E-02 0.  1.
</event>
<event>
 5   0  0.1571895E-02  0.9484915E+03  0.7818609E-02  0.9366916E-01
        2   -1    0    0  501    0  0.00000000000E+00  0.00000000000E+00  0.97313919243E+03  0.97313919243E+03  0.25500000920E-02 0.  1.
       -2   -1    0    0    0  501  0.00000000000E+00  0.00000000000E+00 -0.23111701538E+03  0.23111701539E+03  0.25500000920E-02 0. -1.
    10030    2    1    2    0    0  0.00000000000E+00  0.00000000000E+00  0.74202217705E+03  0.12042562078E+04  0.94849148802E+03 0.  0.
        2    1    3    3  502    0 -0.51783436735E+02 -0.45740074047E+03  0.22618108162E+03  0.51288872418E+03  0.25500000920E-02 0. -1.
       -2    1    3    3    0  502  0.51783436735E+02  0.45740074047E+03  0.51584109543E+03  0.69136748365E+03  0.25500000920E-02 0.  1.
</event>
<event>
 5   0  0.9471140E-03  0.1018901E+04  0.7818609E-02  0.9288054E-01
        1   -1    0    0  501    0  0.00000000000E+00  0.00000000000E+00  0.47373497326E+03  0.47373497328E+03  0.50400001928E-02 0.  1.
       -1   -1    0    0    0  501  0.00000000000E+00  0.00000000000E+00 -0.54785840301E+03  0.54785840303E+03  0.50400001928E-02 0. -1.
    10030    2    1    2    0    0  0.00000000000E+00  0.00000000000E+00 -0.74123429750E+02  0.10215933763E+04  0.10189007526E+04 0.  0.
        4    1    3    3  502    0 -0.22331009947E+03  0.11863736586E+03 -0.48049266382E+03  0.54297056825E+03  0.12699999809E+01 0. -1.
       -4    1    3    3    0  502  0.22331009947E+03 -0.11863736586E+03  0.40636923407E+03  0.47862280806E+03  0.12699999809E+01 0.  1.
</event>
<event>
 5   0  0.9507815E-03  0.9974877E+03  0.7818609E-02  0.9311304E-01
        1   -1    0    0  501    0  0.00000000000E+00  0.00000000000E+00  0.78778040435E+03  0.78778040436E+03  0.50400001928E-02 0. -1.
       -1   -1    0    0    0  501  0.00000000000E+00  0.00000000000E+00 -0.31575480956E+03  0.31575480960E+03  0.50400001928E-02 0.  1.
    10030    2    1    2    0    0  0.00000000000E+00  0.00000000000E+00  0.47202559479E+03  0.11035352140E+04  0.99748774746E+03 0.  0.
        1    1    3    3  502    0  0.24399589179E+03  0.19157992160E+03 -0.19602901501E+03  0.36696626047E+03  0.50400001928E-02 0.  1.
       -1    1    3    3    0  502 -0.24399589179E+03 -0.19157992160E+03  0.66805460979E+03  0.73656895350E+03  0.50400001928E-02 0. -1.
</event>
<event>
 5   0  0.9507815E-03  0.9966397E+03  0.7818609E-02  0.9312238E-01
        1   -1    0    0  501    0  0.00000000000E+00  0.00000000000E+00  0.76725919216E+03  0.76725919218E+03  0.50400001928E-02 0.  1.
       -1   -1    0    0    0  501  0.00000000000E+00  0.00000000000E+00 -0.32364898053E+03  0.32364898057E+03  0.50400001928E-02 0. -1.
    10030    2    1    2    0    0  0.00000000000E+00  0.00000000000E+00  0.44361021163E+03  0.10909081728E+04  0.99663966483E+03 0.  0.
        1    1    3    3  502    0 -0.16317436444E+03  0.44680053214E+03  0.59208120013E+02  0.47933515439E+03  0.50400001928E-02 0. -1.
       -1    1    3    3    0  502  0.16317436444E+03 -0.44680053214E+03  0.38440209162E+03  0.61157301837E+03  0.50400001928E-02 0.  1.
</event>
<event>
 5   0  0.6314750E-03  0.9893524E+03  0.7818609E-02  0.9320301E-01
       -3   -1    0    0    0  501  0.00000000000E+00  0.00000000000E+00  0.19426401771E+03  0.19426404396E+03  0.10100000352E+00 0.  1.
        3   -1    0    0  501    0  0.00000000000E+00  0.00000000000E+00 -0.12596492485E+04  0.12596492525E+04  0.10100000352E+00 0. -1.
    10030    2    1    2    0    0  0.00000000000E+00  0.00000000000E+00 -0.10653852308E+04  0.14539132965E+04  0.98935240625E+03 0.  0.
        3    1    3    3  502    0  0.34402497960E+03 -0.33876578437E+03 -0.69089470236E+03  0.84288252040E+03  0.10100000352E+00 0. -1.
       -3    1    3    3    0  502 -0.34402497960E+03  0.33876578437E+03 -0.37449052839E+03  0.61103077607E+03  0.10100000352E+00 0.  1.
</event>
<event>
 5   0  0.9396660E-03  0.1000906E+04  0.7818609E-02  0.9307552E-01
        1   -1    0    0  501    0  0.00000000000E+00  0.00000000000E+00  0.28055605612E+03  0.28055605616E+03  0.50400001928E-02 0. -1.
       -1   -1    0    0    0  501  0.00000000000E+00  0.00000000000E+00 -0.89270301412E+03  0.89270301413E+03  0.50400001928E-02 0.  1.
    10030    2    1    2    0    0  0.00000000000E+00  0.00000000000E+00 -0.61214695800E+03  0.11732590703E+04  0.10009060634E+04 0.  0.
        5    1    3    3  502    0 -0.33491992345E+02 -0.49905544614E+03 -0.28742504100E+03  0.57689972791E+03  0.46999998093E+01 0.  1.
       -5    1    3    3    0  502  0.33491992345E+02  0.49905544614E+03 -0.32472191700E+03  0.59635934239E+03  0.46999998093E+01 0. -1.
</event>
<event>
 5   0  0.1656859E-02  0.9552396E+03  0.7818609E-02  0.9359047E-01
       -2   -1    0    0    0  501  0.00000000000E+00  0.00000000000E+00  0.23550975740E+03  0.23550975741E+03  0.25500000920E-02 0.  1.
        2   -1    0    0  501    0  0.00000000000E+00  0.00000000000E+00 -0.96862517222E+03  0.96862517222E+03  0.25500000920E-02 0. -1.
    10030    2    1    2    0    0  0.00000000000E+00  0.00000000000E+00 -0.73311541482E+03  0.12041349296E+04  0.95523961251E+03 0.  0.
        4    1    3    3  502    0  0.43794853741E+02 -0.15714490002E+03 -0.93241565863E+03  0.94657967556E+03  0.12699999809E+01 0. -1.
       -4    1    3    3    0  502 -0.43794853741E+02  0.15714490002E+03  0.19930024381E+03  0.25755525407E+03  0.12699999809E+01 0.  1.
</event>
<event>
 5   0  0.1598986E-02  0.9958230E+03  0.7818609E-02  0.9313138E-01
        2   -1    0    0  501    0  0.00000000000E+00  0.00000000000E+00  0.79629024505E+03  0.79629024505E+03  0.25500000920E-02 0. -1.
       -2   -1    0    0    0  501  0.00000000000E+00  0.00000000000E+00 -0.31133854348E+03  0.31133854349E+03  0.25500000920E-02 0.  1.
    10030    2    1    2    0    0  0.00000000000E+00  0.00000000000E+00  0.48495170157E+03  0.11076287885E+04  0.99582296636E+03 0.  0.
        3    1    3    3  502    0 -0.37854825071E+03  0.98132888312E+01  0.60207062223E+03  0.71125531499E+03  0.10100000352E+00 0. -1.
       -3    1    3    3    0  502  0.37854825071E+03 -0.98132888312E+01 -0.11711892066E+03  0.39637347355E+03  0.10100000352E+00 0.  1.
</event>
<event>
 5   0  0.1663497E-02  0.9964272E+03  0.7818609E-02  0.9312472E-01
        2   -1    0    0  501    0  0.00000000000E+00  0.00000000000E+00  0.78079423456E+03  0.78079423456E+03  0.25500000920E-02 0.  1.
       -2   -1    0    0    0  501  0.00000000000E+00  0.00000000000E+00 -0.31790292487E+03  0.31790292488E+03  0.25500000920E-02 0. -1.
    10030    2    1    2    0    0  0.00000000000E+00  0.00000000000E+00  0.46289130969E+03  0.10986971594E+04  0.99642715919E+03 0.  0.
        1    1    3    3  502    0  0.11670880104E+03 -0.13805955183E+03  0.74335344292E+03  0.76502008157E+03  0.50400001928E-02 0.  1.
       -1    1    3    3    0  502 -0.11670880104E+03  0.13805955183E+03 -0.28046213323E+03  0.33367707787E+03  0.50400001928E-02 0. -1.
</event>
<event>
 5   0  0.1598986E-02  0.9889236E+03  0.7818609E-02  0.9320777E-01
       -2   -1    0    0    0  501  0.00000000000E+00  0.00000000000E+00  0.21335913230E+03  0.21335913232E+03  0.25500000920E-02 0.  1.
        2   -1    0    0  501    0  0.00000000000E+00  0.00000000000E+00 -0.11459199501E+04  0.11459199501E+04  0.25500000920E-02 0. -1.
    10030    2    1    2    0    0  0.00000000000E+00  0.00000000000E+00 -0.93256081779E+03  0.13592790824E+04  0.98892362952E+03 0.  0.
        3    1    3    3  502    0  0.10633512899E+03  0.45894244719E+03 -0.67271760907E+03  0.82126994420E+03  0.10100000352E+00 0. -1.
       -3    1    3    3    0  502 -0.10633512899E+03 -0.45894244719E+03 -0.25984320873E+03  0.53800913822E+03  0.10100000352E+00 0.  1.
</event>
<event>
 5   0  0.1617721E-02  0.1053573E+04  0.7818609E-02  0.9251663E-01
        2   -1    0    0  501    0  0.00000000000E+00  0.00000000000E+00  0.11507248215E+04  0.11507248215E+04  0.25500000920E-02 0. -1.
       -2   -1    0    0    0  501  0.00000000000E+00  0.00000000000E+00 -0.24115597456E+03  0.24115597457E+03  0.25500000920E-02 0.  1.
    10030    2    1    2    0    0  0.00000000000E+00  0.00000000000E+00  0.90956884690E+03  0.13918807960E+04  0.10535732832E+04 0.  0.
        5    1    3    3  502    0  0.15966731382E+03  0.34778596438E+03 -0.23436101660E+02  0.38343196135E+03  0.46999998093E+01 0.  1.
       -5    1    3    3    0  502 -0.15966731382E+03 -0.34778596438E+03  0.93300494856E+03  0.10084488347E+04  0.46999998093E+01 0. -1.
</event>
<event>
 5   0  0.6314750E-03  0.5773068E+03  0.7818609E-02  0.9953639E-01
       -4   -1    0    0    0  501  0.00000000000E+00  0.00000000000E+00  0.14267751346E+03  0.14268316560E+03  0.12699999809E+01 0.  1.
        4   -1    0    0  501    0  0.00000000000E+00  0.00000000000E+00 -0.58396187606E+03  0.58396325706E+03  0.12699999809E+01 0. -1.
    10030    2    1    2    0    0  0.00000000000E+00  0.00000000000E+00 -0.44128436260E+03  0.72664642266E+03  0.57730679442E+03 0.  0.
        2    1    3    3  502    0  0.16916819580E+03 -0.10992031718E+03 -0.48049377217E+03  0.52112821810E+03  0.25500000920E-02 0. -1.
       -2    1    3    3    0  502 -0.16916819580E+03  0.10992031718E+03  0.39209409565E+02  0.20551820456E+03  0.25500000920E-02 0.  1.
</event>
<event>
 5   0  0.9507815E-03  0.9967233E+03  0.7818609E-02  0.9312146E-01
        1   -1    0    0  501    0  0.00000000000E+00  0.00000000000E+00  0.13004427152E+03  0.13004427162E+03  0.50400001928E-02 0. -1.
       -1   -1    0    0    0  501  0.00000000000E+00  0.00000000000E+00 -0.19098445352E+04  0.19098445352E+04  0.50400001928E-02 0.  1.
    10030    2    1    2    0    0  0.00000000000E+00  0.00000000000E+00 -0.17798002637E+04  0.20398888068E+04  0.99672331446E+03 0.  0.
        1    1    3    3  502    0  0.10294450444E+03  0.38671798334E+03 -0.14977628239E+04  0.15503037916E+04  0.50400001928E-02 0.  1.
       -1    1    3    3    0  502 -0.10294450444E+03 -0.38671798334E+03 -0.28203743976E+03  0.48958501518E+03  0.50400001928E-02 0. -1.
</event>
<event>
 5   0  0.1663497E-02  0.1007996E+04  0.7818609E-02  0.9299818E-01
       -2   -1    0    0    0  501  0.00000000000E+00  0.00000000000E+00  0.23189153094E+03  0.23189153095E+03  0.25500000920E-02 0. -1.
        2   -1    0    0  501    0  0.00000000000E+00  0.00000000000E+00 -0.10953995510E+04  0.10953995510E+04  0.25500000920E-02 0.  1.
    10030    2    1    2    0    0  0.00000000000E+00  0.00000000000E+00 -0.86350802008E+03  0.13272910820E+04  0.10079957914E+04 0.  0.
        1    1    3    3  502    0  0.11448337917E+03 -0.40870289245E+03 -0.73872150021E+02  0.43081503337E+03  0.50400001928E-02 0. -1.
       -1    1    3    3    0  502 -0.11448337917E+03  0.40870289245E+03 -0.78963587006E+03  0.89647604860E+03  0.50400001928E-02 0.  1.
</event>
<event>
 5   0  0.1000773E-02  0.9657925E+03  0.7818609E-02  0.9346880E-01
       -1   -1    0    0    0  501  0.00000000000E+00  0.00000000000E+00  0.27041408762E+03  0.27041408767E+03  0.50400001928E-02 0. -1.
        1   -1    0    0  501    0  0.00000000000E+00  0.00000000000E+00 -0.86233961471E+03  0.86233961473E+03  0.50400001928E-02 0.  1.
    10030    2    1    2    0    0  0.00000000000E+00  0.00000000000E+00 -0.59192552709E+03  0.11327537024E+04  0.96579248323E+03 0.  0.
        3    1    3    3  502    0 -0.11520182219E+03  0.30223093169E+03  0.12459714097E+03  0.34661138707E+03  0.10100000352E+00 0. -1.
       -3    1    3    3    0  502  0.11520182219E+03 -0.30223093169E+03 -0.71652266806E+03  0.78614231533E+03  0.10100000352E+00 0.  1.
</event>
<event>
 5   0  0.9759443E-03  0.8597481E+03  0.7818609E-02  0.9477346E-01
        1   -1    0    0  501    0  0.00000000000E+00  0.00000000000E+00  0.13807848525E+04  0.13807848525E+04  0.50400001928E-02 0. -1.
       -1   -1    0    0    0  501  0.00000000000E+00  0.00000000000E+00 -0.13383092363E+03  0.13383092373E+03  0.50400001928E-02 0.  1.
    10030    2    1    2    0    0  0.00000000000E+00  0.00000000000E+00  0.12469539289E+04  0.15146157762E+04  0.85974813109E+03 0.  0.
        2    1    3    3  502    0  0.26368262495E+03  0.10325432396E+03  0.53705533220E+02  0.28822606826E+03  0.25500000920E-02 0.  1.
       -2    1    3    3    0  502 -0.26368262495E+03 -0.10325432396E+03  0.11932483957E+04  0.12263897080E+04  0.25500000920E-02 0. -1.
</event>
<event>
 5   0  0.9471140E-03  0.1000727E+04  0.7818609E-02  0.9307748E-01
        1   -1    0    0  501    0  0.00000000000E+00  0.00000000000E+00  0.12527738535E+04  0.12527738536E+04  0.50400001928E-02 0. -1.
       -1   -1    0    0    0  501  0.00000000000E+00  0.00000000000E+00 -0.19984740220E+03  0.19984740226E+03  0.50400001928E-02 0.  1.
    10030    2    1    2    0    0  0.00000000000E+00  0.00000000000E+00  0.10529264514E+04  0.14526212558E+04  0.10007269362E+04 0.  0.
        4    1    3    3  502    0  0.16576475684E+03  0.24422267358E+03 -0.60011352391E+02  0.30120697903E+03  0.12699999809E+01 0.  1.
       -4    1    3    3    0  502 -0.16576475684E+03 -0.24422267358E+03  0.11129378037E+04  0.11514142768E+04  0.12699999809E+01 0. -1.
</event>
<event>
 5   0  0.1656859E-02  0.9597412E+03  0.7818609E-02  0.9353837E-01
       -2   -1    0    0    0  501  0.00000000000E+00  0.00000000000E+00  0.24537659155E+03  0.24537659157E+03  0.25500000920E-02 0. -1.
        2   -1    0    0  501    0  0.00000000000E+00  0.00000000000E+00 -0.93845870701E+03  0.93845870701E+03  0.25500000920E-02 0.  1.
    10030    2    1    2    0    0  0.00000000000E+00  0.00000000000E+00 -0.69308211545E+03  0.11838352986E+04  0.95974121272E+03 0.  0.
        4    1    3    3  502    0  0.21222679040E+03  0.39319477512E+03 -0.13065543881E+03  0.46552636696E+03  0.12699999809E+01 0. -1.
       -4    1    3    3    0  502 -0.21222679040E+03 -0.39319477512E+03 -0.56242667664E+03  0.71830893162E+03  0.12699999809E+01 0.  1.
</event>
<event>
 5   0  0.9396660E-03  0.1057243E+04  0.7818609E-02  0.9247898E-01
        1   -1    0    0  501    0  0.00000000000E+00  0.00000000000E+00  0.60628634939E+03  0.60628634941E+03  0.50400001928E-02 0.  1.
       -1   -1    0    0    0  501  0.00000000000E+00  0.00000000000E+00 -0.46090544116E+03  0.46090544119E+03  0.50400001928E-02 0. -1.
    10030    2    1    2    0    0  0.00000000000E+00  0.00000000000E+00  0.14538090822E+03  0.10671917906E+04  0.10572429756E+04 0.  0.
        5    1    3    3  502    0 -0.44947039685E+03  0.61876296146E+02  0.34647381261E+03  0.57089272766E+03  0.46999998093E+01 0.  1.
       -5    1    3    3    0  502  0.44947039685E+03 -0.61876296146E+02 -0.20109290439E+03  0.49629906293E+03  0.46999998093E+01 0. -1.
</event>
<event>
 5   0  0.9396660E-03  0.9983825E+03  0.7818609E-02  0.9310321E-01
       -1   -1    0    0    0  501  0.00000000000E+00  0.00000000000E+00  0.29234617283E+03  0.29234617287E+03  0.50400001928E-02 0.  1.
        1   -1    0    0  501    0  0.00000000000E+00  0.00000000000E+00 -0.85238634732E+03  0.85238634734E+03  0.50400001928E-02 0. -1.
    10030    2    1    2    0    0  0.00000000000E+00  0.00000000000E+00 -0.56004017449E+03  0.11447325202E+04  0.99838246468E+03 0.  0.
        5    1    3    3  502    0 -0.32211474607E+03  0.17247468982E+03  0.10992806880E+03  0.38159100956E+03  0.46999998093E+01 0.  1.
       -5    1    3    3    0  502  0.32211474607E+03 -0.17247468982E+03 -0.66996824329E+03  0.76314151065E+03  0.46999998093E+01 0. -1.
</event>
<event>
 5   0  0.9396660E-03  0.9276782E+03  0.7818609E-02  0.9391629E-01
        1   -1    0    0  501    0  0.00000000000E+00  0.00000000000E+00  0.63904977301E+03  0.63904977303E+03  0.50400001928E-02 0.  1.
       -1   -1    0    0    0  501  0.00000000000E+00  0.00000000000E+00 -0.33666661299E+03  0.33666661302E+03  0.50400001928E-02 0. -1.
    10030    2    1    2    0    0  0.00000000000E+00  0.00000000000E+00  0.30238316002E+03  0.97571638605E+03  0.92767822575E+03 0.  0.
        5    1    3    3  502    0  0.20233239283E+02 -0.37091088372E+03  0.44331547338E+03  0.57838997793E+03  0.46999998093E+01 0.  1.
       -5    1    3    3    0  502 -0.20233239283E+02  0.37091088372E+03 -0.14093231336E+03  0.39732640811E+03  0.46999998093E+01 0. -1.
</event>
<event>
 5   0  0.1617721E-02  0.1006299E+04  0.7818609E-02  0.9301663E-01
        2   -1    0    0  501    0  0.00000000000E+00  0.00000000000E+00  0.13657201655E+04  0.13657201655E+04  0.25500000920E-02 0. -1.
       -2   -1    0    0    0  501  0.00000000000E+00  0.00000000000E+00 -0.18536694873E+03  0.18536694874E+03  0.25500000920E-02 0.  1.
    10030    2    1    2    0    0  0.00000000000E+00  0.00000000000E+00  0.11803532167E+04  0.15510871142E+04  0.10062989216E+04 0.  0.
        5    1    3    3  502    0 -0.46895515276E+03 -0.77618860020E+02  0.33599561565E+03  0.58211576724E+03  0.46999998093E+01 0. -1.
       -5    1    3    3    0  502  0.46895515276E+03  0.77618860020E+02  0.84435760108E+03  0.96897134696E+03  0.46999998093E+01 0.  1.
</event>
<event>
 5   0  0.1663497E-02  0.9779206E+03  0.7818609E-02  0.9333098E-01
       -2   -1    0    0    0  501  0.00000000000E+00  0.00000000000E+00  0.17650657734E+03  0.17650657736E+03  0.25500000920E-02 0. -1.
        2   -1    0    0  501    0  0.00000000000E+00  0.00000000000E+00 -0.13545228252E+04  0.13545228252E+04  0.25500000920E-02 0.  1.
    10030    2    1    2    0    0  0.00000000000E+00  0.00000000000E+00 -0.11780162478E+04  0.15310294025E+04  0.97792062626E+03 0.  0.
        1    1    3    3  502    0 -0.37293887641E+03  0.22729208881E+03 -0.93321549732E+03  0.10303573475E+04  0.50400001928E-02 0.  1.
       -1    1    3    3    0  502  0.37293887641E+03 -0.22729208881E+03 -0.24480075050E+03  0.50067205498E+03  0.50400001928E-02 0. -1.
</event>
<event>
 5   0  0.9759443E-03  0.9942137E+03  0.7818609E-02  0.9314914E-01
        1   -1    0    0  501    0  0.00000000000E+00  0.00000000000E+00  0.38422158081E+03  0.38422158084E+03  0.50400001928E-02 0.  1.
       -1   -1    0    0    0  501  0.00000000000E+00  0.00000000000E+00 -0.64315815284E+03  0.64315815286E+03  0.50400001928E-02 0. -1.
    10030    2    1    2    0    0  0.00000000000E+00  0.00000000000E+00 -0.25893657203E+03  0.10273797337E+04  0.99421374407E+03 0.  0.
        2    1    3    3  502    0  0.39397334845E+03  0.14104437432E+03  0.14782398753E+03  0.44380226015E+03  0.25500000920E-02 0.  1.
       -2    1    3    3    0  502 -0.39397334845E+03 -0.14104437432E+03 -0.40676055957E+03  0.58357747356E+03  0.25500000920E-02 0. -1.
</event>
<event>
 5   0  0.6314750E-03  0.8455747E+03  0.7818609E-02  0.9496296E-01
        4   -1    0    0  501    0  0.00000000000E+00  0.00000000000E+00  0.53073470695E+03  0.53073622645E+03  0.12699999809E+01 0. -1.
       -4   -1    0    0    0  501  0.00000000000E+00  0.00000000000E+00 -0.33679247457E+03  0.33679486906E+03  0.12699999809E+01 0.  1.
    10030    2    1    2    0    0  0.00000000000E+00  0.00000000000E+00  0.19394223239E+03  0.86753109551E+03  0.84557472299E+03 0.  0.
        2    1    3    3  502    0 -0.36566183961E+03  0.20650202385E+03  0.46735571052E+02  0.42253506412E+03  0.25500000920E-02 0.  1.
       -2    1    3    3    0  502  0.36566183961E+03 -0.20650202385E+03  0.14720666133E+03  0.44499603139E+03  0.25500000920E-02 0. -1.
</event>
<event>
 5   0  0.1663497E-02  0.1017693E+04  0.7818609E-02  0.9289350E-01
       -2   -1    0    0    0  501  0.00000000000E+00  0.00000000000E+00  0.31252209596E+03  0.31252209597E+03  0.25500000920E-02 0. -1.
        2   -1    0    0  501    0  0.00000000000E+00  0.00000000000E+00 -0.82850034101E+03  0.82850034101E+03  0.25500000920E-02 0.  1.
    10030    2    1    2    0    0  0.00000000000E+00  0.00000000000E+00 -0.51597824505E+03  0.11410224370E+04  0.10176928084E+04 0.  0.
        1    1    3    3  502    0 -0.32887349495E+03 -0.34073509956E+03 -0.46674194089E+03  0.66491068811E+03  0.50400001928E-02 0.  1.
       -1    1    3    3    0  502  0.32887349495E+03  0.34073509956E+03 -0.49236304152E+02  0.47611174888E+03  0.50400001928E-02 0. -1.
</event>
<event>
 5   0  0.6314750E-03  0.9981923E+03  0.7818609E-02  0.9310530E-01
       -3   -1    0    0    0  501  0.00000000000E+00  0.00000000000E+00  0.61621957948E+03  0.61621958775E+03  0.10100000352E+00 0. -1.
        3   -1    0    0  501    0  0.00000000000E+00  0.00000000000E+00 -0.40423406906E+03  0.40423408168E+03  0.10100000352E+00 0.  1.
    10030    2    1    2    0    0  0.00000000000E+00  0.00000000000E+00  0.21198551041E+03  0.10204536694E+04  0.99819228350E+03 0.  0.
        1    1    3    3  502    0 -0.31377158160E+03  0.37510517732E+03  0.40673827080E+01  0.48905321090E+03  0.50400001928E-02 0.  1.
       -1    1    3    3    0  502  0.31377158160E+03 -0.37510517732E+03  0.20791812771E+03  0.53140045853E+03  0.50400001928E-02 0. -1.
</event>
<event>
 5   0  0.1663497E-02  0.8231293E+03  0.7818609E-02  0.9527129E-01
       -2   -1    0    0    0  501  0.00000000000E+00  0.00000000000E+00  0.69828480271E+02  0.69828480318E+02  0.25500000920E-02 0. -1.
        2   -1    0    0  501    0  0.00000000000E+00  0.00000000000E+00 -0.24257361092E+04  0.24257361092E+04  0.25500000920E-02 0.  1.
    10030    2    1    2    0    0  0.00000000000E+00  0.00000000000E+00 -0.23559076290E+04  0.24955645895E+04  0.82312931209E+03 0.  0.
        1    1    3    3  502    0 -0.29693659818E+03  0.18220263857E+03 -0.51360649195E+03  0.62061322371E+03  0.50400001928E-02 0. -1.
       -1    1    3    3    0  502  0.29693659818E+03 -0.18220263857E+03 -0.18423011370E+04  0.18749513658E+04  0.50400001928E-02 0.  1.
</event>
<event>
 5   0  0.1598986E-02  0.1044019E+04  0.7818609E-02  0.9261541E-01
        2   -1    0    0  501    0  0.00000000000E+00  0.00000000000E+00  0.15773433783E+04  0.15773433783E+04  0.25500000920E-02 0.  1.
       -2   -1    0    0    0  501  0.00000000000E+00  0.00000000000E+00 -0.17275503541E+03  0.17275503543E+03  0.25500000920E-02 0. -1.
    10030    2    1    2    0    0  0.00000000000E+00  0.00000000000E+00  0.14045883429E+04  0.17500984138E+04  0.10440191784E+04 0.  0.
        3    1    3    3  502    0 -0.93983040360E+02 -0.21537078705E+02 -0.15769848981E+03  0.18483906926E+03  0.10100000352E+00 0. -1.
       -3    1    3    3    0  502  0.93983040360E+02  0.21537078705E+02  0.15622868327E+04  0.15652593445E+04  0.10100000352E+00 0.  1.
</event>
<event>
 5   0  0.9471140E-03  0.1011675E+04  0.7818609E-02  0.9295832E-01
        1   -1    0    0  501    0  0.00000000000E+00  0.00000000000E+00  0.87812986270E+03  0.87812986272E+03  0.50400001928E-02 0.  1.
       -1   -1    0    0    0  501  0.00000000000E+00  0.00000000000E+00 -0.29138231267E+03  0.29138231271E+03  0.50400001928E-02 0. -1.
    10030    2    1    2    0    0  0.00000000000E+00  0.00000000000E+00  0.58674755003E+03  0.11695121754E+04  0.10116748692E+04 0.  0.
        4    1    3    3  502    0  0.95049477184E+02  0.19721104828E+03  0.82052624772E+03  0.84922996695E+03  0.12699999809E+01 0.  1.
       -4    1    3    3    0  502 -0.95049477184E+02 -0.19721104828E+03 -0.23377869768E+03  0.32028220848E+03  0.12699999809E+01 0. -1.
</event>
<event>
 5   0  0.9471140E-03  0.9692532E+03  0.7818609E-02  0.9342925E-01
       -1   -1    0    0    0  501  0.00000000000E+00  0.00000000000E+00  0.15768324246E+03  0.15768324254E+03  0.50400001928E-02 0.  1.
        1   -1    0    0  501    0  0.00000000000E+00  0.00000000000E+00 -0.14894604685E+04  0.14894604685E+04  0.50400001928E-02 0. -1.
    10030    2    1    2    0    0  0.00000000000E+00  0.00000000000E+00 -0.13317772260E+04  0.16471437110E+04  0.96925323060E+03 0.  0.
        4    1    3    3  502    0  0.16117577757E+03 -0.32249488609E+03 -0.11553458530E+03  0.37859006343E+03  0.12699999809E+01 0.  1.
       -4    1    3    3    0  502 -0.16117577757E+03  0.32249488609E+03 -0.12162426407E+04  0.12685536476E+04  0.12699999809E+01 0. -1.
</event>
<event>
 5   0  0.9507815E-03  0.9945882E+03  0.7818609E-02  0.9314500E-01
       -1   -1    0    0    0  501  0.00000000000E+00  0.00000000000E+00  0.58674033043E+03  0.58674033045E+03  0.50400001928E-02 0. -1.
        1   -1    0    0  501    0  0.00000000000E+00  0.00000000000E+00 -0.42148356652E+03  0.42148356655E+03  0.50400001928E-02 0.  1.
    10030    2    1    2    0    0  0.00000000000E+00  0.00000000000E+00  0.16525676391E+03  0.10082238970E+04  0.99458817029E+03 0.  0.
        1    1    3    3  502    0  0.24821799841E+03 -0.74265413965E+02  0.51291675777E+03  0.57463999762E+03  0.50400001928E-02 0. -1.
       -1    1    3    3    0  502 -0.24821799841E+03  0.74265413965E+02 -0.34765999386E+03  0.43358389938E+03  0.50400001928E-02 0.  1.
</event>
<event>
 5   0  0.1617721E-02  0.9973673E+03  0.7818609E-02  0.9311437E-01
        2   -1    0    0  501    0  0.00000000000E+00  0.00000000000E+00  0.31620036373E+03  0.31620036374E+03  0.25500000920E-02 0. -1.
       -2   -1    0    0    0  501  0.00000000000E+00  0.00000000000E+00 -0.78648035916E+03  0.78648035917E+03  0.25500000920E-02 0.  1.
    10030    2    1    2    0    0  0.00000000000E+00  0.00000000000E+00 -0.47027999544E+03  0.11026807229E+04  0.99736728569E+03 0.  0.
        5    1    3    3  502    0 -0.22621208093E+03 -0.42478218229E+03 -0.90770424076E+02  0.48976848392E+03  0.46999998093E+01 0.  1.
       -5    1    3    3    0  502  0.22621208093E+03  0.42478218229E+03 -0.37950957136E+03  0.61291223899E+03  0.46999998093E+01 0. -1.
</event>
<event>
 5   0  0.9507815E-03  0.9963801E+03  0.7818609E-02  0.9312524E-01
       -1   -1    0    0    0  501  0.00000000000E+00  0.00000000000E+00  0.20222956252E+03  0.20222956259E+03  0.50400001928E-02 0.  1.
        1   -1    0    0  501    0  0.00000000000E+00  0.00000000000E+00 -0.12272851115E+04  0.12272851115E+04  0.50400001928E-02 0. -1.
    10030    2    1    2    0    0  0.00000000000E+00  0.00000000000E+00 -0.10250555489E+04  0.14295146741E+04  0.99638011067E+03 0.  0.
        1    1    3    3  502    0  0.11555185617E+03  0.31230526960E+03 -0.10441573646E+04  0.10959705356E+04  0.50400001928E-02 0. -1.
       -1    1    3    3    0  502 -0.11555185617E+03 -0.31230526960E+03  0.19101815677E+02  0.33354413842E+03  0.50400001928E-02 0.  1.
</event>
<event>
 5   0  0.6314750E-03  0.1004078E+04  0.7818609E-02  0.9304083E-01
        3   -1    0    0  501    0  0.00000000000E+00  0.00000000000E+00  0.82277921094E+03  0.82277921714E+03  0.10100000352E+00 0.  1.
       -3   -1    0    0    0  501  0.00000000000E+00  0.00000000000E+00 -0.30633141306E+03  0.30633142971E+03  0.10100000352E+00 0. -1.
    10030    2    1    2    0    0  0.00000000000E+00  0.00000000000E+00  0.51644779788E+03  0.11291106469E+04  0.10040779476E+04 0.  0.
        1    1    3    3  502    0 -0.20604368739E+03  0.12597755796E+03 -0.23671882247E+03  0.33817177168E+03  0.50400001928E-02 0. -1.
       -1    1    3    3    0  502  0.20604368739E+03 -0.12597755796E+03  0.75316662035E+03  0.79093887517E+03  0.50400001928E-02 0.  1.
</event>
<event>
 5   0  0.1617721E-02  0.9948776E+03  0.7818609E-02  0.9314181E-01
        2   -1    0    0  501    0  0.00000000000E+00  0.00000000000E+00  0.89991290924E+03  0.89991290924E+03  0.25500000920E-02 0. -1.
       -2   -1    0    0    0  501  0.00000000000E+00  0.00000000000E+00 -0.27496591936E+03  0.27496591937E+03  0.25500000920E-02 0.  1.
    10030    2    1    2    0    0  0.00000000000E+00  0.00000000000E+00  0.62494698988E+03  0.11748788286E+04  0.99487764160E+03 0.  0.
        5    1    3    3  502    0 -0.81266664710E+02  0.25064796709E+02 -0.26629058472E+03  0.27958054356E+03  0.46999998093E+01 0.  1.
       -5    1    3    3    0  502  0.81266664710E+02 -0.25064796709E+02  0.89123757461E+03  0.89529828505E+03  0.46999998093E+01 0. -1.
</event>
<event>
 5   0  0.1663497E-02  0.1027718E+04  0.7818609E-02  0.9278656E-01
        2   -1    0    0  501    0  0.00000000000E+00  0.00000000000E+00  0.12491436288E+04  0.12491436288E+04  0.25500000920E-02 0.  1.
       -2   -1    0    0    0  501  0.00000000000E+00  0.00000000000E+00 -0.21138578034E+03  0.21138578036E+03  0.25500000920E-02 0. -1.
    10030    2    1    2    0    0  0.00000000000E+00  0.00000000000E+00  0.10377578484E+04  0.14605294091E+04  0.10277182508E+04 0.  0.
        1    1    3    3  502    0 -0.20660435976E+03 -0.36307888182E+03  0.94412834127E+03  0.10324194694E+04  0.50400001928E-02 0.  1.
       -1    1    3    3    0  502  0.20660435976E+03  0.36307888182E+03  0.93629507145E+02  0.42810993977E+03  0.50400001928E-02 0. -1.
</event>
<event>
 5   0  0.1656859E-02  0.1005405E+04  0.7818609E-02  0.9302636E-01
        2   -1    0    0  501    0  0.00000000000E+00  0.00000000000E+00  0.19185741938E+04  0.19185741938E+04  0.25500000920E-02 0. -1.
       -2   -1    0    0    0  501  0.00000000000E+00  0.00000000000E+00 -0.13171760531E+03  0.13171760533E+03  0.25500000920E-02 0.  1.
    10030    2    1    2    0    0  0.00000000000E+00  0.00000000000E+00  0.17868565885E+04  0.20502917991E+04  0.10054053878E+04 0.  0.
        4    1    3    3  502    0 -0.22404042972E+03  0.62239145842E+02  0.18023122394E+04  0.18172503533E+04  0.12699999809E+01 0. -1.
       -4    1    3    3    0  502  0.22404042972E+03 -0.62239145842E+02 -0.15455650911E+02  0.23304144582E+03  0.12699999809E+01 0.  1.
</event>
<event>
 5   0  0.1617721E-02  0.9138001E+03  0.7818609E-02  0.9408493E-01
       -2   -1    0    0    0  501  0.00000000000E+00  0.00000000000E+00  0.40454529635E+03  0.40454529635E+03  0.25500000920E-02 0. -1.
        2   -1    0    0  501    0  0.00000000000E+00  0.00000000000E+00 -0.51603041799E+03  0.51603041800E+03  0.25500000920E-02 0.  1.
    10030    2    1    2    0    0  0.00000000000E+00  0.00000000000E+00 -0.11148512164E+03  0.92057571435E+03  0.91380014965E+03 0.  0.
        5    1    3    3  502    0 -0.10757279221E+02  0.20073399323E+03  0.35757470360E+03  0.41023360875E+03  0.46999998093E+01 0. -1.
       -5    1    3    3    0  502  0.10757279221E+02 -0.20073399323E+03 -0.46905982524E+03  0.51034210560E+03  0.46999998093E+01 0.  1.
</event>
<event>
 5   0  0.9471140E-03  0.1063384E+04  0.7818609E-02  0.9241634E-01
        1   -1    0    0  501    0  0.00000000000E+00  0.00000000000E+00  0.67003470611E+03  0.67003470613E+03  0.50400001928E-02 0. -1.
       -1   -1    0    0    0  501  0.00000000000E+00  0.00000000000E+00 -0.42191297085E+03  0.42191297088E+03  0.50400001928E-02 0.  1.
    10030    2    1    2    0    0  0.00000000000E+00  0.00000000000E+00  0.24812173526E+03  0.10919476770E+04  0.10633839071E+04 0.  0.
        4    1    3    3  502    0  0.39059615705E+03 -0.23728665018E+03 -0.15494396940E+03  0.48257596170E+03  0.12699999809E+01 0.  1.
       -4    1    3    3    0  502 -0.39059615705E+03  0.23728665018E+03  0.40306570466E+03  0.60937171532E+03  0.12699999809E+01 0. -1.
</event>
<event>
 5   0  0.1663497E-02  0.1001252E+04  0.7818609E-02  0.9307172E-01
       -2   -1    0    0    0  501  0.00000000000E+00  0.00000000000E+00  0.47176956239E+03  0.47176956240E+03  0.25500000920E-02 0.  1.
        2   -1    0    0  501    0  0.00000000000E+00  0.00000000000E+00 -0.53124772196E+03  0.53124772196E+03  0.25500000920E-02 0. -1.
    10030    2    1    2    0    0  0.00000000000E+00  0.00000000000E+00 -0.59478159566E+02  0.10030172844E+04  0.10012522266E+04 0.  0.
        1    1    3    3  502    0  0.32421473771E+03 -0.54065523955E+02  0.34853515245E+03  0.47907726887E+03  0.50400001928E-02 0.  1.
       -1    1    3    3    0  502 -0.32421473771E+03  0.54065523955E+02 -0.40801331202E+03  0.52394001549E+03  0.50400001928E-02 0. -1.
</event>
<event>
 5   0  0.9471140E-03  0.9900730E+03  0.7818609E-02  0.9319500E-01
        1   -1    0    0  501    0  0.00000000000E+00  0.00000000000E+00  0.58851019368E+03  0.58851019370E+03  0.50400001928E-02 0.  1.
       -1   -1    0    0    0  501  0.00000000000E+00  0.00000000000E+00 -0.41640936595E+03  0.41640936598E+03  0.50400001928E-02 0. -1.
    10030    2    1    2    0    0  0.00000000000E+00  0.00000000000E+00  0.17210082773E+03  0.10049195597E+04  0.99007304100E+03 0.  0.
        4    1    3    3  502    0 -0.84060375489E+02 -0.37511325094E+02  0.57974556082E+03  0.58700917747E+03  0.12699999809E+01 0.  1.
       -4    1    3    3    0  502  0.84060375489E+02  0.37511325094E+02 -0.40764473310E+03  0.41791038221E+03  0.12699999809E+01 0. -1.
</event>
<event>
 5   0  0.9759443E-03  0.9903214E+03  0.7818609E-02  0.9319224E-01
        1   -1    0    0  501    0  0.00000000000E+00  0.00000000000E+00  0.46667039134E+03  0.46667039136E+03  0.50400001928E-02 0. -1.
       -1   -1    0    0    0  501  0.00000000000E+00  0.00000000000E+00 -0.52539031345E+03  0.52539031347E+03  0.50400001928E-02 0.  1.
    10030    2    1    2    0    0  0.00000000000E+00  0.00000000000E+00 -0.58719922113E+02  0.99206070484E+03  0.99032136846E+03 0.  0.
        2    1    3    3  502    0 -0.12580608218E+03  0.36542175757E+03 -0.33945795407E+03  0.51438500542E+03  0.25500000920E-02 0.  1.
       -2    1    3    3    0  502  0.12580608218E+03 -0.36542175757E+03  0.28073803196E+03  0.47767569941E+03  0.25500000920E-02 0. -1.
</event>
<event>
 5   0  0.6314750E-03  0.1044626E+04  0.7818609E-02  0.9260910E-01
       -4   -1    0    0    0  501  0.00000000000E+00  0.00000000000E+00  0.27692205222E+03  0.27692496440E+03  0.12699999809E+01 0. -1.
        4   -1    0    0  501    0  0.00000000000E+00  0.00000000000E+00 -0.98514541794E+03  0.98514623655E+03  0.12699999809E+01 0.  1.
    10030    2    1    2    0    0  0.00000000000E+00  0.00000000000E+00 -0.70822336572E+03  0.12620712010E+04  0.10446259524E+04 0.  0.
        3    1    3    3  502    0 -0.36045788403E+03  0.33868361559E+03 -0.55690332617E+03  0.74483407719E+03  0.10100000352E+00 0.  1.
       -3    1    3    3    0  502  0.36045788403E+03 -0.33868361559E+03 -0.15132003955E+03  0.51723712377E+03  0.10100000352E+00 0. -1.
</event>
<event>
 5   0  0.9507815E-03  0.1014068E+04  0.7818609E-02  0.9293249E-01
       -1   -1    0    0    0  501  0.00000000000E+00  0.00000000000E+00  0.40894626412E+03  0.40894626415E+03  0.50400001928E-02 0. -1.
        1   -1    0    0  501    0  0.00000000000E+00  0.00000000000E+00 -0.62864841064E+03  0.62864841066E+03  0.50400001928E-02 0.  1.
    10030    2    1    2    0    0  0.00000000000E+00  0.00000000000E+00 -0.21970214653E+03  0.10375946748E+04  0.10140678853E+04 0.  0.
        1    1    3    3  502    0 -0.34944950199E+02  0.41141165303E+03 -0.41096197134E+03  0.58255509586E+03  0.50400001928E-02 0.  1.
       -1    1    3    3    0  502  0.34944950199E+02 -0.41141165303E+03  0.19125982482E+03  0.45503957895E+03  0.50400001928E-02 0. -1.
</event>
<event>
 5   0  0.9471140E-03  0.9939231E+03  0.7818609E-02  0.9315235E-01
       -1   -1    0    0    0  501  0.00000000000E+00  0.00000000000E+00  0.34457326215E+03  0.34457326219E+03  0.50400001928E-02 0.  1.
        1   -1    0    0  501    0  0.00000000000E+00  0.00000000000E+00 -0.71674393991E+03  0.71674393993E+03  0.50400001928E-02 0. -1.
    10030    2    1    2    0    0  0.00000000000E+00  0.00000000000E+00 -0.37217067776E+03  0.10613172021E+04  0.99392313089E+03 0.  0.
        4    1    3    3  502    0 -0.10443101595E+03 -0.47369801905E+03 -0.30145552344E+03  0.57111530872E+03  0.12699999809E+01 0. -1.
       -4    1    3    3    0  502  0.10443101595E+03  0.47369801905E+03 -0.70715154322E+02  0.49020189340E+03  0.12699999809E+01 0.  1.
</event>
<event>
 5   0  0.1656859E-02  0.1007426E+04  0.7818609E-02  0.9300437E-01
       -2   -1    0    0    0  501  0.00000000000E+00  0.00000000000E+00  0.23760756010E+03  0.23760756011E+03  0.25500000920E-02 0. -1.
        2   -1    0    0  501    0  0.00000000000E+00  0.00000000000E+00 -0.10678402954E+04  0.10678402954E+04  0.25500000920E-02 0.  1.
    10030    2    1    2    0    0  0.00000000000E+00  0.00000000000E+00 -0.83023273530E+03  0.13054478555E+04  0.10074262795E+04 0.  0.
        4    1    3    3  502    0  0.49732039834E+03 -0.74307082222E+02 -0.45347350547E+03  0.67711812421E+03  0.12699999809E+01 0.  1.
       -4    1    3    3    0  502 -0.49732039834E+03  0.74307082222E+02 -0.37675922983E+03  0.62832973130E+03  0.12699999809E+01 0. -1.
</event>
<event>
 5   0  0.1571895E-02  0.1005169E+04  0.7818609E-02  0.9302893E-01
       -2   -1    0    0    0  501  0.00000000000E+00  0.00000000000E+00  0.21094884607E+04  0.21094884607E+04  0.25500000920E-02 0.  1.
        2   -1    0    0  501    0  0.00000000000E+00  0.00000000000E+00 -0.11974053435E+03  0.11974053438E+03  0.25500000920E-02 0. -1.
    10030    2    1    2    0    0  0.00000000000E+00  0.00000000000E+00  0.19897479264E+04  0.22292289951E+04  0.10051691908E+04 0.  0.
        2    1    3    3  502    0  0.29709610646E+03  0.40415496879E+03  0.10644404190E+04  0.11767075851E+04  0.25500000920E-02 0.  1.
       -2    1    3    3    0  502 -0.29709610646E+03 -0.40415496879E+03  0.92530750737E+03  0.10525214100E+04  0.25500000920E-02 0. -1.
</event>
<event>
 5   0  0.9396660E-03  0.9059521E+03  0.7818609E-02  0.9418171E-01
        1   -1    0    0  501    0  0.00000000000E+00  0.00000000000E+00  0.20667316605E+04  0.20667316605E+04  0.50400001928E-02 0.  1.
       -1   -1    0    0    0  501  0.00000000000E+00  0.00000000000E+00 -0.99281052988E+02  0.99281053116E+02  0.50400001928E-02 0. -1.
    10030    2    1    2    0    0  0.00000000000E+00  0.00000000000E+00  0.19674506075E+04  0.21660127136E+04  0.90595208625E+03 0.  0.
        5    1    3    3  502    0  0.18630860427E+03  0.40927588091E+03  0.11135290763E+04  0.12009107946E+04  0.46999998093E+01 0.  1.
       -5    1    3    3    0  502 -0.18630860427E+03 -0.40927588091E+03  0.85392153120E+03  0.96510191906E+03  0.46999998093E+01 0. -1.
</event>
<event>
 5   0  0.1571895E-02  0.9931349E+03  0.7818609E-02  0.9316107E-01
        2   -1    0    0  501    0  0.00000000000E+00  0.00000000000E+00  0.76579476068E+03  0.76579476068E+03  0.25500000920E-02 0.  1.
       -2   -1    0    0    0  501  0.00000000000E+00  0.00000000000E+00 -0.32199127629E+03  0.32199127630E+03  0.25500000920E-02 0. -1.
    10030    2    1    2    0    0  0.00000000000E+00  0.00000000000E+00  0.44380348439E+03  0.10877860370E+04  0.99313489995E+03 0.  0.
        2    1    3    3  502    0 -0.74008879621E+02  0.13256589220E+03  0.73974866365E+03  0.75516826960E+03  0.25500000920E-02 0.  1.
       -2    1    3    3    0  502  0.74008879621E+02 -0.13256589220E+03 -0.29594517926E+03  0.33261776738E+03  0.25500000920E-02 0. -1.
</event>
<event>
 5   0  0.9396660E-03  0.9959445E+03  0.7818609E-02  0.9313004E-01
        1   -1    0    0  501    0  0.00000000000E+00  0.00000000000E+00  0.34306018768E+03  0.34306018772E+03  0.50400001928E-02 0.  1.
       -1   -1    0    0    0  501  0.00000000000E+00  0.00000000000E+00 -0.72283627797E+03  0.72283627799E+03  0.50400001928E-02 0. -1.
    10030    2    1    2    0    0  0.00000000000E+00  0.00000000000E+00 -0.37977609029E+03  0.10658964657E+04  0.99594447478E+03 0.  0.
        5    1    3    3  502    0 -0.29900780570E+03 -0.36207052334E+02  0.23449512724E+03  0.38174163148E+03  0.46999998093E+01 0.  1.
       -5    1    3    3    0  502  0.29900780570E+03  0.36207052334E+02 -0.61427121753E+03  0.68415483423E+03  0.46999998093E+01 0. -1.
</event>
<event>
 5   0  0.1663497E-02  0.1500194E+04  0.7818609E-02  0.8884324E-01
       -2   -1    0    0    0  501  0.00000000000E+00  0.00000000000E+00  0.14948660808E+04  0.14948660808E+04  0.25500000920E-02 0. -1.
        2   -1    0    0  501    0  0.00000000000E+00  0.00000000000E+00 -0.37638545542E+03  0.37638545543E+03  0.25500000920E-02 0.  1.
    10030    2    1    2    0    0  0.00000000000E+00  0.00000000000E+00  0.11184806254E+04  0.18712515363E+04  0.15001944549E+04 0.  0.
        1    1    3    3  502    0  0.13325439922E+03  0.64936274200E+03  0.99708510130E+03  0.11973334560E+04  0.50400001928E-02 0. -1.
       -1    1    3    3    0  502 -0.13325439922E+03 -0.64936274200E+03  0.12139552413E+03  0.67391808027E+03  0.50400001928E-02 0.  1.
</event>
<event>
 5   0  0.1656859E-02  0.1008311E+04  0.7818609E-02  0.9299476E-01
       -2   -1    0    0    0  501  0.00000000000E+00  0.00000000000E+00  0.40541693716E+03  0.40541693717E+03  0.25500000920E-02 0. -1.
        2   -1    0    0  501    0  0.00000000000E+00  0.00000000000E+00 -0.62694155523E+03  0.62694155524E+03  0.25500000920E-02 0.  1.
    10030    2    1    2    0    0  0.00000000000E+00  0.00000000000E+00 -0.22152461807E+03  0.10323584924E+04  0.10083109146E+04 0.  0.
        4    1    3    3  502    0 -0.42522000751E+03 -0.71101880194E+02  0.15682024833E+03  0.45876108743E+03  0.12699999809E+01 0. -1.
       -4    1    3    3    0  502  0.42522000751E+03  0.71101880194E+02 -0.37834486640E+03  0.57359740497E+03  0.12699999809E+01 0.  1.
</event>
<event>
 5   0  0.1000773E-02  0.1025530E+04  0.7818609E-02  0.9280979E-01
       -1   -1    0    0    0  501  0.00000000000E+00  0.00000000000E+00  0.50838511881E+03  0.50838511884E+03  0.50400001928E-02 0.  1.
        1   -1    0    0  501    0  0.00000000000E+00  0.00000000000E+00 -0.51718268520E+03  0.51718268523E+03  0.50400001928E-02 0. -1.
    10030    2    1    2    0    0  0.00000000000E+00  0.00000000000E+00 -0.87975663906E+01  0.10255678041E+04  0.10255300696E+04 0.  0.
        3    1    3    3  502    0  0.39542515834E+03  0.14543061638E+03  0.28787358400E+03  0.51027671963E+03  0.10100000352E+00 0.  1.
       -3    1    3    3    0  502 -0.39542515834E+03 -0.14543061638E+03 -0.29667115039E+03  0.51529108444E+03  0.10100000352E+00 0. -1.
</event>
<event>
 5   0  0.1656859E-02  0.9925419E+03  0.7818609E-02  0.9316763E-01
        2   -1    0    0  501    0  0.00000000000E+00  0.00000000000E+00  0.44594505907E+03  0.44594505908E+03  0.25500000920E-02 0.  1.
       -2   -1    0    0    0  501  0.00000000000E+00  0.00000000000E+00 -0.55227626538E+03  0.55227626539E+03  0.25500000920E-02 0. -1.
    10030    2    1    2    0    0  0.00000000000E+00  0.00000000000E+00 -0.10633120631E+03  0.99822132447E+03  0.99254193221E+03 0.  0.
        4    1    3    3  502    0 -0.25535963033E+03 -0.15373435409E+03  0.34589252726E+03  0.45660272201E+03  0.12699999809E+01 0.  1.
       -4    1    3    3    0  502  0.25535963033E+03  0.15373435409E+03 -0.45222373357E+03  0.54161860246E+03  0.12699999809E+01 0. -1.
</event>
<event>
 5   0  0.1617721E-02  0.1018373E+04  0.7818609E-02  0.9288620E-01
       -2   -1    0    0    0  501  0.00000000000E+00  0.00000000000E+00  0.53383580504E+03  0.53383580504E+03  0.25500000920E-02 0. -1.
        2   -1    0    0  501    0  0.00000000000E+00  0.00000000000E+00 -0.48567574453E+03  0.48567574453E+03  0.25500000920E-02 0.  1.
    10030    2    1    2    0    0  0.00000000000E+00  0.00000000000E+00  0.48160060512E+02  0.10195115496E+04  0.10183734130E+04 0.  0.
        5    1    3    3  502    0 -0.15792871908E+03  0.21647077267E+03 -0.40935641838E+03  0.48928094485E+03  0.46999998093E+01 0.  1.
       -5    1    3    3    0  502  0.15792871908E+03 -0.21647077267E+03  0.45751647889E+03  0.53023060472E+03  0.46999998093E+01 0. -1.
</event>
<event>
 5   0  0.1663497E-02  0.1013196E+04  0.7818609E-02  0.9294189E-01
       -2   -1    0    0    0  501  0.00000000000E+00  0.00000000000E+00  0.36273904460E+03  0.36273904461E+03  0.25500000920E-02 0.  1.
        2   -1    0    0  501    0  0.00000000000E+00  0.00000000000E+00 -0.70750955940E+03  0.70750955941E+03  0.25500000920E-02 0. -1.
    10030    2    1    2    0    0  0.00000000000E+00  0.00000000000E+00 -0.34477051480E+03  0.10702486040E+04  0.10131956211E+04 0.  0.
        1    1    3    3  502    0  0.36467830493E+02 -0.41306486776E+03  0.13501518901E+03  0.43609814139E+03  0.50400001928E-02 0.  1.
       -1    1    3    3    0  502 -0.36467830493E+02  0.41306486776E+03 -0.47978570381E+03  0.63415046262E+03  0.50400001928E-02 0. -1.
</event>
<event>
 5   0  0.9471140E-03  0.1007367E+04  0.7818609E-02  0.9300501E-01
        1   -1    0    0  501    0  0.00000000000E+00  0.00000000000E+00  0.10700070961E+04  0.10700070961E+04  0.50400001928E-02 0.  1.
       -1   -1    0    0    0  501  0.00000000000E+00  0.00000000000E+00 -0.23709861072E+03  0.23709861078E+03  0.50400001928E-02 0. -1.
    10030    2    1    2    0    0  0.00000000000E+00  0.00000000000E+00  0.83290848540E+03  0.13071057069E+04  0.10073672538E+04 0.  0.
        4    1    3    3  502    0 -0.43394552599E+03 -0.18020463418E+03  0.65185487685E+03  0.80355387068E+03  0.12699999809E+01 0.  1.
       -4    1    3    3    0  502  0.43394552599E+03  0.18020463418E+03  0.18105360856E+03  0.50355183624E+03  0.12699999809E+01 0. -1.
</event>
<event>
 5   0  0.1663497E-02  0.9273612E+03  0.7818609E-02  0.9392010E-01
       -2   -1    0    0    0  501  0.00000000000E+00  0.00000000000E+00  0.74384401291E+03  0.74384401291E+03  0.25500000920E-02 0. -1.
        2   -1    0    0  501    0  0.00000000000E+00  0.00000000000E+00 -0.28903870001E+03  0.28903870002E+03  0.25500000920E-02 0.  1.
    10030    2    1    2    0    0  0.00000000000E+00  0.00000000000E+00  0.45480531290E+03  0.10328827129E+04  0.92736121659E+03 0.  0.
        1    1    3    3  502    0 -0.20912587200E+03  0.31463518210E+03  0.52682447627E+03  0.64828462652E+03  0.50400001928E-02 0. -1.
       -1    1    3    3    0  502  0.20912587200E+03 -0.31463518210E+03 -0.72019163375E+02  0.38459808641E+03  0.50400001928E-02 0.  1.
</event>
<event>
 5   0  0.9759443E-03  0.1012742E+04  0.7818609E-02  0.9294679E-01
       -1   -1    0    0    0  501  0.00000000000E+00  0.00000000000E+00  0.17915233429E+03  0.17915233436E+03  0.50400001928E-02 0.  1.
        1   -1    0    0  501    0  0.00000000000E+00  0.00000000000E+00 -0.14312488232E+04  0.14312488232E+04  0.50400001928E-02 0. -1.
    10030    2    1    2    0    0  0.00000000000E+00  0.00000000000E+00 -0.12520964889E+04  0.16104011575E+04  0.10127419566E+04 0.  0.
        2    1    3    3  502    0  0.21915165165E+03  0.23609928978E+03 -0.12473051420E+04  0.12882315158E+04  0.25500000920E-02 0. -1.
       -2    1    3    3    0  502 -0.21915165165E+03 -0.23609928978E+03 -0.47913469103E+01  0.32216964175E+03  0.25500000920E-02 0.  1.
</event>
<event>
 5   0  0.1598986E-02  0.1008677E+04  0.7818609E-02  0.9299078E-01
       -2   -1    0    0    0  501  0.00000000000E+00  0.00000000000E+00  0.52680024460E+03  0.52680024461E+03  0.25500000920E-02 0.  1.
        2   -1    0    0  501    0  0.00000000000E+00  0.00000000000E+00 -0.48283487118E+03  0.48283487118E+03  0.25500000920E-02 0. -1.
    10030    2    1    2    0    0  0.00000000000E+00  0.00000000000E+00  0.43965373426E+02  0.10096351158E+04  0.10086774078E+04 0.  0.
        3    1    3    3  502    0 -0.39880319902E+03 -0.18662935192E+03 -0.22418376007E+03  0.49409804192E+03  0.10100000352E+00 0.  1.
       -3    1    3    3    0  502  0.39880319902E+03  0.18662935192E+03  0.26814913349E+03  0.51553707387E+03  0.10100000352E+00 0. -1.
</event>
<event>
 5   0  0.9471140E-03  0.9640811E+03  0.7818609E-02  0.9348842E-01
        1   -1    0    0  501    0  0.00000000000E+00  0.00000000000E+00  0.52007879497E+03  0.52007879499E+03  0.50400001928E-02 0. -1.
       -1   -1    0    0    0  501  0.00000000000E+00  0.00000000000E+00 -0.44678443821E+03  0.44678443824E+03  0.50400001928E-02 0.  1.
    10030    2    1    2    0    0  0.00000000000E+00  0.00000000000E+00  0.73294356757E+02  0.96686323323E+03  0.96408114235E+03 0.  0.
        4    1    3    3  502    0 -0.23026579137E+03 -0.20734711336E+03 -0.33366943725E+03  0.45535927173E+03  0.12699999809E+01 0.  1.
       -4    1    3    3    0  502  0.23026579137E+03  0.20734711336E+03  0.40696379401E+03  0.51150396150E+03  0.12699999809E+01 0. -1.
</event>
<event>
 5   0  0.9471140E-03  0.9259245E+03  0.7818609E-02  0.9393742E-01
       -1   -1    0    0    0  501  0.00000000000E+00  0.00000000000E+00  0.37578089256E+03  0.37578089260E+03  0.50400001928E-02 0.  1.
        1   -1    0    0  501    0  0.00000000000E+00  0.00000000000E+00 -0.57036975936E+03  0.57036975938E+03  0.50400001928E-02 0. -1.
    10030    2    1    2    0    0  0.00000000000E+00  0.00000000000E+00 -0.19458886679E+03  0.94615065198E+03  0.92592452671E+03 0.  0.
        4    1    3    3  502    0 -0.17311443751E+03  0.34791864181E+03  0.15982979357E+03  0.42019419987E+03  0.12699999809E+01 0.  1.
       -4    1    3    3    0  502  0.17311443751E+03 -0.34791864181E+03 -0.35441866037E+03  0.52595645210E+03  0.12699999809E+01 0. -1.
</event>
<event>
 5   0  0.1663497E-02  0.1000515E+04  0.7818609E-02  0.9307981E-01
       -2   -1    0    0    0  501  0.00000000000E+00  0.00000000000E+00  0.16152745790E+03  0.16152745792E+03  0.25500000920E-02 0.  1.
        2   -1    0    0  501    0  0.00000000000E+00  0.00000000000E+00 -0.15493178125E+04  0.15493178125E+04  0.25500000920E-02 0. -1.
    10030    2    1    2    0    0  0.00000000000E+00  0.00000000000E+00 -0.13877903546E+04  0.17108452704E+04  0.10005146031E+04 0.  0.
        1    1    3    3  502    0  0.46806656443E+02 -0.46977012086E+03 -0.97685459472E+03  0.10849514868E+04  0.50400001928E-02 0. -1.
       -1    1    3    3    0  502 -0.46806656443E+02  0.46977012086E+03 -0.41093575984E+03  0.62589378355E+03  0.50400001928E-02 0.  1.
</event>
<event>
 5   0  0.1656859E-02  0.1011079E+04  0.7818609E-02  0.9296477E-01
       -2   -1    0    0    0  501  0.00000000000E+00  0.00000000000E+00  0.31456631804E+03  0.31456631805E+03  0.25500000920E-02 0.  1.
        2   -1    0    0  501    0  0.00000000000E+00  0.00000000000E+00 -0.81245181266E+03  0.81245181267E+03  0.25500000920E-02 0. -1.
    10030    2    1    2    0    0  0.00000000000E+00  0.00000000000E+00 -0.49788549463E+03  0.11270181307E+04  0.10110785831E+04 0.  0.
        4    1    3    3  502    0 -0.89549095839E+02  0.48843501140E+03 -0.14331020397E+03  0.51684352409E+03  0.12699999809E+01 0.  1.
       -4    1    3    3    0  502  0.89549095839E+02 -0.48843501140E+03 -0.35457529065E+03  0.61017460663E+03  0.12699999809E+01 0. -1.
</event>
<event>
 5   0  0.9396660E-03  0.1008732E+04  0.7818609E-02  0.9299019E-01
        1   -1    0    0  501    0  0.00000000000E+00  0.00000000000E+00  0.49367312081E+03  0.49367312083E+03  0.50400001928E-02 0. -1.
       -1   -1    0    0    0  501  0.00000000000E+00  0.00000000000E+00 -0.51529048109E+03  0.51529048111E+03  0.50400001928E-02 0.  1.
    10030    2    1    2    0    0  0.00000000000E+00  0.00000000000E+00 -0.21617360281E+02  0.10089636019E+04  0.10087319960E+04 0.  0.
        5    1    3    3  502    0 -0.49337477424E+03 -0.58486835786E+02  0.75949877783E+02  0.50262297177E+03  0.46999998093E+01 0. -1.
       -5    1    3    3    0  502  0.49337477424E+03  0.58486835786E+02 -0.97567238064E+02  0.50634063017E+03  0.46999998093E+01 0.  1.
</event>
<event>
 5   0  0.1663497E-02  0.9966318E+03  0.7818609E-02  0.9312247E-01
       -2   -1    0    0    0  501  0.00000000000E+00  0.00000000000E+00  0.16768026040E+03  0.16768026042E+03  0.25500000920E-02 0.  1.
        2   -1    0    0  501    0  0.00000000000E+00  0.00000000000E+00 -0.14809061496E+04  0.14809061496E+04  0.25500000920E-02 0. -1.
    10030    2    1    2    0    0  0.00000000000E+00  0.00000000000E+00 -0.13132258892E+04  0.16485864100E+04  0.99663178518E+03 0.  0.
        1    1    3    3  502    0  0.86188976794E+02  0.14519972072E+03  0.11891592336E+03  0.20652480595E+03  0.50400001928E-02 0.  1.
       -1    1    3    3    0  502 -0.86188976794E+02 -0.14519972072E+03 -0.14321418125E+04  0.14420616040E+04  0.50400001928E-02 0. -1.
</event>
<event>
 5   0  0.1598986E-02  0.9863526E+03  0.7818609E-02  0.9323641E-01
       -2   -1    0    0    0  501  0.00000000000E+00  0.00000000000E+00  0.19705274277E+03  0.19705274279E+03  0.25500000920E-02 0.  1.
        2   -1    0    0  501    0  0.00000000000E+00  0.00000000000E+00 -0.12343032370E+04  0.12343032370E+04  0.25500000920E-02 0. -1.
    10030    2    1    2    0    0  0.00000000000E+00  0.00000000000E+00 -0.10372504942E+04  0.14313559798E+04  0.98635255010E+03 0.  0.
        3    1    3    3  502    0  0.32404610012E+03 -0.58326735686E+02  0.14199643383E+02  0.32955958971E+03  0.10100000352E+00 0.  1.
       -3    1    3    3    0  502 -0.32404610012E+03  0.58326735686E+02 -0.10514501376E+04  0.11017963901E+04  0.10100000352E+00 0. -1.
</event>
<event>
 5   0  0.9507815E-03  0.1014146E+04  0.7818609E-02  0.9293164E-01
       -1   -1    0    0    0  501  0.00000000000E+00  0.00000000000E+00  0.45935177219E+03  0.45935177221E+03  0.50400001928E-02 0. -1.
        1   -1    0    0  501    0  0.00000000000E+00  0.00000000000E+00 -0.55975177770E+03  0.55975177772E+03  0.50400001928E-02 0.  1.
    10030    2    1    2    0    0  0.00000000000E+00  0.00000000000E+00 -0.10040000552E+03  0.10191035499E+04  0.10141458891E+04 0.  0.
        1    1    3    3  502    0 -0.46277234430E+03 -0.18360016302E+03  0.46476897105E+02  0.50002736375E+03  0.50400001928E-02 0. -1.
       -1    1    3    3    0  502  0.46277234430E+03  0.18360016302E+03 -0.14687690262E+03  0.51907618618E+03  0.50400001928E-02 0.  1.
</event>
<event>
 5   0  0.9471140E-03  0.5439777E+03  0.7818609E-02  0.1002898E+00
       -1   -1    0    0    0  501  0.00000000000E+00  0.00000000000E+00  0.13436816462E+03  0.13436816471E+03  0.50400001928E-02 0. -1.
        1   -1    0    0  501    0  0.00000000000E+00  0.00000000000E+00 -0.55056141786E+03  0.55056141788E+03  0.50400001928E-02 0.  1.
    10030    2    1    2    0    0  0.00000000000E+00  0.00000000000E+00 -0.41619325324E+03  0.68492958260E+03  0.54397767332E+03 0.  0.
        4    1    3    3  502    0 -0.68247566164E+02 -0.23677696858E+03 -0.35306018157E+03  0.43055100493E+03  0.12699999809E+01 0.  1.
       -4    1    3    3    0  502  0.68247566164E+02  0.23677696858E+03 -0.63133071665E+02  0.25437857766E+03  0.12699999809E+01 0. -1.
</event>
<event>
 5   0  0.1000773E-02  0.9651722E+03  0.7818609E-02  0.9347590E-01
        1   -1    0    0  501    0  0.00000000000E+00  0.00000000000E+00  0.12237777091E+04  0.12237777091E+04  0.50400001928E-02 0. -1.
       -1   -1    0    0    0  501  0.00000000000E+00  0.00000000000E+00 -0.19030361523E+03  0.19030361530E+03  0.50400001928E-02 0.  1.
    10030    2    1    2    0    0  0.00000000000E+00  0.00000000000E+00  0.10334740939E+04  0.14140813244E+04  0.96517215530E+03 0.  0.
        3    1    3    3  502    0  0.44742996510E+03  0.60537271966E+01  0.25196529575E+03  0.51353358385E+03  0.10100000352E+00 0.  1.
       -3    1    3    3    0  502 -0.44742996510E+03 -0.60537271966E+01  0.78150879814E+03  0.90054774057E+03  0.10100000352E+00 0. -1.
</event>
<event>
 5   0  0.9396660E-03  0.1044835E+04  0.7818609E-02  0.9260693E-01
       -1   -1    0    0    0  501  0.00000000000E+00  0.00000000000E+00  0.23186492148E+03  0.23186492153E+03  0.50400001928E-02 0. -1.
        1   -1    0    0  501    0  0.00000000000E+00  0.00000000000E+00 -0.11770647099E+04  0.11770647100E+04  0.50400001928E-02 0.  1.
    10030    2    1    2    0    0  0.00000000000E+00  0.00000000000E+00 -0.94519978846E+03  0.14089296315E+04  0.10448349470E+04 0.  0.
        5    1    3    3  502    0 -0.41480824445E+03  0.49130921851E+02 -0.49561952456E+02  0.42066400402E+03  0.46999998093E+01 0. -1.
       -5    1    3    3    0  502  0.41480824445E+03 -0.49130921851E+02 -0.89563783601E+03  0.98826562747E+03  0.46999998093E+01 0.  1.
</event>
<event>
 5   0  0.6314750E-03  0.9848908E+03  0.7818609E-02  0.9325273E-01
       -3   -1    0    0    0  501  0.00000000000E+00  0.00000000000E+00  0.49198726137E+03  0.49198727173E+03  0.10100000352E+00 0. -1.
        3   -1    0    0  501    0  0.00000000000E+00  0.00000000000E+00 -0.49290398775E+03  0.49290399810E+03  0.10100000352E+00 0.  1.
    10030    2    1    2    0    0  0.00000000000E+00  0.00000000000E+00 -0.91672638266E+00  0.98489126983E+03  0.98489084319E+03 0.  0.
        5    1    3    3  502    0 -0.16622836665E+03  0.29462686883E+03 -0.35829024057E+03  0.49277870105E+03  0.46999998093E+01 0.  1.
       -5    1    3    3    0  502  0.16622836665E+03 -0.29462686883E+03  0.35737351419E+03  0.49211256879E+03  0.46999998093E+01 0. -1.
</event>
<event>
 5   0  0.1000773E-02  0.9882257E+03  0.7818609E-02  0.9321554E-01
        1   -1    0    0  501    0  0.00000000000E+00  0.00000000000E+00  0.37767844716E+03  0.37767844719E+03  0.50400001928E-02 0.  1.
       -1   -1    0    0    0  501  0.00000000000E+00  0.00000000000E+00 -0.64644277173E+03  0.64644277175E+03  0.50400001928E-02 0. -1.
    10030    2    1    2    0    0  0.00000000000E+00  0.00000000000E+00 -0.26876432458E+03  0.10241212189E+04  0.98822568724E+03 0.  0.
        3    1    3    3  502    0 -0.40328364664E+03 -0.29119900693E+02  0.15994425542E+03  0.43481932260E+03  0.10100000352E+00 0. -1.
       -3    1    3    3    0  502  0.40328364664E+03  0.29119900693E+02 -0.42870858000E+03  0.58930189634E+03  0.10100000352E+00 0.  1.
</event>
<event>
 5   0  0.1656859E-02  0.9220189E+03  0.7818609E-02  0.9398468E-01
        2   -1    0    0  501    0  0.00000000000E+00  0.00000000000E+00  0.62393518531E+03  0.62393518531E+03  0.25500000920E-02 0.  1.
       -2   -1    0    0    0  501  0.00000000000E+00  0.00000000000E+00 -0.34062786189E+03  0.34062786190E+03  0.25500000920E-02 0. -1.
    10030    2    1    2    0    0  0.00000000000E+00  0.00000000000E+00  0.28330732342E+03  0.96456304721E+03  0.92201888947E+03 0.  0.
        4    1    3    3  502    0  0.40819462590E+03  0.19335926277E+03  0.45105214149E+02  0.45392372746E+03  0.12699999809E+01 0.  1.
       -4    1    3    3    0  502 -0.40819462590E+03 -0.19335926277E+03  0.23820210927E+03  0.51063931975E+03  0.12699999809E+01 0. -1.
</event>
<event>
 5   0  0.1663497E-02  0.9936336E+03  0.7818609E-02  0.9315555E-01
       -2   -1    0    0    0  501  0.00000000000E+00  0.00000000000E+00  0.71804017744E+03  0.71804017745E+03  0.25500000920E-02 0. -1.
        2   -1    0    0  501    0  0.00000000000E+00  0.00000000000E+00 -0.34375087629E+03  0.34375087630E+03  0.25500000920E-02 0.  1.
    10030    2    1    2    0    0  0.00000000000E+00  0.00000000000E+00  0.37428930116E+03  0.10617910537E+04  0.99363361500E+03 0.  0.
        1    1    3    3  502    0  0.19671790700E+03  0.30234039848E+03 -0.17793203792E+03  0.40220325910E+03  0.50400001928E-02 0.  1.
       -1    1    3    3    0  502 -0.19671790700E+03 -0.30234039848E+03  0.55222133907E+03  0.65958779464E+03  0.50400001928E-02 0. -1.
</event>
<event>
 5   0  0.9759443E-03  0.1003963E+04  0.7818609E-02  0.9304209E-01
        1   -1    0    0  501    0  0.00000000000E+00  0.00000000000E+00  0.10437288063E+04  0.10437288063E+04  0.50400001928E-02 0. -1.
       -1   -1    0    0    0  501  0.00000000000E+00  0.00000000000E+00 -0.24142815247E+03  0.24142815253E+03  0.50400001928E-02 0.  1.
    10030    2    1    2    0    0  0.00000000000E+00  0.00000000000E+00  0.80230065383E+03  0.12851569588E+04  0.10039631815E+04 0.  0.
        2    1    3    3  502    0  0.39489577529E+03  0.30943574541E+03  0.37926263353E+03  0.62891438136E+03  0.25500000920E-02 0. -1.
       -2    1    3    3    0  502 -0.39489577529E+03 -0.30943574541E+03  0.42303802031E+03  0.65624257749E+03  0.25500000920E-02 0.  1.
</event>
<event>
 5   0  0.1617721E-02  0.9482037E+03  0.7818609E-02  0.9367253E-01
       -2   -1    0    0    0  501  0.00000000000E+00  0.00000000000E+00  0.29334907365E+03  0.29334907366E+03  0.25500000920E-02 0. -1.
        2   -1    0    0  501    0  0.00000000000E+00  0.00000000000E+00 -0.76622896882E+03  0.76622896883E+03  0.25500000920E-02 0.  1.
    10030    2    1    2    0    0  0.00000000000E+00  0.00000000000E+00 -0.47287989517E+03  0.10595780425E+04  0.94820368743E+03 0.  0.
        5    1    3    3  502    0  0.15913033152E+03 -0.43951264676E+03 -0.32482968909E+03  0.56923654660E+03  0.46999998093E+01 0.  1.
       -5    1    3    3    0  502 -0.15913033152E+03  0.43951264676E+03 -0.14805020608E+03  0.49034149589E+03  0.46999998093E+01 0. -1.
</event>
<event>
 5   0  0.9759443E-03  0.9749921E+03  0.7818609E-02  0.9336406E-01
        1   -1    0    0  501    0  0.00000000000E+00  0.00000000000E+00  0.30812388038E+03  0.30812388042E+03  0.50400001928E-02 0.  1.
       -1   -1    0    0    0  501  0.00000000000E+00  0.00000000000E+00 -0.77128845734E+03  0.77128845736E+03  0.50400001928E-02 0. -1.
    10030    2    1    2    0    0  0.00000000000E+00  0.00000000000E+00 -0.46316457696E+03  0.10794123378E+04  0.97499208694E+03 0.  0.
        2    1    3    3  502    0  0.79443904473E+02  0.47989800863E+03 -0.26726728415E+03  0.55501822837E+03  0.25500000920E-02 0.  1.
       -2    1    3    3    0  502 -0.79443904473E+02 -0.47989800863E+03 -0.19589729282E+03  0.52439410941E+03  0.25500000920E-02 0. -1.
</event>
<event>
 5   0  0.1571895E-02  0.1013231E+04  0.7818609E-02  0.9294152E-01
       -2   -1    0    0    0  501  0.00000000000E+00  0.00000000000E+00  0.48079182948E+03  0.48079182949E+03  0.25500000920E-02 0. -1.
        2   -1    0    0  501    0  0.00000000000E+00  0.00000000000E+00 -0.53382582933E+03  0.53382582934E+03  0.25500000920E-02 0.  1.
    10030    2    1    2    0    0  0.00000000000E+00  0.00000000000E+00 -0.53033999851E+02  0.10146176588E+04  0.10132306689E+04 0.  0.
        2    1    3    3  502    0 -0.39143376646E+03  0.41178648997E+02  0.29289145459E+03  0.49061337001E+03  0.25500000920E-02 0. -1.
       -2    1    3    3    0  502  0.39143376646E+03 -0.41178648997E+02 -0.34592545444E+03  0.52400428881E+03  0.25500000920E-02 0.  1.
</event>
<event>
 5   0  0.1598986E-02  0.9979673E+03  0.7818609E-02  0.9310777E-01
        2   -1    0    0  501    0  0.00000000000E+00  0.00000000000E+00  0.59161271128E+03  0.59161271128E+03  0.25500000920E-02 0. -1.
       -2   -1    0    0    0  501  0.00000000000E+00  0.00000000000E+00 -0.42085759898E+03  0.42085759898E+03  0.25500000920E-02 0.  1.
    10030    2    1    2    0    0  0.00000000000E+00  0.00000000000E+00  0.17075511230E+03  0.10124703103E+04  0.99796734455E+03 0.  0.
        3    1    3    3  502    0 -0.40507457106E+03 -0.27057768069E+03 -0.24299956369E+02  0.48773782659E+03  0.10100000352E+00 0.  1.
       -3    1    3    3    0  502  0.40507457106E+03  0.27057768069E+03  0.19505506867E+03  0.52473248367E+03  0.10100000352E+00 0. -1.
</event>
<event>
 5   0  0.6314750E-03  0.9877221E+03  0.7818609E-02  0.9322114E-01
       -3   -1    0    0    0  501  0.00000000000E+00  0.00000000000E+00  0.41245856782E+03  0.41245858018E+03  0.10100000352E+00 0. -1.
        3   -1    0    0  501    0  0.00000000000E+00  0.00000000000E+00 -0.59132907883E+03  0.59132908745E+03  0.10100000352E+00 0.  1.
    10030    2    1    2    0    0  0.00000000000E+00  0.00000000000E+00 -0.17887051101E+03  0.10037876676E+04  0.98772213805E+03 0.  0.
        1    1    3    3  502    0  0.39393176012E+03 -0.70821783333E+02  0.20458135686E+03  0.44950137733E+03  0.50400001928E-02 0. -1.
       -1    1    3    3    0  502 -0.39393176012E+03  0.70821783333E+02 -0.38345186787E+03  0.55428629031E+03  0.50400001928E-02 0.  1.
</event>
<event>
 5   0  0.1663497E-02  0.1032323E+04  0.7818609E-02  0.9273787E-01
        2   -1    0    0  501    0  0.00000000000E+00  0.00000000000E+00  0.41416847615E+03  0.41416847615E+03  0.25500000920E-02 0. -1.
       -2   -1    0    0    0  501  0.00000000000E+00  0.00000000000E+00 -0.64327177576E+03  0.64327177576E+03  0.25500000920E-02 0.  1.
    10030    2    1    2    0    0  0.00000000000E+00  0.00000000000E+00 -0.22910329961E+03  0.10574402519E+04  0.10323233817E+04 0.  0.
        1    1    3    3  502    0  0.10144520607E+03 -0.27641607928E+03 -0.54880724457E+03  0.62280524278E+03  0.50400001928E-02 0.  1.
       -1    1    3    3    0  502 -0.10144520607E+03  0.27641607928E+03  0.31970394496E+03  0.43463500914E+03  0.50400001928E-02 0. -1.
</event>
<event>
 5   0  0.1656859E-02  0.1022408E+04  0.7818609E-02  0.9284304E-01
       -2   -1    0    0    0  501  0.00000000000E+00  0.00000000000E+00  0.72392006568E+03  0.72392006569E+03  0.25500000920E-02 0.  1.
        2   -1    0    0  501    0  0.00000000000E+00  0.00000000000E+00 -0.36099190377E+03  0.36099190378E+03  0.25500000920E-02 0. -1.
    10030    2    1    2    0    0  0.00000000000E+00  0.00000000000E+00  0.36292816191E+03  0.10849119695E+04  0.10224075170E+04 0.  0.
        4    1    3    3  502    0 -0.73486813749E+02  0.25678620120E+03 -0.28105940101E+03  0.38773117584E+03  0.12699999809E+01 0. -1.
       -4    1    3    3    0  502  0.73486813749E+02 -0.25678620120E+03  0.64398756291E+03  0.69718079363E+03  0.12699999809E+01 0.  1.
</event>
<event>
 5   0  0.9396660E-03  0.8754284E+03  0.7818609E-02  0.9456829E-01
        1   -1    0    0  501    0  0.00000000000E+00  0.00000000000E+00  0.73473193259E+03  0.73473193261E+03  0.50400001928E-02 0.  1.
       -1   -1    0    0    0  501  0.00000000000E+00  0.00000000000E+00 -0.26076680588E+03  0.26076680593E+03  0.50400001928E-02 0. -1.
    10030    2    1    2    0    0  0.00000000000E+00  0.00000000000E+00  0.47396512671E+03  0.99549873854E+03  0.87542835064E+03 0.  0.
        5    1    3    3  502    0  0.29800493332E+03  0.12939756937E+03 -0.96537676172E+02  0.33895764361E+03  0.46999998093E+01 0. -1.
       -5    1    3    3    0  502 -0.29800493332E+03 -0.12939756937E+03  0.57050280288E+03  0.65654109493E+03  0.46999998093E+01 0.  1.
</event>
<event>
 5   0  0.9759443E-03  0.1055685E+04  0.7818609E-02  0.9249494E-01
       -1   -1    0    0    0  501  0.00000000000E+00  0.00000000000E+00  0.52272085571E+03  0.52272085573E+03  0.50400001928E-02 0.  1.
        1   -1    0    0  501    0  0.00000000000E+00  0.00000000000E+00 -0.53301455019E+03  0.53301455021E+03  0.50400001928E-02 0. -1.
    10030    2    1    2    0    0  0.00000000000E+00  0.00000000000E+00 -0.10293694485E+02  0.10557354059E+04  0.10556852217E+04 0.  0.
        2    1    3    3  502    0  0.16681287824E+03  0.17394513454E+03 -0.47478004803E+03  0.53244674869E+03  0.25500000920E-02 0. -1.
       -2    1    3    3    0  502 -0.16681287824E+03 -0.17394513454E+03  0.46448635355E+03  0.52328865726E+03  0.25500000920E-02 0.  1.
</event>
<event>
 5   0  0.9396660E-03  0.9983568E+03  0.7818609E-02  0.9310349E-01
       -1   -1    0    0    0  501  0.00000000000E+00  0.00000000000E+00  0.35729672756E+03  0.35729672760E+03  0.50400001928E-02 0. -1.
        1   -1    0    0  501    0  0.00000000000E+00  0.00000000000E+00 -0.69740095448E+03  0.69740095450E+03  0.50400001928E-02 0.  1.
    10030    2    1    2    0    0  0.00000000000E+00  0.00000000000E+00 -0.34010422692E+03  0.10546976821E+04  0.99835680768E+03 0.  0.
        5    1    3    3  502    0  0.17754809963E+03  0.25370363005E+03  0.24353608340E+03  0.39398067655E+03  0.46999998093E+01 0. -1.
       -5    1    3    3    0  502 -0.17754809963E+03 -0.25370363005E+03 -0.58364031032E+03  0.66071700554E+03  0.46999998093E+01 0.  1.
</event>
<event>
 5   0  0.1598986E-02  0.9934656E+03  0.7818609E-02  0.9315741E-01
        2   -1    0    0  501    0  0.00000000000E+00  0.00000000000E+00  0.74502645483E+03  0.74502645484E+03  0.25500000920E-02 0. -1.
       -2   -1    0    0    0  501  0.00000000000E+00  0.00000000000E+00 -0.33118751715E+03  0.33118751716E+03  0.25500000920E-02 0.  1.
    10030    2    1    2    0    0  0.00000000000E+00  0.00000000000E+00  0.41383893768E+03  0.10762139720E+04  0.99346557422E+03 0.  0.
        3    1    3    3  502    0  0.48329403340E+02  0.13436279508E+03  0.72231450957E+03  0.73629298032E+03  0.10100000352E+00 0. -1.
       -3    1    3    3    0  502 -0.48329403340E+02 -0.13436279508E+03 -0.30847557189E+03  0.33992099167E+03  0.10100000352E+00 0.  1.
</event>
<event>
 5   0  0.1571895E-02  0.9784599E+03  0.7818609E-02  0.9332490E-01
       -2   -1    0    0    0  501  0.00000000000E+00  0.00000000000E+00  0.16399529778E+03  0.16399529780E+03  0.25500000920E-02 0.  1.
        2   -1    0    0  501    0  0.00000000000E+00  0.00000000000E+00 -0.14594684527E+04  0.14594684527E+04  0.25500000920E-02 0. -1.
    10030    2    1    2    0    0  0.00000000000E+00  0.00000000000E+00 -0.12954731549E+04  0.16234637505E+04  0.97845993995E+03 0.  0.
        2    1    3    3  502    0 -0.46520229091E+01  0.21688816858E+03 -0.13753001468E+04  0.13923047844E+04  0.25500000920E-02 0. -1.
       -2    1    3    3    0  502  0.46520229091E+01 -0.21688816858E+03  0.79826991820E+02  0.23115896612E+03  0.25500000920E-02 0.  1.
</event>
<event>
 5   0  0.1617721E-02  0.9735161E+03  0.7818609E-02  0.9338079E-01
        2   -1    0    0  501    0  0.00000000000E+00  0.00000000000E+00  0.54778411292E+03  0.54778411292E+03  0.25500000920E-02 0. -1.
       -2   -1    0    0    0  501  0.00000000000E+00  0.00000000000E+00 -0.43253057165E+03  0.43253057166E+03  0.25500000920E-02 0.  1.
    10030    2    1    2    0    0  0.00000000000E+00  0.00000000000E+00  0.11525354127E+03  0.98031468459E+03  0.97351605125E+03 0.  0.
        5    1    3    3  502    0  0.18193625362E+03 -0.98422403815E+02  0.50129820277E+03  0.54231886197E+03  0.46999998093E+01 0. -1.
       -5    1    3    3    0  502 -0.18193625362E+03  0.98422403815E+02 -0.38604466150E+03  0.43799582261E+03  0.46999998093E+01 0.  1.
</event>
<event>
 5   0  0.9471140E-03  0.1036272E+04  0.7818609E-02  0.9269633E-01
        1   -1    0    0  501    0  0.00000000000E+00  0.00000000000E+00  0.13085941935E+04  0.13085941935E+04  0.50400001928E-02 0. -1.
       -1   -1    0    0    0  501  0.00000000000E+00  0.00000000000E+00 -0.20515534506E+03  0.20515534512E+03  0.50400001928E-02 0.  1.
    10030    2    1    2    0    0  0.00000000000E+00  0.00000000000E+00  0.11034388484E+04  0.15137495386E+04  0.10362723452E+04 0.  0.
        4    1    3    3  502    0 -0.77386651048E+02 -0.30903861504E+03  0.11486162047E+04  0.11919791768E+04  0.12699999809E+01 0. -1.
       -4    1    3    3    0  502  0.77386651048E+02  0.30903861504E+03 -0.45177356234E+02  0.32177036185E+03  0.12699999809E+01 0.  1.
</event>
<event>
 5   0  0.9507815E-03  0.9161143E+03  0.7818609E-02  0.9405659E-01
        1   -1    0    0  501    0  0.00000000000E+00  0.00000000000E+00  0.89482001446E+03  0.89482001448E+03  0.50400001928E-02 0.  1.
       -1   -1    0    0    0  501  0.00000000000E+00  0.00000000000E+00 -0.23447884527E+03  0.23447884532E+03  0.50400001928E-02 0. -1.
    10030    2    1    2    0    0  0.00000000000E+00  0.00000000000E+00  0.66034116919E+03  0.11292988598E+04  0.91611432421E+03 0.  0.
        1    1    3    3  502    0 -0.23631975487E+03  0.36762535521E+03  0.16105648493E+03  0.46576240692E+03  0.50400001928E-02 0. -1.
       -1    1    3    3    0  502  0.23631975487E+03 -0.36762535521E+03  0.49928468427E+03  0.66353645288E+03  0.50400001928E-02 0.  1.
</event>
<event>
 5   0  0.1571895E-02  0.1000718E+04  0.7818609E-02  0.9307758E-01
        2   -1    0    0  501    0  0.00000000000E+00  0.00000000000E+00  0.64089038106E+03  0.64089038106E+03  0.25500000920E-02 0.  1.
       -2   -1    0    0    0  501  0.00000000000E+00  0.00000000000E+00 -0.39064263094E+03  0.39064263095E+03  0.25500000920E-02 0. -1.
    10030    2    1    2    0    0  0.00000000000E+00  0.00000000000E+00  0.25024775012E+03  0.10315330120E+04  0.10007179515E+04 0.  0.
        2    1    3    3  502    0 -0.33089857779E+03  0.25988157556E+03  0.40425149628E+03  0.58348228281E+03  0.25500000920E-02 0.  1.
       -2    1    3    3    0  502  0.33089857779E+03 -0.25988157556E+03 -0.15400374616E+03  0.44805072921E+03  0.25500000920E-02 0. -1.
</event>
<event>
 5   0  0.6314750E-03  0.9750775E+03  0.7818609E-02  0.9336310E-01
       -3   -1    0    0    0  501  0.00000000000E+00  0.00000000000E+00  0.91258006411E+03  0.91258006970E+03  0.10100000352E+00 0. -1.
        3   -1    0    0  501    0  0.00000000000E+00  0.00000000000E+00 -0.26046376792E+03  0.26046378751E+03  0.10100000352E+00 0.  1.
    10030    2    1    2    0    0  0.00000000000E+00  0.00000000000E+00  0.65211629619E+03  0.11730438572E+04  0.97507754931E+03 0.  0.
        4    1    3    3  502    0 -0.44814471821E+03 -0.24180682886E+02  0.96932811376E+02  0.45914700990E+03  0.12699999809E+01 0.  1.
       -4    1    3    3    0  502  0.44814471821E+03  0.24180682886E+02  0.55518348481E+03  0.71389684730E+03  0.12699999809E+01 0. -1.
</event>
<event>
 5   0  0.9471140E-03  0.1027530E+04  0.7818609E-02  0.9278856E-01
        1   -1    0    0  501    0  0.00000000000E+00  0.00000000000E+00  0.64313388587E+03  0.64313388589E+03  0.50400001928E-02 0. -1.
       -1   -1    0    0    0  501  0.00000000000E+00  0.00000000000E+00 -0.41041879410E+03  0.41041879414E+03  0.50400001928E-02 0.  1.
    10030    2    1    2    0    0  0.00000000000E+00  0.00000000000E+00  0.23271509176E+03  0.10535526800E+04  0.10275295303E+04 0.  0.
        4    1    3    3  502    0 -0.61031281875E+02 -0.13470190677E+03  0.62083791355E+03  0.63820901659E+03  0.12699999809E+01 0. -1.
       -4    1    3    3    0  502  0.61031281875E+02  0.13470190677E+03 -0.38812282179E+03  0.41534366343E+03  0.12699999809E+01 0.  1.
</event>
<event>
 5   0  0.1656859E-02  0.1028311E+04  0.7818609E-02  0.9278028E-01
       -2   -1    0    0    0  501  0.00000000000E+00  0.00000000000E+00  0.34910463615E+03  0.34910463616E+03  0.25500000920E-02 0.  1.
        2   -1    0    0  501    0  0.00000000000E+00  0.00000000000E+00 -0.75723947250E+03  0.75723947251E+03  0.25500000920E-02 0. -1.
    10030    2    1    2    0    0  0.00000000000E+00  0.00000000000E+00 -0.40813483635E+03  0.11063441087E+04  0.10283108684E+04 0.  0.
        4    1    3    3  502    0  0.49788458971E+03 -0.79248171172E+02 -0.31264579389E+03  0.59322705825E+03  0.12699999809E+01 0. -1.
       -4    1    3    3    0  502 -0.49788458971E+03  0.79248171172E+02 -0.95489042461E+02  0.51311705042E+03  0.12699999809E+01 0.  1.
</event>
<event>
 5   0  0.9396660E-03  0.9286734E+03  0.7818609E-02  0.9390431E-01
       -1   -1    0    0    0  501  0.00000000000E+00  0.00000000000E+00  0.14587565740E+03  0.14587565749E+03  0.50400001928E-02 0.  1.
        1   -1    0    0  501    0  0.00000000000E+00  0.00000000000E+00 -0.14780297388E+04  0.14780297388E+04  0.50400001928E-02 0. -1.
    10030    2    1    2    0    0  0.00000000000E+00  0.00000000000E+00 -0.13321540814E+04  0.16239053963E+04  0.92867337612E+03 0.  0.
        5    1    3    3  502    0  0.11769569596E+03 -0.17512885880E+03 -0.13893082148E+04  0.14052479496E+04  0.46999998093E+01 0. -1.
       -5    1    3    3    0  502 -0.11769569596E+03  0.17512885880E+03  0.57154133430E+02  0.21865744671E+03  0.46999998093E+01 0.  1.
</event>
<event>
 5   0  0.1617721E-02  0.9822153E+03  0.7818609E-02  0.9328269E-01
       -2   -1    0    0    0  501  0.00000000000E+00  0.00000000000E+00  0.19285250702E+03  0.19285250704E+03  0.25500000920E-02 0.  1.
        2   -1    0    0  501    0  0.00000000000E+00  0.00000000000E+00 -0.12506279214E+04  0.12506279214E+04  0.25500000920E-02 0. -1.
    10030    2    1    2    0    0  0.00000000000E+00  0.00000000000E+00 -0.10577754144E+04  0.14434804285E+04  0.98221531247E+03 0.  0.
        5    1    3    3  502    0 -0.45953418312E+03 -0.12730844375E+03 -0.70143812192E+03  0.84818431616E+03  0.46999998093E+01 0.  1.
       -5    1    3    3    0  502  0.45953418312E+03  0.12730844375E+03 -0.35633729248E+03  0.59529611229E+03  0.46999998093E+01 0. -1.
</event>
<event>
 5   0  0.1663497E-02  0.9830265E+03  0.7818609E-02  0.9327359E-01
        2   -1    0    0  501    0  0.00000000000E+00  0.00000000000E+00  0.16566615888E+04  0.16566615888E+04  0.25500000920E-02 0.  1.
       -2   -1    0    0    0  501  0.00000000000E+00  0.00000000000E+00 -0.14582656269E+03  0.14582656271E+03  0.25500000920E-02 0. -1.
    10030    2    1    2    0    0  0.00000000000E+00  0.00000000000E+00  0.15108350261E+04  0.18024881515E+04  0.98302647993E+03 0.  0.
        1    1    3    3  502    0  0.14747032376E+03  0.36211532011E+03  0.20928989860E+03  0.44348310354E+03  0.50400001928E-02 0. -1.
       -1    1    3    3    0  502 -0.14747032376E+03 -0.36211532011E+03  0.13015451275E+04  0.13590050480E+04  0.50400001928E-02 0.  1.
</event>
<event>
 5   0  0.9507815E-03  0.9883590E+03  0.7818609E-02  0.9321405E-01
        1   -1    0    0  501    0  0.00000000000E+00  0.00000000000E+00  0.80873614907E+03  0.80873614908E+03  0.50400001928E-02 0.  1.
       -1   -1    0    0    0  501  0.00000000000E+00  0.00000000000E+00 -0.30196917400E+03  0.30196917404E+03  0.50400001928E-02 0. -1.
    10030    2    1    2    0    0  0.00000000000E+00  0.00000000000E+00  0.50676697507E+03  0.11107053231E+04  0.98835901767E+03 0.  0.
        1    1    3    3  502    0 -0.37177526184E+03 -0.14537589718E+03 -0.73988680007E+02  0.40598684904E+03  0.50400001928E-02 0. -1.
       -1    1    3    3    0  502  0.37177526184E+03  0.14537589718E+03  0.58075565508E+03  0.70471847409E+03  0.50400001928E-02 0.  1.
</event>
<event>
 5   0  0.6314750E-03  0.9566039E+03  0.7818609E-02  0.9357465E-01
       -3   -1    0    0    0  501  0.00000000000E+00  0.00000000000E+00  0.29965042933E+03  0.29965044635E+03  0.10100000352E+00 0.  1.
        3   -1    0    0  501    0  0.00000000000E+00  0.00000000000E+00 -0.76346547622E+03  0.76346548290E+03  0.10100000352E+00 0. -1.
    10030    2    1    2    0    0  0.00000000000E+00  0.00000000000E+00 -0.46381504689E+03  0.10631159293E+04  0.95660393127E+03 0.  0.
        5    1    3    3  502    0 -0.45384709790E+03 -0.14996286020E+03 -0.25065707131E+03  0.53973799672E+03  0.46999998093E+01 0.  1.
       -5    1    3    3    0  502  0.45384709790E+03  0.14996286020E+03 -0.21315797558E+03  0.52337793253E+03  0.46999998093E+01 0. -1.
</event>
<event>
 5   0  0.9759443E-03  0.1009113E+04  0.7818609E-02  0.9298606E-01
       -1   -1    0    0    0  501  0.00000000000E+00  0.00000000000E+00  0.45109861089E+03  0.45109861092E+03  0.50400001928E-02 0.  1.
        1   -1    0    0  501    0  0.00000000000E+00  0.00000000000E+00 -0.56434919454E+03  0.56434919456E+03  0.50400001928E-02 0. -1.
    10030    2    1    2    0    0  0.00000000000E+00  0.00000000000E+00 -0.11325058365E+03  0.10154478055E+04  0.10091127543E+04 0.  0.
        2    1    3    3  502    0  0.16366424910E+03  0.45348353055E+03  0.93116962093E+02  0.49102348982E+03  0.25500000920E-02 0.  1.
       -2    1    3    3    0  502 -0.16366424910E+03 -0.45348353055E+03 -0.20636754574E+03  0.52442431566E+03  0.25500000920E-02 0. -1.
</event>
<event>
 5   0  0.9471140E-03  0.5179728E+03  0.7818609E-02  0.1009191E+00
       -1   -1    0    0    0  501  0.00000000000E+00  0.00000000000E+00  0.49481019673E+03  0.49481019676E+03  0.50400001928E-02 0.  1.
        1   -1    0    0  501    0  0.00000000000E+00  0.00000000000E+00 -0.13555491749E+03  0.13555491759E+03  0.50400001928E-02 0. -1.
    10030    2    1    2    0    0  0.00000000000E+00  0.00000000000E+00  0.35925527924E+03  0.63036511434E+03  0.51797280018E+03 0.  0.
        4    1    3    3  502    0 -0.68887870475E+02 -0.13757254142E+03  0.43315981391E+03  0.45967464596E+03  0.12699999809E+01 0.  1.
       -4    1    3    3    0  502  0.68887870475E+02  0.13757254142E+03 -0.73904534671E+02  0.17069046838E+03  0.12699999809E+01 0. -1.
</event>
<event>
 5   0  0.9471140E-03  0.1002512E+04  0.7818609E-02  0.9305794E-01
        1   -1    0    0  501    0  0.00000000000E+00  0.00000000000E+00  0.41416816493E+03  0.41416816496E+03  0.50400001928E-02 0. -1.
       -1   -1    0    0    0  501  0.00000000000E+00  0.00000000000E+00 -0.60665623984E+03  0.60665623986E+03  0.50400001928E-02 0.  1.
    10030    2    1    2    0    0  0.00000000000E+00  0.00000000000E+00 -0.19248807491E+03  0.10208244048E+04  0.10025122475E+04 0.  0.
        4    1    3    3  502    0  0.31268446147E+02 -0.34614276120E+03  0.27155109115E+03  0.44106023949E+03  0.12699999809E+01 0. -1.
       -4    1    3    3    0  502 -0.31268446147E+02  0.34614276120E+03 -0.46403916606E+03  0.57976416532E+03  0.12699999809E+01 0.  1.
</event>
<event>
 5   0  0.9507815E-03  0.9881882E+03  0.7818609E-02  0.9321595E-01
       -1   -1    0    0    0  501  0.00000000000E+00  0.00000000000E+00  0.44539276889E+03  0.44539276891E+03  0.50400001928E-02 0. -1.
        1   -1    0    0  501    0  0.00000000000E+00  0.00000000000E+00 -0.54812066137E+03  0.54812066139E+03  0.50400001928E-02 0.  1.
    10030    2    1    2    0    0  0.00000000000E+00  0.00000000000E+00 -0.10272789248E+03  0.99351343031E+03  0.98818819883E+03 0.  0.
        1    1    3    3  502    0  0.19455289390E+03  0.12211358799E+02 -0.50782493045E+03  0.54395413944E+03  0.50400001928E-02 0.  1.
       -1    1    3    3    0  502 -0.19455289390E+03 -0.12211358799E+02  0.40509703796E+03  0.44955929086E+03  0.50400001928E-02 0. -1.
</event>
<event>
 5   0  0.1617721E-02  0.9764290E+03  0.7818609E-02  0.9334782E-01
        2   -1    0    0  501    0  0.00000000000E+00  0.00000000000E+00  0.20864116337E+04  0.20864116337E+04  0.25500000920E-02 0. -1.
       -2   -1    0    0    0  501  0.00000000000E+00  0.00000000000E+00 -0.11424084177E+03  0.11424084180E+03  0.25500000920E-02 0.  1.
    10030    2    1    2    0    0  0.00000000000E+00  0.00000000000E+00  0.19721707919E+04  0.22006524755E+04  0.97642904778E+03 0.  0.
        5    1    3    3  502    0  0.26339274318E+03 -0.30501694078E+03  0.36508823122E+03  0.54380380460E+03  0.46999998093E+01 0.  1.
       -5    1    3    3    0  502 -0.26339274318E+03  0.30501694078E+03  0.16070825607E+04  0.16568486709E+04  0.46999998093E+01 0. -1.
</event>
<event>
 5   0  0.1571895E-02  0.9783298E+03  0.7818609E-02  0.9332637E-01
        2   -1    0    0  501    0  0.00000000000E+00  0.00000000000E+00  0.11035000343E+04  0.11035000343E+04  0.25500000920E-02 0. -1.
       -2   -1    0    0    0  501  0.00000000000E+00  0.00000000000E+00 -0.21683941546E+03  0.21683941547E+03  0.25500000920E-02 0.  1.
    10030    2    1    2    0    0  0.00000000000E+00  0.00000000000E+00  0.88666061885E+03  0.13203394498E+04  0.97832980617E+03 0.  0.
        2    1    3    3  502    0  0.10448850351E+03  0.99115293628E+02 -0.18757821232E+03  0.23648948083E+03  0.25500000920E-02 0.  1.
       -2    1    3    3    0  502 -0.10448850351E+03 -0.99115293628E+02  0.10742388312E+04  0.10838499690E+04  0.25500000920E-02 0. -1.
</event>
<event>
 5   0  0.9759443E-03  0.9961984E+03  0.7818609E-02  0.9312724E-01
        1   -1    0    0  501    0  0.00000000000E+00  0.00000000000E+00  0.90499397067E+03  0.90499397068E+03  0.50400001928E-02 0. -1.
       -1   -1    0    0    0  501  0.00000000000E+00  0.00000000000E+00 -0.27414857169E+03  0.27414857174E+03  0.50400001928E-02 0.  1.
    10030    2    1    2    0    0  0.00000000000E+00  0.00000000000E+00  0.63084539898E+03  0.11791425424E+04  0.99619838282E+03 0.  0.
        2    1    3    3  502    0  0.18421488286E+03 -0.29376825894E+03  0.73867685243E+03  0.81601372865E+03  0.25500000920E-02 0. -1.
       -2    1    3    3    0  502 -0.18421488286E+03  0.29376825894E+03 -0.10783145345E+03  0.36312881377E+03  0.25500000920E-02 0.  1.
</event>
<event>
 5   0  0.9507815E-03  0.1003193E+04  0.7818609E-02  0.9305050E-01
       -1   -1    0    0    0  501  0.00000000000E+00  0.00000000000E+00  0.94899490456E+03  0.94899490457E+03  0.50400001928E-02 0.  1.
        1   -1    0    0  501    0  0.00000000000E+00  0.00000000000E+00 -0.26512148130E+03  0.26512148135E+03  0.50400001928E-02 0. -1.
    10030    2    1    2    0    0  0.00000000000E+00  0.00000000000E+00  0.68387342326E+03  0.12141163859E+04  0.10031927729E+04 0.  0.
        1    1    3    3  502    0 -0.26110116729E+03 -0.38298953653E+03  0.57392705695E+03  0.73773102916E+03  0.50400001928E-02 0.  1.
       -1    1    3    3    0  502  0.26110116729E+03  0.38298953653E+03  0.10994636630E+03  0.47638535677E+03  0.50400001928E-02 0. -1.
</event>
<event>
 5   0  0.1000773E-02  0.1024665E+04  0.7818609E-02  0.9281899E-01
       -1   -1    0    0    0  501  0.00000000000E+00  0.00000000000E+00  0.44355026716E+03  0.44355026719E+03  0.50400001928E-02 0.  1.
        1   -1    0    0  501    0  0.00000000000E+00  0.00000000000E+00 -0.59178051533E+03  0.59178051535E+03  0.50400001928E-02 0. -1.
    10030    2    1    2    0    0  0.00000000000E+00  0.00000000000E+00 -0.14823024817E+03  0.10353307825E+04  0.10246646392E+04 0.  0.
        3    1    3    3  502    0  0.77530156755E+02  0.41194070157E+03 -0.37176315808E+03  0.56028021804E+03  0.10100000352E+00 0. -1.
       -3    1    3    3    0  502 -0.77530156755E+02 -0.41194070157E+03  0.22353290992E+03  0.47505056450E+03  0.10100000352E+00 0.  1.
</event>
<event>
 5   0  0.9507815E-03  0.9701380E+03  0.7818609E-02  0.9341917E-01
       -1   -1    0    0    0  501  0.00000000000E+00  0.00000000000E+00  0.98315230292E+03  0.98315230293E+03  0.50400001928E-02 0.  1.
        1   -1    0    0  501    0  0.00000000000E+00  0.00000000000E+00 -0.23932398327E+03  0.23932398332E+03  0.50400001928E-02 0. -1.
    10030    2    1    2    0    0  0.00000000000E+00  0.00000000000E+00  0.74382831965E+03  0.12224762863E+04  0.97013798057E+03 0.  0.
        1    1    3    3  502    0 -0.17104591902E+03  0.44961787275E+03  0.45039544755E+03  0.65899089304E+03  0.50400001928E-02 0.  1.
       -1    1    3    3    0  502  0.17104591902E+03 -0.44961787275E+03  0.29343287211E+03  0.56348539322E+03  0.50400001928E-02 0. -1.
</event>
<event>
 5   0  0.9471140E-03  0.9839438E+03  0.7818609E-02  0.9326332E-01
        1   -1    0    0  501    0  0.00000000000E+00  0.00000000000E+00  0.14445099066E+04  0.14445099066E+04  0.50400001928E-02 0.  1.
       -1   -1    0    0    0  501  0.00000000000E+00  0.00000000000E+00 -0.16755603518E+03  0.16755603526E+03  0.50400001928E-02 0. -1.
    10030    2    1    2    0    0  0.00000000000E+00  0.00000000000E+00  0.12769538714E+04  0.16120659419E+04  0.98394380489E+03 0.  0.
        4    1    3    3  502    0  0.10103932780E+03 -0.38144370594E+03  0.15710079922E+03  0.42472405227E+03  0.12699999809E+01 0. -1.
       -4    1    3    3    0  502 -0.10103932780E+03  0.38144370594E+03  0.11198530722E+04  0.11873418896E+04  0.12699999809E+01 0.  1.
</event>
<event>
 5   0  0.9471140E-03  0.9867810E+03  0.7818609E-02  0.9323163E-01
        1   -1    0    0  501    0  0.00000000000E+00  0.00000000000E+00  0.35381963345E+03  0.35381963349E+03  0.50400001928E-02 0.  1.
       -1   -1    0    0    0  501  0.00000000000E+00  0.00000000000E+00 -0.68801770953E+03  0.68801770954E+03  0.50400001928E-02 0. -1.
    10030    2    1    2    0    0  0.00000000000E+00  0.00000000000E+00 -0.33419807607E+03  0.10418373430E+04  0.98678097635E+03 0.  0.
        4    1    3    3  502    0  0.31153565892E+03  0.32728700353E+03  0.42100900616E+02  0.45381201857E+03  0.12699999809E+01 0.  1.
       -4    1    3    3    0  502 -0.31153565892E+03 -0.32728700353E+03 -0.37629897669E+03  0.58802532447E+03  0.12699999809E+01 0. -1.
</event>
<event>
 5   0  0.1000773E-02  0.9958627E+03  0.7818609E-02  0.9313094E-01
        1   -1    0    0  501    0  0.00000000000E+00  0.00000000000E+00  0.56817296112E+03  0.56817296115E+03  0.50400001928E-02 0.  1.
       -1   -1    0    0    0  501  0.00000000000E+00  0.00000000000E+00 -0.43637348964E+03  0.43637348967E+03  0.50400001928E-02 0. -1.
    10030    2    1    2    0    0  0.00000000000E+00  0.00000000000E+00  0.13179947148E+03  0.10045464508E+04  0.99586267687E+03 0.  0.
        3    1    3    3  502    0 -0.64867161088E+02  0.41184844555E+03 -0.20870322442E+03  0.46624450321E+03  0.10100000352E+00 0.  1.
       -3    1    3    3    0  502  0.64867161088E+02 -0.41184844555E+03  0.34050269590E+03  0.53830194761E+03  0.10100000352E+00 0. -1.
</event>
<event>
 5   0  0.1571895E-02  0.1030532E+04  0.7818609E-02  0.9275678E-01
       -2   -1    0    0    0  501  0.00000000000E+00  0.00000000000E+00  0.56169153201E+03  0.56169153202E+03  0.25500000920E-02 0. -1.
        2   -1    0    0  501    0  0.00000000000E+00  0.00000000000E+00 -0.47267752988E+03  0.47267752988E+03  0.25500000920E-02 0.  1.
    10030    2    1    2    0    0  0.00000000000E+00  0.00000000000E+00  0.89014002136E+02  0.10343690619E+04  0.10305318353E+04 0.  0.
        2    1    3    3  502    0 -0.22462579212E+03  0.39872790837E+03 -0.19314089436E+03  0.49673342597E+03  0.25500000920E-02 0. -1.
       -2    1    3    3    0  502  0.22462579212E+03 -0.39872790837E+03  0.28215489650E+03  0.53763563593E+03  0.25500000920E-02 0.  1.
</event>
<event>
 5   0  0.9396660E-03  0.1021406E+04  0.7818609E-02  0.9285373E-01
       -1   -1    0    0    0  501  0.00000000000E+00  0.00000000000E+00  0.62534247313E+03  0.62534247315E+03  0.50400001928E-02 0. -1.
        1   -1    0    0  501    0  0.00000000000E+00  0.00000000000E+00 -0.41707993476E+03  0.41707993479E+03  0.50400001928E-02 0.  1.
    10030    2    1    2    0    0  0.00000000000E+00  0.00000000000E+00  0.20826253837E+03  0.10424224079E+04  0.10214064772E+04 0.  0.
        5    1    3    3  502    0 -0.14610392871E+02 -0.15197586357E+03  0.60148313813E+03  0.62057568607E+03  0.46999998093E+01 0. -1.
       -5    1    3    3    0  502  0.14610392871E+02  0.15197586357E+03 -0.39322059976E+03  0.42184672188E+03  0.46999998093E+01 0.  1.
</event>
<event>
 5   0  0.1663497E-02  0.1012125E+04  0.7818609E-02  0.9295345E-01
        2   -1    0    0  501    0  0.00000000000E+00  0.00000000000E+00  0.92674123348E+03  0.92674123348E+03  0.25500000920E-02 0. -1.
       -2   -1    0    0    0  501  0.00000000000E+00  0.00000000000E+00 -0.27634384808E+03  0.27634384809E+03  0.25500000920E-02 0.  1.
    10030    2    1    2    0    0  0.00000000000E+00  0.00000000000E+00  0.65039738540E+03  0.12030850816E+04  0.10121249698E+04 0.  0.
        1    1    3    3  502    0 -0.38359860319E+03  0.10455909290E+03 -0.46950236706E+02  0.40035586299E+03  0.50400001928E-02 0.  1.
       -1    1    3    3    0  502  0.38359860319E+03 -0.10455909290E+03  0.69734762211E+03  0.80272921858E+03  0.50400001928E-02 0. -1.
</event>
<event>
 5   0  0.1000773E-02  0.9985386E+03  0.7818609E-02  0.9310149E-01
       -1   -1    0    0    0  501  0.00000000000E+00  0.00000000000E+00  0.47297201984E+03  0.47297201987E+03  0.50400001928E-02 0.  1.
        1   -1    0    0  501    0  0.00000000000E+00  0.00000000000E+00 -0.52702866562E+03  0.52702866565E+03  0.50400001928E-02 0. -1.
    10030    2    1    2    0    0  0.00000000000E+00  0.00000000000E+00 -0.54056645779E+02  0.10000006855E+04  0.99853855713E+03 0.  0.
        3    1    3    3  502    0  0.12019778740E+03 -0.21430401827E+03  0.40822984887E+03  0.47647176207E+03  0.10100000352E+00 0.  1.
       -3    1    3    3    0  502 -0.12019778740E+03  0.21430401827E+03 -0.46228649465E+03  0.52352892344E+03  0.10100000352E+00 0. -1.
</event>
<event>
 5   0  0.1663497E-02  0.1008708E+04  0.7818609E-02  0.9299045E-01
        2   -1    0    0  501    0  0.00000000000E+00  0.00000000000E+00  0.17380661529E+04  0.17380661529E+04  0.25500000920E-02 0. -1.
       -2   -1    0    0    0  501  0.00000000000E+00  0.00000000000E+00 -0.14635399321E+03  0.14635399323E+03  0.25500000920E-02 0.  1.
    10030    2    1    2    0    0  0.00000000000E+00  0.00000000000E+00  0.15917121597E+04  0.18844201461E+04  0.10087079299E+04 0.  0.
        1    1    3    3  502    0 -0.18483373622E+03  0.16604296946E+03 -0.24088640273E+02  0.24962780368E+03  0.50400001928E-02 0.  1.
       -1    1    3    3    0  502  0.18483373622E+03 -0.16604296946E+03  0.16158008000E+04  0.16347923425E+04  0.50400001928E-02 0. -1.
</event>
<event>
 5   0  0.9507815E-03  0.1006867E+04  0.7818609E-02  0.9301045E-01
       -1   -1    0    0    0  501  0.00000000000E+00  0.00000000000E+00  0.35201561350E+03  0.35201561354E+03  0.50400001928E-02 0. -1.
        1   -1    0    0  501    0  0.00000000000E+00  0.00000000000E+00 -0.71998262668E+03  0.71998262670E+03  0.50400001928E-02 0.  1.
    10030    2    1    2    0    0  0.00000000000E+00  0.00000000000E+00 -0.36796701318E+03  0.10719982402E+04  0.10068666765E+04 0.  0.
        1    1    3    3  502    0 -0.26403240039E+03 -0.92071594499E+02 -0.62969836707E+03  0.68899224994E+03  0.50400001928E-02 0.  1.
       -1    1    3    3    0  502  0.26403240039E+03  0.92071594499E+02  0.26173135389E+03  0.38300599029E+03  0.50400001928E-02 0. -1.
</event>
<event>
 5   0  0.1617721E-02  0.8973027E+03  0.7818609E-02  0.9428960E-01
       -2   -1    0    0    0  501  0.00000000000E+00  0.00000000000E+00  0.16984342837E+03  0.16984342839E+03  0.25500000920E-02 0. -1.
        2   -1    0    0  501    0  0.00000000000E+00  0.00000000000E+00 -0.11851386662E+04  0.11851386662E+04  0.25500000920E-02 0.  1.
    10030    2    1    2    0    0  0.00000000000E+00  0.00000000000E+00 -0.10152952378E+04  0.13549820946E+04  0.89730265613E+03 0.  0.
        5    1    3    3  502    0 -0.16425434502E+03  0.11157439033E+03 -0.11151308635E+04  0.11326814500E+04  0.46999998093E+01 0.  1.
       -5    1    3    3    0  502  0.16425434502E+03 -0.11157439033E+03  0.99835625673E+02  0.22230064459E+03  0.46999998093E+01 0. -1.
</event>
<event>
 5   0  0.9759443E-03  0.1008834E+04  0.7818609E-02  0.9298909E-01
        1   -1    0    0  501    0  0.00000000000E+00  0.00000000000E+00  0.46190935736E+03  0.46190935739E+03  0.50400001928E-02 0.  1.
       -1   -1    0    0    0  501  0.00000000000E+00  0.00000000000E+00 -0.55083615671E+03  0.55083615673E+03  0.50400001928E-02 0. -1.
    10030    2    1    2    0    0  0.00000000000E+00  0.00000000000E+00 -0.88926799346E+02  0.10127455141E+04  0.10088337330E+04 0.  0.
        2    1    3    3  502    0 -0.29355148691E+03  0.87277492849E+02  0.35789810104E+03  0.47104234094E+03  0.25500000920E-02 0.  1.
       -2    1    3    3    0  502  0.29355148691E+03 -0.87277492849E+02 -0.44682490039E+03  0.54170317318E+03  0.25500000920E-02 0. -1.
</event>
<event>
 5   0  0.1598986E-02  0.1021527E+04  0.7818609E-02  0.9285245E-01
       -2   -1    0    0    0  501  0.00000000000E+00  0.00000000000E+00  0.41394389152E+03  0.41394389153E+03  0.25500000920E-02 0.  1.
        2   -1    0    0  501    0  0.00000000000E+00  0.00000000000E+00 -0.63022844125E+03  0.63022844125E+03  0.25500000920E-02 0. -1.
    10030    2    1    2    0    0  0.00000000000E+00  0.00000000000E+00 -0.21628454973E+03  0.10441723328E+04  0.10215267271E+04 0.  0.
        3    1    3    3  502    0 -0.10467118374E+03  0.38635537636E+03  0.21614887537E+03  0.45491414583E+03  0.10100000352E+00 0.  1.
       -3    1    3    3    0  502  0.10467118374E+03 -0.38635537636E+03 -0.43243342510E+03  0.58925818695E+03  0.10100000352E+00 0. -1.
</event>
<event>
 5   0  0.1571895E-02  0.1022725E+04  0.7818609E-02  0.9283966E-01
        2   -1    0    0  501    0  0.00000000000E+00  0.00000000000E+00  0.11047249797E+04  0.11047249797E+04  0.25500000920E-02 0. -1.
       -2   -1    0    0    0  501  0.00000000000E+00  0.00000000000E+00 -0.23670282024E+03  0.23670282025E+03  0.25500000920E-02 0.  1.
    10030    2    1    2    0    0  0.00000000000E+00  0.00000000000E+00  0.86802215950E+03  0.13414278000E+04  0.10227248277E+04 0.  0.
        2    1    3    3  502    0  0.15417463200E+03  0.48673395303E+03  0.39664114343E+03  0.64653225353E+03  0.25500000920E-02 0.  1.
       -2    1    3    3    0  502 -0.15417463200E+03 -0.48673395303E+03  0.47138101608E+03  0.69489554648E+03  0.25500000920E-02 0. -1.
</event>
<event>
 5   0  0.6314750E-03  0.9894408E+03  0.7818609E-02  0.9320202E-01
        4   -1    0    0  501    0  0.00000000000E+00  0.00000000000E+00  0.33761947614E+03  0.33762186477E+03  0.12699999809E+01 0.  1.
       -4   -1    0    0    0  501  0.00000000000E+00  0.00000000000E+00 -0.72491790788E+03  0.72491902035E+03  0.12699999809E+01 0. -1.
    10030    2    1    2    0    0  0.00000000000E+00  0.00000000000E+00 -0.38729843173E+03  0.10625408851E+04  0.98944078010E+03 0.  0.
        3    1    3    3  502    0 -0.38792156762E+03 -0.91662128615E+02  0.12102364774E+03  0.41657150881E+03  0.10100000352E+00 0.  1.
       -3    1    3    3    0  502  0.38792156762E+03  0.91662128615E+02 -0.50832207947E+03  0.64596937630E+03  0.10100000352E+00 0. -1.
</event>
<event>
 5   0  0.1617721E-02  0.9985078E+03  0.7818609E-02  0.9310183E-01
        2   -1    0    0  501    0  0.00000000000E+00  0.00000000000E+00  0.79844449720E+03  0.79844449721E+03  0.25500000920E-02 0.  1.
       -2   -1    0    0    0  501  0.00000000000E+00  0.00000000000E+00 -0.31217508581E+03  0.31217508582E+03  0.25500000920E-02 0. -1.
    10030    2    1    2    0    0  0.00000000000E+00  0.00000000000E+00  0.48626941140E+03  0.11106195830E+04  0.99850784561E+03 0.  0.
        5    1    3    3  502    0  0.37397975932E+03 -0.13985443070E+03  0.57647028794E+03  0.70125616222E+03  0.46999998093E+01 0.  1.
       -5    1    3    3    0  502 -0.37397975932E+03  0.13985443070E+03 -0.90200876547E+02  0.40936342081E+03  0.46999998093E+01 0. -1.
</event>
<event>
 5   0  0.1617721E-02  0.9427710E+03  0.7818609E-02  0.9373640E-01
       -2   -1    0    0    0  501  0.00000000000E+00  0.00000000000E+00  0.13977278088E+03  0.13977278090E+03  0.25500000920E-02 0. -1.
        2   -1    0    0  501    0  0.00000000000E+00  0.00000000000E+00 -0.15897537314E+04  0.15897537314E+04  0.25500000920E-02 0.  1.
    10030    2    1    2    0    0  0.00000000000E+00  0.00000000000E+00 -0.14499809505E+04  0.17295265123E+04  0.94277102197E+03 0.  0.
        5    1    3    3  502    0  0.14363477451E+03  0.27436005510E+03 -0.73085133791E+02  0.31822620109E+03  0.46999998093E+01 0. -1.
       -5    1    3    3    0  502 -0.14363477451E+03 -0.27436005510E+03 -0.13768958167E+04  0.14113003112E+04  0.46999998093E+01 0.  1.
</event>
<event>
 5   0  0.1598986E-02  0.9908830E+03  0.7818609E-02  0.9318601E-01
       -2   -1    0    0    0  501  0.00000000000E+00  0.00000000000E+00  0.11243952984E+03  0.11243952987E+03  0.25500000920E-02 0.  1.
        2   -1    0    0  501    0  0.00000000000E+00  0.00000000000E+00 -0.21830604615E+04  0.21830604615E+04  0.25500000920E-02 0. -1.
    10030    2    1    2    0    0  0.00000000000E+00  0.00000000000E+00 -0.20706209317E+04  0.22954999914E+04  0.99088302425E+03 0.  0.
        3    1    3    3  502    0  0.86109027783E+02 -0.39283304201E+03 -0.17056498283E+04  0.17524194448E+04  0.10100000352E+00 0. -1.
       -3    1    3    3    0  502 -0.86109027783E+02  0.39283304201E+03 -0.36497110337E+03  0.54308054657E+03  0.10100000352E+00 0.  1.
</event>
<event>
 5   0  0.1663497E-02  0.8990809E+03  0.7818609E-02  0.9426731E-01
       -2   -1    0    0    0  501  0.00000000000E+00  0.00000000000E+00  0.42975664732E+03  0.42975664733E+03  0.25500000920E-02 0.  1.
        2   -1    0    0  501    0  0.00000000000E+00  0.00000000000E+00 -0.47023496505E+03  0.47023496506E+03  0.25500000920E-02 0. -1.
    10030    2    1    2    0    0  0.00000000000E+00  0.00000000000E+00 -0.40478317736E+02  0.89999161239E+03  0.89908086853E+03 0.  0.
        1    1    3    3  502    0  0.19465791009E+03 -0.21909430436E+03  0.32097646912E+03  0.43464918027E+03  0.50400001928E-02 0.  1.
       -1    1    3    3    0  502 -0.19465791009E+03  0.21909430436E+03 -0.36145478685E+03  0.46534243211E+03  0.50400001928E-02 0. -1.
</event>
<event>
 5   0  0.9396660E-03  0.9930834E+03  0.7818609E-02  0.9316164E-01
        1   -1    0    0  501    0  0.00000000000E+00  0.00000000000E+00  0.54107116567E+03  0.54107116569E+03  0.50400001928E-02 0. -1.
       -1   -1    0    0    0  501  0.00000000000E+00  0.00000000000E+00 -0.45567691111E+03  0.45567691114E+03  0.50400001928E-02 0.  1.
    10030    2    1    2    0    0  0.00000000000E+00  0.00000000000E+00  0.85394254555E+02  0.99674807683E+03  0.99308335499E+03 0.  0.
        5    1    3    3  502    0  0.48261259233E+03 -0.23279213018E+02 -0.72069537341E+02  0.48854165047E+03  0.46999998093E+01 0.  1.
       -5    1    3    3    0  502 -0.48261259233E+03  0.23279213018E+02  0.15746379190E+03  0.50820642636E+03  0.46999998093E+01 0. -1.
</event>
<event>
 5   0  0.9507815E-03  0.1040889E+04  0.7818609E-02  0.9264801E-01
       -1   -1    0    0    0  501  0.00000000000E+00  0.00000000000E+00  0.47684899515E+03  0.47684899518E+03  0.50400001928E-02 0.  1.
        1   -1    0    0  501    0  0.00000000000E+00  0.00000000000E+00 -0.56802600211E+03  0.56802600214E+03  0.50400001928E-02 0. -1.
    10030    2    1    2    0    0  0.00000000000E+00  0.00000000000E+00 -0.91177006961E+02  0.10448749973E+04  0.10408892897E+04 0.  0.
        1    1    3    3  502    0  0.19919057694E+03 -0.94979484902E+02  0.42755977658E+03  0.48115002969E+03  0.50400001928E-02 0.  1.
       -1    1    3    3    0  502 -0.19919057694E+03  0.94979484902E+02 -0.51873678355E+03  0.56372496762E+03  0.50400001928E-02 0. -1.
</event>
<event>
 5   0  0.6314750E-03  0.9881192E+03  0.7818609E-02  0.9321672E-01
        3   -1    0    0  501    0  0.00000000000E+00  0.00000000000E+00  0.39822914822E+03  0.39822916103E+03  0.10100000352E+00 0.  1.
       -3   -1    0    0    0  501  0.00000000000E+00  0.00000000000E+00 -0.61295085893E+03  0.61295086725E+03  0.10100000352E+00 0. -1.
    10030    2    1    2    0    0  0.00000000000E+00  0.00000000000E+00 -0.21472171070E+03  0.10111800283E+04  0.98811924206E+03 0.  0.
        3    1    3    3  502    0  0.27600846346E+03 -0.39872869018E+03 -0.10658610541E+02  0.48505551894E+03  0.10100000352E+00 0. -1.
       -3    1    3    3    0  502 -0.27600846346E+03  0.39872869018E+03 -0.20406310016E+03  0.52612450934E+03  0.10100000352E+00 0.  1.
</event>
<event>
 5   0  0.1571895E-02  0.9786015E+03  0.7818609E-02  0.9332331E-01
       -2   -1    0    0    0  501  0.00000000000E+00  0.00000000000E+00  0.16096531684E+03  0.16096531686E+03  0.25500000920E-02 0. -1.
        2   -1    0    0  501    0  0.00000000000E+00  0.00000000000E+00 -0.14873714361E+04  0.14873714361E+04  0.25500000920E-02 0.  1.
    10030    2    1    2    0    0  0.00000000000E+00  0.00000000000E+00 -0.13264061193E+04  0.16483367530E+04  0.97860148069E+03 0.  0.
        2    1    3    3  502    0 -0.14161475352E+03  0.20829033058E+03 -0.13697911590E+04  0.13927553337E+04  0.25500000920E-02 0.  1.
       -2    1    3    3    0  502  0.14161475352E+03 -0.20829033058E+03  0.43385039700E+02  0.25558141933E+03  0.25500000920E-02 0. -1.
</event>
<event>
 5   0  0.9759443E-03  0.9715918E+03  0.7818609E-02  0.9340263E-01
       -1   -1    0    0    0  501  0.00000000000E+00  0.00000000000E+00  0.24116842820E+03  0.24116842826E+03  0.50400001928E-02 0.  1.
        1   -1    0    0  501    0  0.00000000000E+00  0.00000000000E+00 -0.97855951008E+03  0.97855951009E+03  0.50400001928E-02 0. -1.
    10030    2    1    2    0    0  0.00000000000E+00  0.00000000000E+00 -0.73739108188E+03  0.12197279383E+04  0.97159180522E+03 0.  0.
        2    1    3    3  502    0 -0.56150981172E+02 -0.54417254146E+02  0.23321648191E+03  0.24597580710E+03  0.25500000920E-02 0.  1.
       -2    1    3    3    0  502  0.56150981172E+02  0.54417254146E+02 -0.97060756379E+03  0.97375213125E+03  0.25500000920E-02 0. -1.
</event>
<event>
 5   0  0.1663497E-02  0.1004664E+04  0.7818609E-02  0.9303444E-01
       -2   -1    0    0    0  501  0.00000000000E+00  0.00000000000E+00  0.32945642134E+03  0.32945642135E+03  0.25500000920E-02 0.  1.
        2   -1    0    0  501    0  0.00000000000E+00  0.00000000000E+00 -0.76592036558E+03  0.76592036558E+03  0.25500000920E-02 0. -1.
    10030    2    1    2    0    0  0.00000000000E+00  0.00000000000E+00 -0.43646394424E+03  0.10953767869E+04  0.10046638894E+04 0.  0.
        1    1    3    3  502    0  0.33903217215E+03 -0.28569118765E+03 -0.47572351798E+03  0.65028850062E+03  0.50400001928E-02 0. -1.
       -1    1    3    3    0  502 -0.33903217215E+03  0.28569118765E+03  0.39259573738E+02  0.44508828631E+03  0.50400001928E-02 0.  1.
</event>
<event>
 5   0  0.1617721E-02  0.1002940E+04  0.7818609E-02  0.9305326E-01
       -2   -1    0    0    0  501  0.00000000000E+00  0.00000000000E+00  0.24179145711E+03  0.24179145712E+03  0.25500000920E-02 0.  1.
        2   -1    0    0  501    0  0.00000000000E+00  0.00000000000E+00 -0.10400376221E+04  0.10400376221E+04  0.25500000920E-02 0. -1.
    10030    2    1    2    0    0  0.00000000000E+00  0.00000000000E+00 -0.79824616504E+03  0.12818290793E+04  0.10029401021E+04 0.  0.
        5    1    3    3  502    0 -0.28109881021E+02 -0.60477766389E+02  0.23606992183E+03  0.24535448566E+03  0.46999998093E+01 0.  1.
       -5    1    3    3    0  502  0.28109881021E+02  0.60477766389E+02 -0.10343160869E+04  0.10364745936E+04  0.46999998093E+01 0. -1.
</event>
<event>
 5   0  0.6314750E-03  0.1006149E+04  0.7818609E-02  0.9301826E-01
       -3   -1    0    0    0  501  0.00000000000E+00  0.00000000000E+00  0.15029406547E+04  0.15029406581E+04  0.10100000352E+00 0.  1.
        3   -1    0    0  501    0  0.00000000000E+00  0.00000000000E+00 -0.16839253332E+03  0.16839256361E+03  0.10100000352E+00 0. -1.
    10030    2    1    2    0    0  0.00000000000E+00  0.00000000000E+00  0.13345481214E+04  0.16713332217E+04  0.10061491190E+04 0.  0.
        3    1    3    3  502    0 -0.44795869810E+03  0.16726034476E+03  0.40758118301E+03  0.62830362809E+03  0.10100000352E+00 0. -1.
       -3    1    3    3    0  502  0.44795869810E+03 -0.16726034476E+03  0.92696693841E+03  0.10430295936E+04  0.10100000352E+00 0.  1.
</event>
<event>
 5   0  0.1000773E-02  0.9735568E+03  0.7818609E-02  0.9338032E-01
       -1   -1    0    0    0  501  0.00000000000E+00  0.00000000000E+00  0.22006089652E+03  0.22006089657E+03  0.50400001928E-02 0. -1.
        1   -1    0    0  501    0  0.00000000000E+00  0.00000000000E+00 -0.10767619331E+04  0.10767619331E+04  0.50400001928E-02 0.  1.
    10030    2    1    2    0    0  0.00000000000E+00  0.00000000000E+00 -0.85670103662E+03  0.12968228297E+04  0.97355677058E+03 0.  0.
        3    1    3    3  502    0 -0.28189672925E+03 -0.36135910855E+03 -0.64685086255E+03  0.79275609103E+03  0.10100000352E+00 0. -1.
       -3    1    3    3    0  502  0.28189672925E+03  0.36135910855E+03 -0.20985017407E+03  0.50406673869E+03  0.10100000352E+00 0.  1.
</event>
<event>
 5   0  0.9396660E-03  0.9753474E+03  0.7818609E-02  0.9336004E-01
        1   -1    0    0  501    0  0.00000000000E+00  0.00000000000E+00  0.66191156517E+03  0.66191156519E+03  0.50400001928E-02 0. -1.
       -1   -1    0    0    0  501  0.00000000000E+00  0.00000000000E+00 -0.35930121941E+03  0.35930121944E+03  0.50400001928E-02 0.  1.
    10030    2    1    2    0    0  0.00000000000E+00  0.00000000000E+00  0.30261034577E+03  0.10212127846E+04  0.97534738947E+03 0.  0.
        5    1    3    3  502    0  0.15970290620E+03 -0.44359104235E+03  0.28176592410E+03  0.54926510638E+03  0.46999998093E+01 0. -1.
       -5    1    3    3    0  502 -0.15970290620E+03  0.44359104235E+03  0.20844421664E+02  0.47194767826E+03  0.46999998093E+01 0.  1.
</event>
<event>
 5   0  0.1663497E-02  0.9202250E+03  0.7818609E-02  0.9400646E-01
        2   -1    0    0  501    0  0.00000000000E+00  0.00000000000E+00  0.27784280072E+03  0.27784280073E+03  0.25500000920E-02 0.  1.
       -2   -1    0    0    0  501  0.00000000000E+00  0.00000000000E+00 -0.76195422978E+03  0.76195422979E+03  0.25500000920E-02 0. -1.
    10030    2    1    2    0    0  0.00000000000E+00  0.00000000000E+00 -0.48411142906E+03  0.10397970305E+04  0.92022496648E+03 0.  0.
        1    1    3    3  502    0  0.21803825647E+03 -0.18349231571E+03  0.16612155020E+03  0.32985827362E+03  0.50400001928E-02 0.  1.
       -1    1    3    3    0  502 -0.21803825647E+03  0.18349231571E+03 -0.65023297926E+03  0.70993875690E+03  0.50400001928E-02 0. -1.
</event>
<event>
 5   0  0.1656859E-02  0.1010499E+04  0.7818609E-02  0.9297104E-01
       -2   -1    0    0    0  501  0.00000000000E+00  0.00000000000E+00  0.29068541665E+03  0.29068541666E+03  0.25500000920E-02 0. -1.
        2   -1    0    0  501    0  0.00000000000E+00  0.00000000000E+00 -0.87819095427E+03  0.87819095427E+03  0.25500000920E-02 0.  1.
    10030    2    1    2    0    0  0.00000000000E+00  0.00000000000E+00 -0.58750553762E+03  0.11688763709E+04  0.10104994873E+04 0.  0.
        4    1    3    3  502    0  0.41133946552E+03 -0.24206310310E+03 -0.10199690242E+03  0.48805704869E+03  0.12699999809E+01 0. -1.
       -4    1    3    3    0  502 -0.41133946552E+03  0.24206310310E+03 -0.48550863520E+03  0.68081932224E+03  0.12699999809E+01 0.  1.
</event>
<event>
 5   0  0.6314750E-03  0.9871533E+03  0.7818609E-02  0.9322748E-01
       -4   -1    0    0    0  501  0.00000000000E+00  0.00000000000E+00  0.16785690001E+04  0.16785694805E+04  0.12699999809E+01 0. -1.
        4   -1    0    0  501    0  0.00000000000E+00  0.00000000000E+00 -0.14513100714E+03  0.14513656374E+03  0.12699999809E+01 0.  1.
    10030    2    1    2    0    0  0.00000000000E+00  0.00000000000E+00  0.15334379929E+04  0.18237060442E+04  0.98715331011E+03 0.  0.
        1    1    3    3  502    0 -0.31536817785E+03  0.37947174782E+03  0.79023447061E+03  0.93162568318E+03  0.50400001928E-02 0. -1.
       -1    1    3    3    0  502  0.31536817785E+03 -0.37947174782E+03  0.74320352231E+03  0.89208036107E+03  0.50400001928E-02 0.  1.
</event>
<event>
 5   0  0.9471140E-03  0.9945647E+03  0.7818609E-02  0.9314526E-01
        1   -1    0    0  501    0  0.00000000000E+00  0.00000000000E+00  0.81375760919E+03  0.81375760921E+03  0.50400001928E-02 0. -1.
       -1   -1    0    0    0  501  0.00000000000E+00  0.00000000000E+00 -0.30388622093E+03  0.30388622097E+03  0.50400001928E-02 0.  1.
    10030    2    1    2    0    0  0.00000000000E+00  0.00000000000E+00  0.50987138826E+03  0.11176438302E+04  0.99456467792E+03 0.  0.
        4    1    3    3  502    0 -0.17205210206E+03  0.18574292735E+03  0.73590375579E+03  0.77824052296E+03  0.12699999809E+01 0. -1.
       -4    1    3    3    0  502  0.17205210206E+03 -0.18574292735E+03 -0.22603236753E+03  0.33940330722E+03  0.12699999809E+01 0.  1.
</event>
<event>
 5   0  0.1598986E-02  0.9915429E+03  0.7818609E-02  0.9317869E-01
        2   -1    0    0  501    0  0.00000000000E+00  0.00000000000E+00  0.13940962440E+04  0.13940962440E+04  0.25500000920E-02 0. -1.
       -2   -1    0    0    0  501  0.00000000000E+00  0.00000000000E+00 -0.17630729084E+03  0.17630729086E+03  0.25500000920E-02 0.  1.
    10030    2    1    2    0    0  0.00000000000E+00  0.00000000000E+00  0.12177889532E+04  0.15704035349E+04  0.99154290269E+03 0.  0.
        3    1    3    3  502    0 -0.24384781003E+03 -0.49533102820E+02 -0.70246542381E+02  0.25855341740E+03  0.10100000352E+00 0.  1.
       -3    1    3    3    0  502  0.24384781003E+03  0.49533102820E+02  0.12880354955E+04  0.13118501175E+04  0.10100000352E+00 0. -1.
</event>
<event>
 5   0  0.9507815E-03  0.9995242E+03  0.7818609E-02  0.9309067E-01
       -1   -1    0    0    0  501  0.00000000000E+00  0.00000000000E+00  0.23636269769E+03  0.23636269775E+03  0.50400001928E-02 0. -1.
        1   -1    0    0  501    0  0.00000000000E+00  0.00000000000E+00 -0.10566901479E+04  0.10566901479E+04  0.50400001928E-02 0.  1.
    10030    2    1    2    0    0  0.00000000000E+00  0.00000000000E+00 -0.82032745023E+03  0.12930528457E+04  0.99952415484E+03 0.  0.
        1    1    3    3  502    0 -0.19291334573E+03 -0.64970970873E+02  0.18030110997E+03  0.27192880741E+03  0.50400001928E-02 0. -1.
       -1    1    3    3    0  502  0.19291334573E+03  0.64970970873E+02 -0.10006285602E+04  0.10211240383E+04  0.50400001928E-02 0.  1.
</event>
<event>
 5   0  0.1617721E-02  0.9571629E+03  0.7818609E-02  0.9356817E-01
       -2   -1    0    0    0  501  0.00000000000E+00  0.00000000000E+00  0.24243578809E+03  0.24243578811E+03  0.25500000920E-02 0.  1.
        2   -1    0    0  501    0  0.00000000000E+00  0.00000000000E+00 -0.94474589979E+03  0.94474589979E+03  0.25500000920E-02 0. -1.
    10030    2    1    2    0    0  0.00000000000E+00  0.00000000000E+00 -0.70231011169E+03  0.11871816879E+04  0.95716292610E+03 0.  0.
        5    1    3    3  502    0 -0.32150233314E+03  0.22387717058E+03 -0.10275617233E+02  0.39193419859E+03  0.46999998093E+01 0.  1.
       -5    1    3    3    0  502  0.32150233314E+03 -0.22387717058E+03 -0.69203449446E+03  0.79524748930E+03  0.46999998093E+01 0. -1.
</event>
<event>
 5   0  0.9759443E-03  0.9950011E+03  0.7818609E-02  0.9314045E-01
       -1   -1    0    0    0  501  0.00000000000E+00  0.00000000000E+00  0.13735155031E+03  0.13735155041E+03  0.50400001928E-02 0. -1.
        1   -1    0    0  501    0  0.00000000000E+00  0.00000000000E+00 -0.18019948880E+04  0.18019948880E+04  0.50400001928E-02 0.  1.
    10030    2    1    2    0    0  0.00000000000E+00  0.00000000000E+00 -0.16646433377E+04  0.19393464384E+04  0.99500108868E+03 0.  0.
        2    1    3    3  502    0 -0.46592253205E+03  0.20175779464E+02 -0.49463983542E+03  0.67982309077E+03  0.25500000920E-02 0. -1.
       -2    1    3    3    0  502  0.46592253205E+03 -0.20175779464E+02 -0.11700035023E+04  0.12595233476E+04  0.25500000920E-02 0.  1.
</event>
<event>
 5   0  0.1663497E-02  0.9869777E+03  0.7818609E-02  0.9322944E-01
        2   -1    0    0  501    0  0.00000000000E+00  0.00000000000E+00  0.10511770556E+04  0.10511770556E+04  0.25500000920E-02 0. -1.
       -2   -1    0    0    0  501  0.00000000000E+00  0.00000000000E+00 -0.23167481768E+03  0.23167481770E+03  0.25500000920E-02 0.  1.
    10030    2    1    2    0    0  0.00000000000E+00  0.00000000000E+00  0.81950223787E+03  0.12828518733E+04  0.98697771547E+03 0.  0.
        1    1    3    3  502    0 -0.25070868008E+03  0.23828828358E+03 -0.47754295852E+02  0.34916560706E+03  0.50400001928E-02 0.  1.
       -1    1    3    3    0  502  0.25070868008E+03 -0.23828828358E+03  0.86725653372E+03  0.93368626619E+03  0.50400001928E-02 0. -1.
</event>
<event>
 5   0  0.1571895E-02  0.6521553E+03  0.7818609E-02  0.9802743E-01
        2   -1    0    0  501    0  0.00000000000E+00  0.00000000000E+00  0.38554947326E+03  0.38554947327E+03  0.25500000920E-02 0.  1.
       -2   -1    0    0    0  501  0.00000000000E+00  0.00000000000E+00 -0.27577944986E+03  0.27577944987E+03  0.25500000920E-02 0. -1.
    10030    2    1    2    0    0  0.00000000000E+00  0.00000000000E+00  0.10977002340E+03  0.66132892314E+03  0.65215526260E+03 0.  0.
        2    1    3    3  502    0 -0.13984772907E+03  0.20412887338E+03  0.27024144674E+03  0.36641018520E+03  0.25500000920E-02 0.  1.
       -2    1    3    3    0  502  0.13984772907E+03 -0.20412887338E+03 -0.16047142333E+03  0.29491873794E+03  0.25500000920E-02 0. -1.
</event>
<event>
 5   0  0.6314750E-03  0.9910809E+03  0.7818609E-02  0.9318381E-01
        3   -1    0    0  501    0  0.00000000000E+00  0.00000000000E+00  0.13035525838E+04  0.13035525877E+04  0.10100000352E+00 0. -1.
       -3   -1    0    0    0  501  0.00000000000E+00  0.00000000000E+00 -0.18837777662E+03  0.18837780369E+03  0.10100000352E+00 0.  1.
    10030    2    1    2    0    0  0.00000000000E+00  0.00000000000E+00  0.11151748071E+04  0.14919303914E+04  0.99108094633E+03 0.  0.
        2    1    3    3  502    0  0.11879244076E+03  0.32205658859E+03  0.19586568844E+02  0.34382513567E+03  0.25500000920E-02 0.  1.
       -2    1    3    3    0  502 -0.11879244076E+03 -0.32205658859E+03  0.10955882383E+04  0.11481052557E+04  0.25500000920E-02 0. -1.
</event>
<event>
 5   0  0.9471140E-03  0.9966631E+03  0.7818609E-02  0.9312212E-01
       -1   -1    0    0    0  501  0.00000000000E+00  0.00000000000E+00  0.49071349829E+03  0.49071349832E+03  0.50400001928E-02 0.  1.
        1   -1    0    0  501    0  0.00000000000E+00  0.00000000000E+00 -0.50606786199E+03  0.50606786202E+03  0.50400001928E-02 0. -1.
    10030    2    1    2    0    0  0.00000000000E+00  0.00000000000E+00 -0.15354363704E+02  0.99678136033E+03  0.99666309444E+03 0.  0.
        4    1    3    3  502    0  0.16688265746E+03  0.26646684251E+03 -0.39434731956E+03  0.50434692510E+03  0.12699999809E+01 0. -1.
       -4    1    3    3    0  502 -0.16688265746E+03 -0.26646684251E+03  0.37899295585E+03  0.49243443523E+03  0.12699999809E+01 0.  1.
</event>
<event>
 5   0  0.6314750E-03  0.1088993E+04  0.7818609E-02  0.9215987E-01
       -3   -1    0    0    0  501  0.00000000000E+00  0.00000000000E+00  0.32001170169E+03  0.32001171762E+03  0.10100000352E+00 0.  1.
        3   -1    0    0  501    0  0.00000000000E+00  0.00000000000E+00 -0.92645511521E+03  0.92645512072E+03  0.10100000352E+00 0. -1.
    10030    2    1    2    0    0  0.00000000000E+00  0.00000000000E+00 -0.60644341352E+03  0.12464668383E+04  0.10889930970E+04 0.  0.
        1    1    3    3  502    0 -0.20025984088E+03 -0.29870814524E+02 -0.88176284313E+03  0.90471099307E+03  0.50400001928E-02 0. -1.
       -1    1    3    3    0  502  0.20025984088E+03  0.29870814524E+02  0.27531942961E+03  0.34175584527E+03  0.50400001928E-02 0.  1.
</event>
<event>
 5   0  0.1656859E-02  0.1008344E+04  0.7818609E-02  0.9299440E-01
       -2   -1    0    0    0  501  0.00000000000E+00  0.00000000000E+00  0.41325095936E+03  0.41325095936E+03  0.25500000920E-02 0. -1.
        2   -1    0    0  501    0  0.00000000000E+00  0.00000000000E+00 -0.61509733393E+03  0.61509733393E+03  0.25500000920E-02 0.  1.
    10030    2    1    2    0    0  0.00000000000E+00  0.00000000000E+00 -0.20184637457E+03  0.10283482933E+04  0.10083443129E+04 0.  0.
        4    1    3    3  502    0  0.19311797813E+02 -0.38826817030E+03 -0.42832600761E+03  0.57843746360E+03  0.12699999809E+01 0.  1.
       -4    1    3    3    0  502 -0.19311797813E+02  0.38826817030E+03  0.22647963304E+03  0.44991082970E+03  0.12699999809E+01 0. -1.
</event>
<event>
 5   0  0.1617721E-02  0.9920725E+03  0.7818609E-02  0.9317283E-01
       -2   -1    0    0    0  501  0.00000000000E+00  0.00000000000E+00  0.53946614791E+03  0.53946614792E+03  0.25500000920E-02 0. -1.
        2   -1    0    0  501    0  0.00000000000E+00  0.00000000000E+00 -0.45610266408E+03  0.45610266408E+03  0.25500000920E-02 0.  1.
    10030    2    1    2    0    0  0.00000000000E+00  0.00000000000E+00  0.83363483838E+02  0.99556881200E+03  0.99207247164E+03 0.  0.
        5    1    3    3  502    0 -0.37661642218E+03 -0.12095528529E+03  0.34200178160E+03  0.52293156255E+03  0.46999998093E+01 0. -1.
       -5    1    3    3    0  502  0.37661642218E+03  0.12095528529E+03 -0.25863829776E+03  0.47263724945E+03  0.46999998093E+01 0.  1.
</event>
<event>
 5   0  0.9507815E-03  0.9988990E+03  0.7818609E-02  0.9309753E-01
        1   -1    0    0  501    0  0.00000000000E+00  0.00000000000E+00  0.82497628416E+03  0.82497628418E+03  0.50400001928E-02 0. -1.
       -1   -1    0    0    0  501  0.00000000000E+00  0.00000000000E+00 -0.30237208643E+03  0.30237208647E+03  0.50400001928E-02 0.  1.
    10030    2    1    2    0    0  0.00000000000E+00  0.00000000000E+00  0.52260419773E+03  0.11273483706E+04  0.99889899456E+03 0.  0.
        1    1    3    3  502    0  0.10686861466E+03 -0.30430085583E+03  0.69169331705E+03  0.76319038027E+03  0.50400001928E-02 0. -1.
       -1    1    3    3    0  502 -0.10686861466E+03  0.30430085583E+03 -0.16908911932E+03  0.36415799038E+03  0.50400001928E-02 0.  1.
</event>
<event>
 5   0  0.1656859E-02  0.1053926E+04  0.7818609E-02  0.9251300E-01
        2   -1    0    0  501    0  0.00000000000E+00  0.00000000000E+00  0.78408254282E+03  0.78408254283E+03  0.25500000920E-02 0.  1.
       -2   -1    0    0    0  501  0.00000000000E+00  0.00000000000E+00 -0.35415909342E+03  0.35415909343E+03  0.25500000920E-02 0. -1.
    10030    2    1    2    0    0  0.00000000000E+00  0.00000000000E+00  0.42992344940E+03  0.11382416363E+04  0.10539259225E+04 0.  0.
        4    1    3    3  502    0  0.25476545955E+03 -0.32645107097E+03  0.56693721186E+03  0.70206492308E+03  0.12699999809E+01 0.  1.
       -4    1    3    3    0  502 -0.25476545955E+03  0.32645107097E+03 -0.13701376247E+03  0.43617671318E+03  0.12699999809E+01 0. -1.
</event>
<event>
 5   0  0.6314750E-03  0.9437955E+03  0.7818609E-02  0.9372432E-01
        3   -1    0    0  501    0  0.00000000000E+00  0.00000000000E+00  0.61414377136E+03  0.61414377967E+03  0.10100000352E+00 0. -1.
       -3   -1    0    0    0  501  0.00000000000E+00  0.00000000000E+00 -0.36259827051E+03  0.36259828458E+03  0.10100000352E+00 0.  1.
    10030    2    1    2    0    0  0.00000000000E+00  0.00000000000E+00  0.25154550085E+03  0.97674206425E+03  0.94379548689E+03 0.  0.
        1    1    3    3  502    0  0.25991341631E+03  0.48772975349E+02 -0.27870799686E+03  0.38420298624E+03  0.50400001928E-02 0.  1.
       -1    1    3    3    0  502 -0.25991341631E+03 -0.48772975349E+02  0.53025349771E+03  0.59253907800E+03  0.50400001928E-02 0. -1.
</event>
<event>
 5   0  0.1000773E-02  0.9896179E+03  0.7818609E-02  0.9320006E-01
       -1   -1    0    0    0  501  0.00000000000E+00  0.00000000000E+00  0.72087459223E+03  0.72087459225E+03  0.50400001928E-02 0.  1.
        1   -1    0    0  501    0  0.00000000000E+00  0.00000000000E+00 -0.33963729510E+03  0.33963729513E+03  0.50400001928E-02 0. -1.
    10030    2    1    2    0    0  0.00000000000E+00  0.00000000000E+00  0.38123729713E+03  0.10605118874E+04  0.98961789927E+03 0.  0.
        3    1    3    3  502    0  0.47568746149E+03 -0.13606055112E+03  0.18344172743E+03  0.52767595374E+03  0.10100000352E+00 0.  1.
       -3    1    3    3    0  502 -0.47568746149E+03  0.13606055112E+03  0.19779556970E+03  0.53283593365E+03  0.10100000352E+00 0. -1.
</event>
<event>
 5   0  0.9759443E-03  0.1015599E+04  0.7818609E-02  0.9291600E-01
       -1   -1    0    0    0  501  0.00000000000E+00  0.00000000000E+00  0.45378494368E+03  0.45378494371E+03  0.50400001928E-02 0.  1.
        1   -1    0    0  501    0  0.00000000000E+00  0.00000000000E+00 -0.56824301571E+03  0.56824301573E+03  0.50400001928E-02 0. -1.
    10030    2    1    2    0    0  0.00000000000E+00  0.00000000000E+00 -0.11445807202E+03  0.10220279594E+04  0.10155985918E+04 0.  0.
        2    1    3    3  502    0  0.47101015428E+03  0.99836825697E+02  0.10516843154E+03  0.49282690287E+03  0.25500000920E-02 0.  1.
       -2    1    3    3    0  502 -0.47101015428E+03 -0.99836825697E+02 -0.21962650356E+03  0.52920105657E+03  0.25500000920E-02 0. -1.
</event>
<event>
 5   0  0.9759443E-03  0.1007572E+04  0.7818609E-02  0.9300278E-01
        1   -1    0    0  501    0  0.00000000000E+00  0.00000000000E+00  0.63840351509E+03  0.63840351511E+03  0.50400001928E-02 0. -1.
       -1   -1    0    0    0  501  0.00000000000E+00  0.00000000000E+00 -0.39755496990E+03  0.39755496993E+03  0.50400001928E-02 0.  1.
    10030    2    1    2    0    0  0.00000000000E+00  0.00000000000E+00  0.24084854520E+03  0.10359584850E+04  0.10075723106E+04 0.  0.
        2    1    3    3  502    0  0.13158165262E+03 -0.29205118926E+03 -0.27936558449E+03  0.42503265552E+03  0.25500000920E-02 0.  1.
       -2    1    3    3    0  502 -0.13158165262E+03  0.29205118926E+03  0.52021412968E+03  0.61092582953E+03  0.25500000920E-02 0. -1.
</event>
<event>
 5   0  0.9507815E-03  0.1007205E+04  0.7818609E-02  0.9300677E-01
       -1   -1    0    0    0  501  0.00000000000E+00  0.00000000000E+00  0.24369327868E+03  0.24369327873E+03  0.50400001928E-02 0. -1.
        1   -1    0    0  501    0  0.00000000000E+00  0.00000000000E+00 -0.10407167690E+04  0.10407167690E+04  0.50400001928E-02 0.  1.
    10030    2    1    2    0    0  0.00000000000E+00  0.00000000000E+00 -0.79702349030E+03  0.12844100477E+04  0.10072054044E+04 0.  0.
        1    1    3    3  502    0  0.42507226932E+03  0.37652861817E+01 -0.74285715308E+03  0.85588396493E+03  0.50400001928E-02 0.  1.
       -1    1    3    3    0  502 -0.42507226932E+03 -0.37652861817E+01 -0.54166337219E+02  0.42852608280E+03  0.50400001928E-02 0. -1.
</event>
<event>
 5   0  0.9396660E-03  0.1013656E+04  0.7818609E-02  0.9293692E-01
       -1   -1    0    0    0  501  0.00000000000E+00  0.00000000000E+00  0.47099076426E+03  0.47099076429E+03  0.50400001928E-02 0.  1.
        1   -1    0    0  501    0  0.00000000000E+00  0.00000000000E+00 -0.54539227234E+03  0.54539227237E+03  0.50400001928E-02 0. -1.
    10030    2    1    2    0    0  0.00000000000E+00  0.00000000000E+00 -0.74401508079E+02  0.10163830367E+04  0.10136562005E+04 0.  0.
        5    1    3    3  502    0  0.47933291755E+02  0.33957763816E+03  0.33695458546E+03  0.48080251191E+03  0.46999998093E+01 0.  1.
       -5    1    3    3    0  502 -0.47933291755E+02 -0.33957763816E+03 -0.41135609354E+03  0.53558052475E+03  0.46999998093E+01 0. -1.
</event>
<event>
 5   0  0.9759443E-03  0.1017937E+04  0.7818609E-02  0.9289088E-01
       -1   -1    0    0    0  501  0.00000000000E+00  0.00000000000E+00  0.33647274406E+03  0.33647274410E+03  0.50400001928E-02 0.  1.
        1   -1    0    0  501    0  0.00000000000E+00  0.00000000000E+00 -0.76989504599E+03  0.76989504600E+03  0.50400001928E-02 0. -1.
    10030    2    1    2    0    0  0.00000000000E+00  0.00000000000E+00 -0.43342230193E+03  0.11063677901E+04  0.10179365379E+04 0.  0.
        2    1    3    3  502    0  0.20875185532E+03 -0.45140383468E+03 -0.33430428415E+03  0.59925129410E+03  0.25500000920E-02 0. -1.
       -2    1    3    3    0  502 -0.20875185532E+03  0.45140383468E+03 -0.99118017772E+02  0.50711649600E+03  0.25500000920E-02 0.  1.
</event>
<event>
 5   0  0.1656859E-02  0.9952090E+03  0.7818609E-02  0.9313815E-01
        2   -1    0    0  501    0  0.00000000000E+00  0.00000000000E+00  0.16364302979E+03  0.16364302981E+03  0.25500000920E-02 0.  1.
       -2   -1    0    0    0  501  0.00000000000E+00  0.00000000000E+00 -0.15131120901E+04  0.15131120901E+04  0.25500000920E-02 0. -1.
    10030    2    1    2    0    0  0.00000000000E+00  0.00000000000E+00 -0.13494690603E+04  0.16767551200E+04  0.99520901697E+03 0.  0.
        4    1    3    3  502    0 -0.13534202694E+03  0.11045120576E+03  0.11027865182E+03  0.20659120760E+03  0.12699999809E+01 0.  1.
       -4    1    3    3    0  502  0.13534202694E+03 -0.11045120576E+03 -0.14597477122E+04  0.14701639124E+04  0.12699999809E+01 0. -1.
</event>
<event>
 5   0  0.1656859E-02  0.1026087E+04  0.7818609E-02  0.9280387E-01
       -2   -1    0    0    0  501  0.00000000000E+00  0.00000000000E+00  0.27085332965E+03  0.27085332966E+03  0.25500000920E-02 0. -1.
        2   -1    0    0  501    0  0.00000000000E+00  0.00000000000E+00 -0.97179328822E+03  0.97179328822E+03  0.25500000920E-02 0.  1.
    10030    2    1    2    0    0  0.00000000000E+00  0.00000000000E+00 -0.70093995857E+03  0.12426466179E+04  0.10260866393E+04 0.  0.
        4    1    3    3  502    0  0.34762065424E+03 -0.29651613358E+03 -0.67876494063E+02  0.46192073787E+03  0.12699999809E+01 0. -1.
       -4    1    3    3    0  502 -0.34762065424E+03  0.29651613358E+03 -0.63306346451E+03  0.78072588001E+03  0.12699999809E+01 0.  1.
</event>
<event>
 5   0  0.1663497E-02  0.1002285E+04  0.7818609E-02  0.9306042E-01
       -2   -1    0    0    0  501  0.00000000000E+00  0.00000000000E+00  0.47960621477E+03  0.47960621478E+03  0.25500000920E-02 0. -1.
        2   -1    0    0  501    0  0.00000000000E+00  0.00000000000E+00 -0.52364627607E+03  0.52364627608E+03  0.25500000920E-02 0.  1.
    10030    2    1    2    0    0  0.00000000000E+00  0.00000000000E+00 -0.44040061306E+02  0.10032524909E+04  0.10022854052E+04 0.  0.
        1    1    3    3  502    0 -0.51782269262E+02  0.49168096100E+03  0.59988488173E+02  0.49802629404E+03  0.50400001928E-02 0. -1.
       -1    1    3    3    0  502  0.51782269262E+02 -0.49168096100E+03 -0.10402854948E+03  0.50522619682E+03  0.50400001928E-02 0.  1.
</event>
<event>
 5   0  0.9471140E-03  0.9495105E+03  0.7818609E-02  0.9365723E-01
        1   -1    0    0  501    0  0.00000000000E+00  0.00000000000E+00  0.33657265826E+03  0.33657265830E+03  0.50400001928E-02 0. -1.
       -1   -1    0    0    0  501  0.00000000000E+00  0.00000000000E+00 -0.66966984394E+03  0.66966984396E+03  0.50400001928E-02 0.  1.
    10030    2    1    2    0    0  0.00000000000E+00  0.00000000000E+00 -0.33309718568E+03  0.10062425023E+04  0.94951052561E+03 0.  0.
        4    1    3    3  502    0  0.57702915555E+02 -0.62381460636E+01  0.33279706307E+03  0.33782249631E+03  0.12699999809E+01 0. -1.
       -4    1    3    3    0  502 -0.57702915555E+02  0.62381460636E+01 -0.66589424874E+03  0.66842000594E+03  0.12699999809E+01 0.  1.
</event>
<event>
 5   0  0.9471140E-03  0.9875175E+03  0.7818609E-02  0.9322342E-01
       -1   -1    0    0    0  501  0.00000000000E+00  0.00000000000E+00  0.53609109377E+03  0.53609109380E+03  0.50400001928E-02 0.  1.
        1   -1    0    0  501    0  0.00000000000E+00  0.00000000000E+00 -0.45476921366E+03  0.45476921369E+03  0.50400001928E-02 0. -1.
    10030    2    1    2    0    0  0.00000000000E+00  0.00000000000E+00  0.81321880108E+02  0.99086030749E+03  0.98751754454E+03 0.  0.
        4    1    3    3  502    0  0.26244348296E+03  0.14096628548E+03 -0.35443334458E+03  0.46300397843E+03  0.12699999809E+01 0. -1.
       -4    1    3    3    0  502 -0.26244348296E+03 -0.14096628548E+03  0.43575522468E+03  0.52785632906E+03  0.12699999809E+01 0.  1.
</event>
<event>
 5   0  0.1617721E-02  0.6391169E+03  0.7818609E-02  0.9827418E-01
       -2   -1    0    0    0  501  0.00000000000E+00  0.00000000000E+00  0.39747870506E+03  0.39747870507E+03  0.25500000920E-02 0. -1.
        2   -1    0    0  501    0  0.00000000000E+00  0.00000000000E+00 -0.25691337473E+03  0.25691337474E+03  0.25500000920E-02 0.  1.
    10030    2    1    2    0    0  0.00000000000E+00  0.00000000000E+00  0.14056533034E+03  0.65439207981E+03  0.63911687665E+03 0.  0.
        5    1    3    3  502    0 -0.15780042612E+03  0.86800784133E+01 -0.21405799709E+03  0.26611883504E+03  0.46999998093E+01 0.  1.
       -5    1    3    3    0  502  0.15780042612E+03 -0.86800784133E+01  0.35462332743E+03  0.38827324477E+03  0.46999998093E+01 0. -1.
</event>
<event>
 5   0  0.9396660E-03  0.1032071E+04  0.7818609E-02  0.9274053E-01
       -1   -1    0    0    0  501  0.00000000000E+00  0.00000000000E+00  0.38408492234E+03  0.38408492238E+03  0.50400001928E-02 0.  1.
        1   -1    0    0  501    0  0.00000000000E+00  0.00000000000E+00 -0.69331683873E+03  0.69331683875E+03  0.50400001928E-02 0. -1.
    10030    2    1    2    0    0  0.00000000000E+00  0.00000000000E+00 -0.30923191639E+03  0.10774017611E+04  0.10320708196E+04 0.  0.
        5    1    3    3  502    0  0.43931759977E+03  0.23054498621E+03 -0.65426148723E+01  0.49620141066E+03  0.46999998093E+01 0. -1.
       -5    1    3    3    0  502 -0.43931759977E+03 -0.23054498621E+03 -0.30268930152E+03  0.58120035047E+03  0.46999998093E+01 0.  1.
</event>
<event>
 5   0  0.9396660E-03  0.9909218E+03  0.7818609E-02  0.9318558E-01
        1   -1    0    0  501    0  0.00000000000E+00  0.00000000000E+00  0.35909004546E+03  0.35909004550E+03  0.50400001928E-02 0. -1.
       -1   -1    0    0    0  501  0.00000000000E+00  0.00000000000E+00 -0.68362100952E+03  0.68362100954E+03  0.50400001928E-02 0.  1.
    10030    2    1    2    0    0  0.00000000000E+00  0.00000000000E+00 -0.32453096406E+03  0.10427110550E+04  0.99092179190E+03 0.  0.
        5    1    3    3  502    0 -0.12179876439E+03 -0.24637498218E+03 -0.59602773285E+03  0.65635868180E+03  0.46999998093E+01 0.  1.
       -5    1    3    3    0  502  0.12179876439E+03  0.24637498218E+03  0.27149676878E+03  0.38635237324E+03  0.46999998093E+01 0. -1.
</event>
<event>
 5   0  0.1571895E-02  0.6708172E+03  0.7818609E-02  0.9768483E-01
        2   -1    0    0  501    0  0.00000000000E+00  0.00000000000E+00  0.58420438517E+03  0.58420438517E+03  0.25500000920E-02 0. -1.
       -2   -1    0    0    0  501  0.00000000000E+00  0.00000000000E+00 -0.19256774963E+03  0.19256774965E+03  0.25500000920E-02 0.  1.
    10030    2    1    2    0    0  0.00000000000E+00  0.00000000000E+00  0.39163663553E+03  0.77677213482E+03  0.67081718459E+03 0.  0.
        2    1    3    3  502    0 -0.12519738453E+03  0.29698064413E+03  0.30337075486E+03  0.44261236199E+03  0.25500000920E-02 0. -1.
       -2    1    3    3    0  502  0.12519738453E+03 -0.29698064413E+03  0.88265880677E+02  0.33415977283E+03  0.25500000920E-02 0.  1.
</event>
<event>
 5   0  0.1000773E-02  0.1167549E+04  0.7818609E-02  0.9141744E-01
       -1   -1    0    0    0  501  0.00000000000E+00  0.00000000000E+00  0.22035525439E+03  0.22035525444E+03  0.50400001928E-02 0. -1.
        1   -1    0    0  501    0  0.00000000000E+00  0.00000000000E+00 -0.15465614226E+04  0.15465614226E+04  0.50400001928E-02 0.  1.
    10030    2    1    2    0    0  0.00000000000E+00  0.00000000000E+00 -0.13262061682E+04  0.17669166770E+04  0.11675494606E+04 0.  0.
        3    1    3    3  502    0  0.47030093078E+03 -0.33208740955E+03 -0.80926459150E+03  0.99316373390E+03  0.10100000352E+00 0.  1.
       -3    1    3    3    0  502 -0.47030093078E+03  0.33208740955E+03 -0.51694157666E+03  0.77375294310E+03  0.10100000352E+00 0. -1.
</event>
<event>
 5   0  0.1598986E-02  0.1003539E+04  0.7818609E-02  0.9304672E-01
       -2   -1    0    0    0  501  0.00000000000E+00  0.00000000000E+00  0.33755356947E+03  0.33755356948E+03  0.25500000920E-02 0. -1.
        2   -1    0    0  501    0  0.00000000000E+00  0.00000000000E+00 -0.74587453755E+03  0.74587453755E+03  0.25500000920E-02 0.  1.
    10030    2    1    2    0    0  0.00000000000E+00  0.00000000000E+00 -0.40832096807E+03  0.10834281070E+04  0.10035389629E+04 0.  0.
        3    1    3    3  502    0 -0.36474085749E+03 -0.20525695839E+03 -0.50297251207E+03  0.65432993985E+03  0.10100000352E+00 0.  1.
       -3    1    3    3    0  502  0.36474085749E+03  0.20525695839E+03  0.94651543995E+02  0.42909816718E+03  0.10100000352E+00 0. -1.
</event>
<event>
 5   0  0.6314750E-03  0.1024493E+04  0.7818609E-02  0.9282082E-01
       -3   -1    0    0    0  501  0.00000000000E+00  0.00000000000E+00  0.72190604801E+03  0.72190605507E+03  0.10100000352E+00 0. -1.
        3   -1    0    0  501    0  0.00000000000E+00  0.00000000000E+00 -0.36347748231E+03  0.36347749635E+03  0.10100000352E+00 0.  1.
    10030    2    1    2    0    0  0.00000000000E+00  0.00000000000E+00  0.35842856569E+03  0.10853835514E+04  0.10244932489E+04 0.  0.
        1    1    3    3  502    0 -0.44249287388E+03  0.43898420357E+01 -0.94147323579E+02  0.45241897917E+03  0.50400001928E-02 0.  1.
       -1    1    3    3    0  502  0.44249287388E+03 -0.43898420357E+01  0.45257588927E+03  0.63296457225E+03  0.50400001928E-02 0. -1.
</event>
<event>
 5   0  0.1656859E-02  0.9861818E+03  0.7818609E-02  0.9323832E-01
       -2   -1    0    0    0  501  0.00000000000E+00  0.00000000000E+00  0.14657934920E+03  0.14657934922E+03  0.25500000920E-02 0. -1.
        2   -1    0    0  501    0  0.00000000000E+00  0.00000000000E+00 -0.16587510331E+04  0.16587510331E+04  0.25500000920E-02 0.  1.
    10030    2    1    2    0    0  0.00000000000E+00  0.00000000000E+00 -0.15121716839E+04  0.18053303823E+04  0.98618182287E+03 0.  0.
        4    1    3    3  502    0 -0.92331402095E+02  0.39101286511E+03 -0.12794045128E+04  0.13410047236E+04  0.12699999809E+01 0.  1.
       -4    1    3    3    0  502  0.92331402095E+02 -0.39101286511E+03 -0.23276717109E+03  0.46432565870E+03  0.12699999809E+01 0. -1.
</event>
<event>
 5   0  0.1656859E-02  0.6043753E+03  0.7818609E-02  0.9896370E-01
        2   -1    0    0  501    0  0.00000000000E+00  0.00000000000E+00  0.72943403580E+03  0.72943403580E+03  0.25500000920E-02 0. -1.
       -2   -1    0    0    0  501  0.00000000000E+00  0.00000000000E+00 -0.12518935512E+03  0.12518935514E+03  0.25500000920E-02 0.  1.
    10030    2    1    2    0    0  0.00000000000E+00  0.00000000000E+00  0.60424468068E+03  0.85462339095E+03  0.60437530246E+03 0.  0.
        4    1    3    3  502    0  0.12526662502E+03  0.21901130197E+03  0.53729082848E+03  0.59358295546E+03  0.12699999809E+01 0. -1.
       -4    1    3    3    0  502 -0.12526662502E+03 -0.21901130197E+03  0.66953852201E+02  0.26104043549E+03  0.12699999809E+01 0.  1.
</event>
<event>
 5   0  0.9759443E-03  0.9814246E+03  0.7818609E-02  0.9329156E-01
       -1   -1    0    0    0  501  0.00000000000E+00  0.00000000000E+00  0.46065771930E+03  0.46065771932E+03  0.50400001928E-02 0.  1.
        1   -1    0    0  501    0  0.00000000000E+00  0.00000000000E+00 -0.52272776515E+03  0.52272776518E+03  0.50400001928E-02 0. -1.
    10030    2    1    2    0    0  0.00000000000E+00  0.00000000000E+00 -0.62070045855E+02  0.98338548450E+03  0.98142463824E+03 0.  0.
        2    1    3    3  502    0  0.40377445670E+03 -0.69360980614E+01 -0.31036908535E+03  0.50932395436E+03  0.25500000920E-02 0. -1.
       -2    1    3    3    0  502 -0.40377445670E+03  0.69360980614E+01  0.24829903950E+03  0.47406153014E+03  0.25500000920E-02 0.  1.
</event>
<event>
 5   0  0.1663497E-02  0.9952046E+03  0.7818609E-02  0.9313820E-01
       -2   -1    0    0    0  501  0.00000000000E+00  0.00000000000E+00  0.27943162007E+03  0.27943162009E+03  0.25500000920E-02 0.  1.
        2   -1    0    0  501    0  0.00000000000E+00  0.00000000000E+00 -0.88611329564E+03  0.88611329565E+03  0.25500000920E-02 0. -1.
    10030    2    1    2    0    0  0.00000000000E+00  0.00000000000E+00 -0.60668167557E+03  0.11655449157E+04  0.99520464987E+03 0.  0.
        1    1    3    3  502    0 -0.22751198403E+03 -0.26180400840E+02 -0.82072494945E+03  0.85207778926E+03  0.50400001928E-02 0. -1.
       -1    1    3    3    0  502  0.22751198403E+03  0.26180400840E+02  0.21404327388E+03  0.31346712648E+03  0.50400001928E-02 0.  1.
</event>
<event>
 5   0  0.9507815E-03  0.1001853E+04  0.7818609E-02  0.9306515E-01
       -1   -1    0    0    0  501  0.00000000000E+00  0.00000000000E+00  0.22138068065E+03  0.22138068071E+03  0.50400001928E-02 0. -1.
        1   -1    0    0  501    0  0.00000000000E+00  0.00000000000E+00 -0.11334651035E+04  0.11334651035E+04  0.50400001928E-02 0.  1.
    10030    2    1    2    0    0  0.00000000000E+00  0.00000000000E+00 -0.91208442282E+03  0.13548457842E+04  0.10018528358E+04 0.  0.
        1    1    3    3  502    0 -0.66182644122E+02  0.48081452981E+03 -0.28841463939E+03  0.56457573336E+03  0.50400001928E-02 0.  1.
       -1    1    3    3    0  502  0.66182644122E+02 -0.48081452981E+03 -0.62366978344E+03  0.79027005084E+03  0.50400001928E-02 0. -1.
</event>
<event>
 5   0  0.9396660E-03  0.9853936E+03  0.7818609E-02  0.9324712E-01
        1   -1    0    0  501    0  0.00000000000E+00  0.00000000000E+00  0.34218680706E+03  0.34218680710E+03  0.50400001928E-02 0.  1.
       -1   -1    0    0    0  501  0.00000000000E+00  0.00000000000E+00 -0.70940816974E+03  0.70940816976E+03  0.50400001928E-02 0. -1.
    10030    2    1    2    0    0  0.00000000000E+00  0.00000000000E+00 -0.36722136267E+03  0.10515949769E+04  0.98539355902E+03 0.  0.
        5    1    3    3  502    0 -0.68720005101E+00  0.47076880489E+02 -0.70697793521E+03  0.70855952170E+03  0.46999998093E+01 0. -1.
       -5    1    3    3    0  502  0.68720005101E+00 -0.47076880489E+02  0.33975657253E+03  0.34303545516E+03  0.46999998093E+01 0.  1.
</event>
<event>
 5   0  0.1663497E-02  0.1025756E+04  0.7818609E-02  0.9280739E-01
        2   -1    0    0  501    0  0.00000000000E+00  0.00000000000E+00  0.11168082221E+04  0.11168082221E+04  0.25500000920E-02 0. -1.
       -2   -1    0    0    0  501  0.00000000000E+00  0.00000000000E+00 -0.23553169980E+03  0.23553169981E+03  0.25500000920E-02 0.  1.
    10030    2    1    2    0    0  0.00000000000E+00  0.00000000000E+00  0.88127652234E+03  0.13523399220E+04  0.10257557973E+04 0.  0.
        1    1    3    3  502    0 -0.39301589633E+03 -0.30370268679E+03  0.27207617946E+03  0.56632346251E+03  0.50400001928E-02 0.  1.
       -1    1    3    3    0  502  0.39301589633E+03  0.30370268679E+03  0.60920034288E+03  0.78601645945E+03  0.50400001928E-02 0. -1.
</event>
<event>
 5   0  0.9396660E-03  0.8746049E+03  0.7818609E-02  0.9457895E-01
        1   -1    0    0  501    0  0.00000000000E+00  0.00000000000E+00  0.30607317751E+03  0.30607317755E+03  0.50400001928E-02 0.  1.
       -1   -1    0    0    0  501  0.00000000000E+00  0.00000000000E+00 -0.62479643942E+03  0.62479643945E+03  0.50400001928E-02 0. -1.
    10030    2    1    2    0    0  0.00000000000E+00  0.00000000000E+00 -0.31872326191E+03  0.93086961700E+03  0.87460489718E+03 0.  0.
        5    1    3    3  502    0 -0.13176267641E+03 -0.14588636837E+03  0.25636457813E+03  0.32309305515E+03  0.46999998093E+01 0.  1.
       -5    1    3    3    0  502  0.13176267641E+03  0.14588636837E+03 -0.57508784004E+03  0.60777656185E+03  0.46999998093E+01 0. -1.
</event>
<event>
 5   0  0.1000773E-02  0.9276920E+03  0.7818609E-02  0.9391612E-01
       -1   -1    0    0    0  501  0.00000000000E+00  0.00000000000E+00  0.35864895958E+03  0.35864895962E+03  0.50400001928E-02 0.  1.
        1   -1    0    0  501    0  0.00000000000E+00  0.00000000000E+00 -0.59989894749E+03  0.59989894752E+03  0.50400001928E-02 0. -1.
    10030    2    1    2    0    0  0.00000000000E+00  0.00000000000E+00 -0.24124998791E+03  0.95854790714E+03  0.92769204675E+03 0.  0.
        3    1    3    3  502    0  0.38268174435E+03  0.35404592049E+02  0.14773320974E+03  0.41173281878E+03  0.10100000352E+00 0.  1.
       -3    1    3    3    0  502 -0.38268174435E+03 -0.35404592049E+02 -0.38898319765E+03  0.54681508836E+03  0.10100000352E+00 0. -1.
</event>
<event>
 5   0  0.9471140E-03  0.9787876E+03  0.7818609E-02  0.9332121E-01
        1   -1    0    0  501    0  0.00000000000E+00  0.00000000000E+00  0.37526752360E+03  0.37526752364E+03  0.50400001928E-02 0.  1.
       -1   -1    0    0    0  501  0.00000000000E+00  0.00000000000E+00 -0.63822815176E+03  0.63822815178E+03  0.50400001928E-02 0. -1.
    10030    2    1    2    0    0  0.00000000000E+00  0.00000000000E+00 -0.26296062816E+03  0.10134956754E+04  0.97878761339E+03 0.  0.
        4    1    3    3  502    0 -0.18448177483E+03 -0.23729983388E+03  0.26842718481E+03  0.40298821676E+03  0.12699999809E+01 0.  1.
       -4    1    3    3    0  502  0.18448177483E+03  0.23729983388E+03 -0.53138781297E+03  0.61050745866E+03  0.12699999809E+01 0. -1.
</event>
<event>
 5   0  0.1617721E-02  0.9267460E+03  0.7818609E-02  0.9392752E-01
       -2   -1    0    0    0  501  0.00000000000E+00  0.00000000000E+00  0.14265838652E+03  0.14265838655E+03  0.25500000920E-02 0.  1.
        2   -1    0    0  501    0  0.00000000000E+00  0.00000000000E+00 -0.15050956862E+04  0.15050956862E+04  0.25500000920E-02 0. -1.
    10030    2    1    2    0    0  0.00000000000E+00  0.00000000000E+00 -0.13624372997E+04  0.16477540727E+04  0.92674596773E+03 0.  0.
        5    1    3    3  502    0 -0.38722947439E+03  0.11938216976E+03 -0.28168797294E+03  0.49352707361E+03  0.46999998093E+01 0.  1.
       -5    1    3    3    0  502  0.38722947439E+03 -0.11938216976E+03 -0.10807493267E+04  0.11542269991E+04  0.46999998093E+01 0. -1.
</event>
<event>
 5   0  0.1663497E-02  0.9385696E+03  0.7818609E-02  0.9378612E-01
       -2   -1    0    0    0  501  0.00000000000E+00  0.00000000000E+00  0.20090982481E+03  0.20090982483E+03  0.25500000920E-02 0. -1.
        2   -1    0    0  501    0  0.00000000000E+00  0.00000000000E+00 -0.10961544957E+04  0.10961544957E+04  0.25500000920E-02 0.  1.
    10030    2    1    2    0    0  0.00000000000E+00  0.00000000000E+00 -0.89524467088E+03  0.12970643205E+04  0.93856956632E+03 0.  0.
        1    1    3    3  502    0 -0.18367504594E+03  0.29719074690E+03 -0.14627225050E+02  0.34967530408E+03  0.50400001928E-02 0. -1.
       -1    1    3    3    0  502  0.18367504594E+03 -0.29719074690E+03 -0.88061744583E+03  0.94738901644E+03  0.50400001928E-02 0.  1.
</event>
<event>
 5   0  0.9759443E-03  0.9396265E+03  0.7818609E-02  0.9377358E-01
       -1   -1    0    0    0  501  0.00000000000E+00  0.00000000000E+00  0.14170616739E+03  0.14170616748E+03  0.50400001928E-02 0. -1.
        1   -1    0    0  501    0  0.00000000000E+00  0.00000000000E+00 -0.15576209266E+04  0.15576209266E+04  0.50400001928E-02 0.  1.
    10030    2    1    2    0    0  0.00000000000E+00  0.00000000000E+00 -0.14159147592E+04  0.16993270941E+04  0.93962650419E+03 0.  0.
        2    1    3    3  502    0 -0.20075655055E+03 -0.35681615012E+03 -0.29119986783E+03  0.50241250045E+03  0.25500000920E-02 0.  1.
       -2    1    3    3    0  502  0.20075655055E+03  0.35681615012E+03 -0.11247148914E+04  0.11969145937E+04  0.25500000920E-02 0. -1.
</event>
<event>
 5   0  0.9396660E-03  0.9943892E+03  0.7818609E-02  0.9314720E-01
        1   -1    0    0  501    0  0.00000000000E+00  0.00000000000E+00  0.28206941530E+03  0.28206941534E+03  0.50400001928E-02 0. -1.
       -1   -1    0    0    0  501  0.00000000000E+00  0.00000000000E+00 -0.87638879178E+03  0.87638879180E+03  0.50400001928E-02 0.  1.
    10030    2    1    2    0    0  0.00000000000E+00  0.00000000000E+00 -0.59431937649E+03  0.11584582071E+04  0.99438920772E+03 0.  0.
        5    1    3    3  502    0 -0.41926079931E+03  0.17734355769E+03 -0.53001305248E+03  0.69868897307E+03  0.46999998093E+01 0. -1.
       -5    1    3    3    0  502  0.41926079931E+03 -0.17734355769E+03 -0.64306324003E+02  0.45976923407E+03  0.46999998093E+01 0.  1.
</event>
<event>
 5   0  0.1598986E-02  0.9837444E+03  0.7818609E-02  0.9326556E-01
        2   -1    0    0  501    0  0.00000000000E+00  0.00000000000E+00  0.49494195931E+03  0.49494195932E+03  0.25500000920E-02 0. -1.
       -2   -1    0    0    0  501  0.00000000000E+00  0.00000000000E+00 -0.48882144453E+03  0.48882144454E+03  0.25500000920E-02 0.  1.
    10030    2    1    2    0    0  0.00000000000E+00  0.00000000000E+00  0.61205147790E+01  0.98376340385E+03  0.98374436418E+03 0.  0.
        3    1    3    3  502    0  0.48538118308E+03 -0.67847441397E+02  0.44775152512E+02  0.49214123245E+03  0.10100000352E+00 0. -1.
       -3    1    3    3    0  502 -0.48538118308E+03  0.67847441397E+02 -0.38654637733E+02  0.49162217140E+03  0.10100000352E+00 0.  1.
</event>
<event>
 5   0  0.1663497E-02  0.7662454E+03  0.7818609E-02  0.9610203E-01
       -2   -1    0    0    0  501  0.00000000000E+00  0.00000000000E+00  0.34351308417E+03  0.34351308418E+03  0.25500000920E-02 0.  1.
        2   -1    0    0  501    0  0.00000000000E+00  0.00000000000E+00 -0.42729959286E+03  0.42729959287E+03  0.25500000920E-02 0. -1.
    10030    2    1    2    0    0  0.00000000000E+00  0.00000000000E+00 -0.83786508691E+02  0.77081267704E+03  0.76624539415E+03 0.  0.
        1    1    3    3  502    0  0.86685534710E+02  0.22257735440E+03 -0.34322495390E+03  0.41816077007E+03  0.50400001928E-02 0. -1.
       -1    1    3    3    0  502 -0.86685534710E+02 -0.22257735440E+03  0.25943844521E+03  0.35265190698E+03  0.50400001928E-02 0.  1.
</event>
<event>
 5   0  0.6314750E-03  0.9831661E+03  0.7818609E-02  0.9327203E-01
        3   -1    0    0  501    0  0.00000000000E+00  0.00000000000E+00  0.18490003975E+03  0.18490006734E+03  0.10100000352E+00 0. -1.
       -3   -1    0    0    0  501  0.00000000000E+00  0.00000000000E+00 -0.13069432421E+04  0.13069432460E+04  0.10100000352E+00 0.  1.
    10030    2    1    2    0    0  0.00000000000E+00  0.00000000000E+00 -0.11220432024E+04  0.14918433134E+04  0.98316607124E+03 0.  0.
        5    1    3    3  502    0 -0.46940602529E+03 -0.95352074692E+02 -0.72860704866E+03  0.87196579984E+03  0.46999998093E+01 0. -1.
       -5    1    3    3    0  502  0.46940602529E+03  0.95352074692E+02 -0.39343615371E+03  0.61987751352E+03  0.46999998093E+01 0.  1.
</event>
<event>
 5   0  0.9396660E-03  0.1006352E+04  0.7818609E-02  0.9301606E-01
       -1   -1    0    0    0  501  0.00000000000E+00  0.00000000000E+00  0.46108037057E+03  0.46108037059E+03  0.50400001928E-02 0. -1.
        1   -1    0    0  501    0  0.00000000000E+00  0.00000000000E+00 -0.54911468560E+03  0.54911468563E+03  0.50400001928E-02 0.  1.
    10030    2    1    2    0    0  0.00000000000E+00  0.00000000000E+00 -0.88034315039E+02  0.10101950562E+04  0.10063518326E+04 0.  0.
        5    1    3    3  502    0  0.11064865443E+03  0.49034043654E+03 -0.21863795969E+02  0.50316695441E+03  0.46999998093E+01 0. -1.
       -5    1    3    3    0  502 -0.11064865443E+03 -0.49034043654E+03 -0.66170519070E+02  0.50702810181E+03  0.46999998093E+01 0.  1.
</event>
<event>
 5   0  0.9759443E-03  0.1002025E+04  0.7818609E-02  0.9306327E-01
       -1   -1    0    0    0  501  0.00000000000E+00  0.00000000000E+00  0.13366824324E+03  0.13366824333E+03  0.50400001928E-02 0.  1.
        1   -1    0    0  501    0  0.00000000000E+00  0.00000000000E+00 -0.18778843290E+04  0.18778843290E+04  0.50400001928E-02 0. -1.
    10030    2    1    2    0    0  0.00000000000E+00  0.00000000000E+00 -0.17442160858E+04  0.20115525723E+04  0.10020249485E+04 0.  0.
        2    1    3    3  502    0  0.77630223958E+02  0.16752454033E+03  0.62878218215E+02  0.19505023357E+03  0.25500000920E-02 0.  1.
       -2    1    3    3    0  502 -0.77630223958E+02 -0.16752454033E+03 -0.18070943040E+04  0.18165023388E+04  0.25500000920E-02 0. -1.
</event>
<event>
 5   0  0.9396660E-03  0.9781549E+03  0.7818609E-02  0.9332834E-01
       -1   -1    0    0    0  501  0.00000000000E+00  0.00000000000E+00  0.10140425697E+03  0.10140425709E+03  0.50400001928E-02 0. -1.
        1   -1    0    0  501    0  0.00000000000E+00  0.00000000000E+00 -0.23588435315E+04  0.23588435315E+04  0.50400001928E-02 0.  1.
    10030    2    1    2    0    0  0.00000000000E+00  0.00000000000E+00 -0.22574392746E+04  0.24602477886E+04  0.97815494842E+03 0.  0.
        5    1    3    3  502    0 -0.41729858016E+03 -0.50705447381E+02 -0.17573443317E+04  0.18069284262E+04  0.46999998093E+01 0.  1.
       -5    1    3    3    0  502  0.41729858016E+03  0.50705447381E+02 -0.50009494287E+03  0.65331936239E+03  0.46999998093E+01 0. -1.
</event>
<event>
 5   0  0.9759443E-03  0.9993318E+03  0.7818609E-02  0.9309278E-01
       -1   -1    0    0    0  501  0.00000000000E+00  0.00000000000E+00  0.59246314793E+03  0.59246314795E+03  0.50400001928E-02 0. -1.
        1   -1    0    0  501    0  0.00000000000E+00  0.00000000000E+00 -0.42140340773E+03  0.42140340776E+03  0.50400001928E-02 0.  1.
    10030    2    1    2    0    0  0.00000000000E+00  0.00000000000E+00  0.17105974020E+03  0.10138665557E+04  0.99933175576E+03 0.  0.
        2    1    3    3  502    0 -0.38301672109E+02  0.26486847482E+03 -0.34255942586E+03  0.43470597799E+03  0.25500000920E-02 0.  1.
       -2    1    3    3    0  502  0.38301672109E+02 -0.26486847482E+03  0.51361916606E+03  0.57916057773E+03  0.25500000920E-02 0. -1.
</event>
<event>
 5   0  0.9396660E-03  0.9821356E+03  0.7818609E-02  0.9328358E-01
       -1   -1    0    0    0  501  0.00000000000E+00  0.00000000000E+00  0.21549691649E+03  0.21549691655E+03  0.50400001928E-02 0.  1.
        1   -1    0    0  501    0  0.00000000000E+00  0.00000000000E+00 -0.11190302385E+04  0.11190302385E+04  0.50400001928E-02 0. -1.
    10030    2    1    2    0    0  0.00000000000E+00  0.00000000000E+00 -0.90353332203E+03  0.13345271551E+04  0.98213556276E+03 0.  0.
        5    1    3    3  502    0 -0.25417355064E+03  0.40918069178E+03 -0.58133422235E+03  0.75498649025E+03  0.46999998093E+01 0. -1.
       -5    1    3    3    0  502  0.25417355064E+03 -0.40918069178E+03 -0.32219909968E+03  0.57954066484E+03  0.46999998093E+01 0.  1.
</event>
<event>
 5   0  0.6314750E-03  0.9827618E+03  0.7818609E-02  0.9327656E-01
       -4   -1    0    0    0  501  0.00000000000E+00  0.00000000000E+00  0.35094614184E+03  0.35094843976E+03  0.12699999809E+01 0. -1.
        4   -1    0    0  501    0  0.00000000000E+00  0.00000000000E+00 -0.68800697058E+03  0.68800814274E+03  0.12699999809E+01 0.  1.
    10030    2    1    2    0    0  0.00000000000E+00  0.00000000000E+00 -0.33706082875E+03  0.10389565825E+04  0.98276181145E+03 0.  0.
        3    1    3    3  502    0 -0.38597233209E+02 -0.16735731348E+03  0.31818261838E+03  0.36157766196E+03  0.10100000352E+00 0. -1.
       -3    1    3    3    0  502  0.38597233209E+02  0.16735731348E+03 -0.65524344713E+03  0.67737892054E+03  0.10100000352E+00 0.  1.
</event>
<event>
 5   0  0.1598986E-02  0.5904841E+03  0.7818609E-02  0.9925348E-01
        2   -1    0    0  501    0  0.00000000000E+00  0.00000000000E+00  0.43635138203E+03  0.43635138204E+03  0.25500000920E-02 0.  1.
       -2   -1    0    0    0  501  0.00000000000E+00  0.00000000000E+00 -0.19976529214E+03  0.19976529215E+03  0.25500000920E-02 0. -1.
    10030    2    1    2    0    0  0.00000000000E+00  0.00000000000E+00  0.23658608989E+03  0.63611667419E+03  0.59048407705E+03 0.  0.
        3    1    3    3  502    0 -0.86999154239E+00 -0.29433100977E+03  0.14324204260E+03  0.32733743013E+03  0.10100000352E+00 0. -1.
       -3    1    3    3    0  502  0.86999154239E+00  0.29433100977E+03  0.93344047291E+02  0.30877924406E+03  0.10100000352E+00 0.  1.
</event>
<event>
 5   0  0.1571895E-02  0.1029609E+04  0.7818609E-02  0.9276653E-01
       -2   -1    0    0    0  501  0.00000000000E+00  0.00000000000E+00  0.79184330242E+03  0.79184330242E+03  0.25500000920E-02 0. -1.
        2   -1    0    0  501    0  0.00000000000E+00  0.00000000000E+00 -0.33469226625E+03  0.33469226626E+03  0.25500000920E-02 0.  1.
    10030    2    1    2    0    0  0.00000000000E+00  0.00000000000E+00  0.45715103616E+03  0.11265355687E+04  0.10296093034E+04 0.  0.
        2    1    3    3  502    0  0.16080299038E+03  0.48904217126E+03  0.22639205400E+03  0.56238172899E+03  0.25500000920E-02 0. -1.
       -2    1    3    3    0  502 -0.16080299038E+03 -0.48904217126E+03  0.23075898216E+03  0.56415383969E+03  0.25500000920E-02 0.  1.
</event>
<event>
 5   0  0.1663497E-02  0.9550893E+03  0.7818609E-02  0.9359222E-01
       -2   -1    0    0    0  501  0.00000000000E+00  0.00000000000E+00  0.16394366750E+03  0.16394366752E+03  0.25500000920E-02 0.  1.
        2   -1    0    0  501    0  0.00000000000E+00  0.00000000000E+00 -0.13910199073E+04  0.13910199073E+04  0.25500000920E-02 0. -1.
    10030    2    1    2    0    0  0.00000000000E+00  0.00000000000E+00 -0.12270762398E+04  0.15549635748E+04  0.95508932607E+03 0.  0.
        1    1    3    3  502    0  0.21604335202E+03 -0.56802600198E+01  0.79768458941E+02  0.23036927393E+03  0.50400001928E-02 0.  1.
       -1    1    3    3    0  502 -0.21604335202E+03  0.56802600198E+01 -0.13068446988E+04  0.13245943009E+04  0.50400001928E-02 0. -1.
</event>
<event>
 5   0  0.9759443E-03  0.9937939E+03  0.7818609E-02  0.9315378E-01
       -1   -1    0    0    0  501  0.00000000000E+00  0.00000000000E+00  0.21054327146E+03  0.21054327152E+03  0.50400001928E-02 0. -1.
        1   -1    0    0  501    0  0.00000000000E+00  0.00000000000E+00 -0.11727117178E+04  0.11727117178E+04  0.50400001928E-02 0.  1.
    10030    2    1    2    0    0  0.00000000000E+00  0.00000000000E+00 -0.96216844637E+03  0.13832549894E+04  0.99379386515E+03 0.  0.
        2    1    3    3  502    0 -0.38047375671E+03 -0.31216949480E+01 -0.36251734808E+02  0.38220964510E+03  0.25500000920E-02 0. -1.
       -2    1    3    3    0  502  0.38047375671E+03  0.31216949480E+01 -0.92591671156E+03  0.10010453443E+04  0.25500000920E-02 0.  1.
</event>
<event>
 5   0  0.1656859E-02  0.9797882E+03  0.7818609E-02  0.9330995E-01
       -2   -1    0    0    0  501  0.00000000000E+00  0.00000000000E+00  0.82019620073E+03  0.82019620074E+03  0.25500000920E-02 0.  1.
        2   -1    0    0  501    0  0.00000000000E+00  0.00000000000E+00 -0.29260833335E+03  0.29260833336E+03  0.25500000920E-02 0. -1.
    10030    2    1    2    0    0  0.00000000000E+00  0.00000000000E+00  0.52758786738E+03  0.11128045341E+04  0.97978822880E+03 0.  0.
        4    1    3    3  502    0  0.78822837211E+02 -0.16804658072E+03  0.77871053252E+03  0.80052757561E+03  0.12699999809E+01 0.  1.
       -4    1    3    3    0  502 -0.78822837211E+02  0.16804658072E+03 -0.25112266513E+03  0.31227695849E+03  0.12699999809E+01 0. -1.
</event>
<event>
 5   0  0.9507815E-03  0.9991830E+03  0.7818609E-02  0.9309441E-01
       -1   -1    0    0    0  501  0.00000000000E+00  0.00000000000E+00  0.14203165516E+03  0.14203165525E+03  0.50400001928E-02 0. -1.
        1   -1    0    0  501    0  0.00000000000E+00  0.00000000000E+00 -0.17572959514E+04  0.17572959514E+04  0.50400001928E-02 0.  1.
    10030    2    1    2    0    0  0.00000000000E+00  0.00000000000E+00 -0.16152642963E+04  0.18993276067E+04  0.99918297159E+03 0.  0.
        1    1    3    3  502    0 -0.34436552720E+03  0.33261631695E+03 -0.10789353193E+04  0.11803908903E+04  0.50400001928E-02 0.  1.
       -1    1    3    3    0  502  0.34436552720E+03 -0.33261631695E+03 -0.53632897699E+03  0.71893671641E+03  0.50400001928E-02 0. -1.
</event>
<event>
 5   0  0.9759443E-03  0.9741501E+03  0.7818609E-02  0.9337360E-01
       -1   -1    0    0    0  501  0.00000000000E+00  0.00000000000E+00  0.46252654782E+03  0.46252654784E+03  0.50400001928E-02 0.  1.
        1   -1    0    0  501    0  0.00000000000E+00  0.00000000000E+00 -0.51292646937E+03  0.51292646939E+03  0.50400001928E-02 0. -1.
    10030    2    1    2    0    0  0.00000000000E+00  0.00000000000E+00 -0.50399921552E+02  0.97545301724E+03  0.97415010996E+03 0.  0.
        2    1    3    3  502    0  0.42988124224E+02 -0.10712752101E+03 -0.49903241727E+03  0.51220858845E+03  0.25500000920E-02 0. -1.
       -2    1    3    3    0  502 -0.42988124224E+02  0.10712752101E+03  0.44863249572E+03  0.46324442879E+03  0.25500000920E-02 0.  1.
</event>
<event>
 5   0  0.1598986E-02  0.8149982E+03  0.7818609E-02  0.9538558E-01
        2   -1    0    0  501    0  0.00000000000E+00  0.00000000000E+00  0.16017049879E+04  0.16017049879E+04  0.25500000920E-02 0.  1.
       -2   -1    0    0    0  501  0.00000000000E+00  0.00000000000E+00 -0.10367421859E+03  0.10367421862E+03  0.25500000920E-02 0. -1.
    10030    2    1    2    0    0  0.00000000000E+00  0.00000000000E+00  0.14980307693E+04  0.17053792065E+04  0.81499819154E+03 0.  0.
        3    1    3    3  502    0  0.16360814832E+03  0.27724237953E+03  0.12718231053E+04  0.13119317759E+04  0.10100000352E+00 0.  1.
       -3    1    3    3    0  502 -0.16360814832E+03 -0.27724237953E+03  0.22620766399E+03  0.39344743061E+03  0.10100000352E+00 0. -1.
</event>
<event>
 5   0  0.9396660E-03  0.9845045E+03  0.7818609E-02  0.9325705E-01
        1   -1    0    0  501    0  0.00000000000E+00  0.00000000000E+00  0.22441573132E+03  0.22441573138E+03  0.50400001928E-02 0.  1.
       -1   -1    0    0    0  501  0.00000000000E+00  0.00000000000E+00 -0.10797472806E+04  0.10797472806E+04  0.50400001928E-02 0. -1.
    10030    2    1    2    0    0  0.00000000000E+00  0.00000000000E+00 -0.85533154926E+03  0.13041630120E+04  0.98450449599E+03 0.  0.
        5    1    3    3  502    0  0.58926619839E+02  0.22772388424E+02  0.21899351307E+03  0.22797187757E+03  0.46999998093E+01 0.  1.
       -5    1    3    3    0  502 -0.58926619839E+02 -0.22772388424E+02 -0.10743250623E+04  0.10761911344E+04  0.46999998093E+01 0. -1.
</event>
<event>
 5   0  0.1598986E-02  0.9966659E+03  0.7818609E-02  0.9312209E-01
       -2   -1    0    0    0  501  0.00000000000E+00  0.00000000000E+00  0.28372526951E+03  0.28372526952E+03  0.25500000920E-02 0. -1.
        2   -1    0    0  501    0  0.00000000000E+00  0.00000000000E+00 -0.87526823768E+03  0.87526823769E+03  0.25500000920E-02 0.  1.
    10030    2    1    2    0    0  0.00000000000E+00  0.00000000000E+00 -0.59154296818E+03  0.11589935072E+04  0.99666587508E+03 0.  0.
        3    1    3    3  502    0 -0.11999365411E+03  0.23728521106E+03 -0.78588106037E+03  0.82964558678E+03  0.10100000352E+00 0.  1.
       -3    1    3    3    0  502  0.11999365411E+03 -0.23728521106E+03  0.19433809219E+03  0.32934792043E+03  0.10100000352E+00 0. -1.
</event>
<event>
 5   0  0.6314750E-03  0.6587845E+03  0.7818609E-02  0.9790434E-01
        3   -1    0    0  501    0  0.00000000000E+00  0.00000000000E+00  0.52464510858E+03  0.52464511831E+03  0.10100000352E+00 0.  1.
       -3   -1    0    0    0  501  0.00000000000E+00  0.00000000000E+00 -0.20680501690E+03  0.20680504156E+03  0.10100000352E+00 0. -1.
    10030    2    1    2    0    0  0.00000000000E+00  0.00000000000E+00  0.31784009168E+03  0.73145015987E+03  0.65878449624E+03 0.  0.
        5    1    3    3  502    0 -0.16047913433E+03  0.93159074203E+02 -0.14320673998E+03  0.23444066635E+03  0.46999998093E+01 0. -1.
       -5    1    3    3    0  502  0.16047913433E+03 -0.93159074203E+02  0.46104683167E+03  0.49700949352E+03  0.46999998093E+01 0.  1.
</event>
<event>
 5   0  0.9471140E-03  0.1007430E+04  0.7818609E-02  0.9300433E-01
       -1   -1    0    0    0  501  0.00000000000E+00  0.00000000000E+00  0.88095447811E+03  0.88095447813E+03  0.50400001928E-02 0. -1.
        1   -1    0    0  501    0  0.00000000000E+00  0.00000000000E+00 -0.28801591924E+03  0.28801591929E+03  0.50400001928E-02 0.  1.
    10030    2    1    2    0    0  0.00000000000E+00  0.00000000000E+00  0.59293855887E+03  0.11689703974E+04  0.10074302236E+04 0.  0.
        4    1    3    3  502    0  0.15917204069E+03 -0.37266972822E+03 -0.50684176057E+02  0.40839804538E+03  0.12699999809E+01 0.  1.
       -4    1    3    3    0  502 -0.15917204069E+03  0.37266972822E+03  0.64362273493E+03  0.76057235203E+03  0.12699999809E+01 0. -1.
</event>
<event>
 5   0  0.9396660E-03  0.1009097E+04  0.7818609E-02  0.9298623E-01
        1   -1    0    0  501    0  0.00000000000E+00  0.00000000000E+00  0.14070616831E+04  0.14070616831E+04  0.50400001928E-02 0. -1.
       -1   -1    0    0    0  501  0.00000000000E+00  0.00000000000E+00 -0.18092253227E+03  0.18092253234E+03  0.50400001928E-02 0.  1.
    10030    2    1    2    0    0  0.00000000000E+00  0.00000000000E+00  0.12261391508E+04  0.15879842154E+04  0.10090969484E+04 0.  0.
        5    1    3    3  502    0  0.22140927786E+03 -0.19119420708E+03  0.12599407626E+04  0.12934643823E+04  0.46999998093E+01 0. -1.
       -5    1    3    3    0  502 -0.22140927786E+03  0.19119420708E+03 -0.33801611753E+02  0.29451983311E+03  0.46999998093E+01 0.  1.
</event>
<event>
 5   0  0.1617721E-02  0.1049146E+04  0.7818609E-02  0.9256226E-01
        2   -1    0    0  501    0  0.00000000000E+00  0.00000000000E+00  0.83806524653E+03  0.83806524654E+03  0.25500000920E-02 0.  1.
       -2   -1    0    0    0  501  0.00000000000E+00  0.00000000000E+00 -0.32834777983E+03  0.32834777984E+03  0.25500000920E-02 0. -1.
    10030    2    1    2    0    0  0.00000000000E+00  0.00000000000E+00  0.50971746671E+03  0.11664130264E+04  0.10491460586E+04 0.  0.
        5    1    3    3  502    0 -0.17240034311E+03  0.49324540237E+03  0.20340549205E+03  0.56072166844E+03  0.46999998093E+01 0.  1.
       -5    1    3    3    0  502  0.17240034311E+03 -0.49324540237E+03  0.30631197465E+03  0.60569135794E+03  0.46999998093E+01 0. -1.
</event>
<event>
 5   0  0.9507815E-03  0.1004922E+04  0.7818609E-02  0.9303163E-01
       -1   -1    0    0    0  501  0.00000000000E+00  0.00000000000E+00  0.17284601000E+03  0.17284601008E+03  0.50400001928E-02 0. -1.
        1   -1    0    0  501    0  0.00000000000E+00  0.00000000000E+00 -0.14606477620E+04  0.14606477620E+04  0.50400001928E-02 0.  1.
    10030    2    1    2    0    0  0.00000000000E+00  0.00000000000E+00 -0.12878017520E+04  0.16334937721E+04  0.10049221617E+04 0.  0.
        1    1    3    3  502    0 -0.46085711167E+03 -0.18232484344E+03 -0.50950975454E+03  0.71079660658E+03  0.50400001928E-02 0. -1.
       -1    1    3    3    0  502  0.46085711167E+03  0.18232484344E+03 -0.77829199746E+03  0.92269716552E+03  0.50400001928E-02 0.  1.
</event>
<event>
 5   0  0.1617721E-02  0.9963164E+03  0.7818609E-02  0.9312594E-01
       -2   -1    0    0    0  501  0.00000000000E+00  0.00000000000E+00  0.39333861128E+03  0.39333861129E+03  0.25500000920E-02 0. -1.
        2   -1    0    0  501    0  0.00000000000E+00  0.00000000000E+00 -0.63091088411E+03  0.63091088411E+03  0.25500000920E-02 0.  1.
    10030    2    1    2    0    0  0.00000000000E+00  0.00000000000E+00 -0.23757227283E+03  0.10242494954E+04  0.99631643769E+03 0.  0.
        5    1    3    3  502    0 -0.56713420063E+01 -0.38499285886E+03 -0.44369743041E+03  0.58748716177E+03  0.46999998093E+01 0.  1.
       -5    1    3    3    0  502  0.56713420063E+01  0.38499285886E+03  0.20612515759E+03  0.43676233363E+03  0.46999998093E+01 0. -1.
</event>
<event>
 5   0  0.9759443E-03  0.1008528E+04  0.7818609E-02  0.9299241E-01
       -1   -1    0    0    0  501  0.00000000000E+00  0.00000000000E+00  0.25441786342E+03  0.25441786347E+03  0.50400001928E-02 0. -1.
        1   -1    0    0  501    0  0.00000000000E+00  0.00000000000E+00 -0.99946678021E+03  0.99946678022E+03  0.50400001928E-02 0.  1.
    10030    2    1    2    0    0  0.00000000000E+00  0.00000000000E+00 -0.74504891679E+03  0.12538846437E+04  0.10085280419E+04 0.  0.
        2    1    3    3  502    0 -0.11060646429E+03  0.12744157380E+03 -0.96332156783E+03  0.97798956423E+03  0.25500000920E-02 0.  1.
       -2    1    3    3    0  502  0.11060646429E+03 -0.12744157380E+03  0.21827265104E+03  0.27589507947E+03  0.25500000920E-02 0. -1.
</event>
<event>
 5   0  0.1000773E-02  0.1008496E+04  0.7818609E-02  0.9299275E-01
       -1   -1    0    0    0  501  0.00000000000E+00  0.00000000000E+00  0.22999810112E+03  0.22999810118E+03  0.50400001928E-02 0. -1.
        1   -1    0    0  501    0  0.00000000000E+00  0.00000000000E+00 -0.11055147157E+04  0.11055147157E+04  0.50400001928E-02 0.  1.
    10030    2    1    2    0    0  0.00000000000E+00  0.00000000000E+00 -0.87551661459E+03  0.13355128169E+04  0.10084964758E+04 0.  0.
        3    1    3    3  502    0  0.76601790029E+02  0.15458272448E+03 -0.10652159079E+04  0.10790961930E+04  0.10100000352E+00 0.  1.
       -3    1    3    3    0  502 -0.76601790029E+02 -0.15458272448E+03  0.18969929334E+03  0.25641662395E+03  0.10100000352E+00 0. -1.
</event>
<event>
 5   0  0.6314750E-03  0.1104391E+04  0.7818609E-02  0.9200922E-01
        3   -1    0    0  501    0  0.00000000000E+00  0.00000000000E+00  0.67919372250E+03  0.67919373001E+03  0.10100000352E+00 0.  1.
       -3   -1    0    0    0  501  0.00000000000E+00  0.00000000000E+00 -0.44894405617E+03  0.44894406753E+03  0.10100000352E+00 0. -1.
    10030    2    1    2    0    0  0.00000000000E+00  0.00000000000E+00  0.23024966633E+03  0.11281377975E+04  0.11043912266E+04 0.  0.
        5    1    3    3  502    0  0.31136807313E+03 -0.25814734036E+03  0.49911688724E+03  0.64244056801E+03  0.46999998093E+01 0.  1.
       -5    1    3    3    0  502 -0.31136807313E+03  0.25814734036E+03 -0.26886722090E+03  0.48569722953E+03  0.46999998093E+01 0. -1.
</event>
<event>
 5   0  0.9396660E-03  0.1026703E+04  0.7818609E-02  0.9279733E-01
        1   -1    0    0  501    0  0.00000000000E+00  0.00000000000E+00  0.11438116769E+04  0.11438116769E+04  0.50400001928E-02 0.  1.
       -1   -1    0    0    0  501  0.00000000000E+00  0.00000000000E+00 -0.23039615559E+03  0.23039615565E+03  0.50400001928E-02 0. -1.
    10030    2    1    2    0    0  0.00000000000E+00  0.00000000000E+00  0.91341552128E+03  0.13742078325E+04  0.10267030985E+04 0.  0.
        5    1    3    3  502    0  0.34143288249E+02  0.21952418017E+03  0.10761027601E+04  0.10988065662E+04  0.46999998093E+01 0.  1.
       -5    1    3    3    0  502 -0.34143288249E+02 -0.21952418017E+03 -0.16268723878E+03  0.27540126629E+03  0.46999998093E+01 0. -1.
</event>
<event>
 5   0  0.1571895E-02  0.1047684E+04  0.7818609E-02  0.9257738E-01
       -2   -1    0    0    0  501  0.00000000000E+00  0.00000000000E+00  0.19924898717E+03  0.19924898719E+03  0.25500000920E-02 0.  1.
        2   -1    0    0  501    0  0.00000000000E+00  0.00000000000E+00 -0.13772245127E+04  0.13772245127E+04  0.25500000920E-02 0. -1.
    10030    2    1    2    0    0  0.00000000000E+00  0.00000000000E+00 -0.11779755255E+04  0.15764734999E+04  0.10476842831E+04 0.  0.
        2    1    3    3  502    0 -0.19355862545E+03  0.42490178891E+03 -0.94635246209E+03  0.10552674799E+04  0.25500000920E-02 0. -1.
       -2    1    3    3    0  502  0.19355862545E+03 -0.42490178891E+03 -0.23162306342E+03  0.52120601993E+03  0.25500000920E-02 0.  1.
</event>
<event>
 5   0  0.1663497E-02  0.9919018E+03  0.7818609E-02  0.9317472E-01
       -2   -1    0    0    0  501  0.00000000000E+00  0.00000000000E+00  0.31865189006E+03  0.31865189007E+03  0.25500000920E-02 0. -1.
        2   -1    0    0  501    0  0.00000000000E+00  0.00000000000E+00 -0.77189974075E+03  0.77189974075E+03  0.25500000920E-02 0.  1.
    10030    2    1    2    0    0  0.00000000000E+00  0.00000000000E+00 -0.45324785069E+03  0.10905516308E+04  0.99190183251E+03 0.  0.
        1    1    3    3  502    0 -0.43569775503E+02 -0.22838731801E+03 -0.70826589789E+03  0.74545266416E+03  0.50400001928E-02 0.  1.
       -1    1    3    3    0  502  0.43569775503E+02  0.22838731801E+03  0.25501804720E+03  0.34509896666E+03  0.50400001928E-02 0. -1.
</event>
<event>
 5   0  0.9507815E-03  0.9856378E+03  0.7818609E-02  0.9324439E-01
       -1   -1    0    0    0  501  0.00000000000E+00  0.00000000000E+00  0.48722929955E+03  0.48722929958E+03  0.50400001928E-02 0. -1.
        1   -1    0    0  501    0  0.00000000000E+00  0.00000000000E+00 -0.49847262760E+03  0.49847262763E+03  0.50400001928E-02 0.  1.
    10030    2    1    2    0    0  0.00000000000E+00  0.00000000000E+00 -0.11243328051E+02  0.98570192721E+03  0.98563780207E+03 0.  0.
        1    1    3    3  502    0 -0.32242157064E+03  0.23352513441E+03 -0.29612431718E+03  0.49616455825E+03  0.50400001928E-02 0.  1.
       -1    1    3    3    0  502  0.32242157064E+03 -0.23352513441E+03  0.28488098913E+03  0.48953736896E+03  0.50400001928E-02 0. -1.
</event>
<event>
 5   0  0.1000773E-02  0.9807529E+03  0.7818609E-02  0.9329910E-01
        1   -1    0    0  501    0  0.00000000000E+00  0.00000000000E+00  0.94038842434E+03  0.94038842436E+03  0.50400001928E-02 0. -1.
       -1   -1    0    0    0  501  0.00000000000E+00  0.00000000000E+00 -0.25571250740E+03  0.25571250745E+03  0.50400001928E-02 0.  1.
    10030    2    1    2    0    0  0.00000000000E+00  0.00000000000E+00  0.68467591694E+03  0.11961009318E+04  0.98075293924E+03 0.  0.
        3    1    3    3  502    0 -0.31928713900E+03  0.34600858952E+03  0.50957021816E+03  0.69377809030E+03  0.10100000352E+00 0. -1.
       -3    1    3    3    0  502  0.31928713900E+03 -0.34600858952E+03  0.17510569879E+03  0.50232284150E+03  0.10100000352E+00 0.  1.
</event>
<event>
 5   0  0.1000773E-02  0.9956545E+03  0.7818609E-02  0.9313324E-01
        1   -1    0    0  501    0  0.00000000000E+00  0.00000000000E+00  0.12362570438E+04  0.12362570438E+04  0.50400001928E-02 0. -1.
       -1   -1    0    0    0  501  0.00000000000E+00  0.00000000000E+00 -0.20046962469E+03  0.20046962475E+03  0.50400001928E-02 0.  1.
    10030    2    1    2    0    0  0.00000000000E+00  0.00000000000E+00  0.10357874191E+04  0.14367266685E+04  0.99565452972E+03 0.  0.
        3    1    3    3  502    0 -0.22358961672E+03 -0.44048477413E+03  0.42879143867E+03  0.65412633415E+03  0.10100000352E+00 0.  1.
       -3    1    3    3    0  502  0.22358961672E+03  0.44048477413E+03  0.60699598041E+03  0.78260033438E+03  0.10100000352E+00 0. -1.
</event>
<event>
 5   0  0.9759443E-03  0.7063004E+03  0.7818609E-02  0.9706518E-01
        1   -1    0    0  501    0  0.00000000000E+00  0.00000000000E+00  0.41753259539E+03  0.41753259542E+03  0.50400001928E-02 0. -1.
       -1   -1    0    0    0  501  0.00000000000E+00  0.00000000000E+00 -0.29869537498E+03  0.29869537502E+03  0.50400001928E-02 0.  1.
    10030    2    1    2    0    0  0.00000000000E+00  0.00000000000E+00  0.11883722041E+03  0.71622797044E+03  0.70630037568E+03 0.  0.
        2    1    3    3  502    0 -0.20005729877E+03  0.17109307010E+03  0.29814054926E+03  0.39772295451E+03  0.25500000920E-02 0. -1.
       -2    1    3    3    0  502  0.20005729877E+03 -0.17109307010E+03 -0.17930332885E+03  0.31850501593E+03  0.25500000920E-02 0.  1.
</event>
<event>
 5   0  0.1663497E-02  0.9977106E+03  0.7818609E-02  0.9311059E-01
       -2   -1    0    0    0  501  0.00000000000E+00  0.00000000000E+00  0.36184136117E+03  0.36184136118E+03  0.25500000920E-02 0. -1.
        2   -1    0    0  501    0  0.00000000000E+00  0.00000000000E+00 -0.68775065695E+03  0.68775065695E+03  0.25500000920E-02 0.  1.
    10030    2    1    2    0    0  0.00000000000E+00  0.00000000000E+00 -0.32590929578E+03  0.10495920181E+04  0.99771064716E+03 0.  0.
        1    1    3    3  502    0 -0.37057626117E+03  0.17888224834E+03  0.13372254466E+03  0.43267463883E+03  0.50400001928E-02 0.  1.
       -1    1    3    3    0  502  0.37057626117E+03 -0.17888224834E+03 -0.45963184044E+03  0.61691737930E+03  0.50400001928E-02 0. -1.
</event>
<event>
 5   0  0.1598986E-02  0.1122884E+04  0.7818609E-02  0.9183170E-01
       -2   -1    0    0    0  501  0.00000000000E+00  0.00000000000E+00  0.17321495295E+03  0.17321495297E+03  0.25500000920E-02 0. -1.
        2   -1    0    0  501    0  0.00000000000E+00  0.00000000000E+00 -0.18198025874E+04  0.18198025874E+04  0.25500000920E-02 0.  1.
    10030    2    1    2    0    0  0.00000000000E+00  0.00000000000E+00 -0.16465876345E+04  0.19930175404E+04  0.11228838223E+04 0.  0.
        3    1    3    3  502    0 -0.15839140691E+03  0.48294278769E+03 -0.39992876156E+03  0.64673379260E+03  0.10100000352E+00 0.  1.
       -3    1    3    3    0  502  0.15839140691E+03 -0.48294278769E+03 -0.12466588729E+04  0.13462837478E+04  0.10100000352E+00 0. -1.
</event>
<event>
 5   0  0.1000773E-02  0.9941074E+03  0.7818609E-02  0.9315031E-01
        1   -1    0    0  501    0  0.00000000000E+00  0.00000000000E+00  0.38844140849E+03  0.38844140852E+03  0.50400001928E-02 0.  1.
       -1   -1    0    0    0  501  0.00000000000E+00  0.00000000000E+00 -0.63603511372E+03  0.63603511374E+03  0.50400001928E-02 0. -1.
    10030    2    1    2    0    0  0.00000000000E+00  0.00000000000E+00 -0.24759370523E+03  0.10244765223E+04  0.99410738947E+03 0.  0.
        3    1    3    3  502    0 -0.59044872407E+02 -0.30445170571E+03  0.27650911893E+03  0.41549300971E+03  0.10100000352E+00 0.  1.
       -3    1    3    3    0  502  0.59044872407E+02  0.30445170571E+03 -0.52410282416E+03  0.60898351255E+03  0.10100000352E+00 0. -1.
</event>
<event>
 5   0  0.1656859E-02  0.1030948E+04  0.7818609E-02  0.9275238E-01
       -2   -1    0    0    0  501  0.00000000000E+00  0.00000000000E+00  0.16687164067E+03  0.16687164069E+03  0.25500000920E-02 0. -1.
        2   -1    0    0  501    0  0.00000000000E+00  0.00000000000E+00 -0.15923237987E+04  0.15923237987E+04  0.25500000920E-02 0.  1.
    10030    2    1    2    0    0  0.00000000000E+00  0.00000000000E+00 -0.14254521580E+04  0.17591954394E+04  0.10309484658E+04 0.  0.
        4    1    3    3  502    0 -0.20597508649E+03  0.18035830339E+03 -0.14580029163E+04  0.14834854131E+04  0.12699999809E+01 0.  1.
       -4    1    3    3    0  502  0.20597508649E+03 -0.18035830339E+03  0.32550758291E+02  0.27571002634E+03  0.12699999809E+01 0. -1.
</event>
<event>
 5   0  0.1000773E-02  0.1002016E+04  0.7818609E-02  0.9306336E-01
        1   -1    0    0  501    0  0.00000000000E+00  0.00000000000E+00  0.76131047840E+03  0.76131047841E+03  0.50400001928E-02 0. -1.
       -1   -1    0    0    0  501  0.00000000000E+00  0.00000000000E+00 -0.32970659266E+03  0.32970659270E+03  0.50400001928E-02 0.  1.
    10030    2    1    2    0    0  0.00000000000E+00  0.00000000000E+00  0.43160388574E+03  0.10910170711E+04  0.10020161352E+04 0.  0.
        3    1    3    3  502    0  0.80422285181E+02  0.45848544279E+03  0.14054010407E+02  0.46569750977E+03  0.10100000352E+00 0.  1.
       -3    1    3    3    0  502 -0.80422285181E+02 -0.45848544279E+03  0.41754987533E+03  0.62531956134E+03  0.10100000352E+00 0. -1.
</event>
<event>
 5   0  0.1000773E-02  0.9951787E+03  0.7818609E-02  0.9313849E-01
       -1   -1    0    0    0  501  0.00000000000E+00  0.00000000000E+00  0.36133354419E+03  0.36133354422E+03  0.50400001928E-02 0. -1.
        1   -1    0    0  501    0  0.00000000000E+00  0.00000000000E+00 -0.68522606776E+03  0.68522606778E+03  0.50400001928E-02 0.  1.
    10030    2    1    2    0    0  0.00000000000E+00  0.00000000000E+00 -0.32389252357E+03  0.10465596120E+04  0.99517870488E+03 0.  0.
        3    1    3    3  502    0 -0.92865493768E+02  0.48793003378E+03 -0.13047746849E+03  0.51354074598E+03  0.10100000352E+00 0. -1.
       -3    1    3    3    0  502  0.92865493768E+02 -0.48793003378E+03 -0.19341505508E+03  0.53301886602E+03  0.10100000352E+00 0.  1.
</event>
<event>
 5   0  0.1617721E-02  0.9773500E+03  0.7818609E-02  0.9333742E-01
        2   -1    0    0  501    0  0.00000000000E+00  0.00000000000E+00  0.44730320379E+03  0.44730320379E+03  0.25500000920E-02 0. -1.
       -2   -1    0    0    0  501  0.00000000000E+00  0.00000000000E+00 -0.53387335259E+03  0.53387335260E+03  0.25500000920E-02 0.  1.
    10030    2    1    2    0    0  0.00000000000E+00  0.00000000000E+00 -0.86570148805E+02  0.98117655639E+03  0.97735001107E+03 0.  0.
        5    1    3    3  502    0 -0.43630213531E+03  0.21991901811E+03 -0.50880622448E+02  0.49125844069E+03  0.46999998093E+01 0. -1.
       -5    1    3    3    0  502  0.43630213531E+03 -0.21991901811E+03 -0.35689526357E+02  0.48991811570E+03  0.46999998093E+01 0.  1.
</event>
<event>
 5   0  0.9471140E-03  0.9992849E+03  0.7818609E-02  0.9309329E-01
        1   -1    0    0  501    0  0.00000000000E+00  0.00000000000E+00  0.23909345652E+03  0.23909345657E+03  0.50400001928E-02 0.  1.
       -1   -1    0    0    0  501  0.00000000000E+00  0.00000000000E+00 -0.10441214320E+04  0.10441214320E+04  0.50400001928E-02 0. -1.
    10030    2    1    2    0    0  0.00000000000E+00  0.00000000000E+00 -0.80502797551E+03  0.12832148886E+04  0.99928494886E+03 0.  0.
        4    1    3    3  502    0 -0.40037269093E+03 -0.28862678252E+03 -0.50229103221E+03  0.70420281537E+03  0.12699999809E+01 0. -1.
       -4    1    3    3    0  502  0.40037269093E+03  0.28862678252E+03 -0.30273694329E+03  0.57901207325E+03  0.12699999809E+01 0.  1.
</event>
<event>
 5   0  0.1000773E-02  0.1004516E+04  0.7818609E-02  0.9303606E-01
        1   -1    0    0  501    0  0.00000000000E+00  0.00000000000E+00  0.20700510335E+03  0.20700510342E+03  0.50400001928E-02 0. -1.
       -1   -1    0    0    0  501  0.00000000000E+00  0.00000000000E+00 -0.12186317240E+04  0.12186317240E+04  0.50400001928E-02 0.  1.
    10030    2    1    2    0    0  0.00000000000E+00  0.00000000000E+00 -0.10116266206E+04  0.14256368274E+04  0.10045157759E+04 0.  0.
        3    1    3    3  502    0 -0.36237879179E+03 -0.29082394366E+02 -0.13975989037E+02  0.36381246937E+03  0.10100000352E+00 0. -1.
       -3    1    3    3    0  502  0.36237879179E+03  0.29082394366E+02 -0.99765063159E+03  0.10618243580E+04  0.10100000352E+00 0.  1.
</event>
<event>
 5   0  0.1571895E-02  0.9931365E+03  0.7818609E-02  0.9316105E-01
       -2   -1    0    0    0  501  0.00000000000E+00  0.00000000000E+00  0.27360688960E+03  0.27360688961E+03  0.25500000920E-02 0.  1.
        2   -1    0    0  501    0  0.00000000000E+00  0.00000000000E+00 -0.90122008429E+03  0.90122008429E+03  0.25500000920E-02 0. -1.
    10030    2    1    2    0    0  0.00000000000E+00  0.00000000000E+00 -0.62761319469E+03  0.11748269739E+04  0.99313649438E+03 0.  0.
        2    1    3    3  502    0 -0.48563154067E+03  0.46112154848E+02 -0.42360859776E+03  0.64607164326E+03  0.25500000920E-02 0. -1.
       -2    1    3    3    0  502  0.48563154067E+03 -0.46112154848E+02 -0.20400459693E+03  0.52875533065E+03  0.25500000920E-02 0.  1.
</event>
<event>
 5   0  0.9471140E-03  0.9918458E+03  0.7818609E-02  0.9317534E-01
        1   -1    0    0  501    0  0.00000000000E+00  0.00000000000E+00  0.10088646542E+04  0.10088646542E+04  0.50400001928E-02 0.  1.
       -1   -1    0    0    0  501  0.00000000000E+00  0.00000000000E+00 -0.24377853204E+03  0.24377853209E+03  0.50400001928E-02 0. -1.
    10030    2    1    2    0    0  0.00000000000E+00  0.00000000000E+00  0.76508612219E+03  0.12526431863E+04  0.99184584381E+03 0.  0.
        4    1    3    3  502    0 -0.17116699594E+03 -0.15317983040E+03  0.93762805185E+03  0.96535494895E+03  0.12699999809E+01 0.  1.
       -4    1    3    3    0  502  0.17116699594E+03  0.15317983040E+03 -0.17254192966E+03  0.28728823737E+03  0.12699999809E+01 0. -1.
</event>
<event>
 5   0  0.1663497E-02  0.1004449E+04  0.7818609E-02  0.9303678E-01
       -2   -1    0    0    0  501  0.00000000000E+00  0.00000000000E+00  0.64235083673E+03  0.64235083674E+03  0.25500000920E-02 0. -1.
        2   -1    0    0  501    0  0.00000000000E+00  0.00000000000E+00 -0.39266642339E+03  0.39266642340E+03  0.25500000920E-02 0.  1.
    10030    2    1    2    0    0  0.00000000000E+00  0.00000000000E+00  0.24968441334E+03  0.10350172601E+04  0.10044493131E+04 0.  0.
        1    1    3    3  502    0  0.93417600349E+02  0.48892910110E+03  0.19358906155E+03  0.53409291208E+03  0.50400001928E-02 0. -1.
       -1    1    3    3    0  502 -0.93417600349E+02 -0.48892910110E+03  0.56095351792E+02  0.50092434805E+03  0.50400001928E-02 0.  1.
</event>
<event>
 5   0  0.6314750E-03  0.7871455E+03  0.7818609E-02  0.9578812E-01
       -4   -1    0    0    0  501  0.00000000000E+00  0.00000000000E+00  0.13662250615E+03  0.13662840878E+03  0.12699999809E+01 0. -1.
        4   -1    0    0  501    0  0.00000000000E+00  0.00000000000E+00 -0.11337467674E+04  0.11337474787E+04  0.12699999809E+01 0.  1.
    10030    2    1    2    0    0  0.00000000000E+00  0.00000000000E+00 -0.99712426124E+03  0.12703758875E+04  0.78714554127E+03 0.  0.
        5    1    3    3  502    0  0.22383552233E+03  0.26874644805E+02  0.22037898980E+02  0.22656642862E+03  0.46999998093E+01 0. -1.
       -5    1    3    3    0  502 -0.22383552233E+03 -0.26874644805E+02 -0.10191621602E+04  0.10438094589E+04  0.46999998093E+01 0.  1.
</event>
<event>
 5   0  0.9471140E-03  0.1009105E+04  0.7818609E-02  0.9298614E-01
        1   -1    0    0  501    0  0.00000000000E+00  0.00000000000E+00  0.27025840072E+03  0.27025840077E+03  0.50400001928E-02 0.  1.
       -1   -1    0    0    0  501  0.00000000000E+00  0.00000000000E+00 -0.94196264537E+03  0.94196264538E+03  0.50400001928E-02 0. -1.
    10030    2    1    2    0    0  0.00000000000E+00  0.00000000000E+00 -0.67170424465E+03  0.12122210462E+04  0.10091051840E+04 0.  0.
        4    1    3    3  502    0 -0.39618409430E+03 -0.18503108570E+03 -0.33440296830E+02  0.43854099649E+03  0.12699999809E+01 0.  1.
       -4    1    3    3    0  502  0.39618409430E+03  0.18503108570E+03 -0.63826394782E+03  0.77368004966E+03  0.12699999809E+01 0. -1.
</event>
<event>
 5   0  0.1598986E-02  0.9994888E+03  0.7818609E-02  0.9309106E-01
       -2   -1    0    0    0  501  0.00000000000E+00  0.00000000000E+00  0.87966313092E+03  0.87966313092E+03  0.25500000920E-02 0.  1.
        2   -1    0    0  501    0  0.00000000000E+00  0.00000000000E+00 -0.28390921560E+03  0.28390921561E+03  0.25500000920E-02 0. -1.
    10030    2    1    2    0    0  0.00000000000E+00  0.00000000000E+00  0.59575391532E+03  0.11635723465E+04  0.99948880834E+03 0.  0.
        3    1    3    3  502    0  0.18116736712E+03  0.82521942192E+02  0.83150898881E+03  0.85500800846E+03  0.10100000352E+00 0.  1.
       -3    1    3    3    0  502 -0.18116736712E+03 -0.82521942192E+02 -0.23575507349E+03  0.30856433807E+03  0.10100000352E+00 0. -1.
</event>
<event>
 5   0  0.1000773E-02  0.9921045E+03  0.7818609E-02  0.9317247E-01
       -1   -1    0    0    0  501  0.00000000000E+00  0.00000000000E+00  0.22109109429E+03  0.22109109435E+03  0.50400001928E-02 0.  1.
        1   -1    0    0  501    0  0.00000000000E+00  0.00000000000E+00 -0.11129703420E+04  0.11129703420E+04  0.50400001928E-02 0. -1.
    10030    2    1    2    0    0  0.00000000000E+00  0.00000000000E+00 -0.89187924766E+03  0.13340614363E+04  0.99210449221E+03 0.  0.
        3    1    3    3  502    0  0.40008572065E+03 -0.12183789154E+03 -0.87248682843E+02  0.42722991298E+03  0.10100000352E+00 0.  1.
       -3    1    3    3    0  502 -0.40008572065E+03  0.12183789154E+03 -0.80463056482E+03  0.90683152334E+03  0.10100000352E+00 0. -1.
</event>
<event>
 5   0  0.1571895E-02  0.9986121E+03  0.7818609E-02  0.9310068E-01
       -2   -1    0    0    0  501  0.00000000000E+00  0.00000000000E+00  0.10771979301E+04  0.10771979301E+04  0.25500000920E-02 0. -1.
        2   -1    0    0  501    0  0.00000000000E+00  0.00000000000E+00 -0.23143984576E+03  0.23143984577E+03  0.25500000920E-02 0.  1.
    10030    2    1    2    0    0  0.00000000000E+00  0.00000000000E+00  0.84575808436E+03  0.13086377759E+04  0.99861208247E+03 0.  0.
        2    1    3    3  502    0 -0.34838859747E+03  0.25008947176E+03  0.87783317234E+02  0.43775023646E+03  0.25500000920E-02 0.  1.
       -2    1    3    3    0  502  0.34838859747E+03 -0.25008947176E+03  0.75797476713E+03  0.87088753944E+03  0.25500000920E-02 0. -1.
</event>
<event>
 5   0  0.1598986E-02  0.9733635E+03  0.7818609E-02  0.9338252E-01
       -2   -1    0    0    0  501  0.00000000000E+00  0.00000000000E+00  0.37368490700E+03  0.37368490701E+03  0.25500000920E-02 0. -1.
        2   -1    0    0  501    0  0.00000000000E+00  0.00000000000E+00 -0.63384720835E+03  0.63384720835E+03  0.25500000920E-02 0.  1.
    10030    2    1    2    0    0  0.00000000000E+00  0.00000000000E+00 -0.26016230134E+03  0.10075321154E+04  0.97336351917E+03 0.  0.
        3    1    3    3  502    0 -0.14175481243E+02  0.44406459222E+03  0.75549991782E+02  0.45066852319E+03  0.10100000352E+00 0. -1.
       -3    1    3    3    0  502  0.14175481243E+02 -0.44406459222E+03 -0.33571229312E+03  0.55686359217E+03  0.10100000352E+00 0.  1.
</event>
<event>
 5   0  0.1571895E-02  0.1005997E+04  0.7818609E-02  0.9301992E-01
       -2   -1    0    0    0  501  0.00000000000E+00  0.00000000000E+00  0.17155017677E+03  0.17155017679E+03  0.25500000920E-02 0.  1.
        2   -1    0    0  501    0  0.00000000000E+00  0.00000000000E+00 -0.14748302553E+04  0.14748302553E+04  0.25500000920E-02 0. -1.
    10030    2    1    2    0    0  0.00000000000E+00  0.00000000000E+00 -0.13032800785E+04  0.16463804321E+04  0.10059968012E+04 0.  0.
        2    1    3    3  502    0 -0.83689598923E+02  0.43017908445E+02  0.15701731558E+03  0.18305443674E+03  0.25500000920E-02 0.  1.
       -2    1    3    3    0  502  0.83689598923E+02 -0.43017908445E+02 -0.14602973941E+04  0.14633259954E+04  0.25500000920E-02 0. -1.
</event>
<event>
 5   0  0.1571895E-02  0.9953613E+03  0.7818609E-02  0.9313647E-01
       -2   -1    0    0    0  501  0.00000000000E+00  0.00000000000E+00  0.18351064049E+03  0.18351064050E+03  0.25500000920E-02 0.  1.
        2   -1    0    0  501    0  0.00000000000E+00  0.00000000000E+00 -0.13497093366E+04  0.13497093366E+04  0.25500000920E-02 0. -1.
    10030    2    1    2    0    0  0.00000000000E+00  0.00000000000E+00 -0.11661986961E+04  0.15332199771E+04  0.99536129087E+03 0.  0.
        2    1    3    3  502    0  0.52403909958E+02 -0.49432441052E+03 -0.62029947975E+03  0.79490517497E+03  0.25500000920E-02 0.  1.
       -2    1    3    3    0  502 -0.52403909958E+02  0.49432441052E+03 -0.54589921633E+03  0.73831480210E+03  0.25500000920E-02 0. -1.
</event>
<event>
 5   0  0.9396660E-03  0.9976357E+03  0.7818609E-02  0.9311142E-01
        1   -1    0    0  501    0  0.00000000000E+00  0.00000000000E+00  0.32619292112E+03  0.32619292116E+03  0.50400001928E-02 0. -1.
       -1   -1    0    0    0  501  0.00000000000E+00  0.00000000000E+00 -0.76279777585E+03  0.76279777587E+03  0.50400001928E-02 0.  1.
    10030    2    1    2    0    0  0.00000000000E+00  0.00000000000E+00 -0.43660485473E+03  0.10889906970E+04  0.99763567450E+03 0.  0.
        5    1    3    3  502    0 -0.41124673218E+03 -0.11961786197E+03  0.60774730007E+02  0.43260601641E+03  0.46999998093E+01 0. -1.
       -5    1    3    3    0  502  0.41124673218E+03  0.11961786197E+03 -0.49737958474E+03  0.65638468061E+03  0.46999998093E+01 0.  1.
</event>
<event>
 5   0  0.9471140E-03  0.1003934E+04  0.7818609E-02  0.9304240E-01
        1   -1    0    0  501    0  0.00000000000E+00  0.00000000000E+00  0.46914900098E+03  0.46914900100E+03  0.50400001928E-02 0. -1.
       -1   -1    0    0    0  501  0.00000000000E+00  0.00000000000E+00 -0.53708120924E+03  0.53708120926E+03  0.50400001928E-02 0.  1.
    10030    2    1    2    0    0  0.00000000000E+00  0.00000000000E+00 -0.67932208259E+02  0.10062302103E+04  0.10039344855E+04 0.  0.
        4    1    3    3  502    0  0.41416486264E+03  0.15636002191E+03 -0.27112610014E+03  0.51912615516E+03  0.12699999809E+01 0.  1.
       -4    1    3    3    0  502 -0.41416486264E+03 -0.15636002191E+03  0.20319389188E+03  0.48710405510E+03  0.12699999809E+01 0. -1.
</event>
<event>
 5   0  0.1571895E-02  0.1000777E+04  0.7818609E-02  0.9307693E-01
       -2   -1    0    0    0  501  0.00000000000E+00  0.00000000000E+00  0.14917553428E+03  0.14917553430E+03  0.25500000920E-02 0.  1.
        2   -1    0    0  501    0  0.00000000000E+00  0.00000000000E+00 -0.16784838404E+04  0.16784838404E+04  0.25500000920E-02 0. -1.
    10030    2    1    2    0    0  0.00000000000E+00  0.00000000000E+00 -0.15293083061E+04  0.18276593747E+04  0.10007771454E+04 0.  0.
        2    1    3    3  502    0  0.18571374938E+02  0.43843764629E+03 -0.32553450519E+03  0.54639288038E+03  0.25500000920E-02 0.  1.
       -2    1    3    3    0  502 -0.18571374938E+02 -0.43843764629E+03 -0.12037738010E+04  0.12812664943E+04  0.25500000920E-02 0. -1.
</event>
<event>
 5   0  0.1571895E-02  0.1007785E+04  0.7818609E-02  0.9300048E-01
        2   -1    0    0  501    0  0.00000000000E+00  0.00000000000E+00  0.74613837959E+03  0.74613837960E+03  0.25500000920E-02 0.  1.
       -2   -1    0    0    0  501  0.00000000000E+00  0.00000000000E+00 -0.34029538308E+03  0.34029538309E+03  0.25500000920E-02 0. -1.
    10030    2    1    2    0    0  0.00000000000E+00  0.00000000000E+00  0.40584299651E+03  0.10864337627E+04  0.10077845915E+04 0.  0.
        2    1    3    3  502    0  0.39687317247E+03 -0.85140107544E+02 -0.11896067618E+03  0.42297611685E+03  0.25500000920E-02 0. -1.
       -2    1    3    3    0  502 -0.39687317247E+03  0.85140107544E+02  0.52480367269E+03  0.66345764584E+03  0.25500000920E-02 0.  1.
</event>
<event>
 5   0  0.6314750E-03  0.1005797E+04  0.7818609E-02  0.9302209E-01
        3   -1    0    0  501    0  0.00000000000E+00  0.00000000000E+00  0.37279144805E+03  0.37279146173E+03  0.10100000352E+00 0.  1.
       -3   -1    0    0    0  501  0.00000000000E+00  0.00000000000E+00 -0.67841423712E+03  0.67841424464E+03  0.10100000352E+00 0. -1.
    10030    2    1    2    0    0  0.00000000000E+00  0.00000000000E+00 -0.30562278907E+03  0.10512057064E+04  0.10057972698E+04 0.  0.
        4    1    3    3  502    0 -0.41629772575E+03  0.64118910205E+02  0.13434804723E+03  0.44211541684E+03  0.12699999809E+01 0. -1.
       -4    1    3    3    0  502  0.41629772575E+03 -0.64118910205E+02 -0.43997083630E+03  0.60909028953E+03  0.12699999809E+01 0.  1.
</event>
<event>
 5   0  0.1598986E-02  0.9748095E+03  0.7818609E-02  0.9336613E-01
        2   -1    0    0  501    0  0.00000000000E+00  0.00000000000E+00  0.31285561638E+03  0.31285561639E+03  0.25500000920E-02 0. -1.
       -2   -1    0    0    0  501  0.00000000000E+00  0.00000000000E+00 -0.75933878838E+03  0.75933878839E+03  0.25500000920E-02 0.  1.
    10030    2    1    2    0    0  0.00000000000E+00  0.00000000000E+00 -0.44648317200E+03  0.10721944048E+04  0.97480952948E+03 0.  0.
        3    1    3    3  502    0 -0.54143555001E+02  0.25364309811E+03  0.23065543381E+03  0.34708541473E+03  0.10100000352E+00 0. -1.
       -3    1    3    3    0  502  0.54143555001E+02 -0.25364309811E+03 -0.67713860581E+03  0.72510899005E+03  0.10100000352E+00 0.  1.
</event>
<event>
 5   0  0.6314750E-03  0.9994305E+03  0.7818609E-02  0.9309170E-01
        4   -1    0    0  501    0  0.00000000000E+00  0.00000000000E+00  0.12065464739E+04  0.12065471423E+04  0.12699999809E+01 0.  1.
       -4   -1    0    0    0  501  0.00000000000E+00  0.00000000000E+00 -0.20696434999E+03  0.20696824652E+03  0.12699999809E+01 0. -1.
    10030    2    1    2    0    0  0.00000000000E+00  0.00000000000E+00  0.99958212395E+03  0.14135153889E+04  0.99943050385E+03 0.  0.
        1    1    3    3  502    0 -0.47481969964E+03  0.15538004247E+03  0.51519536088E+03  0.71765100478E+03  0.50400001928E-02 0.  1.
       -1    1    3    3    0  502  0.47481969964E+03 -0.15538004247E+03  0.48438676307E+03  0.69586438408E+03  0.50400001928E-02 0. -1.
</event>
<event>
 5   0  0.9507815E-03  0.9925848E+03  0.7818609E-02  0.9316715E-01
       -1   -1    0    0    0  501  0.00000000000E+00  0.00000000000E+00  0.11943933937E+03  0.11943933947E+03  0.50400001928E-02 0.  1.
        1   -1    0    0  501    0  0.00000000000E+00  0.00000000000E+00 -0.20621859995E+04  0.20621859995E+04  0.50400001928E-02 0. -1.
    10030    2    1    2    0    0  0.00000000000E+00  0.00000000000E+00 -0.19427466601E+04  0.21816253390E+04  0.99258477432E+03 0.  0.
        1    1    3    3  502    0 -0.37735174671E+02  0.49192627275E+03 -0.85320080991E+03  0.98557953677E+03  0.50400001928E-02 0. -1.
       -1    1    3    3    0  502  0.37735174671E+02 -0.49192627275E+03 -0.10895458502E+04  0.11960458022E+04  0.50400001928E-02 0.  1.
</event>
<event>
 5   0  0.1571895E-02  0.1094753E+04  0.7818609E-02  0.9210321E-01
        2   -1    0    0  501    0  0.00000000000E+00  0.00000000000E+00  0.22678732288E+04  0.22678732288E+04  0.25500000920E-02 0.  1.
       -2   -1    0    0    0  501  0.00000000000E+00  0.00000000000E+00 -0.13211552217E+03  0.13211552220E+03  0.25500000920E-02 0. -1.
    10030    2    1    2    0    0  0.00000000000E+00  0.00000000000E+00  0.21357577066E+04  0.23999887510E+04  0.10947534076E+04 0.  0.
        2    1    3    3  502    0  0.16304067982E+03  0.44108551363E+03  0.16820359676E+04  0.17465347663E+04  0.25500000920E-02 0.  1.
       -2    1    3    3    0  502 -0.16304067982E+03 -0.44108551363E+03  0.45372173897E+03  0.65345398463E+03  0.25500000920E-02 0. -1.
</event>
<event>
 5   0  0.1617721E-02  0.1022235E+04  0.7818609E-02  0.9284488E-01
       -2   -1    0    0    0  501  0.00000000000E+00  0.00000000000E+00  0.12783821222E+03  0.12783821225E+03  0.25500000920E-02 0.  1.
        2   -1    0    0  501    0  0.00000000000E+00  0.00000000000E+00 -0.20435303762E+04  0.20435303762E+04  0.25500000920E-02 0. -1.
    10030    2    1    2    0    0  0.00000000000E+00  0.00000000000E+00 -0.19156921640E+04  0.21713685885E+04  0.10222353348E+04 0.  0.
        5    1    3    3  502    0 -0.40025266652E+03 -0.25229958015E+03 -0.13684254923E+04  0.14479184000E+04  0.46999998093E+01 0. -1.
       -5    1    3    3    0  502  0.40025266652E+03  0.25229958015E+03 -0.54726667172E+03  0.72345018845E+03  0.46999998093E+01 0.  1.
</event>
<event>
 5   0  0.6314750E-03  0.1015477E+04  0.7818609E-02  0.9291731E-01
       -4   -1    0    0    0  501  0.00000000000E+00  0.00000000000E+00  0.65323390823E+03  0.65323514278E+03  0.12699999809E+01 0. -1.
        4   -1    0    0  501    0  0.00000000000E+00  0.00000000000E+00 -0.39464650778E+03  0.39464855125E+03  0.12699999809E+01 0.  1.
    10030    2    1    2    0    0  0.00000000000E+00  0.00000000000E+00  0.25858740045E+03  0.10478836940E+04  0.10154766332E+04 0.  0.
        1    1    3    3  502    0  0.92443395556E+02 -0.46422483398E+03 -0.60274448158E+02  0.47716190857E+03  0.50400001928E-02 0.  1.
       -1    1    3    3    0  502 -0.92443395556E+02  0.46422483398E+03  0.31886184860E+03  0.57072178545E+03  0.50400001928E-02 0. -1.
</event>
<event>
 5   0  0.9396660E-03  0.9994023E+03  0.7818609E-02  0.9309201E-01
       -1   -1    0    0    0  501  0.00000000000E+00  0.00000000000E+00  0.62239599606E+03  0.62239599608E+03  0.50400001928E-02 0.  1.
        1   -1    0    0  501    0  0.00000000000E+00  0.00000000000E+00 -0.40119352448E+03  0.40119352451E+03  0.50400001928E-02 0. -1.
    10030    2    1    2    0    0  0.00000000000E+00  0.00000000000E+00  0.22120247158E+03  0.10235895206E+04  0.99940230800E+03 0.  0.
        5    1    3    3  502    0 -0.24585243675E+03 -0.25718283605E+03  0.46993801413E+03  0.58944911480E+03  0.46999998093E+01 0.  1.
       -5    1    3    3    0  502  0.24585243675E+03  0.25718283605E+03 -0.24873554255E+03  0.43414040579E+03  0.46999998093E+01 0. -1.
</event>
<event>
 5   0  0.1656859E-02  0.1016902E+04  0.7818609E-02  0.9290199E-01
       -2   -1    0    0    0  501  0.00000000000E+00  0.00000000000E+00  0.31722749416E+03  0.31722749417E+03  0.25500000920E-02 0. -1.
        2   -1    0    0  501    0  0.00000000000E+00  0.00000000000E+00 -0.81494337155E+03  0.81494337156E+03  0.25500000920E-02 0.  1.
    10030    2    1    2    0    0  0.00000000000E+00  0.00000000000E+00 -0.49771587739E+03  0.11321708657E+04  0.10169020477E+04 0.  0.
        4    1    3    3  502    0  0.22200749772E+03  0.44909359497E+03 -0.15212784895E+03  0.52356172646E+03  0.12699999809E+01 0.  1.
       -4    1    3    3    0  502 -0.22200749772E+03 -0.44909359497E+03 -0.34558802844E+03  0.60860913926E+03  0.12699999809E+01 0. -1.
</event>
<event>
 5   0  0.1000773E-02  0.9742232E+03  0.7818609E-02  0.9337277E-01
       -1   -1    0    0    0  501  0.00000000000E+00  0.00000000000E+00  0.55949762211E+03  0.55949762213E+03  0.50400001928E-02 0. -1.
        1   -1    0    0  501    0  0.00000000000E+00  0.00000000000E+00 -0.42409069225E+03  0.42409069228E+03  0.50400001928E-02 0.  1.
    10030    2    1    2    0    0  0.00000000000E+00  0.00000000000E+00  0.13540692985E+03  0.98358831441E+03  0.97422324731E+03 0.  0.
        3    1    3    3  502    0  0.28517099353E+02  0.59755273962E+02  0.55493326277E+03  0.55886926382E+03  0.10100000352E+00 0. -1.
       -3    1    3    3    0  502 -0.28517099353E+02 -0.59755273962E+02 -0.41952633291E+03  0.42471905059E+03  0.10100000352E+00 0.  1.
</event>
<event>
 5   0  0.9759443E-03  0.9892312E+03  0.7818609E-02  0.9320435E-01
        1   -1    0    0  501    0  0.00000000000E+00  0.00000000000E+00  0.10124841901E+04  0.10124841901E+04  0.50400001928E-02 0. -1.
       -1   -1    0    0    0  501  0.00000000000E+00  0.00000000000E+00 -0.24162806042E+03  0.24162806048E+03  0.50400001928E-02 0.  1.
    10030    2    1    2    0    0  0.00000000000E+00  0.00000000000E+00  0.77085612970E+03  0.12541122506E+04  0.98923119868E+03 0.  0.
        2    1    3    3  502    0  0.37373180470E+03  0.18714452616E+03  0.50138359043E+02  0.42096602068E+03  0.25500000920E-02 0.  1.
       -2    1    3    3    0  502 -0.37373180470E+03 -0.18714452616E+03  0.72071777065E+03  0.83314622993E+03  0.25500000920E-02 0. -1.
</event>
<event>
 5   0  0.1571895E-02  0.9959579E+03  0.7818609E-02  0.9312989E-01
        2   -1    0    0  501    0  0.00000000000E+00  0.00000000000E+00  0.15292797109E+04  0.15292797109E+04  0.25500000920E-02 0.  1.
       -2   -1    0    0    0  501  0.00000000000E+00  0.00000000000E+00 -0.16215675619E+03  0.16215675621E+03  0.25500000920E-02 0. -1.
    10030    2    1    2    0    0  0.00000000000E+00  0.00000000000E+00  0.13671229547E+04  0.16914364671E+04  0.99595790523E+03 0.  0.
        2    1    3    3  502    0  0.26252451929E+03  0.34410496598E+03  0.26529749564E+03  0.50765156558E+03  0.25500000920E-02 0. -1.
       -2    1    3    3    0  502 -0.26252451929E+03 -0.34410496598E+03  0.11018254591E+04  0.11837849016E+04  0.25500000920E-02 0.  1.
</event>
<event>
 5   0  0.1617721E-02  0.1312669E+04  0.7818609E-02  0.9019578E-01
        2   -1    0    0  501    0  0.00000000000E+00  0.00000000000E+00  0.41713991574E+03  0.41713991575E+03  0.25500000920E-02 0.  1.
       -2   -1    0    0    0  501  0.00000000000E+00  0.00000000000E+00 -0.10326870452E+04  0.10326870452E+04  0.25500000920E-02 0. -1.
    10030    2    1    2    0    0  0.00000000000E+00  0.00000000000E+00 -0.61554712948E+03  0.14498269610E+04  0.13126690170E+04 0.  0.
        5    1    3    3  502    0 -0.64174645399E+03 -0.30933474589E+02 -0.45578114101E+03  0.78775245449E+03  0.46999998093E+01 0.  1.
       -5    1    3    3    0  502  0.64174645399E+03  0.30933474589E+02 -0.15976598847E+03  0.66207450648E+03  0.46999998093E+01 0. -1.
</event>
<event>
 5   0  0.9471140E-03  0.1023027E+04  0.7818609E-02  0.9283644E-01
        1   -1    0    0  501    0  0.00000000000E+00  0.00000000000E+00  0.11573569421E+04  0.11573569421E+04  0.50400001928E-02 0. -1.
       -1   -1    0    0    0  501  0.00000000000E+00  0.00000000000E+00 -0.22607202878E+03  0.22607202884E+03  0.50400001928E-02 0.  1.
    10030    2    1    2    0    0  0.00000000000E+00  0.00000000000E+00  0.93128491334E+03  0.13834289710E+04  0.10230269439E+04 0.  0.
        4    1    3    3  502    0  0.10494201699E+03  0.41885103942E+03  0.83646440206E+03  0.94134123938E+03  0.12699999809E+01 0. -1.
       -4    1    3    3    0  502 -0.10494201699E+03 -0.41885103942E+03  0.94820511275E+02  0.44208773158E+03  0.12699999809E+01 0.  1.
</event>
<event>
 5   0  0.1617721E-02  0.1007134E+04  0.7818609E-02  0.9300755E-01
        2   -1    0    0  501    0  0.00000000000E+00  0.00000000000E+00  0.79210748889E+03  0.79210748889E+03  0.25500000920E-02 0.  1.
       -2   -1    0    0    0  501  0.00000000000E+00  0.00000000000E+00 -0.32013296129E+03  0.32013296130E+03  0.25500000920E-02 0. -1.
    10030    2    1    2    0    0  0.00000000000E+00  0.00000000000E+00  0.47197452759E+03  0.11122404502E+04  0.10071339853E+04 0.  0.
        5    1    3    3  502    0  0.22147735213E+03  0.25294942304E+03 -0.17799677032E+03  0.38044785236E+03  0.46999998093E+01 0. -1.
       -5    1    3    3    0  502 -0.22147735213E+03 -0.25294942304E+03  0.64997129792E+03  0.73179259783E+03  0.46999998093E+01 0.  1.
</event>
<event>
 5   0  0.1000773E-02  0.1075559E+04  0.7818609E-02  0.9229346E-01
       -1   -1    0    0    0  501  0.00000000000E+00  0.00000000000E+00  0.55421200402E+03  0.55421200405E+03  0.50400001928E-02 0.  1.
        1   -1    0    0  501    0  0.00000000000E+00  0.00000000000E+00 -0.52183449905E+03  0.52183449908E+03  0.50400001928E-02 0. -1.
    10030    2    1    2    0    0  0.00000000000E+00  0.00000000000E+00  0.32377504972E+02  0.10760465031E+04  0.10755592843E+04 0.  0.
        3    1    3    3  502    0 -0.59802330633E+02  0.52503466962E+03 -0.83702409463E+02  0.53501759467E+03  0.10100000352E+00 0. -1.
       -3    1    3    3    0  502  0.59802330633E+02 -0.52503466962E+03  0.11607991443E+03  0.54102890846E+03  0.10100000352E+00 0.  1.
</event>
<event>
 5   0  0.1571895E-02  0.9426453E+03  0.7818609E-02  0.9373789E-01
       -2   -1    0    0    0  501  0.00000000000E+00  0.00000000000E+00  0.43502582665E+03  0.43502582666E+03  0.25500000920E-02 0.  1.
        2   -1    0    0  501    0  0.00000000000E+00  0.00000000000E+00 -0.51064795914E+03  0.51064795915E+03  0.25500000920E-02 0. -1.
    10030    2    1    2    0    0  0.00000000000E+00  0.00000000000E+00 -0.75622132491E+02  0.94567378581E+03  0.94264532155E+03 0.  0.
        2    1    3    3  502    0 -0.15462395199E+03 -0.22279661739E+03 -0.42453383045E+03  0.50376172190E+03  0.25500000920E-02 0. -1.
       -2    1    3    3    0  502  0.15462395199E+03  0.22279661739E+03  0.34891169795E+03  0.44191206391E+03  0.25500000920E-02 0.  1.
</event>
<event>
 5   0  0.1598986E-02  0.1009835E+04  0.7818609E-02  0.9297824E-01
        2   -1    0    0  501    0  0.00000000000E+00  0.00000000000E+00  0.51448211543E+03  0.51448211543E+03  0.25500000920E-02 0.  1.
       -2   -1    0    0    0  501  0.00000000000E+00  0.00000000000E+00 -0.49553044257E+03  0.49553044257E+03  0.25500000920E-02 0. -1.
    10030    2    1    2    0    0  0.00000000000E+00  0.00000000000E+00  0.18951672860E+02  0.10100125580E+04  0.10098347397E+04 0.  0.
        3    1    3    3  502    0  0.17796952822E+03 -0.33584350961E+03  0.34191595868E+03  0.51124411872E+03  0.10100000352E+00 0.  1.
       -3    1    3    3    0  502 -0.17796952822E+03  0.33584350961E+03 -0.32296428582E+03  0.49876843929E+03  0.10100000352E+00 0. -1.
</event>
<event>
 5   0  0.1663497E-02  0.9980217E+03  0.7818609E-02  0.9310717E-01
       -2   -1    0    0    0  501  0.00000000000E+00  0.00000000000E+00  0.30980664572E+03  0.30980664573E+03  0.25500000920E-02 0. -1.
        2   -1    0    0  501    0  0.00000000000E+00  0.00000000000E+00 -0.80376524606E+03  0.80376524606E+03  0.25500000920E-02 0.  1.
    10030    2    1    2    0    0  0.00000000000E+00  0.00000000000E+00 -0.49395860034E+03  0.11135718918E+04  0.99802167278E+03 0.  0.
        1    1    3    3  502    0  0.20319254891E+03 -0.38372879282E+03  0.27413523232E+02  0.43507068351E+03  0.50400001928E-02 0. -1.
       -1    1    3    3    0  502 -0.20319254891E+03  0.38372879282E+03 -0.52137212357E+03  0.67850120828E+03  0.50400001928E-02 0.  1.
</event>
<event>
 5   0  0.9507815E-03  0.9117059E+03  0.7818609E-02  0.9411066E-01
        1   -1    0    0  501    0  0.00000000000E+00  0.00000000000E+00  0.67797657787E+03  0.67797657789E+03  0.50400001928E-02 0.  1.
       -1   -1    0    0    0  501  0.00000000000E+00  0.00000000000E+00 -0.30650311044E+03  0.30650311048E+03  0.50400001928E-02 0. -1.
    10030    2    1    2    0    0  0.00000000000E+00  0.00000000000E+00  0.37147346743E+03  0.98447968837E+03  0.91170593934E+03 0.  0.
        1    1    3    3  502    0  0.97563094191E+02  0.30796438987E+03  0.53303208988E+03  0.62328471154E+03  0.50400001928E-02 0.  1.
       -1    1    3    3    0  502 -0.97563094191E+02 -0.30796438987E+03 -0.16155862245E+03  0.36119497683E+03  0.50400001928E-02 0. -1.
</event>
<event>
 5   0  0.1598986E-02  0.9968826E+03  0.7818609E-02  0.9311971E-01
        2   -1    0    0  501    0  0.00000000000E+00  0.00000000000E+00  0.67493555815E+03  0.67493555815E+03  0.25500000920E-02 0.  1.
       -2   -1    0    0    0  501  0.00000000000E+00  0.00000000000E+00 -0.36809993233E+03  0.36809993233E+03  0.25500000920E-02 0. -1.
    10030    2    1    2    0    0  0.00000000000E+00  0.00000000000E+00  0.30683562582E+03  0.10430354905E+04  0.99688260750E+03 0.  0.
        3    1    3    3  502    0 -0.37093081606E+03 -0.20363050717E+03  0.42903058970E+03  0.60259630836E+03  0.10100000352E+00 0.  1.
       -3    1    3    3    0  502  0.37093081606E+03  0.20363050717E+03 -0.12219496388E+03  0.44043918212E+03  0.10100000352E+00 0. -1.
</event>
<event>
 5   0  0.9471140E-03  0.9908778E+03  0.7818609E-02  0.9318607E-01
        1   -1    0    0  501    0  0.00000000000E+00  0.00000000000E+00  0.36109089790E+03  0.36109089794E+03  0.50400001928E-02 0.  1.
       -1   -1    0    0    0  501  0.00000000000E+00  0.00000000000E+00 -0.67977264077E+03  0.67977264079E+03  0.50400001928E-02 0. -1.
    10030    2    1    2    0    0  0.00000000000E+00  0.00000000000E+00 -0.31868174287E+03  0.10408635387E+04  0.99087781941E+03 0.  0.
        4    1    3    3  502    0 -0.33368798054E+03  0.33203349406E+03  0.29324199571E+01  0.47074846949E+03  0.12699999809E+01 0. -1.
       -4    1    3    3    0  502  0.33368798054E+03 -0.33203349406E+03 -0.32161416282E+03  0.57011506923E+03  0.12699999809E+01 0.  1.
</event>
<event>
 5   0  0.1617721E-02  0.1041613E+04  0.7818609E-02  0.9264046E-01
        2   -1    0    0  501    0  0.00000000000E+00  0.00000000000E+00  0.20122473264E+04  0.20122473264E+04  0.25500000920E-02 0.  1.
       -2   -1    0    0    0  501  0.00000000000E+00  0.00000000000E+00 -0.13479434963E+03  0.13479434966E+03  0.25500000920E-02 0. -1.
    10030    2    1    2    0    0  0.00000000000E+00  0.00000000000E+00  0.18774529768E+04  0.21470416761E+04  0.10416133058E+04 0.  0.
        5    1    3    3  502    0  0.25356293065E+03  0.91873145347E+02  0.20403988786E+02  0.27050554041E+03  0.46999998093E+01 0. -1.
       -5    1    3    3    0  502 -0.25356293065E+03 -0.91873145347E+02  0.18570489880E+04  0.18765361357E+04  0.46999998093E+01 0.  1.
</event>
<event>
 5   0  0.9471140E-03  0.1004114E+04  0.7818609E-02  0.9304044E-01
       -1   -1    0    0    0  501  0.00000000000E+00  0.00000000000E+00  0.52679311775E+03  0.52679311778E+03  0.50400001928E-02 0. -1.
        1   -1    0    0  501    0  0.00000000000E+00  0.00000000000E+00 -0.47848256809E+03  0.47848256811E+03  0.50400001928E-02 0.  1.
    10030    2    1    2    0    0  0.00000000000E+00  0.00000000000E+00  0.48310549665E+02  0.10052756859E+04  0.10041141845E+04 0.  0.
        4    1    3    3  502    0 -0.70099184949E+02  0.49360187047E+03  0.83409958529E+02  0.50548544622E+03  0.12699999809E+01 0.  1.
       -4    1    3    3    0  502  0.70099184949E+02 -0.49360187047E+03 -0.35099408865E+02  0.49979023967E+03  0.12699999809E+01 0. -1.
</event>
<event>
 5   0  0.1000773E-02  0.1017693E+04  0.7818609E-02  0.9289349E-01
        1   -1    0    0  501    0  0.00000000000E+00  0.00000000000E+00  0.15429500453E+04  0.15429500453E+04  0.50400001928E-02 0. -1.
       -1   -1    0    0    0  501  0.00000000000E+00  0.00000000000E+00 -0.16781156901E+03  0.16781156909E+03  0.50400001928E-02 0.  1.
    10030    2    1    2    0    0  0.00000000000E+00  0.00000000000E+00  0.13751384763E+04  0.17107616144E+04  0.10176932113E+04 0.  0.
        3    1    3    3  502    0  0.22467426923E+03 -0.15850516874E+03 -0.32178711933E+02  0.27683550256E+03  0.10100000352E+00 0.  1.
       -3    1    3    3    0  502 -0.22467426923E+03  0.15850516874E+03  0.14073171883E+04  0.14339261119E+04  0.10100000352E+00 0. -1.
</event>
<event>
 5   0  0.1663497E-02  0.9981825E+03  0.7818609E-02  0.9310540E-01
       -2   -1    0    0    0  501  0.00000000000E+00  0.00000000000E+00  0.82913369157E+03  0.82913369157E+03  0.25500000920E-02 0. -1.
        2   -1    0    0  501    0  0.00000000000E+00  0.00000000000E+00 -0.30042450456E+03  0.30042450457E+03  0.25500000920E-02 0.  1.
    10030    2    1    2    0    0  0.00000000000E+00  0.00000000000E+00  0.52870918701E+03  0.11295581961E+04  0.99818250538E+03 0.  0.
        1    1    3    3  502    0 -0.38623133992E+03 -0.20730642569E+03 -0.56760298964E+01  0.43838660953E+03  0.50400001928E-02 0.  1.
       -1    1    3    3    0  502  0.38623133992E+03  0.20730642569E+03  0.53438521691E+03  0.69117158662E+03  0.50400001928E-02 0. -1.
</event>
<event>
 5   0  0.1656859E-02  0.1009682E+04  0.7818609E-02  0.9297989E-01
       -2   -1    0    0    0  501  0.00000000000E+00  0.00000000000E+00  0.23595843281E+03  0.23595843282E+03  0.25500000920E-02 0.  1.
        2   -1    0    0  501    0  0.00000000000E+00  0.00000000000E+00 -0.10801244474E+04  0.10801244474E+04  0.25500000920E-02 0. -1.
    10030    2    1    2    0    0  0.00000000000E+00  0.00000000000E+00 -0.84416601461E+03  0.13160828802E+04  0.10096820725E+04 0.  0.
        4    1    3    3  502    0 -0.44697067162E+03  0.11297295792E+03 -0.69022016251E+03  0.83003081638E+03  0.12699999809E+01 0. -1.
       -4    1    3    3    0  502  0.44697067162E+03 -0.11297295792E+03 -0.15394585210E+03  0.48605206386E+03  0.12699999809E+01 0.  1.
</event>
<event>
 5   0  0.1598986E-02  0.9930950E+03  0.7818609E-02  0.9316151E-01
        2   -1    0    0  501    0  0.00000000000E+00  0.00000000000E+00  0.83928964242E+03  0.83928964243E+03  0.25500000920E-02 0.  1.
       -2   -1    0    0    0  501  0.00000000000E+00  0.00000000000E+00 -0.29377153328E+03  0.29377153329E+03  0.25500000920E-02 0. -1.
    10030    2    1    2    0    0  0.00000000000E+00  0.00000000000E+00  0.54551810915E+03  0.11330611757E+04  0.99309497054E+03 0.  0.
        3    1    3    3  502    0 -0.29109679818E+03  0.20960987601E+03 -0.11897671563E+03  0.37792739394E+03  0.10100000352E+00 0. -1.
       -3    1    3    3    0  502  0.29109679818E+03 -0.20960987601E+03  0.66449482477E+03  0.75513378178E+03  0.10100000352E+00 0.  1.
</event>
<event>
 5   0  0.9759443E-03  0.9652990E+03  0.7818609E-02  0.9347445E-01
        1   -1    0    0  501    0  0.00000000000E+00  0.00000000000E+00  0.19255295105E+04  0.19255295106E+04  0.50400001928E-02 0.  1.
       -1   -1    0    0    0  501  0.00000000000E+00  0.00000000000E+00 -0.12097999828E+03  0.12097999838E+03  0.50400001928E-02 0. -1.
    10030    2    1    2    0    0  0.00000000000E+00  0.00000000000E+00  0.18045495123E+04  0.20465095089E+04  0.96529903550E+03 0.  0.
        2    1    3    3  502    0  0.43266332959E+03 -0.32113049691E+02  0.13506186923E+04  0.14185907291E+04  0.25500000920E-02 0.  1.
       -2    1    3    3    0  502 -0.43266332959E+03  0.32113049691E+02  0.45393081995E+03  0.62791877981E+03  0.25500000920E-02 0. -1.
</event>
<event>
 5   0  0.9759443E-03  0.9811098E+03  0.7818609E-02  0.9329509E-01
        1   -1    0    0  501    0  0.00000000000E+00  0.00000000000E+00  0.23157448191E+04  0.23157448191E+04  0.50400001928E-02 0. -1.
       -1   -1    0    0    0  501  0.00000000000E+00  0.00000000000E+00 -0.10391650275E+03  0.10391650287E+03  0.50400001928E-02 0.  1.
    10030    2    1    2    0    0  0.00000000000E+00  0.00000000000E+00  0.22118283163E+04  0.24196613219E+04  0.98110978594E+03 0.  0.
        2    1    3    3  502    0  0.44562242081E+03  0.20503875620E+03  0.11179633797E+04  0.12208449336E+04  0.25500000920E-02 0. -1.
       -2    1    3    3    0  502 -0.44562242081E+03 -0.20503875620E+03  0.10938649366E+04  0.11988163883E+04  0.25500000920E-02 0.  1.
</event>
<event>
 5   0  0.1617721E-02  0.1012823E+04  0.7818609E-02  0.9294592E-01
        2   -1    0    0  501    0  0.00000000000E+00  0.00000000000E+00  0.67569896717E+03  0.67569896718E+03  0.25500000920E-02 0.  1.
       -2   -1    0    0    0  501  0.00000000000E+00  0.00000000000E+00 -0.37953650320E+03  0.37953650321E+03  0.25500000920E-02 0. -1.
    10030    2    1    2    0    0  0.00000000000E+00  0.00000000000E+00  0.29616246397E+03  0.10552354704E+04  0.10128226364E+04 0.  0.
        5    1    3    3  502    0  0.87817649118E+02  0.27739665374E+03 -0.28372508876E+03  0.40642694176E+03  0.46999998093E+01 0. -1.
       -5    1    3    3    0  502 -0.87817649118E+02 -0.27739665374E+03  0.57988755273E+03  0.64880852862E+03  0.46999998093E+01 0.  1.
</event>
<event>
 5   0  0.9507815E-03  0.9974256E+03  0.7818609E-02  0.9311373E-01
        1   -1    0    0  501    0  0.00000000000E+00  0.00000000000E+00  0.49524684875E+03  0.49524684877E+03  0.50400001928E-02 0.  1.
       -1   -1    0    0    0  501  0.00000000000E+00  0.00000000000E+00 -0.50220297161E+03  0.50220297164E+03  0.50400001928E-02 0. -1.
    10030    2    1    2    0    0  0.00000000000E+00  0.00000000000E+00 -0.69561228661E+01  0.99744982041E+03  0.99742556444E+03 0.  0.
        1    1    3    3  502    0 -0.28223408713E+03  0.44681249155E+02 -0.41222012029E+03  0.50157543955E+03  0.50400001928E-02 0. -1.
       -1    1    3    3    0  502  0.28223408713E+03 -0.44681249155E+02  0.40526399743E+03  0.49587438086E+03  0.50400001928E-02 0.  1.
</event>
<event>
 5   0  0.1598986E-02  0.9887737E+03  0.7818609E-02  0.9320944E-01
       -2   -1    0    0    0  501  0.00000000000E+00  0.00000000000E+00  0.88320454148E+03  0.88320454148E+03  0.25500000920E-02 0. -1.
        2   -1    0    0  501    0  0.00000000000E+00  0.00000000000E+00 -0.27674035515E+03  0.27674035516E+03  0.25500000920E-02 0.  1.
    10030    2    1    2    0    0  0.00000000000E+00  0.00000000000E+00  0.60646418633E+03  0.11599448966E+04  0.98877366163E+03 0.  0.
        3    1    3    3  502    0 -0.12194240785E+03  0.30158573953E+03 -0.13349822338E+03  0.35163289802E+03  0.10100000352E+00 0.  1.
       -3    1    3    3    0  502  0.12194240785E+03 -0.30158573953E+03  0.73996240972E+03  0.80831199862E+03  0.10100000352E+00 0. -1.
</event>
<event>
 5   0  0.6314750E-03  0.1008826E+04  0.7818609E-02  0.9298918E-01
        4   -1    0    0  501    0  0.00000000000E+00  0.00000000000E+00  0.59799609554E+03  0.59799744413E+03  0.12699999809E+01 0. -1.
       -4   -1    0    0    0  501  0.00000000000E+00  0.00000000000E+00 -0.42547195742E+03  0.42547385284E+03  0.12699999809E+01 0.  1.
    10030    2    1    2    0    0  0.00000000000E+00  0.00000000000E+00  0.17252413812E+03  0.10234712970E+04  0.10088255139E+04 0.  0.
        5    1    3    3  502    0 -0.37238645343E+03  0.18004415152E+03 -0.20658504213E+03  0.46237110294E+03  0.46999998093E+01 0. -1.
       -5    1    3    3    0  502  0.37238645343E+03 -0.18004415152E+03  0.37910918026E+03  0.56110019404E+03  0.46999998093E+01 0.  1.
</event>
<event>
 5   0  0.9471140E-03  0.1001162E+04  0.7818609E-02  0.9307272E-01
        1   -1    0    0  501    0  0.00000000000E+00  0.00000000000E+00  0.64898282588E+03  0.64898282589E+03  0.50400001928E-02 0. -1.
       -1   -1    0    0    0  501  0.00000000000E+00  0.00000000000E+00 -0.38611367266E+03  0.38611367270E+03  0.50400001928E-02 0.  1.
    10030    2    1    2    0    0  0.00000000000E+00  0.00000000000E+00  0.26286915321E+03  0.10350964986E+04  0.10011616102E+04 0.  0.
        4    1    3    3  502    0 -0.37400093708E+03  0.31808991050E+03  0.23232094088E+03  0.54316896503E+03  0.12699999809E+01 0.  1.
       -4    1    3    3    0  502  0.37400093708E+03 -0.31808991050E+03  0.30548212335E+02  0.49192753356E+03  0.12699999809E+01 0. -1.
</event>
<event>
 5   0  0.9396660E-03  0.9692809E+03  0.7818609E-02  0.9342894E-01
        1   -1    0    0  501    0  0.00000000000E+00  0.00000000000E+00  0.59550793485E+03  0.59550793487E+03  0.50400001928E-02 0.  1.
       -1   -1    0    0    0  501  0.00000000000E+00  0.00000000000E+00 -0.39441346641E+03  0.39441346644E+03  0.50400001928E-02 0. -1.
    10030    2    1    2    0    0  0.00000000000E+00  0.00000000000E+00  0.20109446845E+03  0.98992140131E+03  0.96928086515E+03 0.  0.
        5    1    3    3  502    0 -0.38113076521E+03  0.19883847236E+02  0.40556785152E+03  0.55692315426E+03  0.46999998093E+01 0.  1.
       -5    1    3    3    0  502  0.38113076521E+03 -0.19883847236E+02 -0.20447338307E+03  0.43299824705E+03  0.46999998093E+01 0. -1.
</event>
<event>
 5   0  0.1656859E-02  0.1024980E+04  0.7818609E-02  0.9281564E-01
        2   -1    0    0  501    0  0.00000000000E+00  0.00000000000E+00  0.14412295912E+04  0.14412295912E+04  0.25500000920E-02 0. -1.
       -2   -1    0    0    0  501  0.00000000000E+00  0.00000000000E+00 -0.18223737708E+03  0.18223737710E+03  0.25500000920E-02 0.  1.
    10030    2    1    2    0    0  0.00000000000E+00  0.00000000000E+00  0.12589922142E+04  0.16234669683E+04  0.10249798057E+04 0.  0.
        4    1    3    3  502    0 -0.48268033579E+03 -0.15005240892E+03  0.49558142794E+03  0.70788318005E+03  0.12699999809E+01 0.  1.
       -4    1    3    3    0  502  0.48268033579E+03  0.15005240892E+03  0.76341078622E+03  0.91558378830E+03  0.12699999809E+01 0. -1.
</event>
<event>
 5   0  0.9396660E-03  0.1011295E+04  0.7818609E-02  0.9296243E-01
       -1   -1    0    0    0  501  0.00000000000E+00  0.00000000000E+00  0.12178840564E+03  0.12178840575E+03  0.50400001928E-02 0.  1.
        1   -1    0    0  501    0  0.00000000000E+00  0.00000000000E+00 -0.20993729683E+04  0.20993729683E+04  0.50400001928E-02 0. -1.
    10030    2    1    2    0    0  0.00000000000E+00  0.00000000000E+00 -0.19775845626E+04  0.22211613740E+04  0.10112947874E+04 0.  0.
        5    1    3    3  502    0 -0.47033767713E+01  0.32249832191E+03 -0.18440456207E+04  0.18720453068E+04  0.46999998093E+01 0. -1.
       -5    1    3    3    0  502  0.47033767713E+01 -0.32249832191E+03 -0.13353894189E+03  0.34911606722E+03  0.46999998093E+01 0.  1.
</event>
<event>
 5   0  0.1571895E-02  0.9923314E+03  0.7818609E-02  0.9316996E-01
       -2   -1    0    0    0  501  0.00000000000E+00  0.00000000000E+00  0.21230352741E+03  0.21230352743E+03  0.25500000920E-02 0. -1.
        2   -1    0    0  501    0  0.00000000000E+00  0.00000000000E+00 -0.11595681791E+04  0.11595681791E+04  0.25500000920E-02 0.  1.
    10030    2    1    2    0    0  0.00000000000E+00  0.00000000000E+00 -0.94726465165E+03  0.13718717065E+04  0.99233142589E+03 0.  0.
        2    1    3    3  502    0  0.20216268790E+03  0.43310340025E+03 -0.65772517784E+03  0.81305025506E+03  0.25500000920E-02 0.  1.
       -2    1    3    3    0  502 -0.20216268790E+03 -0.43310340025E+03 -0.28953947381E+03  0.55882145144E+03  0.25500000920E-02 0. -1.
</event>
<event>
 5   0  0.9759443E-03  0.9964503E+03  0.7818609E-02  0.9312447E-01
        1   -1    0    0  501    0  0.00000000000E+00  0.00000000000E+00  0.10052763285E+04  0.10052763285E+04  0.50400001928E-02 0. -1.
       -1   -1    0    0    0  501  0.00000000000E+00  0.00000000000E+00 -0.24692542987E+03  0.24692542992E+03  0.50400001928E-02 0.  1.
    10030    2    1    2    0    0  0.00000000000E+00  0.00000000000E+00  0.75835089860E+03  0.12522017584E+04  0.99645027890E+03 0.  0.
        2    1    3    3  502    0 -0.32099318483E+03 -0.14836259190E+03  0.82022678293E+03  0.89320773554E+03  0.25500000920E-02 0. -1.
       -2    1    3    3    0  502  0.32099318483E+03  0.14836259190E+03 -0.61875884333E+02  0.35899402286E+03  0.25500000920E-02 0.  1.
</event>
<event>
 5   0  0.9507815E-03  0.9746800E+03  0.7818609E-02  0.9336760E-01
        1   -1    0    0  501    0  0.00000000000E+00  0.00000000000E+00  0.73019847754E+03  0.73019847756E+03  0.50400001928E-02 0.  1.
       -1   -1    0    0    0  501  0.00000000000E+00  0.00000000000E+00 -0.32525444222E+03  0.32525444226E+03  0.50400001928E-02 0. -1.
    10030    2    1    2    0    0  0.00000000000E+00  0.00000000000E+00  0.40494403532E+03  0.10554529198E+04  0.97468004710E+03 0.  0.
        1    1    3    3  502    0 -0.38669719011E+03  0.53774043234E+01  0.52358789988E+03  0.65092850778E+03  0.50400001928E-02 0.  1.
       -1    1    3    3    0  502  0.38669719011E+03 -0.53774043234E+01 -0.11864386456E+03  0.40452441204E+03  0.50400001928E-02 0. -1.
</event>
<event>
 5   0  0.1571895E-02  0.9740805E+03  0.7818609E-02  0.9337439E-01
        2   -1    0    0  501    0  0.00000000000E+00  0.00000000000E+00  0.88893966629E+03  0.88893966630E+03  0.25500000920E-02 0. -1.
       -2   -1    0    0    0  501  0.00000000000E+00  0.00000000000E+00 -0.26684396353E+03  0.26684396354E+03  0.25500000920E-02 0.  1.
    10030    2    1    2    0    0  0.00000000000E+00  0.00000000000E+00  0.62209570276E+03  0.11557836298E+04  0.97408045644E+03 0.  0.
        2    1    3    3  502    0 -0.67469010520E+02  0.41613798355E+03  0.21655852551E+02  0.42212778242E+03  0.25500000920E-02 0. -1.
       -2    1    3    3    0  502  0.67469010520E+02 -0.41613798355E+03  0.60043985021E+03  0.73365584743E+03  0.25500000920E-02 0.  1.
</event>
<event>
 5   0  0.1656859E-02  0.9713256E+03  0.7818609E-02  0.9340566E-01
       -2   -1    0    0    0  501  0.00000000000E+00  0.00000000000E+00  0.32748336191E+03  0.32748336192E+03  0.25500000920E-02 0.  1.
        2   -1    0    0  501    0  0.00000000000E+00  0.00000000000E+00 -0.72024534301E+03  0.72024534301E+03  0.25500000920E-02 0. -1.
    10030    2    1    2    0    0  0.00000000000E+00  0.00000000000E+00 -0.39276198110E+03  0.10477287049E+04  0.97132562272E+03 0.  0.
        4    1    3    3  502    0 -0.23921167278E+03 -0.35835986185E+03  0.45351035538E+02  0.43324628597E+03  0.12699999809E+01 0.  1.
       -4    1    3    3    0  502  0.23921167278E+03  0.35835986185E+03 -0.43811301663E+03  0.61448241897E+03  0.12699999809E+01 0. -1.
</event>
<event>
 5   0  0.9759443E-03  0.9993926E+03  0.7818609E-02  0.9309211E-01
        1   -1    0    0  501    0  0.00000000000E+00  0.00000000000E+00  0.40822726998E+03  0.40822727001E+03  0.50400001928E-02 0. -1.
       -1   -1    0    0    0  501  0.00000000000E+00  0.00000000000E+00 -0.61166020219E+03  0.61166020221E+03  0.50400001928E-02 0.  1.
    10030    2    1    2    0    0  0.00000000000E+00  0.00000000000E+00 -0.20343293222E+03  0.10198874722E+04  0.99939256455E+03 0.  0.
        2    1    3    3  502    0 -0.54865469774E+02 -0.34083094682E+03  0.26696845458E+03  0.43640360887E+03  0.25500000920E-02 0. -1.
       -2    1    3    3    0  502  0.54865469774E+02  0.34083094682E+03 -0.47040138680E+03  0.58348386335E+03  0.25500000920E-02 0.  1.
</event>
<event>
 5   0  0.9507815E-03  0.9751642E+03  0.7818609E-02  0.9336212E-01
        1   -1    0    0  501    0  0.00000000000E+00  0.00000000000E+00  0.66281415280E+03  0.66281415282E+03  0.50400001928E-02 0.  1.
       -1   -1    0    0    0  501  0.00000000000E+00  0.00000000000E+00 -0.35867716731E+03  0.35867716735E+03  0.50400001928E-02 0. -1.
    10030    2    1    2    0    0  0.00000000000E+00  0.00000000000E+00  0.30413698548E+03  0.10214913202E+04  0.97516419706E+03 0.  0.
        1    1    3    3  502    0 -0.36963903770E+03 -0.31150586113E+03  0.85262646287E+02  0.49085500771E+03  0.50400001928E-02 0.  1.
       -1    1    3    3    0  502  0.36963903770E+03  0.31150586113E+03  0.21887433920E+03  0.53063631246E+03  0.50400001928E-02 0. -1.
</event>
<event>
 5   0  0.9471140E-03  0.9904923E+03  0.7818609E-02  0.9319035E-01
       -1   -1    0    0    0  501  0.00000000000E+00  0.00000000000E+00  0.11937092510E+03  0.11937092520E+03  0.50400001928E-02 0. -1.
        1   -1    0    0  501    0  0.00000000000E+00  0.00000000000E+00 -0.20546774382E+04  0.20546774383E+04  0.50400001928E-02 0.  1.
    10030    2    1    2    0    0  0.00000000000E+00  0.00000000000E+00 -0.19353065132E+04  0.21740483635E+04  0.99049229517E+03 0.  0.
        4    1    3    3  502    0 -0.15439641417E+03  0.44440809650E+03 -0.62811212113E+03  0.78476955761E+03  0.12699999809E+01 0.  1.
       -4    1    3    3    0  502  0.15439641417E+03 -0.44440809650E+03 -0.13071943920E+04  0.13892788058E+04  0.12699999809E+01 0. -1.
</event>
<event>
 5   0  0.1656859E-02  0.1119677E+04  0.7818609E-02  0.9186223E-01
        2   -1    0    0  501    0  0.00000000000E+00  0.00000000000E+00  0.61793090113E+03  0.61793090113E+03  0.25500000920E-02 0. -1.
       -2   -1    0    0    0  501  0.00000000000E+00  0.00000000000E+00 -0.50720710519E+03  0.50720710519E+03  0.25500000920E-02 0.  1.
    10030    2    1    2    0    0  0.00000000000E+00  0.00000000000E+00  0.11072379594E+03  0.11251380063E+04  0.11196766383E+04 0.  0.
        4    1    3    3  502    0 -0.22620872060E+03 -0.11899905045E+03 -0.44515005857E+03  0.51331408205E+03  0.12699999809E+01 0.  1.
       -4    1    3    3    0  502  0.22620872060E+03  0.11899905045E+03  0.55587385452E+03  0.61182392428E+03  0.12699999809E+01 0. -1.
</event>
<event>
 5   0  0.1000773E-02  0.9573191E+03  0.7818609E-02  0.9356636E-01
        1   -1    0    0  501    0  0.00000000000E+00  0.00000000000E+00  0.11148897339E+04  0.11148897339E+04  0.50400001928E-02 0. -1.
       -1   -1    0    0    0  501  0.00000000000E+00  0.00000000000E+00 -0.20550461678E+03  0.20550461685E+03  0.50400001928E-02 0.  1.
    10030    2    1    2    0    0  0.00000000000E+00  0.00000000000E+00  0.90938511713E+03  0.13203943508E+04  0.95731914756E+03 0.  0.
        3    1    3    3  502    0 -0.41397239927E+03  0.23718270399E+03  0.40152033749E+03  0.62357627765E+03  0.10100000352E+00 0. -1.
       -3    1    3    3    0  502  0.41397239927E+03 -0.23718270399E+03  0.50786477964E+03  0.69681807312E+03  0.10100000352E+00 0.  1.
</event>
<event>
 5   0  0.9507815E-03  0.1015117E+04  0.7818609E-02  0.9292118E-01
       -1   -1    0    0    0  501  0.00000000000E+00  0.00000000000E+00  0.13163854930E+04  0.13163854930E+04  0.50400001928E-02 0.  1.
        1   -1    0    0  501    0  0.00000000000E+00  0.00000000000E+00 -0.19569925902E+03  0.19569925908E+03  0.50400001928E-02 0. -1.
    10030    2    1    2    0    0  0.00000000000E+00  0.00000000000E+00  0.11206862340E+04  0.15120847521E+04  0.10151170684E+04 0.  0.
        1    1    3    3  502    0 -0.39582232784E+03  0.96839426718E+02  0.10961072747E+03  0.42198068840E+03  0.50400001928E-02 0. -1.
       -1    1    3    3    0  502  0.39582232784E+03 -0.96839426718E+02  0.10110755066E+04  0.10901040637E+04  0.50400001928E-02 0.  1.
</event>
<event>
 5   0  0.9507815E-03  0.9612844E+03  0.7818609E-02  0.9352057E-01
        1   -1    0    0  501    0  0.00000000000E+00  0.00000000000E+00  0.48502485681E+03  0.48502485683E+03  0.50400001928E-02 0.  1.
       -1   -1    0    0    0  501  0.00000000000E+00  0.00000000000E+00 -0.47629916795E+03  0.47629916798E+03  0.50400001928E-02 0. -1.
    10030    2    1    2    0    0  0.00000000000E+00  0.00000000000E+00  0.87256888510E+01  0.96132402481E+03  0.96128442359E+03 0.  0.
        1    1    3    3  502    0  0.11158778594E+03  0.12043127105E+03 -0.44738733449E+03  0.47656159320E+03  0.50400001928E-02 0. -1.
       -1    1    3    3    0  502 -0.11158778594E+03 -0.12043127105E+03  0.45611302335E+03  0.48476243162E+03  0.50400001928E-02 0.  1.
</event>
<event>
 5   0  0.1656859E-02  0.1104964E+04  0.7818609E-02  0.9200367E-01
        2   -1    0    0  501    0  0.00000000000E+00  0.00000000000E+00  0.12398253647E+04  0.12398253647E+04  0.25500000920E-02 0. -1.
       -2   -1    0    0    0  501  0.00000000000E+00  0.00000000000E+00 -0.24619311661E+03  0.24619311662E+03  0.25500000920E-02 0.  1.
    10030    2    1    2    0    0  0.00000000000E+00  0.00000000000E+00  0.99363224806E+03  0.14860184813E+04  0.11049641996E+04 0.  0.
        4    1    3    3  502    0 -0.55104584020E+03  0.13464205290E+00  0.55032928020E+03  0.77879102824E+03  0.12699999809E+01 0. -1.
       -4    1    3    3    0  502  0.55104584020E+03 -0.13464205290E+00  0.44330296786E+03  0.70722745304E+03  0.12699999809E+01 0.  1.
</event>
<event>
 5   0  0.1598986E-02  0.1035310E+04  0.7818609E-02  0.9270643E-01
        2   -1    0    0  501    0  0.00000000000E+00  0.00000000000E+00  0.81369386941E+03  0.81369386941E+03  0.25500000920E-02 0. -1.
       -2   -1    0    0    0  501  0.00000000000E+00  0.00000000000E+00 -0.32932139200E+03  0.32932139201E+03  0.25500000920E-02 0.  1.
    10030    2    1    2    0    0  0.00000000000E+00  0.00000000000E+00  0.48437247741E+03  0.11430152614E+04  0.10353101907E+04 0.  0.
        3    1    3    3  502    0  0.37909302548E+03 -0.57969338163E+02  0.62605731400E+03  0.73417963521E+03  0.10100000352E+00 0. -1.
       -3    1    3    3    0  502 -0.37909302548E+03  0.57969338163E+02 -0.14168483659E+03  0.40883562621E+03  0.10100000352E+00 0.  1.
</event>
<event>
 5   0  0.1617721E-02  0.9200116E+03  0.7818609E-02  0.9400906E-01
        2   -1    0    0  501    0  0.00000000000E+00  0.00000000000E+00  0.13095760544E+04  0.13095760544E+04  0.25500000920E-02 0.  1.
       -2   -1    0    0    0  501  0.00000000000E+00  0.00000000000E+00 -0.16158309940E+03  0.16158309942E+03  0.25500000920E-02 0. -1.
    10030    2    1    2    0    0  0.00000000000E+00  0.00000000000E+00  0.11479929550E+04  0.14711591538E+04  0.92001164730E+03 0.  0.
        5    1    3    3  502    0  0.20555268732E+03 -0.16829453894E+03  0.11744628413E+04  0.12041428547E+04  0.46999998093E+01 0.  1.
       -5    1    3    3    0  502 -0.20555268732E+03  0.16829453894E+03 -0.26469886268E+02  0.26701629909E+03  0.46999998093E+01 0. -1.
</event>
<event>
 5   0  0.1598986E-02  0.1023551E+04  0.7818609E-02  0.9283086E-01
        2   -1    0    0  501    0  0.00000000000E+00  0.00000000000E+00  0.15618376996E+04  0.15618376996E+04  0.25500000920E-02 0. -1.
       -2   -1    0    0    0  501  0.00000000000E+00  0.00000000000E+00 -0.16769600679E+03  0.16769600681E+03  0.25500000920E-02 0.  1.
    10030    2    1    2    0    0  0.00000000000E+00  0.00000000000E+00  0.13941416928E+04  0.17295337064E+04  0.10235505762E+04 0.  0.
        3    1    3    3  502    0  0.45364097036E+03 -0.22564826807E+03  0.57514395055E+03  0.76648408002E+03  0.10100000352E+00 0.  1.
       -3    1    3    3    0  502 -0.45364097036E+03  0.22564826807E+03  0.81899774226E+03  0.96304962639E+03  0.10100000352E+00 0. -1.
</event>
<event>
 5   0  0.9396660E-03  0.1002902E+04  0.7818609E-02  0.9305368E-01
        1   -1    0    0  501    0  0.00000000000E+00  0.00000000000E+00  0.77417037077E+03  0.77417037078E+03  0.50400001928E-02 0. -1.
       -1   -1    0    0    0  501  0.00000000000E+00  0.00000000000E+00 -0.32480335767E+03  0.32480335771E+03  0.50400001928E-02 0.  1.
    10030    2    1    2    0    0  0.00000000000E+00  0.00000000000E+00  0.44936701310E+03  0.10989737285E+04  0.10029020607E+04 0.  0.
        5    1    3    3  502    0  0.45081166775E+03 -0.15463011549E+02  0.46466177299E+03  0.64761324707E+03  0.46999998093E+01 0. -1.
       -5    1    3    3    0  502 -0.45081166775E+03  0.15463011549E+02 -0.15294759896E+02  0.45136048142E+03  0.46999998093E+01 0.  1.
</event>
<event>
 5   0  0.1617721E-02  0.1010741E+04  0.7818609E-02  0.9296842E-01
       -2   -1    0    0    0  501  0.00000000000E+00  0.00000000000E+00  0.15544158802E+03  0.15544158804E+03  0.25500000920E-02 0.  1.
        2   -1    0    0  501    0  0.00000000000E+00  0.00000000000E+00 -0.16430570612E+04  0.16430570612E+04  0.25500000920E-02 0. -1.
    10030    2    1    2    0    0  0.00000000000E+00  0.00000000000E+00 -0.14876154731E+04  0.17984986492E+04  0.10107411119E+04 0.  0.
        5    1    3    3  502    0  0.22640291410E+03  0.36978911693E+03 -0.28193779695E+03  0.51721686154E+03  0.46999998093E+01 0.  1.
       -5    1    3    3    0  502 -0.22640291410E+03 -0.36978911693E+03 -0.12056776762E+04  0.12812817877E+04  0.46999998093E+01 0. -1.
</event>
<event>
 5   0  0.1571895E-02  0.8234113E+03  0.7818609E-02  0.9526735E-01
        2   -1    0    0  501    0  0.00000000000E+00  0.00000000000E+00  0.23863368991E+03  0.23863368992E+03  0.25500000920E-02 0.  1.
       -2   -1    0    0    0  501  0.00000000000E+00  0.00000000000E+00 -0.71030012457E+03  0.71030012457E+03  0.25500000920E-02 0. -1.
    10030    2    1    2    0    0  0.00000000000E+00  0.00000000000E+00 -0.47166643466E+03  0.94893381449E+03  0.82341129377E+03 0.  0.
        2    1    3    3  502    0  0.47696005443E+02  0.18397713408E+03  0.18505125611E+03  0.26526677552E+03  0.25500000920E-02 0.  1.
       -2    1    3    3    0  502 -0.47696005443E+02 -0.18397713408E+03 -0.65671769078E+03  0.68366703898E+03  0.25500000920E-02 0. -1.
</event>
<event>
 5   0  0.1617721E-02  0.9904198E+03  0.7818609E-02  0.9319115E-01
        2   -1    0    0  501    0  0.00000000000E+00  0.00000000000E+00  0.38242670069E+03  0.38242670070E+03  0.25500000920E-02 0.  1.
       -2   -1    0    0    0  501  0.00000000000E+00  0.00000000000E+00 -0.64125449334E+03  0.64125449334E+03  0.25500000920E-02 0. -1.
    10030    2    1    2    0    0  0.00000000000E+00  0.00000000000E+00 -0.25882779265E+03  0.10236811940E+04  0.99041979018E+03 0.  0.
        5    1    3    3  502    0 -0.39331433822E+03  0.24820134642E+03  0.46327679976E+02  0.46740605574E+03  0.46999998093E+01 0.  1.
       -5    1    3    3    0  502  0.39331433822E+03 -0.24820134642E+03 -0.30515547263E+03  0.55627513830E+03  0.46999998093E+01 0. -1.
</event>
<event>
 5   0  0.9507815E-03  0.9822568E+03  0.7818609E-02  0.9328222E-01
       -1   -1    0    0    0  501  0.00000000000E+00  0.00000000000E+00  0.12508352084E+03  0.12508352094E+03  0.50400001928E-02 0. -1.
        1   -1    0    0  501    0  0.00000000000E+00  0.00000000000E+00 -0.19283682324E+04  0.19283682324E+04  0.50400001928E-02 0.  1.
    10030    2    1    2    0    0  0.00000000000E+00  0.00000000000E+00 -0.18032847115E+04  0.20534517533E+04  0.98225676499E+03 0.  0.
        1    1    3    3  502    0  0.15480271277E+03  0.53388183989E+02 -0.18696185671E+04  0.18767758962E+04  0.50400001928E-02 0.  1.
       -1    1    3    3    0  502 -0.15480271277E+03 -0.53388183989E+02  0.66333855573E+02  0.17667585712E+03  0.50400001928E-02 0. -1.
</event>
<event>
 5   0  0.1571895E-02  0.1249408E+04  0.7818609E-02  0.9070676E-01
        2   -1    0    0  501    0  0.00000000000E+00  0.00000000000E+00  0.18096362684E+04  0.18096362685E+04  0.25500000920E-02 0. -1.
       -2   -1    0    0    0  501  0.00000000000E+00  0.00000000000E+00 -0.21565405150E+03  0.21565405152E+03  0.25500000920E-02 0.  1.
    10030    2    1    2    0    0  0.00000000000E+00  0.00000000000E+00  0.15939822169E+04  0.20252903200E+04  0.12494084889E+04 0.  0.
        2    1    3    3  502    0  0.68707185563E+02 -0.61927030496E+03  0.87018789077E+03  0.10702538732E+04  0.25500000920E-02 0. -1.
       -2    1    3    3    0  502 -0.68707185563E+02  0.61927030496E+03  0.72379432618E+03  0.95503644672E+03  0.25500000920E-02 0.  1.
</event>
<event>
 5   0  0.9396660E-03  0.1024943E+04  0.7818609E-02  0.9281603E-01
       -1   -1    0    0    0  501  0.00000000000E+00  0.00000000000E+00  0.36855969732E+03  0.36855969735E+03  0.50400001928E-02 0. -1.
        1   -1    0    0  501    0  0.00000000000E+00  0.00000000000E+00 -0.71257683977E+03  0.71257683979E+03  0.50400001928E-02 0.  1.
    10030    2    1    2    0    0  0.00000000000E+00  0.00000000000E+00 -0.34401714245E+03  0.10811365371E+04  0.10249431290E+04 0.  0.
        5    1    3    3  502    0  0.39662918494E+01 -0.50760505456E+03 -0.24604496188E+03  0.56412661358E+03  0.46999998093E+01 0.  1.
       -5    1    3    3    0  502 -0.39662918494E+01  0.50760505456E+03 -0.97972180567E+02  0.51700992355E+03  0.46999998093E+01 0. -1.
</event>
<event>
 5   0  0.1000773E-02  0.9973276E+03  0.7818609E-02  0.9311481E-01
       -1   -1    0    0    0  501  0.00000000000E+00  0.00000000000E+00  0.49185570519E+03  0.49185570521E+03  0.50400001928E-02 0. -1.
        1   -1    0    0  501    0  0.00000000000E+00  0.00000000000E+00 -0.50556613303E+03  0.50556613305E+03  0.50400001928E-02 0.  1.
    10030    2    1    2    0    0  0.00000000000E+00  0.00000000000E+00 -0.13710427840E+02  0.99742183827E+03  0.99732760296E+03 0.  0.
        3    1    3    3  502    0 -0.22700030412E+03  0.29462393765E+03 -0.33905097739E+03  0.50327723789E+03  0.10100000352E+00 0.  1.
       -3    1    3    3    0  502  0.22700030412E+03 -0.29462393765E+03  0.32534054955E+03  0.49414460038E+03  0.10100000352E+00 0. -1.
</event>
<event>
 5   0  0.1656859E-02  0.9930884E+03  0.7818609E-02  0.9316158E-01
       -2   -1    0    0    0  501  0.00000000000E+00  0.00000000000E+00  0.34595519231E+03  0.34595519232E+03  0.25500000920E-02 0. -1.
        2   -1    0    0  501    0  0.00000000000E+00  0.00000000000E+00 -0.71268235494E+03  0.71268235494E+03  0.25500000920E-02 0.  1.
    10030    2    1    2    0    0  0.00000000000E+00  0.00000000000E+00 -0.36672716263E+03  0.10586375473E+04  0.99308843748E+03 0.  0.
        4    1    3    3  502    0 -0.16191531497E+03 -0.93946502622E+02 -0.67362408645E+03  0.69915201303E+03  0.12699999809E+01 0.  1.
       -4    1    3    3    0  502  0.16191531497E+03  0.93946502622E+02  0.30689692382E+03  0.35948553423E+03  0.12699999809E+01 0. -1.
</event>
<event>
 5   0  0.1000773E-02  0.1034753E+04  0.7818609E-02  0.9271228E-01
       -1   -1    0    0    0  501  0.00000000000E+00  0.00000000000E+00  0.11536708650E+03  0.11536708661E+03  0.50400001928E-02 0. -1.
        1   -1    0    0  501    0  0.00000000000E+00  0.00000000000E+00 -0.23202336614E+04  0.23202336614E+04  0.50400001928E-02 0.  1.
    10030    2    1    2    0    0  0.00000000000E+00  0.00000000000E+00 -0.22048665749E+04  0.24356007480E+04  0.10347532994E+04 0.  0.
        3    1    3    3  502    0 -0.46037926343E+03  0.22966507093E+03 -0.12310006058E+04  0.13341879975E+04  0.10100000352E+00 0.  1.
       -3    1    3    3    0  502  0.46037926343E+03 -0.22966507093E+03 -0.97386596911E+03  0.11014127505E+04  0.10100000352E+00 0. -1.
</event>
<event>
 5   0  0.9471140E-03  0.9960653E+03  0.7818609E-02  0.9312871E-01
        1   -1    0    0  501    0  0.00000000000E+00  0.00000000000E+00  0.10182426268E+04  0.10182426269E+04  0.50400001928E-02 0. -1.
       -1   -1    0    0    0  501  0.00000000000E+00  0.00000000000E+00 -0.24359275329E+03  0.24359275335E+03  0.50400001928E-02 0.  1.
    10030    2    1    2    0    0  0.00000000000E+00  0.00000000000E+00  0.77464987355E+03  0.12618353802E+04  0.99606530918E+03 0.  0.
        4    1    3    3  502    0 -0.31807113690E+03 -0.35259836754E+03  0.57751699281E+03  0.74767796998E+03  0.12699999809E+01 0. -1.
       -4    1    3    3    0  502  0.31807113690E+03  0.35259836754E+03  0.19713288075E+03  0.51415741022E+03  0.12699999809E+01 0.  1.
</event>
<event>
 5   0  0.1000773E-02  0.1003509E+04  0.7818609E-02  0.9304705E-01
       -1   -1    0    0    0  501  0.00000000000E+00  0.00000000000E+00  0.46016105724E+03  0.46016105727E+03  0.50400001928E-02 0.  1.
        1   -1    0    0  501    0  0.00000000000E+00  0.00000000000E+00 -0.54710741185E+03  0.54710741188E+03  0.50400001928E-02 0. -1.
    10030    2    1    2    0    0  0.00000000000E+00  0.00000000000E+00 -0.86946354610E+02  0.10072684691E+04  0.10035088940E+04 0.  0.
        3    1    3    3  502    0 -0.36734156801E+03 -0.24388357258E+03  0.19687849070E+03  0.48288733144E+03  0.10100000352E+00 0.  1.
       -3    1    3    3    0  502  0.36734156801E+03  0.24388357258E+03 -0.28382484531E+03  0.52438113771E+03  0.10100000352E+00 0. -1.
</event>
<event>
 5   0  0.1617721E-02  0.9935351E+03  0.7818609E-02  0.9315664E-01
       -2   -1    0    0    0  501  0.00000000000E+00  0.00000000000E+00  0.27792999525E+03  0.27792999526E+03  0.25500000920E-02 0. -1.
        2   -1    0    0  501    0  0.00000000000E+00  0.00000000000E+00 -0.88791418481E+03  0.88791418482E+03  0.25500000920E-02 0.  1.
    10030    2    1    2    0    0  0.00000000000E+00  0.00000000000E+00 -0.60998418956E+03  0.11658441801E+04  0.99353507271E+03 0.  0.
        5    1    3    3  502    0 -0.35515543187E+03 -0.16427655439E+03  0.54073227528E+02  0.39505464311E+03  0.46999998093E+01 0. -1.
       -5    1    3    3    0  502  0.35515543187E+03  0.16427655439E+03 -0.66405741709E+03  0.77078953697E+03  0.46999998093E+01 0.  1.
</event>
<event>
 5   0  0.9471140E-03  0.1011997E+04  0.7818609E-02  0.9295483E-01
       -1   -1    0    0    0  501  0.00000000000E+00  0.00000000000E+00  0.60237428526E+03  0.60237428528E+03  0.50400001928E-02 0.  1.
        1   -1    0    0  501    0  0.00000000000E+00  0.00000000000E+00 -0.42504236336E+03  0.42504236339E+03  0.50400001928E-02 0. -1.
    10030    2    1    2    0    0  0.00000000000E+00  0.00000000000E+00  0.17733192189E+03  0.10274166487E+04  0.10119972132E+04 0.  0.
        4    1    3    3  502    0  0.11006981093E+03  0.41730135716E+03 -0.17951257991E+03  0.46742075821E+03  0.12699999809E+01 0. -1.
       -4    1    3    3    0  502 -0.11006981093E+03 -0.41730135716E+03  0.35684450180E+03  0.55999589046E+03  0.12699999809E+01 0.  1.
</event>
<event>
 5   0  0.9396660E-03  0.9968899E+03  0.7818609E-02  0.9311962E-01
       -1   -1    0    0    0  501  0.00000000000E+00  0.00000000000E+00  0.34619168759E+03  0.34619168762E+03  0.50400001928E-02 0.  1.
        1   -1    0    0  501    0  0.00000000000E+00  0.00000000000E+00 -0.71765839636E+03  0.71765839638E+03  0.50400001928E-02 0. -1.
    10030    2    1    2    0    0  0.00000000000E+00  0.00000000000E+00 -0.37146670878E+03  0.10638500840E+04  0.99688990641E+03 0.  0.
        5    1    3    3  502    0  0.98671483872E+02  0.48463830281E+03 -0.11981948452E+03  0.50890976130E+03  0.46999998093E+01 0. -1.
       -5    1    3    3    0  502 -0.98671483872E+02 -0.48463830281E+03 -0.25164722426E+03  0.55494032270E+03  0.46999998093E+01 0.  1.
</event>
<event>
 5   0  0.1617721E-02  0.1007479E+04  0.7818609E-02  0.9300380E-01
       -2   -1    0    0    0  501  0.00000000000E+00  0.00000000000E+00  0.43962353796E+03  0.43962353797E+03  0.25500000920E-02 0.  1.
        2   -1    0    0  501    0  0.00000000000E+00  0.00000000000E+00 -0.57720600247E+03  0.57720600248E+03  0.25500000920E-02 0. -1.
    10030    2    1    2    0    0  0.00000000000E+00  0.00000000000E+00 -0.13758246451E+03  0.10168295404E+04  0.10074787242E+04 0.  0.
        5    1    3    3  502    0 -0.13205085730E+03  0.48591137384E+03 -0.82480407611E+02  0.51026698872E+03  0.46999998093E+01 0. -1.
       -5    1    3    3    0  502  0.13205085730E+03 -0.48591137384E+03 -0.55102056904E+02  0.50656255173E+03  0.46999998093E+01 0.  1.
</event>
<event>
 5   0  0.9396660E-03  0.1052435E+04  0.7818609E-02  0.9252834E-01
       -1   -1    0    0    0  501  0.00000000000E+00  0.00000000000E+00  0.97709723100E+03  0.97709723101E+03  0.50400001928E-02 0. -1.
        1   -1    0    0  501    0  0.00000000000E+00  0.00000000000E+00 -0.28339542032E+03  0.28339542036E+03  0.50400001928E-02 0.  1.
    10030    2    1    2    0    0  0.00000000000E+00  0.00000000000E+00  0.69370181068E+03  0.12604926514E+04  0.10524350441E+04 0.  0.
        5    1    3    3  502    0 -0.13062016347E+03  0.11433944472E+03  0.94178866549E+03  0.95766545106E+03  0.46999998093E+01 0. -1.
       -5    1    3    3    0  502  0.13062016347E+03 -0.11433944472E+03 -0.24808685480E+03  0.30282720031E+03  0.46999998093E+01 0.  1.
</event>
<event>
 5   0  0.1656859E-02  0.9067584E+03  0.7818609E-02  0.9417172E-01
        2   -1    0    0  501    0  0.00000000000E+00  0.00000000000E+00  0.56199701516E+03  0.56199701516E+03  0.25500000920E-02 0.  1.
       -2   -1    0    0    0  501  0.00000000000E+00  0.00000000000E+00 -0.36575405389E+03  0.36575405390E+03  0.25500000920E-02 0. -1.
    10030    2    1    2    0    0  0.00000000000E+00  0.00000000000E+00  0.19624296126E+03  0.92775106907E+03  0.90675837262E+03 0.  0.
        4    1    3    3  502    0 -0.41652393451E+03 -0.88125465369E+02  0.25759132460E+03  0.49760746485E+03  0.12699999809E+01 0.  1.
       -4    1    3    3    0  502  0.41652393451E+03  0.88125465369E+02 -0.61348363338E+02  0.43014360422E+03  0.12699999809E+01 0. -1.
</event>
<event>
 5   0  0.9759443E-03  0.8059920E+03  0.7818609E-02  0.9551384E-01
        1   -1    0    0  501    0  0.00000000000E+00  0.00000000000E+00  0.32518587106E+03  0.32518587109E+03  0.50400001928E-02 0.  1.
       -1   -1    0    0    0  501  0.00000000000E+00  0.00000000000E+00 -0.49942444403E+03  0.49942444406E+03  0.50400001928E-02 0. -1.
    10030    2    1    2    0    0  0.00000000000E+00  0.00000000000E+00 -0.17423857298E+03  0.82461031515E+03  0.80599199223E+03 0.  0.
        2    1    3    3  502    0 -0.11563335399E+03  0.20403251518E+03 -0.42241743975E+03  0.48315301222E+03  0.25500000920E-02 0. -1.
       -2    1    3    3    0  502  0.11563335399E+03 -0.20403251518E+03  0.24817886678E+03  0.34145730293E+03  0.25500000920E-02 0.  1.
</event>
<event>
 5   0  0.9759443E-03  0.1026431E+04  0.7818609E-02  0.9280022E-01
        1   -1    0    0  501    0  0.00000000000E+00  0.00000000000E+00  0.31614964052E+03  0.31614964056E+03  0.50400001928E-02 0.  1.
       -1   -1    0    0    0  501  0.00000000000E+00  0.00000000000E+00 -0.83311786014E+03  0.83311786016E+03  0.50400001928E-02 0. -1.
    10030    2    1    2    0    0  0.00000000000E+00  0.00000000000E+00 -0.51696821962E+03  0.11492675007E+04  0.10264305374E+04 0.  0.
        2    1    3    3  502    0 -0.15537633992E+03 -0.33267849603E+03  0.14299842591E+03  0.39403722990E+03  0.25500000920E-02 0.  1.
       -2    1    3    3    0  502  0.15537633992E+03  0.33267849603E+03 -0.65996664553E+03  0.75523027081E+03  0.25500000920E-02 0. -1.
</event>
<event>
 5   0  0.9507815E-03  0.9970297E+03  0.7818609E-02  0.9311809E-01
       -1   -1    0    0    0  501  0.00000000000E+00  0.00000000000E+00  0.31858763815E+03  0.31858763819E+03  0.50400001928E-02 0. -1.
        1   -1    0    0  501    0  0.00000000000E+00  0.00000000000E+00 -0.78005866709E+03  0.78005866711E+03  0.50400001928E-02 0.  1.
    10030    2    1    2    0    0  0.00000000000E+00  0.00000000000E+00 -0.46147102894E+03  0.10986463053E+04  0.99702968542E+03 0.  0.
        1    1    3    3  502    0  0.29038356176E+03  0.27053274462E+03 -0.56315459493E+03  0.68895114244E+03  0.50400001928E-02 0.  1.
       -1    1    3    3    0  502 -0.29038356176E+03 -0.27053274462E+03  0.10168356599E+03  0.40969516286E+03  0.50400001928E-02 0. -1.
</event>
<event>
 5   0  0.1598986E-02  0.9953503E+03  0.7818609E-02  0.9313659E-01
       -2   -1    0    0    0  501  0.00000000000E+00  0.00000000000E+00  0.23207503429E+03  0.23207503430E+03  0.25500000920E-02 0.  1.
        2   -1    0    0  501    0  0.00000000000E+00  0.00000000000E+00 -0.10672433973E+04  0.10672433973E+04  0.25500000920E-02 0. -1.
    10030    2    1    2    0    0  0.00000000000E+00  0.00000000000E+00 -0.83516836301E+03  0.12993184316E+04  0.99535028614E+03 0.  0.
        3    1    3    3  502    0 -0.26012836371E+02 -0.49236706639E+03 -0.50591317052E+03  0.70643481088E+03  0.10100000352E+00 0. -1.
       -3    1    3    3    0  502  0.26012836371E+02  0.49236706639E+03 -0.32925519249E+03  0.59288362071E+03  0.10100000352E+00 0.  1.
</event>
<event>
 5   0  0.9759443E-03  0.7299967E+03  0.7818609E-02  0.9667266E-01
        1   -1    0    0  501    0  0.00000000000E+00  0.00000000000E+00  0.33263486391E+03  0.33263486395E+03  0.50400001928E-02 0.  1.
       -1   -1    0    0    0  501  0.00000000000E+00  0.00000000000E+00 -0.40051057421E+03  0.40051057424E+03  0.50400001928E-02 0. -1.
    10030    2    1    2    0    0  0.00000000000E+00  0.00000000000E+00 -0.67875710303E+02  0.73314543819E+03  0.72999665855E+03 0.  0.
        2    1    3    3  502    0 -0.22334155708E+03 -0.62768858841E+02 -0.31693762225E+03  0.39277326432E+03  0.25500000920E-02 0. -1.
       -2    1    3    3    0  502  0.22334155708E+03  0.62768858841E+02  0.24906191194E+03  0.34037217388E+03  0.25500000920E-02 0.  1.
</event>
<event>
 5   0  0.6314750E-03  0.1015302E+04  0.7818609E-02  0.9291919E-01
       -3   -1    0    0    0  501  0.00000000000E+00  0.00000000000E+00  0.21600087706E+03  0.21600090067E+03  0.10100000352E+00 0. -1.
        3   -1    0    0  501    0  0.00000000000E+00  0.00000000000E+00 -0.11930951948E+04  0.11930951991E+04  0.10100000352E+00 0.  1.
    10030    2    1    2    0    0  0.00000000000E+00  0.00000000000E+00 -0.97709431772E+03  0.14090960997E+04  0.10153021779E+04 0.  0.
        3    1    3    3  502    0  0.15188198275E+03  0.45408892625E+03 -0.72261739320E+03  0.86685684907E+03  0.10100000352E+00 0. -1.
       -3    1    3    3    0  502 -0.15188198275E+03 -0.45408892625E+03 -0.25447692452E+03  0.54223925065E+03  0.10100000352E+00 0.  1.
</event>
<event>
 5   0  0.9759443E-03  0.9131921E+03  0.7818609E-02  0.9409239E-01
        1   -1    0    0  501    0  0.00000000000E+00  0.00000000000E+00  0.33287748657E+03  0.33287748661E+03  0.50400001928E-02 0. -1.
       -1   -1    0    0    0  501  0.00000000000E+00  0.00000000000E+00 -0.62629632844E+03  0.62629632846E+03  0.50400001928E-02 0.  1.
    10030    2    1    2    0    0  0.00000000000E+00  0.00000000000E+00 -0.29341884187E+03  0.95917381507E+03  0.91319208863E+03 0.  0.
        2    1    3    3  502    0  0.37755675495E+03  0.20553902947E+03 -0.30835646209E+03  0.52903601349E+03  0.25500000920E-02 0.  1.
       -2    1    3    3    0  502 -0.37755675495E+03 -0.20553902947E+03  0.14937620222E+02  0.43013780158E+03  0.25500000920E-02 0. -1.
</event>
<event>
 5   0  0.1617721E-02  0.9747288E+03  0.7818609E-02  0.9336704E-01
       -2   -1    0    0    0  501  0.00000000000E+00  0.00000000000E+00  0.11678896268E+03  0.11678896271E+03  0.25500000920E-02 0.  1.
        2   -1    0    0  501    0  0.00000000000E+00  0.00000000000E+00 -0.20337887161E+04  0.20337887161E+04  0.25500000920E-02 0. -1.
    10030    2    1    2    0    0  0.00000000000E+00  0.00000000000E+00 -0.19169997534E+04  0.21505776788E+04  0.97472883305E+03 0.  0.
        5    1    3    3  502    0 -0.12221958461E+03  0.32779889002E+03 -0.17070692999E+04  0.17425548554E+04  0.46999998093E+01 0. -1.
       -5    1    3    3    0  502  0.12221958461E+03 -0.32779889002E+03 -0.20993045349E+03  0.40802282345E+03  0.46999998093E+01 0.  1.
</event>
<event>
 5   0  0.1656859E-02  0.9917529E+03  0.7818609E-02  0.9317637E-01
        2   -1    0    0  501    0  0.00000000000E+00  0.00000000000E+00  0.30906018129E+03  0.30906018130E+03  0.25500000920E-02 0. -1.
       -2   -1    0    0    0  501  0.00000000000E+00  0.00000000000E+00 -0.79561669253E+03  0.79561669253E+03  0.25500000920E-02 0.  1.
    10030    2    1    2    0    0  0.00000000000E+00  0.00000000000E+00 -0.48655651124E+03  0.11046768738E+04  0.99175287091E+03 0.  0.
        4    1    3    3  502    0 -0.26782658265E+03  0.16728400955E+03  0.18258584655E+03  0.36476598318E+03  0.12699999809E+01 0. -1.
       -4    1    3    3    0  502  0.26782658265E+03 -0.16728400955E+03 -0.66914235779E+03  0.73991089065E+03  0.12699999809E+01 0.  1.
</event>
<event>
 5   0  0.9759443E-03  0.1028613E+04  0.7818609E-02  0.9277708E-01
        1   -1    0    0  501    0  0.00000000000E+00  0.00000000000E+00  0.15843871442E+04  0.15843871442E+04  0.50400001928E-02 0.  1.
       -1   -1    0    0    0  501  0.00000000000E+00  0.00000000000E+00 -0.16694856728E+03  0.16694856736E+03  0.50400001928E-02 0. -1.
    10030    2    1    2    0    0  0.00000000000E+00  0.00000000000E+00  0.14174385769E+04  0.17513357115E+04  0.10286129764E+04 0.  0.
        2    1    3    3  502    0  0.49333426019E+02  0.48911270919E+03  0.45136952695E+03  0.66738255827E+03  0.25500000920E-02 0. -1.
       -2    1    3    3    0  502 -0.49333426019E+02 -0.48911270919E+03  0.96606904993E+03  0.10839531533E+04  0.25500000920E-02 0.  1.
</event>
<event>
 5   0  0.9507815E-03  0.9851443E+03  0.7818609E-02  0.9324990E-01
        1   -1    0    0  501    0  0.00000000000E+00  0.00000000000E+00  0.28798390977E+03  0.28798390981E+03  0.50400001928E-02 0.  1.
       -1   -1    0    0    0  501  0.00000000000E+00  0.00000000000E+00 -0.84250300933E+03  0.84250300935E+03  0.50400001928E-02 0. -1.
    10030    2    1    2    0    0  0.00000000000E+00  0.00000000000E+00 -0.55451909957E+03  0.11304869192E+04  0.98514427502E+03 0.  0.
        1    1    3    3  502    0  0.37115015086E+03  0.24312245713E+03 -0.52275238865E+03  0.68566101210E+03  0.50400001928E-02 0. -1.
       -1    1    3    3    0  502 -0.37115015086E+03 -0.24312245713E+03 -0.31766710912E+02  0.44482590706E+03  0.50400001928E-02 0.  1.
</event>
<event>
 5   0  0.1000773E-02  0.1003057E+04  0.7818609E-02  0.9305198E-01
        1   -1    0    0  501    0  0.00000000000E+00  0.00000000000E+00  0.20158292884E+03  0.20158292890E+03  0.50400001928E-02 0.  1.
       -1   -1    0    0    0  501  0.00000000000E+00  0.00000000000E+00 -0.12477783770E+04  0.12477783770E+04  0.50400001928E-02 0. -1.
    10030    2    1    2    0    0  0.00000000000E+00  0.00000000000E+00 -0.10461954482E+04  0.14493613059E+04  0.10030569671E+04 0.  0.
        3    1    3    3  502    0 -0.93020857218E+02 -0.36913714670E+03 -0.51293702554E+02  0.38411738710E+03  0.10100000352E+00 0.  1.
       -3    1    3    3    0  502  0.93020857218E+02  0.36913714670E+03 -0.99490174564E+03  0.10652439188E+04  0.10100000352E+00 0. -1.
</event>
<event>
 5   0  0.1571895E-02  0.9900833E+03  0.7818609E-02  0.9319489E-01
        2   -1    0    0  501    0  0.00000000000E+00  0.00000000000E+00  0.26887273231E+04  0.26887273231E+04  0.25500000920E-02 0.  1.
       -2   -1    0    0    0  501  0.00000000000E+00  0.00000000000E+00 -0.91145815085E+02  0.91145815121E+02  0.25500000920E-02 0. -1.
    10030    2    1    2    0    0  0.00000000000E+00  0.00000000000E+00  0.25975815080E+04  0.27798731382E+04  0.99008331660E+03 0.  0.
        2    1    3    3  502    0 -0.24001985167E+03 -0.24581267698E+03  0.29807383644E+03  0.45484218509E+03  0.25500000920E-02 0.  1.
       -2    1    3    3    0  502  0.24001985167E+03  0.24581267698E+03  0.22995076716E+04  0.23250309531E+04  0.25500000920E-02 0. -1.
</event>
<event>
 5   0  0.9507815E-03  0.1031208E+04  0.7818609E-02  0.9274963E-01
       -1   -1    0    0    0  501  0.00000000000E+00  0.00000000000E+00  0.15566797842E+03  0.15566797850E+03  0.50400001928E-02 0.  1.
        1   -1    0    0  501    0  0.00000000000E+00  0.00000000000E+00 -0.17077856055E+04  0.17077856055E+04  0.50400001928E-02 0. -1.
    10030    2    1    2    0    0  0.00000000000E+00  0.00000000000E+00 -0.15521176271E+04  0.18634535840E+04  0.10312080932E+04 0.  0.
        1    1    3    3  502    0  0.39328365577E+03 -0.15733268313E+03 -0.13072908241E+04  0.13742033714E+04  0.50400001928E-02 0. -1.
       -1    1    3    3    0  502 -0.39328365577E+03  0.15733268313E+03 -0.24482680297E+03  0.48925021263E+03  0.50400001928E-02 0.  1.
</event>
<event>
 5   0  0.1617721E-02  0.8525165E+03  0.7818609E-02  0.9486966E-01
       -2   -1    0    0    0  501  0.00000000000E+00  0.00000000000E+00  0.21481205530E+03  0.21481205532E+03  0.25500000920E-02 0. -1.
        2   -1    0    0  501    0  0.00000000000E+00  0.00000000000E+00 -0.84583753988E+03  0.84583753988E+03  0.25500000920E-02 0.  1.
    10030    2    1    2    0    0  0.00000000000E+00  0.00000000000E+00 -0.63102548458E+03  0.10606495952E+04  0.85251651105E+03 0.  0.
        5    1    3    3  502    0  0.26113908207E+03  0.22358983910E+03 -0.62899637153E+03  0.71682952069E+03  0.46999998093E+01 0.  1.
       -5    1    3    3    0  502 -0.26113908207E+03 -0.22358983910E+03 -0.20291130443E+01  0.34382007451E+03  0.46999998093E+01 0. -1.
</event>
<event>
 5   0  0.1000773E-02  0.1004616E+04  0.7818609E-02  0.9303497E-01
       -1   -1    0    0    0  501  0.00000000000E+00  0.00000000000E+00  0.18337789502E+03  0.18337789509E+03  0.50400001928E-02 0. -1.
        1   -1    0    0  501    0  0.00000000000E+00  0.00000000000E+00 -0.13759187464E+04  0.13759187464E+04  0.50400001928E-02 0.  1.
    10030    2    1    2    0    0  0.00000000000E+00  0.00000000000E+00 -0.11925408514E+04  0.15592966415E+04  0.10046155155E+04 0.  0.
        3    1    3    3  502    0  0.29573035889E+03  0.32005758503E+03 -0.98405447885E+03  0.10762232717E+04  0.10100000352E+00 0.  1.
       -3    1    3    3    0  502 -0.29573035889E+03 -0.32005758503E+03 -0.20848637252E+03  0.48307336983E+03  0.10100000352E+00 0. -1.
</event>
<event>
 5   0  0.1571895E-02  0.1039834E+04  0.7818609E-02  0.9265903E-01
       -2   -1    0    0    0  501  0.00000000000E+00  0.00000000000E+00  0.41116570302E+03  0.41116570302E+03  0.25500000920E-02 0.  1.
        2   -1    0    0  501    0  0.00000000000E+00  0.00000000000E+00 -0.65743245930E+03  0.65743245930E+03  0.25500000920E-02 0. -1.
    10030    2    1    2    0    0  0.00000000000E+00  0.00000000000E+00 -0.24626675628E+03  0.10685981623E+04  0.10398339854E+04 0.  0.
        2    1    3    3  502    0  0.74948939862E+02 -0.49639301987E+03  0.15849370274E+02  0.50226942601E+03  0.25500000920E-02 0. -1.
       -2    1    3    3    0  502 -0.74948939862E+02  0.49639301987E+03 -0.26211612656E+03  0.56632873631E+03  0.25500000920E-02 0.  1.
</event>
<event>
 5   0  0.6314750E-03  0.9946932E+03  0.7818609E-02  0.9314384E-01
        3   -1    0    0  501    0  0.00000000000E+00  0.00000000000E+00  0.39745572325E+03  0.39745573608E+03  0.10100000352E+00 0.  1.
       -3   -1    0    0    0  501  0.00000000000E+00  0.00000000000E+00 -0.62234257355E+03  0.62234258175E+03  0.10100000352E+00 0. -1.
    10030    2    1    2    0    0  0.00000000000E+00  0.00000000000E+00 -0.22488685031E+03  0.10197983178E+04  0.99469317561E+03 0.  0.
        4    1    3    3  502    0 -0.16752542727E+03  0.39475840650E+03 -0.37070000453E+03  0.56685013411E+03  0.12699999809E+01 0. -1.
       -4    1    3    3    0  502  0.16752542727E+03 -0.39475840650E+03  0.14581315423E+03  0.45294818371E+03  0.12699999809E+01 0.  1.
</event>
<event>
 5   0  0.1617721E-02  0.1012585E+04  0.7818609E-02  0.9294848E-01
       -2   -1    0    0    0  501  0.00000000000E+00  0.00000000000E+00  0.75818942749E+03  0.75818942749E+03  0.25500000920E-02 0.  1.
        2   -1    0    0  501    0  0.00000000000E+00  0.00000000000E+00 -0.33808467835E+03  0.33808467836E+03  0.25500000920E-02 0. -1.
    10030    2    1    2    0    0  0.00000000000E+00  0.00000000000E+00  0.42010474913E+03  0.10962741059E+04  0.10125852630E+04 0.  0.
        5    1    3    3  502    0  0.36284488304E+03 -0.18252487522E+03  0.53725309584E+03  0.67352410366E+03  0.46999998093E+01 0.  1.
       -5    1    3    3    0  502 -0.36284488304E+03  0.18252487522E+03 -0.11714834670E+03  0.42275000220E+03  0.46999998093E+01 0. -1.
</event>
<event>
 5   0  0.9507815E-03  0.1009773E+04  0.7818609E-02  0.9297891E-01
       -1   -1    0    0    0  501  0.00000000000E+00  0.00000000000E+00  0.36592942700E+03  0.36592942704E+03  0.50400001928E-02 0.  1.
        1   -1    0    0  501    0  0.00000000000E+00  0.00000000000E+00 -0.69661029732E+03  0.69661029734E+03  0.50400001928E-02 0. -1.
    10030    2    1    2    0    0  0.00000000000E+00  0.00000000000E+00 -0.33068087032E+03  0.10625397244E+04  0.10097726615E+04 0.  0.
        1    1    3    3  502    0 -0.65397021503E+02 -0.53339538522E+02  0.35845534064E+03  0.36825549290E+03  0.50400001928E-02 0.  1.
       -1    1    3    3    0  502  0.65397021503E+02  0.53339538522E+02 -0.68913621096E+03  0.69428423148E+03  0.50400001928E-02 0. -1.
</event>
<event>
 5   0  0.9759443E-03  0.1013036E+04  0.7818609E-02  0.9294362E-01
        1   -1    0    0  501    0  0.00000000000E+00  0.00000000000E+00  0.12674346396E+04  0.12674346396E+04  0.50400001928E-02 0.  1.
       -1   -1    0    0    0  501  0.00000000000E+00  0.00000000000E+00 -0.20242489716E+03  0.20242489722E+03  0.50400001928E-02 0. -1.
    10030    2    1    2    0    0  0.00000000000E+00  0.00000000000E+00  0.10650097424E+04  0.14698595368E+04  0.10130356887E+04 0.  0.
        2    1    3    3  502    0  0.10146268657E+03 -0.37233822592E+03  0.10085164841E+04  0.10798314359E+04  0.25500000920E-02 0.  1.
       -2    1    3    3    0  502 -0.10146268657E+03  0.37233822592E+03  0.56493258289E+02  0.39002810089E+03  0.25500000920E-02 0. -1.
</event>
<event>
 5   0  0.1598986E-02  0.9837179E+03  0.7818609E-02  0.9326585E-01
       -2   -1    0    0    0  501  0.00000000000E+00  0.00000000000E+00  0.17368763246E+03  0.17368763248E+03  0.25500000920E-02 0.  1.
        2   -1    0    0  501    0  0.00000000000E+00  0.00000000000E+00 -0.13928752814E+04  0.13928752814E+04  0.25500000920E-02 0. -1.
    10030    2    1    2    0    0  0.00000000000E+00  0.00000000000E+00 -0.12191876490E+04  0.15665629139E+04  0.98371786598E+03 0.  0.
        3    1    3    3  502    0 -0.20376913247E+03 -0.35915552238E+03 -0.10351518436E+04  0.11144747185E+04  0.10100000352E+00 0. -1.
       -3    1    3    3    0  502  0.20376913247E+03  0.35915552238E+03 -0.18403580537E+03  0.45208819544E+03  0.10100000352E+00 0.  1.
</event>
<event>
 5   0  0.9396660E-03  0.1024492E+04  0.7818609E-02  0.9282083E-01
        1   -1    0    0  501    0  0.00000000000E+00  0.00000000000E+00  0.60757476495E+03  0.60757476497E+03  0.50400001928E-02 0.  1.
       -1   -1    0    0    0  501  0.00000000000E+00  0.00000000000E+00 -0.43187468386E+03  0.43187468389E+03  0.50400001928E-02 0. -1.
    10030    2    1    2    0    0  0.00000000000E+00  0.00000000000E+00  0.17570008109E+03  0.10394494489E+04  0.10244923808E+04 0.  0.
        5    1    3    3  502    0  0.37539127098E+03  0.23928037240E+03 -0.16922706086E+03  0.47627050199E+03  0.46999998093E+01 0. -1.
       -5    1    3    3    0  502 -0.37539127098E+03 -0.23928037240E+03  0.34492714195E+03  0.56317894687E+03  0.46999998093E+01 0.  1.
</event>
<event>
 5   0  0.1663497E-02  0.1000970E+04  0.7818609E-02  0.9307481E-01
        2   -1    0    0  501    0  0.00000000000E+00  0.00000000000E+00  0.21899751673E+04  0.21899751673E+04  0.25500000920E-02 0. -1.
       -2   -1    0    0    0  501  0.00000000000E+00  0.00000000000E+00 -0.11437814430E+03  0.11437814433E+03  0.25500000920E-02 0.  1.
    10030    2    1    2    0    0  0.00000000000E+00  0.00000000000E+00  0.20755970230E+04  0.23043533116E+04  0.10009701209E+04 0.  0.
        1    1    3    3  502    0  0.26145614605E+03  0.42631107654E+03  0.10829602987E+04  0.11928551710E+04  0.50400001928E-02 0. -1.
       -1    1    3    3    0  502 -0.26145614605E+03 -0.42631107654E+03  0.99263672429E+03  0.11114981407E+04  0.50400001928E-02 0.  1.
</event>
<event>
 5   0  0.9507815E-03  0.1000476E+04  0.7818609E-02  0.9308023E-01
       -1   -1    0    0    0  501  0.00000000000E+00  0.00000000000E+00  0.21621072031E+03  0.21621072037E+03  0.50400001928E-02 0.  1.
        1   -1    0    0  501    0  0.00000000000E+00  0.00000000000E+00 -0.11573801844E+04  0.11573801844E+04  0.50400001928E-02 0. -1.
    10030    2    1    2    0    0  0.00000000000E+00  0.00000000000E+00 -0.94116946410E+03  0.13735909048E+04  0.10004758935E+04 0.  0.
        1    1    3    3  502    0 -0.47518483253E+03  0.90419636999E+02 -0.29550603061E+03  0.56683344112E+03  0.50400001928E-02 0.  1.
       -1    1    3    3    0  502  0.47518483253E+03 -0.90419636999E+02 -0.64566343350E+03  0.80675746368E+03  0.50400001928E-02 0. -1.
</event>
<event>
 5   0  0.1571895E-02  0.1014484E+04  0.7818609E-02  0.9292800E-01
        2   -1    0    0  501    0  0.00000000000E+00  0.00000000000E+00  0.10108980268E+04  0.10108980268E+04  0.25500000920E-02 0. -1.
       -2   -1    0    0    0  501  0.00000000000E+00  0.00000000000E+00 -0.25452057925E+03  0.25452057926E+03  0.25500000920E-02 0.  1.
    10030    2    1    2    0    0  0.00000000000E+00  0.00000000000E+00  0.75637744758E+03  0.12654186061E+04  0.10144838123E+04 0.  0.
        2    1    3    3  502    0 -0.11349561648E+03 -0.32257815104E+03  0.84549891824E+03  0.91203417657E+03  0.25500000920E-02 0. -1.
       -2    1    3    3    0  502  0.11349561648E+03  0.32257815104E+03 -0.89121470656E+02  0.35338442952E+03  0.25500000920E-02 0.  1.
</event>
<event>
 5   0  0.1000773E-02  0.9258149E+03  0.7818609E-02  0.9393875E-01
       -1   -1    0    0    0  501  0.00000000000E+00  0.00000000000E+00  0.21268755634E+03  0.21268755640E+03  0.50400001928E-02 0. -1.
        1   -1    0    0  501    0  0.00000000000E+00  0.00000000000E+00 -0.10075027397E+04  0.10075027397E+04  0.50400001928E-02 0.  1.
    10030    2    1    2    0    0  0.00000000000E+00  0.00000000000E+00 -0.79481518338E+03  0.12201902961E+04  0.92581487515E+03 0.  0.
        3    1    3    3  502    0  0.46234670843E+03  0.95290987249E+01 -0.37014125189E+03  0.59233422919E+03  0.10100000352E+00 0. -1.
       -3    1    3    3    0  502 -0.46234670843E+03 -0.95290987249E+01 -0.42467393149E+03  0.62785606695E+03  0.10100000352E+00 0.  1.
</event>
<event>
 5   0  0.1656859E-02  0.1021841E+04  0.7818609E-02  0.9284909E-01
        2   -1    0    0  501    0  0.00000000000E+00  0.00000000000E+00  0.78712073448E+03  0.78712073449E+03  0.25500000920E-02 0. -1.
       -2   -1    0    0    0  501  0.00000000000E+00  0.00000000000E+00 -0.33163881695E+03  0.33163881696E+03  0.25500000920E-02 0.  1.
    10030    2    1    2    0    0  0.00000000000E+00  0.00000000000E+00  0.45548191753E+03  0.11187595515E+04  0.10218410624E+04 0.  0.
        4    1    3    3  502    0  0.27049264362E+03  0.21158271771E+03  0.64191253702E+03  0.72800194696E+03  0.12699999809E+01 0. -1.
       -4    1    3    3    0  502 -0.27049264362E+03 -0.21158271771E+03 -0.18643061949E+03  0.39075760450E+03  0.12699999809E+01 0.  1.
</event>
<event>
 5   0  0.1663497E-02  0.9885779E+03  0.7818609E-02  0.9321162E-01
       -2   -1    0    0    0  501  0.00000000000E+00  0.00000000000E+00  0.46920419004E+03  0.46920419005E+03  0.25500000920E-02 0. -1.
        2   -1    0    0  501    0  0.00000000000E+00  0.00000000000E+00 -0.52071480036E+03  0.52071480036E+03  0.25500000920E-02 0.  1.
    10030    2    1    2    0    0  0.00000000000E+00  0.00000000000E+00 -0.51510610317E+02  0.98991899041E+03  0.98857790012E+03 0.  0.
        1    1    3    3  502    0  0.29080148926E+03 -0.34133847436E+03 -0.23398958215E+03  0.50579500276E+03  0.50400001928E-02 0.  1.
       -1    1    3    3    0  502 -0.29080148926E+03  0.34133847436E+03  0.18247897183E+03  0.48412398765E+03  0.50400001928E-02 0. -1.
</event>
<event>
 5   0  0.1000773E-02  0.9236908E+03  0.7818609E-02  0.9396442E-01
       -1   -1    0    0    0  501  0.00000000000E+00  0.00000000000E+00  0.19010926489E+03  0.19010926496E+03  0.50400001928E-02 0. -1.
        1   -1    0    0  501    0  0.00000000000E+00  0.00000000000E+00 -0.11219926065E+04  0.11219926065E+04  0.50400001928E-02 0.  1.
    10030    2    1    2    0    0  0.00000000000E+00  0.00000000000E+00 -0.93188334157E+03  0.13121018714E+04  0.92369083503E+03 0.  0.
        3    1    3    3  502    0 -0.40940100444E+03  0.20275939557E+03 -0.56208148286E+03  0.72433152527E+03  0.10100000352E+00 0.  1.
       -3    1    3    3    0  502  0.40940100444E+03 -0.20275939557E+03 -0.36980185871E+03  0.58777034616E+03  0.10100000352E+00 0. -1.
</event>
<event>
 5   0  0.9396660E-03  0.8193860E+03  0.7818609E-02  0.9532373E-01
       -1   -1    0    0    0  501  0.00000000000E+00  0.00000000000E+00  0.10026627675E+03  0.10026627687E+03  0.50400001928E-02 0.  1.
        1   -1    0    0  501    0  0.00000000000E+00  0.00000000000E+00 -0.16740261305E+04  0.16740261305E+04  0.50400001928E-02 0. -1.
    10030    2    1    2    0    0  0.00000000000E+00  0.00000000000E+00 -0.15737598538E+04  0.17742924074E+04  0.81938603212E+03 0.  0.
        5    1    3    3  502    0  0.28808538409E+03  0.28582349620E+03 -0.90818091711E+03  0.99473761752E+03  0.46999998093E+01 0. -1.
       -5    1    3    3    0  502 -0.28808538409E+03 -0.28582349620E+03 -0.66557893667E+03  0.77955478989E+03  0.46999998093E+01 0.  1.
</event>
<event>
 5   0  0.1000773E-02  0.1115738E+04  0.7818609E-02  0.9189987E-01
        1   -1    0    0  501    0  0.00000000000E+00  0.00000000000E+00  0.73261289602E+03  0.73261289604E+03  0.50400001928E-02 0. -1.
       -1   -1    0    0    0  501  0.00000000000E+00  0.00000000000E+00 -0.42480522410E+03  0.42480522413E+03  0.50400001928E-02 0.  1.
    10030    2    1    2    0    0  0.00000000000E+00  0.00000000000E+00  0.30780767192E+03  0.11574181202E+04  0.11157379361E+04 0.  0.
        3    1    3    3  502    0 -0.92170020385E+02 -0.22793492729E+03 -0.36557068298E+03  0.44055825743E+03  0.10100000352E+00 0.  1.
       -3    1    3    3    0  502  0.92170020385E+02  0.22793492729E+03  0.67337835491E+03  0.71685986273E+03  0.10100000352E+00 0. -1.
</event>
<event>
 5   0  0.9396660E-03  0.9158377E+03  0.7818609E-02  0.9405997E-01
        1   -1    0    0  501    0  0.00000000000E+00  0.00000000000E+00  0.12133022251E+04  0.12133022251E+04  0.50400001928E-02 0. -1.
       -1   -1    0    0    0  501  0.00000000000E+00  0.00000000000E+00 -0.17282560721E+03  0.17282560729E+03  0.50400001928E-02 0.  1.
    10030    2    1    2    0    0  0.00000000000E+00  0.00000000000E+00  0.10404766179E+04  0.13861278324E+04  0.91583774511E+03 0.  0.
        5    1    3    3  502    0  0.13434192217E+03 -0.33249955274E+03  0.89316484096E+02  0.36959874047E+03  0.46999998093E+01 0.  1.
       -5    1    3    3    0  502 -0.13434192217E+03  0.33249955274E+03  0.95116013376E+03  0.10165290919E+04  0.46999998093E+01 0. -1.
</event>
<event>
 5   0  0.1571895E-02  0.1010686E+04  0.7818609E-02  0.9296901E-01
        2   -1    0    0  501    0  0.00000000000E+00  0.00000000000E+00  0.58529740168E+03  0.58529740169E+03  0.25500000920E-02 0. -1.
       -2   -1    0    0    0  501  0.00000000000E+00  0.00000000000E+00 -0.43631114549E+03  0.43631114550E+03  0.25500000920E-02 0.  1.
    10030    2    1    2    0    0  0.00000000000E+00  0.00000000000E+00  0.14898625619E+03  0.10216085472E+04  0.10106864594E+04 0.  0.
        2    1    3    3  502    0  0.29966195089E+02 -0.13429452539E+03  0.56599755309E+03  0.58248280876E+03  0.25500000920E-02 0. -1.
       -2    1    3    3    0  502 -0.29966195089E+02  0.13429452539E+03 -0.41701129690E+03  0.43912573842E+03  0.25500000920E-02 0.  1.
</event>
<event>
 5   0  0.1000773E-02  0.9239286E+03  0.7818609E-02  0.9396154E-01
       -1   -1    0    0    0  501  0.00000000000E+00  0.00000000000E+00  0.17942447221E+03  0.17942447228E+03  0.50400001928E-02 0. -1.
        1   -1    0    0  501    0  0.00000000000E+00  0.00000000000E+00 -0.11894197569E+04  0.11894197569E+04  0.50400001928E-02 0.  1.
    10030    2    1    2    0    0  0.00000000000E+00  0.00000000000E+00 -0.10099952846E+04  0.13688442291E+04  0.92392859499E+03 0.  0.
        3    1    3    3  502    0 -0.27095143254E+03  0.16821120950E+03 -0.98385497962E+01  0.31907130404E+03  0.10100000352E+00 0. -1.
       -3    1    3    3    0  502  0.27095143254E+03 -0.16821120950E+03 -0.10001567349E+04  0.10497729251E+04  0.10100000352E+00 0.  1.
</event>
<event>
 5   0  0.1663497E-02  0.9797048E+03  0.7818609E-02  0.9331089E-01
       -2   -1    0    0    0  501  0.00000000000E+00  0.00000000000E+00  0.21001963110E+03  0.21001963112E+03  0.25500000920E-02 0.  1.
        2   -1    0    0  501    0  0.00000000000E+00  0.00000000000E+00 -0.11425378772E+04  0.11425378772E+04  0.25500000920E-02 0. -1.
    10030    2    1    2    0    0  0.00000000000E+00  0.00000000000E+00 -0.93251824605E+03  0.13525575083E+04  0.97970481982E+03 0.  0.
        1    1    3    3  502    0 -0.16334062034E+03 -0.20370346678E+03 -0.10384579319E+04  0.10707801534E+04  0.50400001928E-02 0. -1.
       -1    1    3    3    0  502  0.16334062034E+03  0.20370346678E+03  0.10593968586E+03  0.28177735483E+03  0.50400001928E-02 0.  1.
</event>
<event>
 5   0  0.1656859E-02  0.1036398E+04  0.7818609E-02  0.9269501E-01
       -2   -1    0    0    0  501  0.00000000000E+00  0.00000000000E+00  0.17233681449E+03  0.17233681450E+03  0.25500000920E-02 0.  1.
        2   -1    0    0  501    0  0.00000000000E+00  0.00000000000E+00 -0.15581697968E+04  0.15581697968E+04  0.25500000920E-02 0. -1.
    10030    2    1    2    0    0  0.00000000000E+00  0.00000000000E+00 -0.13858329823E+04  0.17305066113E+04  0.10363976442E+04 0.  0.
        4    1    3    3  502    0 -0.17435838501E+03  0.79449953428E+02  0.11101281563E+03  0.22144660679E+03  0.12699999809E+01 0.  1.
       -4    1    3    3    0  502  0.17435838501E+03 -0.79449953428E+02 -0.14968457979E+04  0.15090600045E+04  0.12699999809E+01 0. -1.
</event>
<event>
 5   0  0.1000773E-02  0.9945134E+03  0.7818609E-02  0.9314583E-01
        1   -1    0    0  501    0  0.00000000000E+00  0.00000000000E+00  0.11167054395E+04  0.11167054395E+04  0.50400001928E-02 0.  1.
       -1   -1    0    0    0  501  0.00000000000E+00  0.00000000000E+00 -0.22142294242E+03  0.22142294248E+03  0.50400001928E-02 0. -1.
    10030    2    1    2    0    0  0.00000000000E+00  0.00000000000E+00  0.89528249712E+03  0.13381283820E+04  0.99451335694E+03 0.  0.
        3    1    3    3  502    0  0.45877122203E+03  0.10353460305E+03  0.66490580151E+03  0.81442629088E+03  0.10100000352E+00 0.  1.
       -3    1    3    3    0  502 -0.45877122203E+03 -0.10353460305E+03  0.23037669561E+03  0.52370209114E+03  0.10100000352E+00 0. -1.
</event>
<event>
 5   0  0.1598986E-02  0.1028179E+04  0.7818609E-02  0.9278167E-01
        2   -1    0    0  501    0  0.00000000000E+00  0.00000000000E+00  0.15325114325E+04  0.15325114325E+04  0.25500000920E-02 0.  1.
       -2   -1    0    0    0  501  0.00000000000E+00  0.00000000000E+00 -0.17245415587E+03  0.17245415589E+03  0.25500000920E-02 0. -1.
    10030    2    1    2    0    0  0.00000000000E+00  0.00000000000E+00  0.13600572766E+04  0.17049655884E+04  0.10281789056E+04 0.  0.
        3    1    3    3  502    0 -0.15267414410E+03 -0.48703574943E+03  0.78190899043E+03  0.93375312316E+03  0.10100000352E+00 0. -1.
       -3    1    3    3    0  502  0.15267414410E+03  0.48703574943E+03  0.57814828622E+03  0.77121246525E+03  0.10100000352E+00 0.  1.
</event>
<event>
 5   0  0.1598986E-02  0.1012045E+04  0.7818609E-02  0.9295431E-01
       -2   -1    0    0    0  501  0.00000000000E+00  0.00000000000E+00  0.25229452678E+03  0.25229452679E+03  0.25500000920E-02 0.  1.
        2   -1    0    0  501    0  0.00000000000E+00  0.00000000000E+00 -0.10149208127E+04  0.10149208127E+04  0.25500000920E-02 0. -1.
    10030    2    1    2    0    0  0.00000000000E+00  0.00000000000E+00 -0.76262628596E+03  0.12672153395E+04  0.10120453867E+04 0.  0.
        3    1    3    3  502    0  0.22654803549E+03  0.21344893659E+03  0.11824629953E+03  0.33296645247E+03  0.10100000352E+00 0.  1.
       -3    1    3    3    0  502 -0.22654803549E+03 -0.21344893659E+03 -0.88087258549E+03  0.93424888706E+03  0.10100000352E+00 0. -1.
</event>
<event>
 5   0  0.9759443E-03  0.9978080E+03  0.7818609E-02  0.9310952E-01
        1   -1    0    0  501    0  0.00000000000E+00  0.00000000000E+00  0.63152758864E+03  0.63152758866E+03  0.50400001928E-02 0.  1.
       -1   -1    0    0    0  501  0.00000000000E+00  0.00000000000E+00 -0.39413197182E+03  0.39413197186E+03  0.50400001928E-02 0. -1.
    10030    2    1    2    0    0  0.00000000000E+00  0.00000000000E+00  0.23739561682E+03  0.10256595605E+04  0.99780802522E+03 0.  0.
        2    1    3    3  502    0  0.11531964605E+03  0.48386243861E+03  0.79103369242E+02  0.50366538822E+03  0.25500000920E-02 0.  1.
       -2    1    3    3    0  502 -0.11531964605E+03 -0.48386243861E+03  0.15829224757E+03  0.52199417229E+03  0.25500000920E-02 0. -1.
</event>
<event>
 5   0  0.9396660E-03  0.1010900E+04  0.7818609E-02  0.9296670E-01
        1   -1    0    0  501    0  0.00000000000E+00  0.00000000000E+00  0.36263556108E+03  0.36263556111E+03  0.50400001928E-02 0.  1.
       -1   -1    0    0    0  501  0.00000000000E+00  0.00000000000E+00 -0.70450879510E+03  0.70450879512E+03  0.50400001928E-02 0. -1.
    10030    2    1    2    0    0  0.00000000000E+00  0.00000000000E+00 -0.34187323402E+03  0.10671443562E+04  0.10109004743E+04 0.  0.
        5    1    3    3  502    0  0.26524210514E+03  0.86305963950E+02 -0.61587965539E+03  0.67611532572E+03  0.46999998093E+01 0. -1.
       -5    1    3    3    0  502 -0.26524210514E+03 -0.86305963950E+02  0.27400642136E+03  0.39102903051E+03  0.46999998093E+01 0.  1.
</event>
<event>
 5   0  0.9507815E-03  0.1070191E+04  0.7818609E-02  0.9234743E-01
        1   -1    0    0  501    0  0.00000000000E+00  0.00000000000E+00  0.14112701001E+04  0.14112701001E+04  0.50400001928E-02 0. -1.
       -1   -1    0    0    0  501  0.00000000000E+00  0.00000000000E+00 -0.20288627214E+03  0.20288627220E+03  0.50400001928E-02 0.  1.
    10030    2    1    2    0    0  0.00000000000E+00  0.00000000000E+00  0.12083838280E+04  0.16141563723E+04  0.10701912533E+04 0.  0.
        1    1    3    3  502    0 -0.14929472272E+03 -0.48132659760E+03  0.87552915949E+03  0.10102056805E+04  0.50400001928E-02 0. -1.
       -1    1    3    3    0  502  0.14929472272E+03  0.48132659760E+03  0.33285466847E+03  0.60395069181E+03  0.50400001928E-02 0.  1.
</event>
<event>
 5   0  0.1617721E-02  0.5295815E+03  0.7818609E-02  0.1006334E+00
        2   -1    0    0  501    0  0.00000000000E+00  0.00000000000E+00  0.55254850826E+02  0.55254850885E+02  0.25500000920E-02 0.  1.
       -2   -1    0    0    0  501  0.00000000000E+00  0.00000000000E+00 -0.12689229845E+04  0.12689229845E+04  0.25500000920E-02 0. -1.
    10030    2    1    2    0    0  0.00000000000E+00  0.00000000000E+00 -0.12136681337E+04  0.13241778354E+04  0.52958153390E+03 0.  0.
        5    1    3    3  502    0 -0.18944155051E+03 -0.15396975104E+03 -0.86301792843E+03  0.89689286991E+03  0.46999998093E+01 0. -1.
       -5    1    3    3    0  502  0.18944155051E+03  0.15396975104E+03 -0.35065020529E+03  0.42728496552E+03  0.46999998093E+01 0.  1.
</event>
<event>
 5   0  0.1598986E-02  0.1003926E+04  0.7818609E-02  0.9304249E-01
       -2   -1    0    0    0  501  0.00000000000E+00  0.00000000000E+00  0.14334161621E+03  0.14334161623E+03  0.25500000920E-02 0.  1.
        2   -1    0    0  501    0  0.00000000000E+00  0.00000000000E+00 -0.17578075114E+04  0.17578075114E+04  0.25500000920E-02 0. -1.
    10030    2    1    2    0    0  0.00000000000E+00  0.00000000000E+00 -0.16144658952E+04  0.19011491276E+04  0.10039262317E+04 0.  0.
        3    1    3    3  502    0 -0.34008298912E+03 -0.16449164121E+03 -0.14331706448E+04  0.14821241671E+04  0.10100000352E+00 0. -1.
       -3    1    3    3    0  502  0.34008298912E+03  0.16449164121E+03 -0.18129525043E+03  0.41902496052E+03  0.10100000352E+00 0.  1.
</event>
<event>
 5   0  0.1656859E-02  0.8802125E+03  0.7818609E-02  0.9450661E-01
        2   -1    0    0  501    0  0.00000000000E+00  0.00000000000E+00  0.10091354616E+04  0.10091354616E+04  0.25500000920E-02 0.  1.
       -2   -1    0    0    0  501  0.00000000000E+00  0.00000000000E+00 -0.19194003266E+03  0.19194003268E+03  0.25500000920E-02 0. -1.
    10030    2    1    2    0    0  0.00000000000E+00  0.00000000000E+00  0.81719542897E+03  0.12010754943E+04  0.88021245954E+03 0.  0.
        4    1    3    3  502    0 -0.13177047474E+03 -0.41868093857E+03  0.45249006230E+03  0.63040150358E+03  0.12699999809E+01 0.  1.
       -4    1    3    3    0  502  0.13177047474E+03  0.41868093857E+03  0.36470536667E+03  0.57067399074E+03  0.12699999809E+01 0. -1.
</event>
<event>
 5   0  0.1598986E-02  0.9934597E+03  0.7818609E-02  0.9315747E-01
       -2   -1    0    0    0  501  0.00000000000E+00  0.00000000000E+00  0.38647126425E+03  0.38647126426E+03  0.25500000920E-02 0.  1.
        2   -1    0    0  501    0  0.00000000000E+00  0.00000000000E+00 -0.63844468082E+03  0.63844468082E+03  0.25500000920E-02 0. -1.
    10030    2    1    2    0    0  0.00000000000E+00  0.00000000000E+00 -0.25197341657E+03  0.10249159451E+04  0.99345965788E+03 0.  0.
        3    1    3    3  502    0  0.37908268118E+02 -0.36046237162E+03 -0.47640367613E+03  0.59860724267E+03  0.10100000352E+00 0. -1.
       -3    1    3    3    0  502 -0.37908268118E+02  0.36046237162E+03  0.22443025957E+03  0.42630870241E+03  0.10100000352E+00 0.  1.
</event>
<event>
 5   0  0.9396660E-03  0.1013772E+04  0.7818609E-02  0.9293568E-01
        1   -1    0    0  501    0  0.00000000000E+00  0.00000000000E+00  0.72297301207E+03  0.72297301209E+03  0.50400001928E-02 0.  1.
       -1   -1    0    0    0  501  0.00000000000E+00  0.00000000000E+00 -0.35538422294E+03  0.35538422298E+03  0.50400001928E-02 0. -1.
    10030    2    1    2    0    0  0.00000000000E+00  0.00000000000E+00  0.36758878913E+03  0.10783572351E+04  0.10137715761E+04 0.  0.
        5    1    3    3  502    0  0.16895090276E+02  0.33038984046E+03  0.59227530668E+03  0.67842097525E+03  0.46999998093E+01 0.  1.
       -5    1    3    3    0  502 -0.16895090276E+02 -0.33038984046E+03 -0.22468651755E+03  0.39993625982E+03  0.46999998093E+01 0. -1.
</event>
<event>
 5   0  0.9471140E-03  0.9808444E+03  0.7818609E-02  0.9329807E-01
       -1   -1    0    0    0  501  0.00000000000E+00  0.00000000000E+00  0.18879867839E+03  0.18879867846E+03  0.50400001928E-02 0. -1.
        1   -1    0    0  501    0  0.00000000000E+00  0.00000000000E+00 -0.12739175380E+04  0.12739175380E+04  0.50400001928E-02 0.  1.
    10030    2    1    2    0    0  0.00000000000E+00  0.00000000000E+00 -0.10851188596E+04  0.14627162165E+04  0.98084442723E+03 0.  0.
        4    1    3    3  502    0 -0.40772997489E+03  0.17688683429E+03 -0.85172518648E+03  0.96071332392E+03  0.12699999809E+01 0.  1.
       -4    1    3    3    0  502  0.40772997489E+03 -0.17688683429E+03 -0.23339367312E+03  0.50200289254E+03  0.12699999809E+01 0. -1.
</event>
<event>
 5   0  0.9396660E-03  0.1026284E+04  0.7818609E-02  0.9280177E-01
       -1   -1    0    0    0  501  0.00000000000E+00  0.00000000000E+00  0.58167644671E+03  0.58167644674E+03  0.50400001928E-02 0. -1.
        1   -1    0    0  501    0  0.00000000000E+00  0.00000000000E+00 -0.45268266174E+03  0.45268266177E+03  0.50400001928E-02 0.  1.
    10030    2    1    2    0    0  0.00000000000E+00  0.00000000000E+00  0.12899378498E+03  0.10343591085E+04  0.10262842534E+04 0.  0.
        5    1    3    3  502    0  0.13930290357E+03 -0.30166451498E+03 -0.32958592495E+03  0.46803392021E+03  0.46999998093E+01 0.  1.
       -5    1    3    3    0  502 -0.13930290357E+03  0.30166451498E+03  0.45857970993E+03  0.56632518829E+03  0.46999998093E+01 0. -1.
</event>
<event>
 5   0  0.9471140E-03  0.8157810E+03  0.7818609E-02  0.9537452E-01
        1   -1    0    0  501    0  0.00000000000E+00  0.00000000000E+00  0.65269978283E+03  0.65269978285E+03  0.50400001928E-02 0.  1.
       -1   -1    0    0    0  501  0.00000000000E+00  0.00000000000E+00 -0.25490229142E+03  0.25490229147E+03  0.50400001928E-02 0. -1.
    10030    2    1    2    0    0  0.00000000000E+00  0.00000000000E+00  0.39779749141E+03  0.90760207432E+03  0.81578102524E+03 0.  0.
        4    1    3    3  502    0  0.41171347473E+02  0.62112835156E+02  0.64506002112E+03  0.64935131315E+03  0.12699999809E+01 0.  1.
       -4    1    3    3    0  502 -0.41171347473E+02 -0.62112835156E+02 -0.24726252972E+03  0.25825076117E+03  0.12699999809E+01 0. -1.
</event>
<event>
 5   0  0.1598986E-02  0.1005562E+04  0.7818609E-02  0.9302465E-01
       -2   -1    0    0    0  501  0.00000000000E+00  0.00000000000E+00  0.15191816361E+03  0.15191816363E+03  0.25500000920E-02 0.  1.
        2   -1    0    0  501    0  0.00000000000E+00  0.00000000000E+00 -0.16639799129E+04  0.16639799129E+04  0.25500000920E-02 0. -1.
    10030    2    1    2    0    0  0.00000000000E+00  0.00000000000E+00 -0.15120617493E+04  0.18158980765E+04  0.10055620770E+04 0.  0.
        3    1    3    3  502    0  0.25998151052E+03  0.78649068346E+01 -0.15330444924E+04  0.15549526258E+04  0.10100000352E+00 0. -1.
       -3    1    3    3    0  502 -0.25998151052E+03 -0.78649068346E+01  0.20982743070E+02  0.26094545077E+03  0.10100000352E+00 0.  1.
</event>
<event>
 5   0  0.1000773E-02  0.1022599E+04  0.7818609E-02  0.9284100E-01
       -1   -1    0    0    0  501  0.00000000000E+00  0.00000000000E+00  0.42864862197E+03  0.42864862200E+03  0.50400001928E-02 0. -1.
        1   -1    0    0  501    0  0.00000000000E+00  0.00000000000E+00 -0.60988697389E+03  0.60988697391E+03  0.50400001928E-02 0.  1.
    10030    2    1    2    0    0  0.00000000000E+00  0.00000000000E+00 -0.18123835192E+03  0.10385355959E+04  0.10225990631E+04 0.  0.
        3    1    3    3  502    0 -0.20978627144E+03  0.64277876234E+01  0.38288236598E+03  0.43663544579E+03  0.10100000352E+00 0. -1.
       -3    1    3    3    0  502  0.20978627144E+03 -0.64277876234E+01 -0.56412071791E+03  0.60190015012E+03  0.10100000352E+00 0.  1.
</event>
<event>
 5   0  0.1617721E-02  0.9540895E+03  0.7818609E-02  0.9360383E-01
        2   -1    0    0  501    0  0.00000000000E+00  0.00000000000E+00  0.54107799130E+03  0.54107799131E+03  0.25500000920E-02 0.  1.
       -2   -1    0    0    0  501  0.00000000000E+00  0.00000000000E+00 -0.42058948327E+03  0.42058948328E+03  0.25500000920E-02 0. -1.
    10030    2    1    2    0    0  0.00000000000E+00  0.00000000000E+00  0.12048850803E+03  0.96166747459E+03  0.95408954041E+03 0.  0.
        5    1    3    3  502    0  0.29436510594E+03  0.11414447431E+03 -0.30018485996E+03  0.43567512755E+03  0.46999998093E+01 0. -1.
       -5    1    3    3    0  502 -0.29436510594E+03 -0.11414447431E+03  0.42067336799E+03  0.52599234705E+03  0.46999998093E+01 0.  1.
</event>
<event>
 5   0  0.1598986E-02  0.1011985E+04  0.7818609E-02  0.9295496E-01
        2   -1    0    0  501    0  0.00000000000E+00  0.00000000000E+00  0.35519074494E+03  0.35519074495E+03  0.25500000920E-02 0.  1.
       -2   -1    0    0    0  501  0.00000000000E+00  0.00000000000E+00 -0.72081989340E+03  0.72081989340E+03  0.25500000920E-02 0. -1.
    10030    2    1    2    0    0  0.00000000000E+00  0.00000000000E+00 -0.36562914846E+03  0.10760106383E+04  0.10119852863E+04 0.  0.
        3    1    3    3  502    0  0.22438566521E+03  0.42285273977E+03 -0.85062831223E+01  0.47877524302E+03  0.10100000352E+00 0.  1.
       -3    1    3    3    0  502 -0.22438566521E+03 -0.42285273977E+03 -0.35712286534E+03  0.59723539532E+03  0.10100000352E+00 0. -1.
</event>
<event>
 5   0  0.1000773E-02  0.9932240E+03  0.7818609E-02  0.9316008E-01
       -1   -1    0    0    0  501  0.00000000000E+00  0.00000000000E+00  0.12500176644E+03  0.12500176654E+03  0.50400001928E-02 0.  1.
        1   -1    0    0  501    0  0.00000000000E+00  0.00000000000E+00 -0.19729598776E+04  0.19729598776E+04  0.50400001928E-02 0. -1.
    10030    2    1    2    0    0  0.00000000000E+00  0.00000000000E+00 -0.18479581112E+04  0.20979616442E+04  0.99322398265E+03 0.  0.
        3    1    3    3  502    0  0.27338450015E+03 -0.37843104274E+03 -0.12816609158E+04  0.13640395347E+04  0.10100000352E+00 0. -1.
       -3    1    3    3    0  502 -0.27338450015E+03  0.37843104274E+03 -0.56629719542E+03  0.73392210947E+03  0.10100000352E+00 0.  1.
</event>
<event>
 5   0  0.1656859E-02  0.9444103E+03  0.7818609E-02  0.9371708E-01
       -2   -1    0    0    0  501  0.00000000000E+00  0.00000000000E+00  0.67388343133E+03  0.67388343133E+03  0.25500000920E-02 0. -1.
        2   -1    0    0  501    0  0.00000000000E+00  0.00000000000E+00 -0.33088467362E+03  0.33088467363E+03  0.25500000920E-02 0.  1.
    10030    2    1    2    0    0  0.00000000000E+00  0.00000000000E+00  0.34299875771E+03  0.10047681050E+04  0.94441029059E+03 0.  0.
        4    1    3    3  502    0  0.44797973149E+03 -0.95565326874E+02  0.49462226914E+02  0.46072410000E+03  0.12699999809E+01 0. -1.
       -4    1    3    3    0  502 -0.44797973149E+03  0.95565326874E+02  0.29353653079E+03  0.54404400497E+03  0.12699999809E+01 0.  1.
</event>
<event>
 5   0  0.6314750E-03  0.1023696E+04  0.7818609E-02  0.9282931E-01
        4   -1    0    0  501    0  0.00000000000E+00  0.00000000000E+00  0.26208744841E+03  0.26209052542E+03  0.12699999809E+01 0. -1.
       -4   -1    0    0    0  501  0.00000000000E+00  0.00000000000E+00 -0.99961276659E+03  0.99961357335E+03  0.12699999809E+01 0.  1.
    10030    2    1    2    0    0  0.00000000000E+00  0.00000000000E+00 -0.73752531818E+03  0.12617040988E+04  0.10236960671E+04 0.  0.
        2    1    3    3  502    0 -0.17454639886E+03  0.45518855455E+03 -0.56099036086E+03  0.74321817156E+03  0.25500000920E-02 0. -1.
       -2    1    3    3    0  502  0.17454639886E+03 -0.45518855455E+03 -0.17653495732E+03  0.51848592721E+03  0.25500000920E-02 0.  1.
</event>
<event>
 5   0  0.9759443E-03  0.1293313E+04  0.7818609E-02  0.9034885E-01
       -1   -1    0    0    0  501  0.00000000000E+00  0.00000000000E+00  0.52063769211E+03  0.52063769213E+03  0.50400001928E-02 0. -1.
        1   -1    0    0  501    0  0.00000000000E+00  0.00000000000E+00 -0.80317791440E+03  0.80317791442E+03  0.50400001928E-02 0.  1.
    10030    2    1    2    0    0  0.00000000000E+00  0.00000000000E+00 -0.28254022229E+03  0.13238156066E+04  0.12933131032E+04 0.  0.
        2    1    3    3  502    0 -0.48980579453E+03  0.49412847205E+01  0.29086037741E+03  0.56967876194E+03  0.25500000920E-02 0. -1.
       -2    1    3    3    0  502  0.48980579453E+03 -0.49412847205E+01 -0.57340059971E+03  0.75413684461E+03  0.25500000920E-02 0.  1.
</event>
<event>
 5   0  0.9471140E-03  0.9861586E+03  0.7818609E-02  0.9323857E-01
       -1   -1    0    0    0  501  0.00000000000E+00  0.00000000000E+00  0.11607741429E+03  0.11607741440E+03  0.50400001928E-02 0. -1.
        1   -1    0    0  501    0  0.00000000000E+00  0.00000000000E+00 -0.20945261662E+04  0.20945261662E+04  0.50400001928E-02 0.  1.
    10030    2    1    2    0    0  0.00000000000E+00  0.00000000000E+00 -0.19784487519E+04  0.22106035806E+04  0.98615857075E+03 0.  0.
        4    1    3    3  502    0 -0.67329943552E+01  0.38254090156E+03 -0.29199896888E+03  0.48129812518E+03  0.12699999809E+01 0. -1.
       -4    1    3    3    0  502  0.67329943552E+01 -0.38254090156E+03 -0.16864497830E+04  0.17293054554E+04  0.12699999809E+01 0.  1.
</event>
<event>
 5   0  0.1000773E-02  0.1035737E+04  0.7818609E-02  0.9270194E-01
        1   -1    0    0  501    0  0.00000000000E+00  0.00000000000E+00  0.29204206207E+03  0.29204206211E+03  0.50400001928E-02 0.  1.
       -1   -1    0    0    0  501  0.00000000000E+00  0.00000000000E+00 -0.91831954315E+03  0.91831954316E+03  0.50400001928E-02 0. -1.
    10030    2    1    2    0    0  0.00000000000E+00  0.00000000000E+00 -0.62627748108E+03  0.12103616053E+04  0.10357372892E+04 0.  0.
        3    1    3    3  502    0  0.14743753675E+03 -0.22677430679E+03 -0.82920921167E+03  0.87221117877E+03  0.10100000352E+00 0. -1.
       -3    1    3    3    0  502 -0.14743753675E+03  0.22677430679E+03  0.20293173059E+03  0.33815042650E+03  0.10100000352E+00 0.  1.
</event>
<event>
 5   0  0.9396660E-03  0.1016054E+04  0.7818609E-02  0.9291111E-01
        1   -1    0    0  501    0  0.00000000000E+00  0.00000000000E+00  0.18198262092E+03  0.18198262099E+03  0.50400001928E-02 0.  1.
       -1   -1    0    0    0  501  0.00000000000E+00  0.00000000000E+00 -0.14182188756E+04  0.14182188756E+04  0.50400001928E-02 0. -1.
    10030    2    1    2    0    0  0.00000000000E+00  0.00000000000E+00 -0.12362362546E+04  0.16002014966E+04  0.10160535184E+04 0.  0.
        5    1    3    3  502    0 -0.29920177899E+03 -0.44977525692E+02 -0.12608014753E+04  0.12966060051E+04  0.46999998093E+01 0. -1.
       -5    1    3    3    0  502  0.29920177899E+03  0.44977525692E+02  0.24565220655E+02  0.30359549145E+03  0.46999998093E+01 0.  1.
</event>
<event>
 5   0  0.1598986E-02  0.9966727E+03  0.7818609E-02  0.9312202E-01
       -2   -1    0    0    0  501  0.00000000000E+00  0.00000000000E+00  0.12202658627E+03  0.12202658630E+03  0.25500000920E-02 0.  1.
        2   -1    0    0  501    0  0.00000000000E+00  0.00000000000E+00 -0.20351230023E+04  0.20351230023E+04  0.25500000920E-02 0. -1.
    10030    2    1    2    0    0  0.00000000000E+00  0.00000000000E+00 -0.19130964160E+04  0.21571495886E+04  0.99667268979E+03 0.  0.
        3    1    3    3  502    0 -0.43910061169E+03  0.70671189126E+02 -0.47000065469E+03  0.64707371277E+03  0.10100000352E+00 0.  1.
       -3    1    3    3    0  502  0.43910061169E+03 -0.70671189126E+02 -0.14430957613E+04  0.15100758758E+04  0.10100000352E+00 0. -1.
</event>
<event>
 5   0  0.9507815E-03  0.9701067E+03  0.7818609E-02  0.9341953E-01
       -1   -1    0    0    0  501  0.00000000000E+00  0.00000000000E+00  0.27105933614E+03  0.27105933618E+03  0.50400001928E-02 0. -1.
        1   -1    0    0  501    0  0.00000000000E+00  0.00000000000E+00 -0.86798991450E+03  0.86798991451E+03  0.50400001928E-02 0.  1.
    10030    2    1    2    0    0  0.00000000000E+00  0.00000000000E+00 -0.59693057836E+03  0.11390492507E+04  0.97010673646E+03 0.  0.
        1    1    3    3  502    0 -0.35924660307E+03  0.24980900527E+02 -0.68000859897E+03  0.76947635566E+03  0.50400001928E-02 0.  1.
       -1    1    3    3    0  502  0.35924660307E+03 -0.24980900527E+02  0.83078020612E+02  0.36957289504E+03  0.50400001928E-02 0. -1.
</event>
<event>
 5   0  0.1663497E-02  0.9997708E+03  0.7818609E-02  0.9308796E-01
       -2   -1    0    0    0  501  0.00000000000E+00  0.00000000000E+00  0.67331824320E+03  0.67331824321E+03  0.25500000920E-02 0. -1.
        2   -1    0    0  501    0  0.00000000000E+00  0.00000000000E+00 -0.37112527548E+03  0.37112527549E+03  0.25500000920E-02 0.  1.
    10030    2    1    2    0    0  0.00000000000E+00  0.00000000000E+00  0.30219296773E+03  0.10444435187E+04  0.99977081074E+03 0.  0.
        1    1    3    3  502    0 -0.58335208549E+02  0.34715485251E+03 -0.21967903854E+03  0.41494381327E+03  0.50400001928E-02 0.  1.
       -1    1    3    3    0  502  0.58335208549E+02 -0.34715485251E+03  0.52187200626E+03  0.62949970542E+03  0.50400001928E-02 0. -1.
</event>
<event>
 5   0  0.1000773E-02  0.9977331E+03  0.7818609E-02  0.9311035E-01
        1   -1    0    0  501    0  0.00000000000E+00  0.00000000000E+00  0.12572527877E+04  0.12572527878E+04  0.50400001928E-02 0. -1.
       -1   -1    0    0    0  501  0.00000000000E+00  0.00000000000E+00 -0.19794575960E+03  0.19794575966E+03  0.50400001928E-02 0.  1.
    10030    2    1    2    0    0  0.00000000000E+00  0.00000000000E+00  0.10593070282E+04  0.14551985474E+04  0.99773314694E+03 0.  0.
        3    1    3    3  502    0  0.47524943483E+03  0.15805497333E+02  0.30963668610E+03  0.56743874262E+03  0.10100000352E+00 0. -1.
       -3    1    3    3    0  502 -0.47524943483E+03 -0.15805497333E+02  0.74967034205E+03  0.88775980479E+03  0.10100000352E+00 0.  1.
</event>
<event>
 5   0  0.9759443E-03  0.1152299E+04  0.7818609E-02  0.9155665E-01
       -1   -1    0    0    0  501  0.00000000000E+00  0.00000000000E+00  0.40702738797E+03  0.40702738800E+03  0.50400001928E-02 0. -1.
        1   -1    0    0  501    0  0.00000000000E+00  0.00000000000E+00 -0.81554276756E+03  0.81554276758E+03  0.50400001928E-02 0.  1.
    10030    2    1    2    0    0  0.00000000000E+00  0.00000000000E+00 -0.40851537959E+03  0.12225701556E+04  0.11522989933E+04 0.  0.
        2    1    3    3  502    0  0.22128978179E+02  0.36946467914E+03  0.26420513196E+03  0.45475069276E+03  0.25500000920E-02 0. -1.
       -2    1    3    3    0  502 -0.22128978179E+02 -0.36946467914E+03 -0.67272051155E+03  0.76781946281E+03  0.25500000920E-02 0.  1.
</event>
<event>
 5   0  0.9396660E-03  0.1001154E+04  0.7818609E-02  0.9307280E-01
       -1   -1    0    0    0  501  0.00000000000E+00  0.00000000000E+00  0.95342335351E+03  0.95342335352E+03  0.50400001928E-02 0. -1.
        1   -1    0    0  501    0  0.00000000000E+00  0.00000000000E+00 -0.26281841675E+03  0.26281841679E+03  0.50400001928E-02 0.  1.
    10030    2    1    2    0    0  0.00000000000E+00  0.00000000000E+00  0.69060493676E+03  0.12162417703E+04  0.10011537670E+04 0.  0.
        5    1    3    3  502    0  0.15112976304E+03 -0.47395167474E+03  0.27782981638E+03  0.56980864519E+03  0.46999998093E+01 0.  1.
       -5    1    3    3    0  502 -0.15112976304E+03  0.47395167474E+03  0.41277512038E+03  0.64643312513E+03  0.46999998093E+01 0. -1.
</event>
<event>
 5   0  0.1617721E-02  0.9694588E+03  0.7818609E-02  0.9342691E-01
        2   -1    0    0  501    0  0.00000000000E+00  0.00000000000E+00  0.23688089926E+04  0.23688089926E+04  0.25500000920E-02 0. -1.
       -2   -1    0    0    0  501  0.00000000000E+00  0.00000000000E+00 -0.99190185779E+02  0.99190185811E+02  0.25500000920E-02 0.  1.
    10030    2    1    2    0    0  0.00000000000E+00  0.00000000000E+00  0.22696188068E+04  0.24679991784E+04  0.96945882654E+03 0.  0.
        5    1    3    3  502    0  0.92949549189E+02  0.26809816105E+03  0.21352088026E+04  0.21539858317E+04  0.46999998093E+01 0. -1.
       -5    1    3    3    0  502 -0.92949549189E+02 -0.26809816105E+03  0.13441000421E+03  0.31401334666E+03  0.46999998093E+01 0.  1.
</event>
<event>
 5   0  0.1617721E-02  0.1005449E+04  0.7818609E-02  0.9302589E-01
       -2   -1    0    0    0  501  0.00000000000E+00  0.00000000000E+00  0.27066455739E+03  0.27066455740E+03  0.25500000920E-02 0.  1.
        2   -1    0    0  501    0  0.00000000000E+00  0.00000000000E+00 -0.93374538154E+03  0.93374538154E+03  0.25500000920E-02 0. -1.
    10030    2    1    2    0    0  0.00000000000E+00  0.00000000000E+00 -0.66308082414E+03  0.12044099389E+04  0.10054487166E+04 0.  0.
        5    1    3    3  502    0  0.15937798368E+03  0.40494684814E+03 -0.63298452232E+03  0.76816325543E+03  0.46999998093E+01 0. -1.
       -5    1    3    3    0  502 -0.15937798368E+03 -0.40494684814E+03 -0.30096301822E+02  0.43624668351E+03  0.46999998093E+01 0.  1.
</event>
<event>
 5   0  0.1617721E-02  0.7447785E+03  0.7818609E-02  0.9643578E-01
       -2   -1    0    0    0  501  0.00000000000E+00  0.00000000000E+00  0.84920412731E+02  0.84920412769E+02  0.25500000920E-02 0. -1.
        2   -1    0    0  501    0  0.00000000000E+00  0.00000000000E+00 -0.16329847485E+04  0.16329847485E+04  0.25500000920E-02 0.  1.
    10030    2    1    2    0    0  0.00000000000E+00  0.00000000000E+00 -0.15480643358E+04  0.17179051613E+04  0.74477846065E+03 0.  0.
        5    1    3    3  502    0  0.28872035871E+03 -0.70528676754E+02 -0.12914404419E+04  0.13252072460E+04  0.46999998093E+01 0.  1.
       -5    1    3    3    0  502 -0.28872035871E+03  0.70528676754E+02 -0.25662389385E+03  0.39269791529E+03  0.46999998093E+01 0. -1.
</event>
<event>
 5   0  0.9471140E-03  0.1118966E+04  0.7818609E-02  0.9186901E-01
        1   -1    0    0  501    0  0.00000000000E+00  0.00000000000E+00  0.88240010886E+03  0.88240010887E+03  0.50400001928E-02 0. -1.
       -1   -1    0    0    0  501  0.00000000000E+00  0.00000000000E+00 -0.35473820845E+03  0.35473820849E+03  0.50400001928E-02 0.  1.
    10030    2    1    2    0    0  0.00000000000E+00  0.00000000000E+00  0.52766190041E+03  0.12371383174E+04  0.11189656541E+04 0.  0.
        4    1    3    3  502    0  0.70377869510E+01  0.29482358787E+03 -0.26182640034E+03  0.39436677754E+03  0.12699999809E+01 0.  1.
       -4    1    3    3    0  502 -0.70377869510E+01 -0.29482358787E+03  0.78948830075E+03  0.84277153982E+03  0.12699999809E+01 0. -1.
</event>
<event>
 5   0  0.1571895E-02  0.9736976E+03  0.7818609E-02  0.9337873E-01
        2   -1    0    0  501    0  0.00000000000E+00  0.00000000000E+00  0.29309450796E+03  0.29309450798E+03  0.25500000920E-02 0.  1.
       -2   -1    0    0    0  501  0.00000000000E+00  0.00000000000E+00 -0.80868719059E+03  0.80868719060E+03  0.25500000920E-02 0. -1.
    10030    2    1    2    0    0  0.00000000000E+00  0.00000000000E+00 -0.51559268263E+03  0.11017816986E+04  0.97369764143E+03 0.  0.
        2    1    3    3  502    0 -0.21864443957E+03  0.37524966129E+02 -0.74817186041E+03  0.78036827636E+03  0.25500000920E-02 0. -1.
       -2    1    3    3    0  502  0.21864443957E+03 -0.37524966129E+02  0.23257917778E+03  0.32141342221E+03  0.25500000920E-02 0.  1.
</event>
<event>
 5   0  0.1598986E-02  0.9910687E+03  0.7818609E-02  0.9318395E-01
        2   -1    0    0  501    0  0.00000000000E+00  0.00000000000E+00  0.30800514051E+03  0.30800514052E+03  0.25500000920E-02 0. -1.
       -2   -1    0    0    0  501  0.00000000000E+00  0.00000000000E+00 -0.79724083971E+03  0.79724083971E+03  0.25500000920E-02 0.  1.
    10030    2    1    2    0    0  0.00000000000E+00  0.00000000000E+00 -0.48923569920E+03  0.11052459802E+04  0.99106866939E+03 0.  0.
        3    1    3    3  502    0  0.42131502160E+03 -0.95264334328E+02  0.26201960946E+02  0.43274495234E+03  0.10100000352E+00 0. -1.
       -3    1    3    3    0  502 -0.42131502160E+03  0.95264334328E+02 -0.51543766014E+03  0.67250102789E+03  0.10100000352E+00 0.  1.
</event>
<event>
 5   0  0.9507815E-03  0.9383016E+03  0.7818609E-02  0.9378930E-01
       -1   -1    0    0    0  501  0.00000000000E+00  0.00000000000E+00  0.83297399722E+03  0.83297399723E+03  0.50400001928E-02 0. -1.
        1   -1    0    0  501    0  0.00000000000E+00  0.00000000000E+00 -0.26423689991E+03  0.26423689996E+03  0.50400001928E-02 0.  1.
    10030    2    1    2    0    0  0.00000000000E+00  0.00000000000E+00  0.56873709730E+03  0.10972108972E+04  0.93830158641E+03 0.  0.
        1    1    3    3  502    0  0.36560675879E+03 -0.21200069399E+03  0.52255590317E+03  0.67206939247E+03  0.50400001928E-02 0. -1.
       -1    1    3    3    0  502 -0.36560675879E+03  0.21200069399E+03  0.46181194130E+02  0.42514150473E+03  0.50400001928E-02 0.  1.
</event>
<event>
 5   0  0.1598986E-02  0.9951786E+03  0.7818609E-02  0.9313849E-01
       -2   -1    0    0    0  501  0.00000000000E+00  0.00000000000E+00  0.17443657044E+03  0.17443657046E+03  0.25500000920E-02 0.  1.
        2   -1    0    0  501    0  0.00000000000E+00  0.00000000000E+00 -0.14193991619E+04  0.14193991619E+04  0.25500000920E-02 0. -1.
    10030    2    1    2    0    0  0.00000000000E+00  0.00000000000E+00 -0.12449625915E+04  0.15938357324E+04  0.99517862098E+03 0.  0.
        3    1    3    3  502    0 -0.45854186393E+03 -0.43018923274E+02 -0.92416916368E+03  0.10325695725E+04  0.10100000352E+00 0. -1.
       -3    1    3    3    0  502  0.45854186393E+03  0.43018923274E+02 -0.32079342782E+03  0.56126615992E+03  0.10100000352E+00 0.  1.
</event>
<event>
 5   0  0.9471140E-03  0.1005603E+04  0.7818609E-02  0.9302420E-01
       -1   -1    0    0    0  501  0.00000000000E+00  0.00000000000E+00  0.30065047921E+03  0.30065047925E+03  0.50400001928E-02 0. -1.
        1   -1    0    0  501    0  0.00000000000E+00  0.00000000000E+00 -0.84087539264E+03  0.84087539266E+03  0.50400001928E-02 0.  1.
    10030    2    1    2    0    0  0.00000000000E+00  0.00000000000E+00 -0.54022491343E+03  0.11415258719E+04  0.10056034801E+04 0.  0.
        4    1    3    3  502    0  0.39364735379E+03 -0.21903386459E+03 -0.16602119258E+02  0.45078965854E+03  0.12699999809E+01 0. -1.
       -4    1    3    3    0  502 -0.39364735379E+03  0.21903386459E+03 -0.52362279417E+03  0.69073621337E+03  0.12699999809E+01 0.  1.
</event>
<event>
 5   0  0.1617721E-02  0.7679863E+03  0.7818609E-02  0.9607548E-01
        2   -1    0    0  501    0  0.00000000000E+00  0.00000000000E+00  0.11337463908E+04  0.11337463908E+04  0.25500000920E-02 0.  1.
       -2   -1    0    0    0  501  0.00000000000E+00  0.00000000000E+00 -0.13005618767E+03  0.13005618770E+03  0.25500000920E-02 0. -1.
    10030    2    1    2    0    0  0.00000000000E+00  0.00000000000E+00  0.10036902031E+04  0.12638025785E+04  0.76798628475E+03 0.  0.
        5    1    3    3  502    0 -0.32097583224E+03 -0.15587963478E+03  0.73517723369E+03  0.81720964284E+03  0.46999998093E+01 0. -1.
       -5    1    3    3    0  502  0.32097583224E+03  0.15587963478E+03  0.26851296941E+03  0.44659293564E+03  0.46999998093E+01 0.  1.
</event>
<event>
 5   0  0.1000773E-02  0.8706257E+03  0.7818609E-02  0.9463064E-01
        1   -1    0    0  501    0  0.00000000000E+00  0.00000000000E+00  0.27337422132E+03  0.27337422137E+03  0.50400001928E-02 0. -1.
       -1   -1    0    0    0  501  0.00000000000E+00  0.00000000000E+00 -0.69317906988E+03  0.69317906990E+03  0.50400001928E-02 0.  1.
    10030    2    1    2    0    0  0.00000000000E+00  0.00000000000E+00 -0.41980484856E+03  0.96655329127E+03  0.87062572555E+03 0.  0.
        3    1    3    3  502    0  0.37777146162E+03 -0.33352063743E+02 -0.44716384409E+03  0.58632682953E+03  0.10100000352E+00 0.  1.
       -3    1    3    3    0  502 -0.37777146162E+03  0.33352063743E+02  0.27358995521E+02  0.38022646174E+03  0.10100000352E+00 0. -1.
</event>
<event>
 5   0  0.1571895E-02  0.9862704E+03  0.7818609E-02  0.9323733E-01
       -2   -1    0    0    0  501  0.00000000000E+00  0.00000000000E+00  0.21482230885E+03  0.21482230887E+03  0.25500000920E-02 0.  1.
        2   -1    0    0  501    0  0.00000000000E+00  0.00000000000E+00 -0.11320161523E+04  0.11320161523E+04  0.25500000920E-02 0. -1.
    10030    2    1    2    0    0  0.00000000000E+00  0.00000000000E+00 -0.91719384349E+03  0.13468384612E+04  0.98627039602E+03 0.  0.
        2    1    3    3  502    0 -0.39755113054E+03 -0.24484773199E+03 -0.24188112024E+03  0.52583627641E+03  0.25500000920E-02 0.  1.
       -2    1    3    3    0  502  0.39755113054E+03  0.24484773199E+03 -0.67531272325E+03  0.82100218480E+03  0.25500000920E-02 0. -1.
</event>
<event>
 5   0  0.9396660E-03  0.8960876E+03  0.7818609E-02  0.9430485E-01
       -1   -1    0    0    0  501  0.00000000000E+00  0.00000000000E+00  0.30728250100E+03  0.30728250104E+03  0.50400001928E-02 0.  1.
        1   -1    0    0  501    0  0.00000000000E+00  0.00000000000E+00 -0.65328558915E+03  0.65328558916E+03  0.50400001928E-02 0. -1.
    10030    2    1    2    0    0  0.00000000000E+00  0.00000000000E+00 -0.34600308814E+03  0.96056809021E+03  0.89608756208E+03 0.  0.
        5    1    3    3  502    0 -0.15063214176E+03  0.33357079463E+02 -0.62388490757E+03  0.64269526587E+03  0.46999998093E+01 0. -1.
       -5    1    3    3    0  502  0.15063214176E+03 -0.33357079463E+02  0.27788181943E+03  0.31787282433E+03  0.46999998093E+01 0.  1.
</event>
<event>
 5   0  0.9759443E-03  0.9929611E+03  0.7818609E-02  0.9316299E-01
        1   -1    0    0  501    0  0.00000000000E+00  0.00000000000E+00  0.48877762776E+03  0.48877762779E+03  0.50400001928E-02 0.  1.
       -1   -1    0    0    0  501  0.00000000000E+00  0.00000000000E+00 -0.50430490712E+03  0.50430490714E+03  0.50400001928E-02 0. -1.
    10030    2    1    2    0    0  0.00000000000E+00  0.00000000000E+00 -0.15527279353E+02  0.99308253493E+03  0.99296113962E+03 0.  0.
        2    1    3    3  502    0  0.22779655742E+03 -0.26222834482E+03  0.34701622240E+03  0.49099412930E+03  0.25500000920E-02 0.  1.
       -2    1    3    3    0  502 -0.22779655742E+03  0.26222834482E+03 -0.36254350175E+03  0.50208840563E+03  0.25500000920E-02 0. -1.
</event>
<event>
 5   0  0.9396660E-03  0.1000058E+04  0.7818609E-02  0.9308481E-01
       -1   -1    0    0    0  501  0.00000000000E+00  0.00000000000E+00  0.45808493161E+03  0.45808493163E+03  0.50400001928E-02 0.  1.
        1   -1    0    0  501    0  0.00000000000E+00  0.00000000000E+00 -0.54581358443E+03  0.54581358446E+03  0.50400001928E-02 0. -1.
    10030    2    1    2    0    0  0.00000000000E+00  0.00000000000E+00 -0.87728652827E+02  0.10038985161E+04  0.10000579554E+04 0.  0.
        5    1    3    3  502    0 -0.35325561583E+03 -0.54117647395E+02  0.30717655673E+03  0.47127250808E+03  0.46999998093E+01 0.  1.
       -5    1    3    3    0  502  0.35325561583E+03  0.54117647395E+02 -0.39490520955E+03  0.53262600801E+03  0.46999998093E+01 0. -1.
</event>
<event>
 5   0  0.1617721E-02  0.9964255E+03  0.7818609E-02  0.9312474E-01
       -2   -1    0    0    0  501  0.00000000000E+00  0.00000000000E+00  0.30312613813E+03  0.30312613814E+03  0.25500000920E-02 0.  1.
        2   -1    0    0  501    0  0.00000000000E+00  0.00000000000E+00 -0.81885360219E+03  0.81885360220E+03  0.25500000920E-02 0. -1.
    10030    2    1    2    0    0  0.00000000000E+00  0.00000000000E+00 -0.51572746407E+03  0.11219797403E+04  0.99642547164E+03 0.  0.
        5    1    3    3  502    0 -0.32090696818E+03 -0.22154748617E+03  0.91250870477E+02  0.40051639444E+03  0.46999998093E+01 0.  1.
       -5    1    3    3    0  502  0.32090696818E+03  0.22154748617E+03 -0.60697833454E+03  0.72146334589E+03  0.46999998093E+01 0. -1.
</event>
<event>
 5   0  0.9396660E-03  0.9949220E+03  0.7818609E-02  0.9314132E-01
       -1   -1    0    0    0  501  0.00000000000E+00  0.00000000000E+00  0.63948716317E+03  0.63948716319E+03  0.50400001928E-02 0.  1.
        1   -1    0    0  501    0  0.00000000000E+00  0.00000000000E+00 -0.38697797758E+03  0.38697797761E+03  0.50400001928E-02 0. -1.
    10030    2    1    2    0    0  0.00000000000E+00  0.00000000000E+00  0.25250918559E+03  0.10264651408E+04  0.99492200522E+03 0.  0.
        5    1    3    3  502    0 -0.24775412971E+03 -0.37595452121E+03 -0.91924483392E+02  0.45956078102E+03  0.46999998093E+01 0. -1.
       -5    1    3    3    0  502  0.24775412971E+03  0.37595452121E+03  0.34443366899E+03  0.56690435978E+03  0.46999998093E+01 0.  1.
</event>
<event>
 5   0  0.1663497E-02  0.9119094E+03  0.7818609E-02  0.9410815E-01
        2   -1    0    0  501    0  0.00000000000E+00  0.00000000000E+00  0.19948812759E+04  0.19948812759E+04  0.25500000920E-02 0.  1.
       -2   -1    0    0    0  501  0.00000000000E+00  0.00000000000E+00 -0.10421407492E+03  0.10421407495E+03  0.25500000920E-02 0. -1.
    10030    2    1    2    0    0  0.00000000000E+00  0.00000000000E+00  0.18906672009E+04  0.20990953508E+04  0.91190944018E+03 0.  0.
        1    1    3    3  502    0  0.39853962392E+03 -0.91364236361E+02  0.14097947732E+04  0.14678905130E+04  0.50400001928E-02 0.  1.
       -1    1    3    3    0  502 -0.39853962392E+03  0.91364236361E+02  0.48087242774E+03  0.63120483783E+03  0.50400001928E-02 0. -1.
</event>
<event>
 5   0  0.1617721E-02  0.8539205E+03  0.7818609E-02  0.9485090E-01
       -2   -1    0    0    0  501  0.00000000000E+00  0.00000000000E+00  0.59659821061E+03  0.59659821061E+03  0.25500000920E-02 0.  1.
        2   -1    0    0  501    0  0.00000000000E+00  0.00000000000E+00 -0.30555745978E+03  0.30555745979E+03  0.25500000920E-02 0. -1.
    10030    2    1    2    0    0  0.00000000000E+00  0.00000000000E+00  0.29104075083E+03  0.90215567040E+03  0.85392045004E+03 0.  0.
        5    1    3    3  502    0 -0.20346214107E+03  0.14111558239E+03 -0.22192216400E+03  0.33253870047E+03  0.46999998093E+01 0. -1.
       -5    1    3    3    0  502  0.20346214107E+03 -0.14111558239E+03  0.51296291483E+03  0.56961696993E+03  0.46999998093E+01 0.  1.
</event>
<event>
 5   0  0.1617721E-02  0.9947214E+03  0.7818609E-02  0.9314353E-01
       -2   -1    0    0    0  501  0.00000000000E+00  0.00000000000E+00  0.35471418651E+03  0.35471418652E+03  0.25500000920E-02 0. -1.
        2   -1    0    0  501    0  0.00000000000E+00  0.00000000000E+00 -0.69737176417E+03  0.69737176417E+03  0.25500000920E-02 0.  1.
    10030    2    1    2    0    0  0.00000000000E+00  0.00000000000E+00 -0.34265757766E+03  0.10520859507E+04  0.99472138416E+03 0.  0.
        5    1    3    3  502    0  0.40932569881E+03  0.28223474629E+03 -0.15874349192E+03  0.52194402568E+03  0.46999998093E+01 0.  1.
       -5    1    3    3    0  502 -0.40932569881E+03 -0.28223474629E+03 -0.18391408573E+03  0.53014192501E+03  0.46999998093E+01 0. -1.
</event>
<event>
 5   0  0.9396660E-03  0.1074887E+04  0.7818609E-02  0.9230020E-01
       -1   -1    0    0    0  501  0.00000000000E+00  0.00000000000E+00  0.29280210881E+03  0.29280210885E+03  0.50400001928E-02 0.  1.
        1   -1    0    0  501    0  0.00000000000E+00  0.00000000000E+00 -0.98648796695E+03  0.98648796697E+03  0.50400001928E-02 0. -1.
    10030    2    1    2    0    0  0.00000000000E+00  0.00000000000E+00 -0.69368585815E+03  0.12792900758E+04  0.10748874491E+04 0.  0.
        5    1    3    3  502    0  0.26371753049E+02  0.16249265668E+03  0.26203199834E+03  0.30948698032E+03  0.46999998093E+01 0.  1.
       -5    1    3    3    0  502 -0.26371753049E+02 -0.16249265668E+03 -0.95571785648E+03  0.96980309550E+03  0.46999998093E+01 0. -1.
</event>
<event>
 5   0  0.9396660E-03  0.9825750E+03  0.7818609E-02  0.9327865E-01
        1   -1    0    0  501    0  0.00000000000E+00  0.00000000000E+00  0.90807731390E+03  0.90807731391E+03  0.50400001928E-02 0.  1.
       -1   -1    0    0    0  501  0.00000000000E+00  0.00000000000E+00 -0.26579610697E+03  0.26579610702E+03  0.50400001928E-02 0. -1.
    10030    2    1    2    0    0  0.00000000000E+00  0.00000000000E+00  0.64228120693E+03  0.11738734209E+04  0.98257501474E+03 0.  0.
        5    1    3    3  502    0 -0.22151927501E+03 -0.40721737575E+03  0.12686261466E+03  0.48063811054E+03  0.46999998093E+01 0. -1.
       -5    1    3    3    0  502  0.22151927501E+03  0.40721737575E+03  0.51541859227E+03  0.69323531039E+03  0.46999998093E+01 0.  1.
</event>
<event>
 5   0  0.1617721E-02  0.1037968E+04  0.7818609E-02  0.9267855E-01
       -2   -1    0    0    0  501  0.00000000000E+00  0.00000000000E+00  0.26051733246E+03  0.26051733248E+03  0.25500000920E-02 0.  1.
        2   -1    0    0  501    0  0.00000000000E+00  0.00000000000E+00 -0.10338832969E+04  0.10338832970E+04  0.25500000920E-02 0. -1.
    10030    2    1    2    0    0  0.00000000000E+00  0.00000000000E+00 -0.77336596448E+03  0.12944006294E+04  0.10379682435E+04 0.  0.
        5    1    3    3  502    0 -0.26782495609E+03 -0.42665417708E+03 -0.23113384755E+03  0.55426432269E+03  0.46999998093E+01 0.  1.
       -5    1    3    3    0  502  0.26782495609E+03  0.42665417708E+03 -0.54223211693E+03  0.74013630674E+03  0.46999998093E+01 0. -1.
</event>
<event>
 5   0  0.9471140E-03  0.1015541E+04  0.7818609E-02  0.9291662E-01
        1   -1    0    0  501    0  0.00000000000E+00  0.00000000000E+00  0.13989735153E+04  0.13989735153E+04  0.50400001928E-02 0.  1.
       -1   -1    0    0    0  501  0.00000000000E+00  0.00000000000E+00 -0.18429992036E+03  0.18429992043E+03  0.50400001928E-02 0. -1.
    10030    2    1    2    0    0  0.00000000000E+00  0.00000000000E+00  0.12146735949E+04  0.15832734357E+04  0.10155406590E+04 0.  0.
        4    1    3    3  502    0 -0.85666216695E+02 -0.45626596834E+03  0.28664403773E+03  0.54560402474E+03  0.12699999809E+01 0.  1.
       -4    1    3    3    0  502  0.85666216695E+02  0.45626596834E+03  0.92802955717E+03  0.10376694110E+04  0.12699999809E+01 0. -1.
</event>
<event>
 5   0  0.1663497E-02  0.1016788E+04  0.7818609E-02  0.9290321E-01
        2   -1    0    0  501    0  0.00000000000E+00  0.00000000000E+00  0.41198827052E+03  0.41198827053E+03  0.25500000920E-02 0.  1.
       -2   -1    0    0    0  501  0.00000000000E+00  0.00000000000E+00 -0.62735919045E+03  0.62735919045E+03  0.25500000920E-02 0. -1.
    10030    2    1    2    0    0  0.00000000000E+00  0.00000000000E+00 -0.21537091993E+03  0.10393474610E+04  0.10167883317E+04 0.  0.
        1    1    3    3  502    0 -0.36241605956E+03  0.20467452193E+03 -0.40610018747E+03  0.58151046632E+03  0.50400001928E-02 0. -1.
       -1    1    3    3    0  502  0.36241605956E+03 -0.20467452193E+03  0.19072926754E+03  0.45783699466E+03  0.50400001928E-02 0.  1.
</event>
<event>
 5   0  0.9396660E-03  0.9901029E+03  0.7818609E-02  0.9319467E-01
        1   -1    0    0  501    0  0.00000000000E+00  0.00000000000E+00  0.35467197890E+03  0.35467197893E+03  0.50400001928E-02 0.  1.
       -1   -1    0    0    0  501  0.00000000000E+00  0.00000000000E+00 -0.69099316737E+03  0.69099316738E+03  0.50400001928E-02 0. -1.
    10030    2    1    2    0    0  0.00000000000E+00  0.00000000000E+00 -0.33632118847E+03  0.10456651463E+04  0.99010285143E+03 0.  0.
        5    1    3    3  502    0  0.41255838468E+03  0.15253069801E+03 -0.40802673239E+03  0.59998161551E+03  0.46999998093E+01 0. -1.
       -5    1    3    3    0  502 -0.41255838468E+03 -0.15253069801E+03  0.71705543918E+02  0.44568353081E+03  0.46999998093E+01 0.  1.
</event>
<event>
 5   0  0.9507815E-03  0.9886422E+03  0.7818609E-02  0.9321090E-01
       -1   -1    0    0    0  501  0.00000000000E+00  0.00000000000E+00  0.10994532802E+04  0.10994532802E+04  0.50400001928E-02 0.  1.
        1   -1    0    0  501    0  0.00000000000E+00  0.00000000000E+00 -0.22224987993E+03  0.22224987998E+03  0.50400001928E-02 0. -1.
    10030    2    1    2    0    0  0.00000000000E+00  0.00000000000E+00  0.87720340025E+03  0.13217031602E+04  0.98864221951E+03 0.  0.
        1    1    3    3  502    0  0.17893622090E+03 -0.44638244791E+03  0.28571709432E+03  0.55938333812E+03  0.50400001928E-02 0. -1.
       -1    1    3    3    0  502 -0.17893622090E+03  0.44638244791E+03  0.59148630593E+03  0.76231982205E+03  0.50400001928E-02 0.  1.
</event>
<event>
 5   0  0.9507815E-03  0.9670561E+03  0.7818609E-02  0.9345434E-01
       -1   -1    0    0    0  501  0.00000000000E+00  0.00000000000E+00  0.26276424346E+03  0.26276424351E+03  0.50400001928E-02 0. -1.
        1   -1    0    0  501    0  0.00000000000E+00  0.00000000000E+00 -0.88976856253E+03  0.88976856255E+03  0.50400001928E-02 0.  1.
    10030    2    1    2    0    0  0.00000000000E+00  0.00000000000E+00 -0.62700431907E+03  0.11525328061E+04  0.96705607537E+03 0.  0.
        1    1    3    3  502    0  0.24232770615E+03 -0.36522320996E+03 -0.55684051553E+03  0.70864805794E+03  0.50400001928E-02 0. -1.
       -1    1    3    3    0  502 -0.24232770615E+03  0.36522320996E+03 -0.70163803546E+02  0.44388474812E+03  0.50400001928E-02 0.  1.
</event>
<event>
 5   0  0.9471140E-03  0.1006245E+04  0.7818609E-02  0.9301722E-01
        1   -1    0    0  501    0  0.00000000000E+00  0.00000000000E+00  0.44004748942E+03  0.44004748945E+03  0.50400001928E-02 0. -1.
       -1   -1    0    0    0  501  0.00000000000E+00  0.00000000000E+00 -0.57523844205E+03  0.57523844207E+03  0.50400001928E-02 0.  1.
    10030    2    1    2    0    0  0.00000000000E+00  0.00000000000E+00 -0.13519095262E+03  0.10152859315E+04  0.10062449647E+04 0.  0.
        4    1    3    3  502    0 -0.24039242961E+03 -0.32818588649E+03  0.23109833636E+03  0.46787022803E+03  0.12699999809E+01 0. -1.
       -4    1    3    3    0  502  0.24039242961E+03  0.32818588649E+03 -0.36628928898E+03  0.54741570349E+03  0.12699999809E+01 0.  1.
</event>
<event>
 5   0  0.1656859E-02  0.9997399E+03  0.7818609E-02  0.9308830E-01
        2   -1    0    0  501    0  0.00000000000E+00  0.00000000000E+00  0.11679816853E+04  0.11679816853E+04  0.25500000920E-02 0.  1.
       -2   -1    0    0    0  501  0.00000000000E+00  0.00000000000E+00 -0.21393313022E+03  0.21393313024E+03  0.25500000920E-02 0. -1.
    10030    2    1    2    0    0  0.00000000000E+00  0.00000000000E+00  0.95404855512E+03  0.13819148156E+04  0.99973992218E+03 0.  0.
        4    1    3    3  502    0  0.18468268272E+02 -0.41323615514E+03  0.86495647516E+03  0.95877865729E+03  0.12699999809E+01 0.  1.
       -4    1    3    3    0  502 -0.18468268272E+02  0.41323615514E+03  0.89092079957E+02  0.42313615830E+03  0.12699999809E+01 0. -1.
</event>
<event>
 5   0  0.1598986E-02  0.1021556E+04  0.7818609E-02  0.9285214E-01
       -2   -1    0    0    0  501  0.00000000000E+00  0.00000000000E+00  0.18867349511E+03  0.18867349512E+03  0.25500000920E-02 0.  1.
        2   -1    0    0  501    0  0.00000000000E+00  0.00000000000E+00 -0.13827805526E+04  0.13827805526E+04  0.25500000920E-02 0. -1.
    10030    2    1    2    0    0  0.00000000000E+00  0.00000000000E+00 -0.11941070575E+04  0.15714540477E+04  0.10215557544E+04 0.  0.
        3    1    3    3  502    0  0.19232512592E+03  0.24107053276E+03  0.29299055911E+02  0.30977798615E+03  0.10100000352E+00 0.  1.
       -3    1    3    3    0  502 -0.19232512592E+03 -0.24107053276E+03 -0.12234061134E+04  0.12616760616E+04  0.10100000352E+00 0. -1.
</event>
<event>
 5   0  0.9471140E-03  0.1017168E+04  0.7818609E-02  0.9289913E-01
        1   -1    0    0  501    0  0.00000000000E+00  0.00000000000E+00  0.94721301516E+03  0.94721301517E+03  0.50400001928E-02 0.  1.
       -1   -1    0    0    0  501  0.00000000000E+00  0.00000000000E+00 -0.27307231156E+03  0.27307231161E+03  0.50400001928E-02 0. -1.
    10030    2    1    2    0    0  0.00000000000E+00  0.00000000000E+00  0.67414070360E+03  0.12202853268E+04  0.10171679264E+04 0.  0.
        4    1    3    3  502    0  0.81400220032E+02  0.51383967511E+02 -0.26204163856E+03  0.27916615335E+03  0.12699999809E+01 0. -1.
       -4    1    3    3    0  502 -0.81400220032E+02 -0.51383967511E+02  0.93618234215E+03  0.94111917343E+03  0.12699999809E+01 0.  1.
</event>
<event>
 5   0  0.1617721E-02  0.9863000E+03  0.7818609E-02  0.9323700E-01
        2   -1    0    0  501    0  0.00000000000E+00  0.00000000000E+00  0.32268897939E+03  0.32268897940E+03  0.25500000920E-02 0. -1.
       -2   -1    0    0    0  501  0.00000000000E+00  0.00000000000E+00 -0.75365731996E+03  0.75365731996E+03  0.25500000920E-02 0.  1.
    10030    2    1    2    0    0  0.00000000000E+00  0.00000000000E+00 -0.43096834057E+03  0.10763462994E+04  0.98629997748E+03 0.  0.
        5    1    3    3  502    0  0.41403063690E+03  0.11008834294E+03  0.51011406511E+02  0.43146849843E+03  0.46999998093E+01 0. -1.
       -5    1    3    3    0  502 -0.41403063690E+03 -0.11008834294E+03 -0.48197974708E+03  0.64487780093E+03  0.46999998093E+01 0.  1.
</event>
<event>
 5   0  0.1598986E-02  0.9819342E+03  0.7818609E-02  0.9328584E-01
        2   -1    0    0  501    0  0.00000000000E+00  0.00000000000E+00  0.59088132013E+03  0.59088132014E+03  0.25500000920E-02 0.  1.
       -2   -1    0    0    0  501  0.00000000000E+00  0.00000000000E+00 -0.40794772955E+03  0.40794772956E+03  0.25500000920E-02 0. -1.
    10030    2    1    2    0    0  0.00000000000E+00  0.00000000000E+00  0.18293359058E+03  0.99882904970E+03  0.98193419940E+03 0.  0.
        3    1    3    3  502    0  0.13289196387E+03 -0.36448920672E+02 -0.38787338381E+03  0.41162430680E+03  0.10100000352E+00 0. -1.
       -3    1    3    3    0  502 -0.13289196387E+03  0.36448920672E+02  0.57080697438E+03  0.58720474290E+03  0.10100000352E+00 0.  1.
</event>
<event>
 5   0  0.1656859E-02  0.1031617E+04  0.7818609E-02  0.9274532E-01
       -2   -1    0    0    0  501  0.00000000000E+00  0.00000000000E+00  0.19589930183E+03  0.19589930185E+03  0.25500000920E-02 0.  1.
        2   -1    0    0  501    0  0.00000000000E+00  0.00000000000E+00 -0.13581384703E+04  0.13581384703E+04  0.25500000920E-02 0. -1.
    10030    2    1    2    0    0  0.00000000000E+00  0.00000000000E+00 -0.11622391685E+04  0.15540377722E+04  0.10316169408E+04 0.  0.
        4    1    3    3  502    0 -0.35522553010E+03 -0.35185730857E+03 -0.77207163176E+03  0.91982876684E+03  0.12699999809E+01 0. -1.
       -4    1    3    3    0  502  0.35522553010E+03  0.35185730857E+03 -0.39016753673E+03  0.63420900533E+03  0.12699999809E+01 0.  1.
</event>
<event>
 5   0  0.1571895E-02  0.9689085E+03  0.7818609E-02  0.9343319E-01
        2   -1    0    0  501    0  0.00000000000E+00  0.00000000000E+00  0.39568956542E+03  0.39568956542E+03  0.25500000920E-02 0.  1.
       -2   -1    0    0    0  501  0.00000000000E+00  0.00000000000E+00 -0.59313139229E+03  0.59313139229E+03  0.25500000920E-02 0. -1.
    10030    2    1    2    0    0  0.00000000000E+00  0.00000000000E+00 -0.19744182687E+03  0.98882095772E+03  0.96890846390E+03 0.  0.
        2    1    3    3  502    0 -0.35388269054E+02  0.18628291937E+03 -0.55368803255E+03  0.58525557924E+03  0.25500000920E-02 0. -1.
       -2    1    3    3    0  502  0.35388269054E+02 -0.18628291937E+03  0.35624620568E+03  0.40356537848E+03  0.25500000920E-02 0.  1.
</event>
<event>
 5   0  0.1571895E-02  0.1004914E+04  0.7818609E-02  0.9303172E-01
       -2   -1    0    0    0  501  0.00000000000E+00  0.00000000000E+00  0.21450321000E+03  0.21450321002E+03  0.25500000920E-02 0. -1.
        2   -1    0    0  501    0  0.00000000000E+00  0.00000000000E+00 -0.11769663432E+04  0.11769663432E+04  0.25500000920E-02 0.  1.
    10030    2    1    2    0    0  0.00000000000E+00  0.00000000000E+00 -0.96246313322E+03  0.13914695532E+04  0.10049140435E+04 0.  0.
        2    1    3    3  502    0 -0.14804428472E+03 -0.12279037654E+03 -0.11239735348E+04  0.11403118406E+04  0.25500000920E-02 0.  1.
       -2    1    3    3    0  502  0.14804428472E+03  0.12279037654E+03  0.16151040158E+03  0.25115771267E+03  0.25500000920E-02 0. -1.
</event>
<event>
 5   0  0.1571895E-02  0.1101627E+04  0.7818609E-02  0.9203607E-01
       -2   -1    0    0    0  501  0.00000000000E+00  0.00000000000E+00  0.42064938536E+03  0.42064938537E+03  0.25500000920E-02 0.  1.
        2   -1    0    0  501    0  0.00000000000E+00  0.00000000000E+00 -0.72125565252E+03  0.72125565252E+03  0.25500000920E-02 0. -1.
    10030    2    1    2    0    0  0.00000000000E+00  0.00000000000E+00 -0.30060626715E+03  0.11419050379E+04  0.11016274269E+04 0.  0.
        2    1    3    3  502    0 -0.46384325093E+03 -0.12527165853E+03 -0.42950642475E+03  0.64445272812E+03  0.25500000920E-02 0. -1.
       -2    1    3    3    0  502  0.46384325093E+03  0.12527165853E+03  0.12890015760E+03  0.49745230978E+03  0.25500000920E-02 0.  1.
</event>
<event>
 5   0  0.1598986E-02  0.9834447E+03  0.7818609E-02  0.9326891E-01
        2   -1    0    0  501    0  0.00000000000E+00  0.00000000000E+00  0.10615171743E+04  0.10615171743E+04  0.25500000920E-02 0. -1.
       -2   -1    0    0    0  501  0.00000000000E+00  0.00000000000E+00 -0.22777857212E+03  0.22777857213E+03  0.25500000920E-02 0.  1.
    10030    2    1    2    0    0  0.00000000000E+00  0.00000000000E+00  0.83373860215E+03  0.12892957464E+04  0.98344469341E+03 0.  0.
        3    1    3    3  502    0 -0.19225198697E+03 -0.56439681392E+01  0.10101574181E+04  0.10283047702E+04  0.10100000352E+00 0. -1.
       -3    1    3    3    0  502  0.19225198697E+03  0.56439681392E+01 -0.17641881592E+03  0.26099097624E+03  0.10100000352E+00 0.  1.
</event>
<event>
 5   0  0.1656859E-02  0.9391755E+03  0.7818609E-02  0.9377893E-01
        2   -1    0    0  501    0  0.00000000000E+00  0.00000000000E+00  0.33503412793E+03  0.33503412794E+03  0.25500000920E-02 0.  1.
       -2   -1    0    0    0  501  0.00000000000E+00  0.00000000000E+00 -0.65817970338E+03  0.65817970338E+03  0.25500000920E-02 0. -1.
    10030    2    1    2    0    0  0.00000000000E+00  0.00000000000E+00 -0.32314557544E+03  0.99321383132E+03  0.93917551704E+03 0.  0.
        4    1    3    3  502    0  0.16702038233E+03 -0.21311371362E+03  0.24416610216E+03  0.36459835626E+03  0.12699999809E+01 0.  1.
       -4    1    3    3    0  502 -0.16702038233E+03  0.21311371362E+03 -0.56731167760E+03  0.62861547506E+03  0.12699999809E+01 0. -1.
</event>
<event>
 5   0  0.1663497E-02  0.9331054E+03  0.7818609E-02  0.9385119E-01
        2   -1    0    0  501    0  0.00000000000E+00  0.00000000000E+00  0.19961526596E+03  0.19961526598E+03  0.25500000920E-02 0.  1.
       -2   -1    0    0    0  501  0.00000000000E+00  0.00000000000E+00 -0.10904547476E+04  0.10904547476E+04  0.25500000920E-02 0. -1.
    10030    2    1    2    0    0  0.00000000000E+00  0.00000000000E+00 -0.89083948160E+03  0.12900700135E+04  0.93310538412E+03 0.  0.
        1    1    3    3  502    0 -0.12704820468E+03 -0.28601852804E+02  0.17397764061E+03  0.21731896317E+03  0.50400001928E-02 0.  1.
       -1    1    3    3    0  502  0.12704820468E+03  0.28601852804E+02 -0.10648171222E+04  0.10727510504E+04  0.50400001928E-02 0. -1.
</event>
<event>
 5   0  0.9507815E-03  0.1002545E+04  0.7818609E-02  0.9305758E-01
       -1   -1    0    0    0  501  0.00000000000E+00  0.00000000000E+00  0.23662211121E+03  0.23662211127E+03  0.50400001928E-02 0. -1.
        1   -1    0    0  501    0  0.00000000000E+00  0.00000000000E+00 -0.10619208934E+04  0.10619208934E+04  0.50400001928E-02 0.  1.
    10030    2    1    2    0    0  0.00000000000E+00  0.00000000000E+00 -0.82529878222E+03  0.12985430047E+04  0.10025446899E+04 0.  0.
        1    1    3    3  502    0  0.19807562339E+03  0.19447514772E+03  0.12798153817E+03  0.30566944532E+03  0.50400001928E-02 0. -1.
       -1    1    3    3    0  502 -0.19807562339E+03 -0.19447514772E+03 -0.95328032040E+03  0.99287355940E+03  0.50400001928E-02 0.  1.
</event>
<event>
 5   0  0.1000773E-02  0.9948784E+03  0.7818609E-02  0.9314180E-01
        1   -1    0    0  501    0  0.00000000000E+00  0.00000000000E+00  0.27412298947E+03  0.27412298952E+03  0.50400001928E-02 0.  1.
       -1   -1    0    0    0  501  0.00000000000E+00  0.00000000000E+00 -0.90268148640E+03  0.90268148642E+03  0.50400001928E-02 0. -1.
    10030    2    1    2    0    0  0.00000000000E+00  0.00000000000E+00 -0.62855849693E+03  0.11768044759E+04  0.99487837977E+03 0.  0.
        3    1    3    3  502    0 -0.10878054538E+03 -0.31285639477E+03 -0.75326857705E+03  0.82287659474E+03  0.10100000352E+00 0. -1.
       -3    1    3    3    0  502  0.10878054538E+03  0.31285639477E+03  0.12471008013E+03  0.35392788119E+03  0.10100000352E+00 0.  1.
</event>
<event>
 5   0  0.9507815E-03  0.1007553E+04  0.7818609E-02  0.9300299E-01
        1   -1    0    0  501    0  0.00000000000E+00  0.00000000000E+00  0.52721600832E+03  0.52721600834E+03  0.50400001928E-02 0.  1.
       -1   -1    0    0    0  501  0.00000000000E+00  0.00000000000E+00 -0.48137913312E+03  0.48137913315E+03  0.50400001928E-02 0. -1.
    10030    2    1    2    0    0  0.00000000000E+00  0.00000000000E+00  0.45836875199E+02  0.10085951415E+04  0.10075530459E+04 0.  0.
        1    1    3    3  502    0  0.44346818285E+03  0.12838961866E+03 -0.17889082295E+03  0.49512609499E+03  0.50400001928E-02 0. -1.
       -1    1    3    3    0  502 -0.44346818285E+03 -0.12838961866E+03  0.22472769815E+03  0.51346904650E+03  0.50400001928E-02 0.  1.
</event>
<event>
 5   0  0.1656859E-02  0.1016311E+04  0.7818609E-02  0.9290834E-01
        2   -1    0    0  501    0  0.00000000000E+00  0.00000000000E+00  0.11388688819E+04  0.11388688819E+04  0.25500000920E-02 0.  1.
       -2   -1    0    0    0  501  0.00000000000E+00  0.00000000000E+00 -0.22673538086E+03  0.22673538088E+03  0.25500000920E-02 0. -1.
    10030    2    1    2    0    0  0.00000000000E+00  0.00000000000E+00  0.91213350102E+03  0.13656042628E+04  0.10163107196E+04 0.  0.
        4    1    3    3  502    0  0.30842012642E+03  0.35589771271E+03  0.71254608813E+03  0.85411339815E+03  0.12699999809E+01 0.  1.
       -4    1    3    3    0  502 -0.30842012642E+03 -0.35589771271E+03  0.19958741289E+03  0.51149086461E+03  0.12699999809E+01 0. -1.
</event>
<event>
 5   0  0.1571895E-02  0.1010290E+04  0.7818609E-02  0.9297330E-01
       -2   -1    0    0    0  501  0.00000000000E+00  0.00000000000E+00  0.25064233692E+03  0.25064233693E+03  0.25500000920E-02 0. -1.
        2   -1    0    0  501    0  0.00000000000E+00  0.00000000000E+00 -0.10180704380E+04  0.10180704380E+04  0.25500000920E-02 0.  1.
    10030    2    1    2    0    0  0.00000000000E+00  0.00000000000E+00 -0.76742810106E+03  0.12687127749E+04  0.10102901637E+04 0.  0.
        2    1    3    3  502    0  0.10560202513E+03 -0.21892558844E+03  0.17237764492E+03  0.29798364629E+03  0.25500000920E-02 0. -1.
       -2    1    3    3    0  502 -0.10560202513E+03  0.21892558844E+03 -0.93980574598E+03  0.97072912863E+03  0.25500000920E-02 0.  1.
</event>
<event>
 5   0  0.1571895E-02  0.1020501E+04  0.7818609E-02  0.9286341E-01
       -2   -1    0    0    0  501  0.00000000000E+00  0.00000000000E+00  0.20326603829E+03  0.20326603831E+03  0.25500000920E-02 0. -1.
        2   -1    0    0  501    0  0.00000000000E+00  0.00000000000E+00 -0.12808606653E+04  0.12808606653E+04  0.25500000920E-02 0.  1.
    10030    2    1    2    0    0  0.00000000000E+00  0.00000000000E+00 -0.10775946270E+04  0.14841267036E+04  0.10205008046E+04 0.  0.
        2    1    3    3  502    0  0.49355205358E+03 -0.29049056968E+02 -0.72228284324E+03  0.87528851412E+03  0.25500000920E-02 0.  1.
       -2    1    3    3    0  502 -0.49355205358E+03  0.29049056968E+02 -0.35531178379E+03  0.60883818951E+03  0.25500000920E-02 0. -1.
</event>
<event>
 5   0  0.1663497E-02  0.9968806E+03  0.7818609E-02  0.9311973E-01
        2   -1    0    0  501    0  0.00000000000E+00  0.00000000000E+00  0.78876349782E+03  0.78876349782E+03  0.25500000920E-02 0.  1.
       -2   -1    0    0    0  501  0.00000000000E+00  0.00000000000E+00 -0.31497750339E+03  0.31497750340E+03  0.25500000920E-02 0. -1.
    10030    2    1    2    0    0  0.00000000000E+00  0.00000000000E+00  0.47378599443E+03  0.11037410012E+04  0.99688064946E+03 0.  0.
        1    1    3    3  502    0 -0.15041753008E+03  0.40816241323E+02  0.76109019789E+03  0.77688460422E+03  0.50400001928E-02 0.  1.
       -1    1    3    3    0  502  0.15041753008E+03 -0.40816241323E+02 -0.28730420347E+03  0.32685639701E+03  0.50400001928E-02 0. -1.
</event>
<event>
 5   0  0.1617721E-02  0.9997465E+03  0.7818609E-02  0.9308823E-01
        2   -1    0    0  501    0  0.00000000000E+00  0.00000000000E+00  0.71568920700E+03  0.71568920700E+03  0.25500000920E-02 0. -1.
       -2   -1    0    0    0  501  0.00000000000E+00  0.00000000000E+00 -0.34913658467E+03  0.34913658467E+03  0.25500000920E-02 0.  1.
    10030    2    1    2    0    0  0.00000000000E+00  0.00000000000E+00  0.36655262233E+03  0.10648257917E+04  0.99974653872E+03 0.  0.
        5    1    3    3  502    0  0.45056565614E+03  0.19651874791E+03  0.27985510786E+03  0.56565890797E+03  0.46999998093E+01 0. -1.
       -5    1    3    3    0  502 -0.45056565614E+03 -0.19651874791E+03  0.86697514467E+02  0.49916688370E+03  0.46999998093E+01 0.  1.
</event>
<event>
 5   0  0.9759443E-03  0.9890474E+03  0.7818609E-02  0.9320640E-01
        1   -1    0    0  501    0  0.00000000000E+00  0.00000000000E+00  0.22508128738E+04  0.22508128738E+04  0.50400001928E-02 0.  1.
       -1   -1    0    0    0  501  0.00000000000E+00  0.00000000000E+00 -0.10865127642E+03  0.10865127653E+03  0.50400001928E-02 0. -1.
    10030    2    1    2    0    0  0.00000000000E+00  0.00000000000E+00  0.21421615974E+04  0.23594641503E+04  0.98904740403E+03 0.  0.
        2    1    3    3  502    0 -0.21151484621E+03 -0.40532900179E+03  0.62145157660E+03  0.77151292402E+03  0.25500000920E-02 0. -1.
       -2    1    3    3    0  502  0.21151484621E+03  0.40532900179E+03  0.15207100208E+04  0.15879512263E+04  0.25500000920E-02 0.  1.
</event>
<event>
 5   0  0.1000773E-02  0.9879848E+03  0.7818609E-02  0.9321822E-01
        1   -1    0    0  501    0  0.00000000000E+00  0.00000000000E+00  0.86555343913E+03  0.86555343914E+03  0.50400001928E-02 0.  1.
       -1   -1    0    0    0  501  0.00000000000E+00  0.00000000000E+00 -0.28193348386E+03  0.28193348391E+03  0.50400001928E-02 0. -1.
    10030    2    1    2    0    0  0.00000000000E+00  0.00000000000E+00  0.58361995526E+03  0.11474869231E+04  0.98798481081E+03 0.  0.
        3    1    3    3  502    0 -0.28979055762E+03  0.39449260565E+03  0.21454568964E+03  0.53444629884E+03  0.10100000352E+00 0.  1.
       -3    1    3    3    0  502  0.28979055762E+03 -0.39449260565E+03  0.36907426562E+03  0.61304062422E+03  0.10100000352E+00 0. -1.
</event>
<event>
 5   0  0.9507815E-03  0.9769800E+03  0.7818609E-02  0.9334159E-01
       -1   -1    0    0    0  501  0.00000000000E+00  0.00000000000E+00  0.41934866728E+03  0.41934866731E+03  0.50400001928E-02 0. -1.
        1   -1    0    0  501    0  0.00000000000E+00  0.00000000000E+00 -0.56903119997E+03  0.56903119999E+03  0.50400001928E-02 0.  1.
    10030    2    1    2    0    0  0.00000000000E+00  0.00000000000E+00 -0.14968253269E+03  0.98837986730E+03  0.97697999032E+03 0.  0.
        1    1    3    3  502    0 -0.44005018392E+03 -0.20317578892E+03 -0.13636127345E+03  0.50350666579E+03  0.50400001928E-02 0. -1.
       -1    1    3    3    0  502  0.44005018392E+03  0.20317578892E+03 -0.13321259237E+02  0.48487320151E+03  0.50400001928E-02 0.  1.
</event>
<event>
 5   0  0.9759443E-03  0.9903948E+03  0.7818609E-02  0.9319143E-01
       -1   -1    0    0    0  501  0.00000000000E+00  0.00000000000E+00  0.34905573891E+03  0.34905573894E+03  0.50400001928E-02 0.  1.
        1   -1    0    0  501    0  0.00000000000E+00  0.00000000000E+00 -0.70252524619E+03  0.70252524621E+03  0.50400001928E-02 0. -1.
    10030    2    1    2    0    0  0.00000000000E+00  0.00000000000E+00 -0.35346950729E+03  0.10515809852E+04  0.99039480802E+03 0.  0.
        2    1    3    3  502    0  0.19338924282E+03 -0.35719927336E+03  0.12401278783E+03  0.42469976652E+03  0.25500000920E-02 0.  1.
       -2    1    3    3    0  502 -0.19338924282E+03  0.35719927336E+03 -0.47748229512E+03  0.62688121864E+03  0.25500000920E-02 0. -1.
</event>
<event>
 5   0  0.1598986E-02  0.9431377E+03  0.7818609E-02  0.9373208E-01
       -2   -1    0    0    0  501  0.00000000000E+00  0.00000000000E+00  0.23387162854E+03  0.23387162856E+03  0.25500000920E-02 0. -1.
        2   -1    0    0  501    0  0.00000000000E+00  0.00000000000E+00 -0.95085144718E+03  0.95085144718E+03  0.25500000920E-02 0.  1.
    10030    2    1    2    0    0  0.00000000000E+00  0.00000000000E+00 -0.71697981863E+03  0.11847230757E+04  0.94313769188E+03 0.  0.
        3    1    3    3  502    0 -0.42201947972E+03 -0.11432794024E+03 -0.58039115187E+03  0.72665343772E+03  0.10100000352E+00 0.  1.
       -3    1    3    3    0  502  0.42201947972E+03  0.11432794024E+03 -0.13658866677E+03  0.45806963802E+03  0.10100000352E+00 0. -1.
</event>
<event>
 5   0  0.9759443E-03  0.9934985E+03  0.7818609E-02  0.9315704E-01
        1   -1    0    0  501    0  0.00000000000E+00  0.00000000000E+00  0.12755200283E+04  0.12755200283E+04  0.50400001928E-02 0.  1.
       -1   -1    0    0    0  501  0.00000000000E+00  0.00000000000E+00 -0.19345822588E+03  0.19345822594E+03  0.50400001928E-02 0. -1.
    10030    2    1    2    0    0  0.00000000000E+00  0.00000000000E+00  0.10820618025E+04  0.14689782543E+04  0.99349854919E+03 0.  0.
        2    1    3    3  502    0  0.56231299580E+02  0.34006782196E+03  0.12133710412E+02  0.34489898452E+03  0.25500000920E-02 0. -1.
       -2    1    3    3    0  502 -0.56231299580E+02 -0.34006782196E+03  0.10699280920E+04  0.11240792698E+04  0.25500000920E-02 0.  1.
</event>
<event>
 5   0  0.1617721E-02  0.1018684E+04  0.7818609E-02  0.9288286E-01
        2   -1    0    0  501    0  0.00000000000E+00  0.00000000000E+00  0.25700939195E+03  0.25700939196E+03  0.25500000920E-02 0.  1.
       -2   -1    0    0    0  501  0.00000000000E+00  0.00000000000E+00 -0.10094159773E+04  0.10094159773E+04  0.25500000920E-02 0. -1.
    10030    2    1    2    0    0  0.00000000000E+00  0.00000000000E+00 -0.75240658535E+03  0.12664253693E+04  0.10186842230E+04 0.  0.
        5    1    3    3  502    0  0.30118778287E+03  0.26516457744E+03 -0.76614128938E+03  0.86488201448E+03  0.46999998093E+01 0. -1.
       -5    1    3    3    0  502 -0.30118778287E+03 -0.26516457744E+03  0.13734704032E+02  0.40154335478E+03  0.46999998093E+01 0.  1.
</event>
<event>
 5   0  0.1656859E-02  0.9830960E+03  0.7818609E-02  0.9327282E-01
        2   -1    0    0  501    0  0.00000000000E+00  0.00000000000E+00  0.16549562369E+04  0.16549562369E+04  0.25500000920E-02 0.  1.
       -2   -1    0    0    0  501  0.00000000000E+00  0.00000000000E+00 -0.14599746846E+03  0.14599746848E+03  0.25500000920E-02 0. -1.
    10030    2    1    2    0    0  0.00000000000E+00  0.00000000000E+00  0.15089587684E+04  0.18009537054E+04  0.98309596892E+03 0.  0.
        4    1    3    3  502    0 -0.35694562746E+03  0.33653328681E+03  0.69792748874E+03  0.85309391426E+03  0.12699999809E+01 0. -1.
       -4    1    3    3    0  502  0.35694562746E+03 -0.33653328681E+03  0.81103127970E+03  0.94785979113E+03  0.12699999809E+01 0.  1.
</event>
<event>
 5   0  0.9396660E-03  0.9077849E+03  0.7818609E-02  0.9415902E-01
       -1   -1    0    0    0  501  0.00000000000E+00  0.00000000000E+00  0.19618120139E+03  0.19618120146E+03  0.50400001928E-02 0.  1.
        1   -1    0    0  501    0  0.00000000000E+00  0.00000000000E+00 -0.10501432601E+04  0.10501432601E+04  0.50400001928E-02 0. -1.
    10030    2    1    2    0    0  0.00000000000E+00  0.00000000000E+00 -0.85396205867E+03  0.12463244615E+04  0.90778492264E+03 0.  0.
        5    1    3    3  502    0 -0.33987528898E+03 -0.21065206457E+03 -0.72178308864E+03  0.82515599823E+03  0.46999998093E+01 0. -1.
       -5    1    3    3    0  502  0.33987528898E+03  0.21065206457E+03 -0.13217897002E+03  0.42116846330E+03  0.46999998093E+01 0.  1.
</event>
<event>
 5   0  0.1000773E-02  0.1018591E+04  0.7818609E-02  0.9288386E-01
       -1   -1    0    0    0  501  0.00000000000E+00  0.00000000000E+00  0.91606641793E+03  0.91606641794E+03  0.50400001928E-02 0.  1.
        1   -1    0    0  501    0  0.00000000000E+00  0.00000000000E+00 -0.28314762675E+03  0.28314762680E+03  0.50400001928E-02 0. -1.
    10030    2    1    2    0    0  0.00000000000E+00  0.00000000000E+00  0.63291879118E+03  0.11992140447E+04  0.10185912472E+04 0.  0.
        3    1    3    3  502    0  0.20392395514E+03 -0.36047716431E+03  0.66541943598E+03  0.78378045488E+03  0.10100000352E+00 0.  1.
       -3    1    3    3    0  502 -0.20392395514E+03  0.36047716431E+03 -0.32500644807E+02  0.41543358986E+03  0.10100000352E+00 0. -1.
</event>
<event>
 5   0  0.9471140E-03  0.1061708E+04  0.7818609E-02  0.9243339E-01
        1   -1    0    0  501    0  0.00000000000E+00  0.00000000000E+00  0.85337790116E+03  0.85337790118E+03  0.50400001928E-02 0. -1.
       -1   -1    0    0    0  501  0.00000000000E+00  0.00000000000E+00 -0.33022398667E+03  0.33022398670E+03  0.50400001928E-02 0.  1.
    10030    2    1    2    0    0  0.00000000000E+00  0.00000000000E+00  0.52315391449E+03  0.11836018879E+04  0.10617077803E+04 0.  0.
        4    1    3    3  502    0  0.76313908121E+02 -0.14025815430E+01  0.84722708547E+03  0.85065923087E+03  0.12699999809E+01 0. -1.
       -4    1    3    3    0  502 -0.76313908121E+02  0.14025815430E+01 -0.32407317098E+03  0.33294265701E+03  0.12699999809E+01 0.  1.
</event>
<event>
 5   0  0.9396660E-03  0.9585898E+03  0.7818609E-02  0.9355166E-01
        1   -1    0    0  501    0  0.00000000000E+00  0.00000000000E+00  0.17118070342E+04  0.17118070342E+04  0.50400001928E-02 0. -1.
       -1   -1    0    0    0  501  0.00000000000E+00  0.00000000000E+00 -0.13419948428E+03  0.13419948437E+03  0.50400001928E-02 0.  1.
    10030    2    1    2    0    0  0.00000000000E+00  0.00000000000E+00  0.15776075499E+04  0.18460065185E+04  0.95858984192E+03 0.  0.
        5    1    3    3  502    0  0.36712001819E+03  0.30367580603E+03  0.68863821458E+03  0.83740120820E+03  0.46999998093E+01 0. -1.
       -5    1    3    3    0  502 -0.36712001819E+03 -0.30367580603E+03  0.88896933531E+03  0.10086053103E+04  0.46999998093E+01 0.  1.
</event>
<event>
 5   0  0.1571895E-02  0.1078424E+04  0.7818609E-02  0.9226480E-01
       -2   -1    0    0    0  501  0.00000000000E+00  0.00000000000E+00  0.41721852364E+03  0.41721852365E+03  0.25500000920E-02 0.  1.
        2   -1    0    0  501    0  0.00000000000E+00  0.00000000000E+00 -0.69687641264E+03  0.69687641265E+03  0.25500000920E-02 0. -1.
    10030    2    1    2    0    0  0.00000000000E+00  0.00000000000E+00 -0.27965788900E+03  0.11140949363E+04  0.10784243099E+04 0.  0.
        2    1    3    3  502    0  0.50607656325E+03 -0.20184645592E+02  0.51300951448E+02  0.50907042285E+03  0.25500000920E-02 0. -1.
       -2    1    3    3    0  502 -0.50607656325E+03  0.20184645592E+02 -0.33095884045E+03  0.60502451345E+03  0.25500000920E-02 0.  1.
</event>
<event>
 5   0  0.9759443E-03  0.1006210E+04  0.7818609E-02  0.9301760E-01
        1   -1    0    0  501    0  0.00000000000E+00  0.00000000000E+00  0.80649589502E+03  0.80649589503E+03  0.50400001928E-02 0.  1.
       -1   -1    0    0    0  501  0.00000000000E+00  0.00000000000E+00 -0.31384492214E+03  0.31384492218E+03  0.50400001928E-02 0. -1.
    10030    2    1    2    0    0  0.00000000000E+00  0.00000000000E+00  0.49265097287E+03  0.11203408172E+04  0.10062100008E+04 0.  0.
        2    1    3    3  502    0 -0.41559158924E+03  0.18535456113E+03  0.48523774083E+03  0.66522804174E+03  0.25500000920E-02 0.  1.
       -2    1    3    3    0  502  0.41559158924E+03 -0.18535456113E+03  0.74132320395E+01  0.45511277547E+03  0.25500000920E-02 0. -1.
</event>
<event>
 5   0  0.1617721E-02  0.1029479E+04  0.7818609E-02  0.9276791E-01
        2   -1    0    0  501    0  0.00000000000E+00  0.00000000000E+00  0.37932816792E+03  0.37932816793E+03  0.25500000920E-02 0.  1.
       -2   -1    0    0    0  501  0.00000000000E+00  0.00000000000E+00 -0.69848940905E+03  0.69848940906E+03  0.25500000920E-02 0. -1.
    10030    2    1    2    0    0  0.00000000000E+00  0.00000000000E+00 -0.31916124113E+03  0.10778175770E+04  0.10294789126E+04 0.  0.
        5    1    3    3  502    0 -0.30235726862E+03  0.13323756186E+03 -0.57277955639E+03  0.66126445239E+03  0.46999998093E+01 0. -1.
       -5    1    3    3    0  502  0.30235726862E+03 -0.13323756186E+03  0.25361831526E+03  0.41655312460E+03  0.46999998093E+01 0.  1.
</event>
<event>
 5   0  0.9507815E-03  0.9350982E+03  0.7818609E-02  0.9382740E-01
       -1   -1    0    0    0  501  0.00000000000E+00  0.00000000000E+00  0.80435646845E+03  0.80435646847E+03  0.50400001928E-02 0. -1.
        1   -1    0    0  501    0  0.00000000000E+00  0.00000000000E+00 -0.27177272462E+03  0.27177272467E+03  0.50400001928E-02 0.  1.
    10030    2    1    2    0    0  0.00000000000E+00  0.00000000000E+00  0.53258374383E+03  0.10761291931E+04  0.93509817459E+03 0.  0.
        1    1    3    3  502    0 -0.73284726606E+02 -0.39615978578E+03 -0.67433464134E+01  0.40293758793E+03  0.50400001928E-02 0.  1.
       -1    1    3    3    0  502  0.73284726606E+02  0.39615978578E+03  0.53932709024E+03  0.67319160520E+03  0.50400001928E-02 0. -1.
</event>
<event>
 5   0  0.1598986E-02  0.8339418E+03  0.7818609E-02  0.9512147E-01
        2   -1    0    0  501    0  0.00000000000E+00  0.00000000000E+00  0.11740813080E+04  0.11740813080E+04  0.25500000920E-02 0. -1.
       -2   -1    0    0    0  501  0.00000000000E+00  0.00000000000E+00 -0.14808577936E+03  0.14808577938E+03  0.25500000920E-02 0.  1.
    10030    2    1    2    0    0  0.00000000000E+00  0.00000000000E+00  0.10259955287E+04  0.13221670874E+04  0.83394183381E+03 0.  0.
        3    1    3    3  502    0  0.85725901917E+02 -0.40191628478E+03  0.40112452092E+03  0.57427042560E+03  0.10100000352E+00 0.  1.
       -3    1    3    3    0  502 -0.85725901917E+02  0.40191628478E+03  0.62487100774E+03  0.74789666181E+03  0.10100000352E+00 0. -1.
</event>
<event>
 5   0  0.1617721E-02  0.9937651E+03  0.7818609E-02  0.9315410E-01
        2   -1    0    0  501    0  0.00000000000E+00  0.00000000000E+00  0.15452456148E+04  0.15452456148E+04  0.25500000920E-02 0.  1.
       -2   -1    0    0    0  501  0.00000000000E+00  0.00000000000E+00 -0.15977543546E+03  0.15977543548E+03  0.25500000920E-02 0. -1.
    10030    2    1    2    0    0  0.00000000000E+00  0.00000000000E+00  0.13854701794E+04  0.17050210503E+04  0.99376514534E+03 0.  0.
        5    1    3    3  502    0  0.28280014481E+03  0.93086896660E+02  0.10256273449E+02  0.29794021779E+03  0.46999998093E+01 0. -1.
       -5    1    3    3    0  502 -0.28280014481E+03 -0.93086896660E+02  0.13752139059E+04  0.14070808325E+04  0.46999998093E+01 0.  1.
</event>
<event>
 5   0  0.1617721E-02  0.9979106E+03  0.7818609E-02  0.9310839E-01
        2   -1    0    0  501    0  0.00000000000E+00  0.00000000000E+00  0.39747984067E+03  0.39747984068E+03  0.25500000920E-02 0. -1.
       -2   -1    0    0    0  501  0.00000000000E+00  0.00000000000E+00 -0.62633712934E+03  0.62633712934E+03  0.25500000920E-02 0.  1.
    10030    2    1    2    0    0  0.00000000000E+00  0.00000000000E+00 -0.22885728866E+03  0.10238169700E+04  0.99791058193E+03 0.  0.
        5    1    3    3  502    0  0.71150027224E+02 -0.18631687952E+03  0.35478207149E+03  0.40702421822E+03  0.46999998093E+01 0. -1.
       -5    1    3    3    0  502 -0.71150027224E+02  0.18631687952E+03 -0.58363936015E+03  0.61679275181E+03  0.46999998093E+01 0.  1.
</event>
<event>
 5   0  0.1598986E-02  0.9838128E+03  0.7818609E-02  0.9326479E-01
        2   -1    0    0  501    0  0.00000000000E+00  0.00000000000E+00  0.22089841631E+04  0.22089841631E+04  0.25500000920E-02 0.  1.
       -2   -1    0    0    0  501  0.00000000000E+00  0.00000000000E+00 -0.10953991157E+03  0.10953991160E+03  0.25500000920E-02 0. -1.
    10030    2    1    2    0    0  0.00000000000E+00  0.00000000000E+00  0.20994442516E+04  0.23185240747E+04  0.98381284791E+03 0.  0.
        3    1    3    3  502    0  0.10864926130E+03  0.36649209545E+02 -0.77605098167E+02  0.13845717028E+03  0.10100000352E+00 0. -1.
       -3    1    3    3    0  502 -0.10864926130E+03 -0.36649209545E+02  0.21770493497E+04  0.21800669045E+04  0.10100000352E+00 0.  1.
</event>
<event>
 5   0  0.9507815E-03  0.1029623E+04  0.7818609E-02  0.9276638E-01
        1   -1    0    0  501    0  0.00000000000E+00  0.00000000000E+00  0.60690599469E+03  0.60690599471E+03  0.50400001928E-02 0.  1.
       -1   -1    0    0    0  501  0.00000000000E+00  0.00000000000E+00 -0.43669188660E+03  0.43669188662E+03  0.50400001928E-02 0. -1.
    10030    2    1    2    0    0  0.00000000000E+00  0.00000000000E+00  0.17021410809E+03  0.10435978813E+04  0.10296230841E+04 0.  0.
        1    1    3    3  502    0  0.88533547893E+02 -0.41825200046E+03  0.37580635521E+03  0.56921291415E+03  0.50400001928E-02 0. -1.
       -1    1    3    3    0  502 -0.88533547893E+02  0.41825200046E+03 -0.20559224711E+03  0.47438496719E+03  0.50400001928E-02 0.  1.
</event>
<event>
 5   0  0.9759443E-03  0.9796890E+03  0.7818609E-02  0.9331106E-01
        1   -1    0    0  501    0  0.00000000000E+00  0.00000000000E+00  0.88049465640E+03  0.88049465642E+03  0.50400001928E-02 0. -1.
       -1   -1    0    0    0  501  0.00000000000E+00  0.00000000000E+00 -0.27251456336E+03  0.27251456341E+03  0.50400001928E-02 0.  1.
    10030    2    1    2    0    0  0.00000000000E+00  0.00000000000E+00  0.60798009304E+03  0.11530092198E+04  0.97968896465E+03 0.  0.
        2    1    3    3  502    0  0.33936278530E+03  0.35306713770E+03  0.31710157607E+03  0.58341830047E+03  0.25500000920E-02 0. -1.
       -2    1    3    3    0  502 -0.33936278530E+03 -0.35306713770E+03  0.29087851697E+03  0.56959091936E+03  0.25500000920E-02 0.  1.
</event>
<event>
 5   0  0.9396660E-03  0.1005468E+04  0.7818609E-02  0.9302568E-01
        1   -1    0    0  501    0  0.00000000000E+00  0.00000000000E+00  0.42036670726E+03  0.42036670729E+03  0.50400001928E-02 0. -1.
       -1   -1    0    0    0  501  0.00000000000E+00  0.00000000000E+00 -0.60124073299E+03  0.60124073302E+03  0.50400001928E-02 0.  1.
    10030    2    1    2    0    0  0.00000000000E+00  0.00000000000E+00 -0.18087402573E+03  0.10216074403E+04  0.10054682237E+04 0.  0.
        5    1    3    3  502    0  0.11629808886E+02 -0.22249028424E+03  0.36744307068E+03  0.42973675573E+03  0.46999998093E+01 0. -1.
       -5    1    3    3    0  502 -0.11629808886E+02  0.22249028424E+03 -0.54831709642E+03  0.59187068457E+03  0.46999998093E+01 0.  1.
</event>
<event>
 5   0  0.1571895E-02  0.9493233E+03  0.7818609E-02  0.9365942E-01
       -2   -1    0    0    0  501  0.00000000000E+00  0.00000000000E+00  0.22390103288E+03  0.22390103289E+03  0.25500000920E-02 0. -1.
        2   -1    0    0  501    0  0.00000000000E+00  0.00000000000E+00 -0.10062645926E+04  0.10062645926E+04  0.25500000920E-02 0.  1.
    10030    2    1    2    0    0  0.00000000000E+00  0.00000000000E+00 -0.78236355974E+03  0.12301656255E+04  0.94932329930E+03 0.  0.
        2    1    3    3  502    0  0.45396123290E+02 -0.38289882817E+03 -0.74989940602E+03  0.84322087247E+03  0.25500000920E-02 0.  1.
       -2    1    3    3    0  502 -0.45396123290E+02  0.38289882817E+03 -0.32464153722E+02  0.38694475304E+03  0.25500000920E-02 0. -1.
</event>
<event>
 5   0  0.1000773E-02  0.1038033E+04  0.7818609E-02  0.9267787E-01
        1   -1    0    0  501    0  0.00000000000E+00  0.00000000000E+00  0.82680142287E+03  0.82680142288E+03  0.50400001928E-02 0. -1.
       -1   -1    0    0    0  501  0.00000000000E+00  0.00000000000E+00 -0.32580767281E+03  0.32580767285E+03  0.50400001928E-02 0.  1.
    10030    2    1    2    0    0  0.00000000000E+00  0.00000000000E+00  0.50099375005E+03  0.11526090957E+04  0.10380332316E+04 0.  0.
        3    1    3    3  502    0  0.44577686878E+03 -0.44092965921E+01 -0.44625133563E+02  0.44802664137E+03  0.10100000352E+00 0. -1.
       -3    1    3    3    0  502 -0.44577686878E+03  0.44092965921E+01  0.54561888361E+03  0.70458245436E+03  0.10100000352E+00 0.  1.
</event>
<event>
 5   0  0.9471140E-03  0.1007271E+04  0.7818609E-02  0.9300606E-01
        1   -1    0    0  501    0  0.00000000000E+00  0.00000000000E+00  0.44554183774E+03  0.44554183777E+03  0.50400001928E-02 0.  1.
       -1   -1    0    0    0  501  0.00000000000E+00  0.00000000000E+00 -0.56930383362E+03  0.56930383364E+03  0.50400001928E-02 0. -1.
    10030    2    1    2    0    0  0.00000000000E+00  0.00000000000E+00 -0.12376199588E+03  0.10148456714E+04  0.10072709194E+04 0.  0.
        4    1    3    3  502    0  0.35328050167E+03  0.79635521660E+02  0.29074834255E+03  0.46441914341E+03  0.12699999809E+01 0.  1.
       -4    1    3    3    0  502 -0.35328050167E+03 -0.79635521660E+02 -0.41451033842E+03  0.55042652800E+03  0.12699999809E+01 0. -1.
</event>
<event>
 5   0  0.1656859E-02  0.1024297E+04  0.7818609E-02  0.9282290E-01
        2   -1    0    0  501    0  0.00000000000E+00  0.00000000000E+00  0.15729929929E+04  0.15729929929E+04  0.25500000920E-02 0. -1.
       -2   -1    0    0    0  501  0.00000000000E+00  0.00000000000E+00 -0.16674976084E+03  0.16674976086E+03  0.25500000920E-02 0.  1.
    10030    2    1    2    0    0  0.00000000000E+00  0.00000000000E+00  0.14062432321E+04  0.17397427538E+04  0.10242972330E+04 0.  0.
        4    1    3    3  502    0  0.11522182204E+03  0.42165336991E+03  0.11564169418E+04  0.12362723765E+04  0.12699999809E+01 0. -1.
       -4    1    3    3    0  502 -0.11522182204E+03 -0.42165336991E+03  0.24982629031E+03  0.50347037734E+03  0.12699999809E+01 0.  1.
</event>
<event>
 5   0  0.6314750E-03  0.1001797E+04  0.7818609E-02  0.9306576E-01
        3   -1    0    0  501    0  0.00000000000E+00  0.00000000000E+00  0.27629604281E+03  0.27629606127E+03  0.10100000352E+00 0. -1.
       -3   -1    0    0    0  501  0.00000000000E+00  0.00000000000E+00 -0.90808175518E+03  0.90808176080E+03  0.10100000352E+00 0.  1.
    10030    2    1    2    0    0  0.00000000000E+00  0.00000000000E+00 -0.63178571237E+03  0.11843778221E+04  0.10017972046E+04 0.  0.
        5    1    3    3  502    0  0.10997810090E+03  0.43092225538E+03 -0.58829419267E+03  0.73749665762E+03  0.46999998093E+01 0. -1.
       -5    1    3    3    0  502 -0.10997810090E+03 -0.43092225538E+03 -0.43491519698E+02  0.44688116446E+03  0.46999998093E+01 0.  1.
</event>
<event>
 5   0  0.9471140E-03  0.1007252E+04  0.7818609E-02  0.9300627E-01
        1   -1    0    0  501    0  0.00000000000E+00  0.00000000000E+00  0.14670779006E+04  0.14670779006E+04  0.50400001928E-02 0. -1.
       -1   -1    0    0    0  501  0.00000000000E+00  0.00000000000E+00 -0.17288728222E+03  0.17288728229E+03  0.50400001928E-02 0.  1.
    10030    2    1    2    0    0  0.00000000000E+00  0.00000000000E+00  0.12941906184E+04  0.16399651829E+04  0.10072519270E+04 0.  0.
        4    1    3    3  502    0 -0.35492512044E+03  0.15262702152E+03  0.12109534595E+03  0.40488584135E+03  0.12699999809E+01 0.  1.
       -4    1    3    3    0  502  0.35492512044E+03 -0.15262702152E+03  0.11730952724E+04  0.12350793416E+04  0.12699999809E+01 0. -1.
</event>
<event>
 5   0  0.9471140E-03  0.1000284E+04  0.7818609E-02  0.9308233E-01
       -1   -1    0    0    0  501  0.00000000000E+00  0.00000000000E+00  0.24931116143E+03  0.24931116148E+03  0.50400001928E-02 0. -1.
        1   -1    0    0  501    0  0.00000000000E+00  0.00000000000E+00 -0.10033323976E+04  0.10033323976E+04  0.50400001928E-02 0.  1.
    10030    2    1    2    0    0  0.00000000000E+00  0.00000000000E+00 -0.75402123613E+03  0.12526435590E+04  0.10002838904E+04 0.  0.
        4    1    3    3  502    0 -0.47206987263E+02  0.48035614339E+03 -0.21291869239E+03  0.52754763444E+03  0.12699999809E+01 0. -1.
       -4    1    3    3    0  502  0.47206987263E+02 -0.48035614339E+03 -0.54110254375E+03  0.72509592461E+03  0.12699999809E+01 0.  1.
</event>
<event>
 5   0  0.9507815E-03  0.1042072E+04  0.7818609E-02  0.9263568E-01
        1   -1    0    0  501    0  0.00000000000E+00  0.00000000000E+00  0.15247827520E+04  0.15247827520E+04  0.50400001928E-02 0. -1.
       -1   -1    0    0    0  501  0.00000000000E+00  0.00000000000E+00 -0.17804393071E+03  0.17804393078E+03  0.50400001928E-02 0.  1.
    10030    2    1    2    0    0  0.00000000000E+00  0.00000000000E+00  0.13467388213E+04  0.17028266828E+04  0.10420716189E+04 0.  0.
        1    1    3    3  502    0 -0.39439330137E+03 -0.96887096625E+02  0.12067530358E+04  0.12732580552E+04  0.50400001928E-02 0. -1.
       -1    1    3    3    0  502  0.39439330137E+03  0.96887096625E+02  0.13998578548E+03  0.42956862760E+03  0.50400001928E-02 0.  1.
</event>
<event>
 5   0  0.1663497E-02  0.9914581E+03  0.7818609E-02  0.9317963E-01
       -2   -1    0    0    0  501  0.00000000000E+00  0.00000000000E+00  0.42421264166E+03  0.42421264167E+03  0.25500000920E-02 0.  1.
        2   -1    0    0  501    0  0.00000000000E+00  0.00000000000E+00 -0.57930211652E+03  0.57930211653E+03  0.25500000920E-02 0. -1.
    10030    2    1    2    0    0  0.00000000000E+00  0.00000000000E+00 -0.15508947486E+03  0.10035147582E+04  0.99145808015E+03 0.  0.
        1    1    3    3  502    0  0.14672694889E+03  0.20678894141E+03  0.35361286867E+03  0.43512357410E+03  0.50400001928E-02 0.  1.
       -1    1    3    3    0  502 -0.14672694889E+03 -0.20678894141E+03 -0.50870234353E+03  0.56839118410E+03  0.50400001928E-02 0. -1.
</event>
<event>
 5   0  0.1000773E-02  0.6717186E+03  0.7818609E-02  0.9766858E-01
        1   -1    0    0  501    0  0.00000000000E+00  0.00000000000E+00  0.64017971409E+03  0.64017971411E+03  0.50400001928E-02 0.  1.
       -1   -1    0    0    0  501  0.00000000000E+00  0.00000000000E+00 -0.17620280182E+03  0.17620280189E+03  0.50400001928E-02 0. -1.
    10030    2    1    2    0    0  0.00000000000E+00  0.00000000000E+00  0.46397691227E+03  0.81638251600E+03  0.67171857002E+03 0.  0.
        3    1    3    3  502    0  0.14077380249E+03 -0.26619606403E+03  0.41276272186E+03  0.51093119178E+03  0.10100000352E+00 0. -1.
       -3    1    3    3    0  502 -0.14077380249E+03  0.26619606403E+03  0.51214190409E+02  0.30545132423E+03  0.10100000352E+00 0.  1.
</event>
<event>
 5   0  0.1571895E-02  0.7562422E+03  0.7818609E-02  0.9625608E-01
        2   -1    0    0  501    0  0.00000000000E+00  0.00000000000E+00  0.10337500720E+04  0.10337500720E+04  0.25500000920E-02 0. -1.
       -2   -1    0    0    0  501  0.00000000000E+00  0.00000000000E+00 -0.13830765814E+03  0.13830765817E+03  0.25500000920E-02 0.  1.
    10030    2    1    2    0    0  0.00000000000E+00  0.00000000000E+00  0.89544241387E+03  0.11720577302E+04  0.75624216117E+03 0.  0.
        2    1    3    3  502    0  0.15812992857E+03 -0.91912432841E+02  0.96062977547E+03  0.97788677010E+03  0.25500000920E-02 0. -1.
       -2    1    3    3    0  502 -0.15812992857E+03  0.91912432841E+02 -0.65187361599E+02  0.19417096008E+03  0.25500000920E-02 0.  1.
</event>
<event>
 5   0  0.1598986E-02  0.1020598E+04  0.7818609E-02  0.9286237E-01
       -2   -1    0    0    0  501  0.00000000000E+00  0.00000000000E+00  0.13145180602E+03  0.13145180605E+03  0.25500000920E-02 0. -1.
        2   -1    0    0  501    0  0.00000000000E+00  0.00000000000E+00 -0.19809935409E+04  0.19809935409E+04  0.25500000920E-02 0.  1.
    10030    2    1    2    0    0  0.00000000000E+00  0.00000000000E+00 -0.18495417349E+04  0.21124453470E+04  0.10205982142E+04 0.  0.
        3    1    3    3  502    0 -0.67511687495E+02  0.13268466622E+03 -0.19350466674E+04  0.19407649687E+04  0.10100000352E+00 0.  1.
       -3    1    3    3    0  502  0.67511687495E+02 -0.13268466622E+03  0.85504932491E+02  0.17168037826E+03  0.10100000352E+00 0. -1.
</event>
<event>
 5   0  0.6314750E-03  0.1031463E+04  0.7818609E-02  0.9274695E-01
       -3   -1    0    0    0  501  0.00000000000E+00  0.00000000000E+00  0.85365359805E+03  0.85365360403E+03  0.10100000352E+00 0. -1.
        3   -1    0    0  501    0  0.00000000000E+00  0.00000000000E+00 -0.31157690952E+03  0.31157692589E+03  0.10100000352E+00 0.  1.
    10030    2    1    2    0    0  0.00000000000E+00  0.00000000000E+00  0.54207668853E+03  0.11652305299E+04  0.10314625789E+04 0.  0.
        4    1    3    3  502    0  0.34198185297E+03  0.12938575219E+03 -0.13984023244E+03  0.39147051503E+03  0.12699999809E+01 0.  1.
       -4    1    3    3    0  502 -0.34198185297E+03 -0.12938575219E+03  0.68191692097E+03  0.77376001489E+03  0.12699999809E+01 0. -1.
</event>
<event>
 5   0  0.9396660E-03  0.1016447E+04  0.7818609E-02  0.9290687E-01
        1   -1    0    0  501    0  0.00000000000E+00  0.00000000000E+00  0.53203161314E+03  0.53203161316E+03  0.50400001928E-02 0.  1.
       -1   -1    0    0    0  501  0.00000000000E+00  0.00000000000E+00 -0.48548115168E+03  0.48548115170E+03  0.50400001928E-02 0. -1.
    10030    2    1    2    0    0  0.00000000000E+00  0.00000000000E+00  0.46550461458E+02  0.10175127649E+04  0.10164473824E+04 0.  0.
        5    1    3    3  502    0  0.14404347533E+03  0.15399624874E+03  0.48615134387E+03  0.52993262455E+03  0.46999998093E+01 0.  1.
       -5    1    3    3    0  502 -0.14404347533E+03 -0.15399624874E+03 -0.43960088242E+03  0.48758014032E+03  0.46999998093E+01 0. -1.
</event>
<event>
 5   0  0.1656859E-02  0.9950795E+03  0.7818609E-02  0.9313958E-01
        2   -1    0    0  501    0  0.00000000000E+00  0.00000000000E+00  0.14654456493E+04  0.14654456493E+04  0.25500000920E-02 0.  1.
       -2   -1    0    0    0  501  0.00000000000E+00  0.00000000000E+00 -0.16892186574E+03  0.16892186576E+03  0.25500000920E-02 0. -1.
    10030    2    1    2    0    0  0.00000000000E+00  0.00000000000E+00  0.12965237836E+04  0.16343675151E+04  0.99507952092E+03 0.  0.
        4    1    3    3  502    0  0.23342378007E+03 -0.12886519953E+02 -0.73092121431E+02  0.24494243123E+03  0.12699999809E+01 0. -1.
       -4    1    3    3    0  502 -0.23342378007E+03  0.12886519953E+02  0.13696159050E+04  0.13894250838E+04  0.12699999809E+01 0.  1.
</event>
<event>
 5   0  0.1656859E-02  0.7131488E+03  0.7818609E-02  0.9695007E-01
       -2   -1    0    0    0  501  0.00000000000E+00  0.00000000000E+00  0.24948993664E+03  0.24948993666E+03  0.25500000920E-02 0. -1.
        2   -1    0    0  501    0  0.00000000000E+00  0.00000000000E+00 -0.50962090904E+03  0.50962090904E+03  0.25500000920E-02 0.  1.
    10030    2    1    2    0    0  0.00000000000E+00  0.00000000000E+00 -0.26013097239E+03  0.75911084570E+03  0.71314875956E+03 0.  0.
        4    1    3    3  502    0  0.30939070687E+03 -0.13036367213E+03 -0.25791636943E+03  0.42336717283E+03  0.12699999809E+01 0. -1.
       -4    1    3    3    0  502 -0.30939070687E+03  0.13036367213E+03 -0.22146029636E+01  0.33574367287E+03  0.12699999809E+01 0.  1.
</event>
<event>
 5   0  0.1571895E-02  0.1002741E+04  0.7818609E-02  0.9305544E-01
       -2   -1    0    0    0  501  0.00000000000E+00  0.00000000000E+00  0.29864455959E+03  0.29864455960E+03  0.25500000920E-02 0. -1.
        2   -1    0    0  501    0  0.00000000000E+00  0.00000000000E+00 -0.84171075216E+03  0.84171075217E+03  0.25500000920E-02 0.  1.
    10030    2    1    2    0    0  0.00000000000E+00  0.00000000000E+00 -0.54306619258E+03  0.11403553118E+04  0.10027409175E+04 0.  0.
        2    1    3    3  502    0  0.22581920472E+02  0.34033147510E+03 -0.68943817757E+03  0.76919468067E+03  0.25500000920E-02 0.  1.
       -2    1    3    3    0  502 -0.22581920472E+02 -0.34033147510E+03  0.14637198499E+03  0.37116063109E+03  0.25500000920E-02 0. -1.
</event>
<event>
 5   0  0.9396660E-03  0.9909196E+03  0.7818609E-02  0.9318561E-01
       -1   -1    0    0    0  501  0.00000000000E+00  0.00000000000E+00  0.16025594876E+03  0.16025594884E+03  0.50400001928E-02 0.  1.
        1   -1    0    0  501    0  0.00000000000E+00  0.00000000000E+00 -0.15318020592E+04  0.15318020592E+04  0.50400001928E-02 0. -1.
    10030    2    1    2    0    0  0.00000000000E+00  0.00000000000E+00 -0.13715461104E+04  0.16920580080E+04  0.99091955754E+03 0.  0.
        5    1    3    3  502    0 -0.14072651050E+03  0.20489175514E+03  0.46040347323E+02  0.25283667784E+03  0.46999998093E+01 0.  1.
       -5    1    3    3    0  502  0.14072651050E+03 -0.20489175514E+03 -0.14175864577E+04  0.14392213302E+04  0.46999998093E+01 0. -1.
</event>
<event>
 5   0  0.1598986E-02  0.8964296E+03  0.7818609E-02  0.9430056E-01
       -2   -1    0    0    0  501  0.00000000000E+00  0.00000000000E+00  0.13011791941E+03  0.13011791943E+03  0.25500000920E-02 0.  1.
        2   -1    0    0  501    0  0.00000000000E+00  0.00000000000E+00 -0.15439573560E+04  0.15439573560E+04  0.25500000920E-02 0. -1.
    10030    2    1    2    0    0  0.00000000000E+00  0.00000000000E+00 -0.14138394366E+04  0.16740752754E+04  0.89642962656E+03 0.  0.
        3    1    3    3  502    0 -0.39285664401E+03  0.21577667052E+03 -0.70835945149E+03  0.83825356367E+03  0.10100000352E+00 0.  1.
       -3    1    3    3    0  502  0.39285664401E+03 -0.21577667052E+03 -0.70547998510E+03  0.83582171177E+03  0.10100000352E+00 0. -1.
</event>
<event>
 5   0  0.6314750E-03  0.6030340E+03  0.7818609E-02  0.9899131E-01
       -3   -1    0    0    0  501  0.00000000000E+00  0.00000000000E+00  0.24318321955E+03  0.24318324052E+03  0.10100000352E+00 0.  1.
        3   -1    0    0  501    0  0.00000000000E+00  0.00000000000E+00 -0.37384361216E+03  0.37384362581E+03  0.10100000352E+00 0. -1.
    10030    2    1    2    0    0  0.00000000000E+00  0.00000000000E+00 -0.13066039262E+03  0.61702686633E+03  0.60303400864E+03 0.  0.
        2    1    3    3  502    0  0.81613370308E+02 -0.17467850500E+03 -0.30252643230E+03  0.35874164042E+03  0.25500000920E-02 0. -1.
       -2    1    3    3    0  502 -0.81613370308E+02  0.17467850500E+03  0.17186603969E+03  0.25828522591E+03  0.25500000920E-02 0.  1.
</event>
<event>
 5   0  0.1000773E-02  0.9809363E+03  0.7818609E-02  0.9329704E-01
        1   -1    0    0  501    0  0.00000000000E+00  0.00000000000E+00  0.20574330122E+04  0.20574330122E+04  0.50400001928E-02 0.  1.
       -1   -1    0    0    0  501  0.00000000000E+00  0.00000000000E+00 -0.11692190961E+03  0.11692190971E+03  0.50400001928E-02 0. -1.
    10030    2    1    2    0    0  0.00000000000E+00  0.00000000000E+00  0.19405111026E+04  0.21743549219E+04  0.98093628090E+03 0.  0.
        3    1    3    3  502    0  0.22811914437E+03 -0.42031866264E+03  0.72893111731E+03  0.87180657612E+03  0.10100000352E+00 0. -1.
       -3    1    3    3    0  502 -0.22811914437E+03  0.42031866264E+03  0.12115799853E+04  0.13025483458E+04  0.10100000352E+00 0.  1.
</event>
<event>
 5   0  0.6314750E-03  0.7727764E+03  0.7818609E-02  0.9600280E-01
        3   -1    0    0  501    0  0.00000000000E+00  0.00000000000E+00  0.15420922280E+03  0.15420925587E+03  0.10100000352E+00 0. -1.
       -3   -1    0    0    0  501  0.00000000000E+00  0.00000000000E+00 -0.96813809525E+03  0.96813810052E+03  0.10100000352E+00 0.  1.
    10030    2    1    2    0    0  0.00000000000E+00  0.00000000000E+00 -0.81392887245E+03  0.11223473564E+04  0.77277640944E+03 0.  0.
        2    1    3    3  502    0  0.18329478539E+03 -0.33501780617E+03 -0.32151032811E+03  0.49920216334E+03  0.25500000920E-02 0. -1.
       -2    1    3    3    0  502 -0.18329478539E+03  0.33501780617E+03 -0.49241854434E+03  0.62314519305E+03  0.25500000920E-02 0.  1.
</event>
<event>
 5   0  0.1656859E-02  0.9631898E+03  0.7818609E-02  0.9349865E-01
        2   -1    0    0  501    0  0.00000000000E+00  0.00000000000E+00  0.12229578843E+04  0.12229578843E+04  0.25500000920E-02 0. -1.
       -2   -1    0    0    0  501  0.00000000000E+00  0.00000000000E+00 -0.18964974896E+03  0.18964974898E+03  0.25500000920E-02 0.  1.
    10030    2    1    2    0    0  0.00000000000E+00  0.00000000000E+00  0.10333081353E+04  0.14126076333E+04  0.96318981672E+03 0.  0.
        4    1    3    3  502    0 -0.13612999543E+03 -0.18501010393E+03  0.11374439792E+04  0.11604053314E+04  0.12699999809E+01 0. -1.
       -4    1    3    3    0  502  0.13612999543E+03  0.18501010393E+03 -0.10413584390E+03  0.25220230193E+03  0.12699999809E+01 0.  1.
</event>
<event>
 5   0  0.9471140E-03  0.1018978E+04  0.7818609E-02  0.9287972E-01
        1   -1    0    0  501    0  0.00000000000E+00  0.00000000000E+00  0.30088671049E+03  0.30088671053E+03  0.50400001928E-02 0.  1.
       -1   -1    0    0    0  501  0.00000000000E+00  0.00000000000E+00 -0.86271280819E+03  0.86271280820E+03  0.50400001928E-02 0. -1.
    10030    2    1    2    0    0  0.00000000000E+00  0.00000000000E+00 -0.56182609770E+03  0.11635995187E+04  0.10189775640E+04 0.  0.
        4    1    3    3  502    0 -0.12780266533E+03  0.25821603039E+03 -0.76075157538E+03  0.81348239807E+03  0.12699999809E+01 0. -1.
       -4    1    3    3    0  502  0.12780266533E+03 -0.25821603039E+03  0.19892547768E+03  0.35011712067E+03  0.12699999809E+01 0.  1.
</event>
<event>
 5   0  0.1000773E-02  0.9858802E+03  0.7818609E-02  0.9324168E-01
        1   -1    0    0  501    0  0.00000000000E+00  0.00000000000E+00  0.93160332221E+03  0.93160332222E+03  0.50400001928E-02 0.  1.
       -1   -1    0    0    0  501  0.00000000000E+00  0.00000000000E+00 -0.26082982352E+03  0.26082982357E+03  0.50400001928E-02 0. -1.
    10030    2    1    2    0    0  0.00000000000E+00  0.00000000000E+00  0.67077349868E+03  0.11924331458E+04  0.98588017561E+03 0.  0.
        3    1    3    3  502    0  0.39984807609E+03  0.19363837269E+03  0.59371189369E+03  0.74153093411E+03  0.10100000352E+00 0.  1.
       -3    1    3    3    0  502 -0.39984807609E+03 -0.19363837269E+03  0.77061604996E+02  0.45090221168E+03  0.10100000352E+00 0. -1.
</event>
<event>
 5   0  0.1571895E-02  0.1000222E+04  0.7818609E-02  0.9308301E-01
       -2   -1    0    0    0  501  0.00000000000E+00  0.00000000000E+00  0.27659133352E+03  0.27659133353E+03  0.25500000920E-02 0.  1.
        2   -1    0    0  501    0  0.00000000000E+00  0.00000000000E+00 -0.90426217877E+03  0.90426217878E+03  0.25500000920E-02 0. -1.
    10030    2    1    2    0    0  0.00000000000E+00  0.00000000000E+00 -0.62767084526E+03  0.11808535123E+04  0.10002221391E+04 0.  0.
        2    1    3    3  502    0  0.12328340568E+03  0.36569782051E+03  0.61691686506E+02  0.39081908632E+03  0.25500000920E-02 0.  1.
       -2    1    3    3    0  502 -0.12328340568E+03 -0.36569782051E+03 -0.68936253176E+03  0.79003442599E+03  0.25500000920E-02 0. -1.
</event>
<event>
 5   0  0.1000773E-02  0.9981462E+03  0.7818609E-02  0.9310580E-01
        1   -1    0    0  501    0  0.00000000000E+00  0.00000000000E+00  0.12665245587E+04  0.12665245587E+04  0.50400001928E-02 0. -1.
       -1   -1    0    0    0  501  0.00000000000E+00  0.00000000000E+00 -0.19665940494E+03  0.19665940501E+03  0.50400001928E-02 0.  1.
    10030    2    1    2    0    0  0.00000000000E+00  0.00000000000E+00  0.10698651538E+04  0.14631839637E+04  0.99814621397E+03 0.  0.
        3    1    3    3  502    0 -0.44705753834E+03  0.50141913772E+02  0.85171418758E+03  0.96321945663E+03  0.10100000352E+00 0.  1.
       -3    1    3    3    0  502  0.44705753834E+03 -0.50141913772E+02  0.21815096619E+03  0.49996450710E+03  0.10100000352E+00 0. -1.
</event>
<event>
 5   0  0.1656859E-02  0.9839127E+03  0.7818609E-02  0.9326367E-01
       -2   -1    0    0    0  501  0.00000000000E+00  0.00000000000E+00  0.69744455347E+03  0.69744455347E+03  0.25500000920E-02 0.  1.
        2   -1    0    0  501    0  0.00000000000E+00  0.00000000000E+00 -0.34701119352E+03  0.34701119353E+03  0.25500000920E-02 0. -1.
    10030    2    1    2    0    0  0.00000000000E+00  0.00000000000E+00  0.35043335994E+03  0.10444557470E+04  0.98391273377E+03 0.  0.
        4    1    3    3  502    0  0.56324632185E+02 -0.30065837679E+03 -0.23378566884E+03  0.38500035790E+03  0.12699999809E+01 0. -1.
       -4    1    3    3    0  502 -0.56324632185E+02  0.30065837679E+03  0.58421902878E+03  0.65945538910E+03  0.12699999809E+01 0.  1.
</event>
<event>
 5   0  0.1663497E-02  0.9661367E+03  0.7818609E-02  0.9346486E-01
       -2   -1    0    0    0  501  0.00000000000E+00  0.00000000000E+00  0.35741252704E+03  0.35741252705E+03  0.25500000920E-02 0.  1.
        2   -1    0    0  501    0  0.00000000000E+00  0.00000000000E+00 -0.65290110220E+03  0.65290110221E+03  0.25500000920E-02 0. -1.
    10030    2    1    2    0    0  0.00000000000E+00  0.00000000000E+00 -0.29548857516E+03  0.10103136293E+04  0.96613670430E+03 0.  0.
        1    1    3    3  502    0 -0.93570119207E+02 -0.32895541420E+03  0.20901208117E+03  0.40081552096E+03  0.50400001928E-02 0.  1.
       -1    1    3    3    0  502  0.93570119207E+02  0.32895541420E+03 -0.50450065634E+03  0.60949810829E+03  0.50400001928E-02 0. -1.
</event>
<event>
 5   0  0.1598986E-02  0.9955027E+03  0.7818609E-02  0.9313491E-01
       -2   -1    0    0    0  501  0.00000000000E+00  0.00000000000E+00  0.95200872696E+03  0.95200872696E+03  0.25500000920E-02 0.  1.
        2   -1    0    0  501    0  0.00000000000E+00  0.00000000000E+00 -0.26024593164E+03  0.26024593165E+03  0.25500000920E-02 0. -1.
    10030    2    1    2    0    0  0.00000000000E+00  0.00000000000E+00  0.69176279532E+03  0.12122546586E+04  0.99550268323E+03 0.  0.
        3    1    3    3  502    0 -0.50688183772E+02 -0.25182275775E+02  0.94807741483E+03  0.94976535718E+03  0.10100000352E+00 0.  1.
       -3    1    3    3    0  502  0.50688183772E+02  0.25182275775E+02 -0.25631461951E+03  0.26248930143E+03  0.10100000352E+00 0. -1.
</event>
<event>
 5   0  0.1598986E-02  0.1000655E+04  0.7818609E-02  0.9307827E-01
       -2   -1    0    0    0  501  0.00000000000E+00  0.00000000000E+00  0.22266351871E+03  0.22266351872E+03  0.25500000920E-02 0. -1.
        2   -1    0    0  501    0  0.00000000000E+00  0.00000000000E+00 -0.11242415354E+04  0.11242415354E+04  0.25500000920E-02 0.  1.
    10030    2    1    2    0    0  0.00000000000E+00  0.00000000000E+00 -0.90157801668E+03  0.13469050541E+04  0.10006549378E+04 0.  0.
        3    1    3    3  502    0 -0.41279170240E+03  0.23671652829E+03 -0.65886117381E+03  0.81272982036E+03  0.10100000352E+00 0. -1.
       -3    1    3    3    0  502  0.41279170240E+03 -0.23671652829E+03 -0.24271684286E+03  0.53417523375E+03  0.10100000352E+00 0.  1.
</event>
<event>
 5   0  0.1617721E-02  0.1007381E+04  0.7818609E-02  0.9300486E-01
        2   -1    0    0  501    0  0.00000000000E+00  0.00000000000E+00  0.13154169262E+04  0.13154169262E+04  0.25500000920E-02 0. -1.
       -2   -1    0    0    0  501  0.00000000000E+00  0.00000000000E+00 -0.19286970142E+03  0.19286970144E+03  0.25500000920E-02 0.  1.
    10030    2    1    2    0    0  0.00000000000E+00  0.00000000000E+00  0.11225472248E+04  0.15082866277E+04  0.10073809008E+04 0.  0.
        5    1    3    3  502    0  0.16672606243E+03  0.14381186695E+03  0.12395107109E+04  0.12589234788E+04  0.46999998093E+01 0. -1.
       -5    1    3    3    0  502 -0.16672606243E+03 -0.14381186695E+03 -0.11696348607E+03  0.24936314892E+03  0.46999998093E+01 0.  1.
</event>
<event>
 5   0  0.1000773E-02  0.9691548E+03  0.7818609E-02  0.9343038E-01
        1   -1    0    0  501    0  0.00000000000E+00  0.00000000000E+00  0.47122079769E+03  0.47122079771E+03  0.50400001928E-02 0. -1.
       -1   -1    0    0    0  501  0.00000000000E+00  0.00000000000E+00 -0.49831263646E+03  0.49831263649E+03  0.50400001928E-02 0.  1.
    10030    2    1    2    0    0  0.00000000000E+00  0.00000000000E+00 -0.27091838777E+02  0.96953343420E+03  0.96915484434E+03 0.  0.
        3    1    3    3  502    0  0.15813530629E+03  0.28584400889E+03 -0.37159870599E+03  0.49477184743E+03  0.10100000352E+00 0.  1.
       -3    1    3    3    0  502 -0.15813530629E+03 -0.28584400889E+03  0.34450686722E+03  0.47476158677E+03  0.10100000352E+00 0. -1.
</event>
<event>
 5   0  0.9471140E-03  0.1071117E+04  0.7818609E-02  0.9233809E-01
        1   -1    0    0  501    0  0.00000000000E+00  0.00000000000E+00  0.12189046893E+04  0.12189046893E+04  0.50400001928E-02 0. -1.
       -1   -1    0    0    0  501  0.00000000000E+00  0.00000000000E+00 -0.23531203720E+03  0.23531203726E+03  0.50400001928E-02 0.  1.
    10030    2    1    2    0    0  0.00000000000E+00  0.00000000000E+00  0.98359265210E+03  0.14542167266E+04  0.10711170723E+04 0.  0.
        4    1    3    3  502    0  0.48773965052E+03 -0.98278486596E+02  0.76084917961E+03  0.90908839759E+03  0.12699999809E+01 0. -1.
       -4    1    3    3    0  502 -0.48773965052E+03  0.98278486596E+02  0.22274347249E+03  0.54512832898E+03  0.12699999809E+01 0.  1.
</event>
<event>
 5   0  0.1656859E-02  0.9946925E+03  0.7818609E-02  0.9314385E-01
       -2   -1    0    0    0  501  0.00000000000E+00  0.00000000000E+00  0.22594820694E+03  0.22594820696E+03  0.25500000920E-02 0.  1.
        2   -1    0    0  501    0  0.00000000000E+00  0.00000000000E+00 -0.10947345281E+04  0.10947345281E+04  0.25500000920E-02 0. -1.
    10030    2    1    2    0    0  0.00000000000E+00  0.00000000000E+00 -0.86878632117E+03  0.13206827351E+04  0.99469252277E+03 0.  0.
        4    1    3    3  502    0 -0.24403065841E+03  0.28435259428E+03 -0.86859187232E+03  0.94597083130E+03  0.12699999809E+01 0. -1.
       -4    1    3    3    0  502  0.24403065841E+03 -0.28435259428E+03 -0.19444885812E+00  0.37471190377E+03  0.12699999809E+01 0.  1.
</event>
<event>
 5   0  0.1000773E-02  0.8265029E+03  0.7818609E-02  0.9522428E-01
       -1   -1    0    0    0  501  0.00000000000E+00  0.00000000000E+00  0.15063093415E+03  0.15063093424E+03  0.50400001928E-02 0.  1.
        1   -1    0    0  501    0  0.00000000000E+00  0.00000000000E+00 -0.11337429779E+04  0.11337429779E+04  0.50400001928E-02 0. -1.
    10030    2    1    2    0    0  0.00000000000E+00  0.00000000000E+00 -0.98311204375E+03  0.12843739121E+04  0.82650290722E+03 0.  0.
        3    1    3    3  502    0  0.35540186398E+03 -0.91238223364E+02 -0.19612757445E+03  0.41605400368E+03  0.10100000352E+00 0.  1.
       -3    1    3    3    0  502 -0.35540186398E+03  0.91238223364E+02 -0.78698446929E+03  0.86831990846E+03  0.10100000352E+00 0. -1.
</event>
<event>
 5   0  0.9759443E-03  0.8544189E+03  0.7818609E-02  0.9484425E-01
       -1   -1    0    0    0  501  0.00000000000E+00  0.00000000000E+00  0.43862464816E+03  0.43862464819E+03  0.50400001928E-02 0.  1.
        1   -1    0    0  501    0  0.00000000000E+00  0.00000000000E+00 -0.41609129552E+03  0.41609129555E+03  0.50400001928E-02 0. -1.
    10030    2    1    2    0    0  0.00000000000E+00  0.00000000000E+00  0.22533352642E+02  0.85471594374E+03  0.85441886244E+03 0.  0.
        2    1    3    3  502    0 -0.14958307751E+03  0.37088742334E+03  0.16156977625E+03  0.43132049624E+03  0.25500000920E-02 0.  1.
       -2    1    3    3    0  502  0.14958307751E+03 -0.37088742334E+03 -0.13903642361E+03  0.42339544750E+03  0.25500000920E-02 0. -1.
</event>
<event>
 5   0  0.1000773E-02  0.6594307E+03  0.7818609E-02  0.9789242E-01
       -1   -1    0    0    0  501  0.00000000000E+00  0.00000000000E+00  0.43022033603E+03  0.43022033606E+03  0.50400001928E-02 0. -1.
        1   -1    0    0  501    0  0.00000000000E+00  0.00000000000E+00 -0.25268959274E+03  0.25268959279E+03  0.50400001928E-02 0.  1.
    10030    2    1    2    0    0  0.00000000000E+00  0.00000000000E+00  0.17753074329E+03  0.68290992885E+03  0.65943066816E+03 0.  0.
        3    1    3    3  502    0 -0.20399510078E+03 -0.14037005057E+03  0.31421938976E+03  0.40006447898E+03  0.10100000352E+00 0. -1.
       -3    1    3    3    0  502  0.20399510078E+03  0.14037005057E+03 -0.13668864647E+03  0.28284544987E+03  0.10100000352E+00 0.  1.
</event>
<event>
 5   0  0.1000773E-02  0.1112039E+04  0.7818609E-02  0.9193536E-01
        1   -1    0    0  501    0  0.00000000000E+00  0.00000000000E+00  0.39506411163E+03  0.39506411166E+03  0.50400001928E-02 0.  1.
       -1   -1    0    0    0  501  0.00000000000E+00  0.00000000000E+00 -0.78255105893E+03  0.78255105895E+03  0.50400001928E-02 0. -1.
    10030    2    1    2    0    0  0.00000000000E+00  0.00000000000E+00 -0.38748694730E+03  0.11776151706E+04  0.11120392780E+04 0.  0.
        3    1    3    3  502    0 -0.37485289529E+03 -0.27447152778E+03 -0.51722084558E+03  0.69524580256E+03  0.10100000352E+00 0. -1.
       -3    1    3    3    0  502  0.37485289529E+03  0.27447152778E+03  0.12973389828E+03  0.48236936805E+03  0.10100000352E+00 0.  1.
</event>
<event>
 5   0  0.9396660E-03  0.1157895E+04  0.7818609E-02  0.9150531E-01
        1   -1    0    0  501    0  0.00000000000E+00  0.00000000000E+00  0.51822302276E+03  0.51822302278E+03  0.50400001928E-02 0.  1.
       -1   -1    0    0    0  501  0.00000000000E+00  0.00000000000E+00 -0.64678783525E+03  0.64678783527E+03  0.50400001928E-02 0. -1.
    10030    2    1    2    0    0  0.00000000000E+00  0.00000000000E+00 -0.12856481249E+03  0.11650108581E+04  0.11578952407E+04 0.  0.
        5    1    3    3  502    0  0.48571266338E+03  0.19430792983E+03  0.18520489815E+03  0.55497324914E+03  0.46999998093E+01 0.  1.
       -5    1    3    3    0  502 -0.48571266338E+03 -0.19430792983E+03 -0.31376971065E+03  0.61003760891E+03  0.46999998093E+01 0. -1.
</event>
<event>
 5   0  0.9759443E-03  0.9407169E+03  0.7818609E-02  0.9376067E-01
        1   -1    0    0  501    0  0.00000000000E+00  0.00000000000E+00  0.39237696926E+03  0.39237696930E+03  0.50400001928E-02 0.  1.
       -1   -1    0    0    0  501  0.00000000000E+00  0.00000000000E+00 -0.56383812294E+03  0.56383812296E+03  0.50400001928E-02 0. -1.
    10030    2    1    2    0    0  0.00000000000E+00  0.00000000000E+00 -0.17146115368E+03  0.95621509226E+03  0.94071694757E+03 0.  0.
        2    1    3    3  502    0 -0.60986252922E+02 -0.84495349762E+02 -0.55195723632E+03  0.56170773353E+03  0.25500000920E-02 0. -1.
       -2    1    3    3    0  502  0.60986252922E+02  0.84495349762E+02  0.38049608264E+03  0.39450735873E+03  0.25500000920E-02 0.  1.
</event>
<event>
 5   0  0.6314750E-03  0.9985158E+03  0.7818609E-02  0.9310174E-01
       -3   -1    0    0    0  501  0.00000000000E+00  0.00000000000E+00  0.22759900332E+03  0.22759902573E+03  0.10100000352E+00 0. -1.
        3   -1    0    0  501    0  0.00000000000E+00  0.00000000000E+00 -0.10951648768E+04  0.10951648815E+04  0.10100000352E+00 0.  1.
    10030    2    1    2    0    0  0.00000000000E+00  0.00000000000E+00 -0.86756587351E+03  0.13227639072E+04  0.99851580326E+03 0.  0.
        1    1    3    3  502    0  0.26378222855E+03 -0.25691817773E+03  0.12850425579E+02  0.36844694002E+03  0.50400001928E-02 0. -1.
       -1    1    3    3    0  502 -0.26378222855E+03  0.25691817773E+03 -0.88041629909E+03  0.95431696720E+03  0.50400001928E-02 0.  1.
</event>
<event>
 5   0  0.6314750E-03  0.8834190E+03  0.7818609E-02  0.9446549E-01
       -4   -1    0    0    0  501  0.00000000000E+00  0.00000000000E+00  0.89356202620E+03  0.89356292871E+03  0.12699999809E+01 0. -1.
        4   -1    0    0  501    0  0.00000000000E+00  0.00000000000E+00 -0.21834493681E+03  0.21834863025E+03  0.12699999809E+01 0.  1.
    10030    2    1    2    0    0  0.00000000000E+00  0.00000000000E+00  0.67521708939E+03  0.11119115590E+04  0.88341903826E+03 0.  0.
        3    1    3    3  502    0 -0.28254991267E+03  0.19462713242E+03 -0.12541877921E+02  0.34332416566E+03  0.10100000352E+00 0.  1.
       -3    1    3    3    0  502  0.28254991267E+03 -0.19462713242E+03  0.68775896731E+03  0.76858739330E+03  0.10100000352E+00 0. -1.
</event>
<event>
 5   0  0.1617721E-02  0.1008898E+04  0.7818609E-02  0.9298839E-01
       -2   -1    0    0    0  501  0.00000000000E+00  0.00000000000E+00  0.16989480553E+03  0.16989480555E+03  0.25500000920E-02 0. -1.
        2   -1    0    0  501    0  0.00000000000E+00  0.00000000000E+00 -0.14978030201E+04  0.14978030201E+04  0.25500000920E-02 0.  1.
    10030    2    1    2    0    0  0.00000000000E+00  0.00000000000E+00 -0.13279082146E+04  0.16676978256E+04  0.10088983157E+04 0.  0.
        5    1    3    3  502    0 -0.19699477002E+03  0.46436991821E+03 -0.66278236293E+03  0.83291590869E+03  0.46999998093E+01 0. -1.
       -5    1    3    3    0  502  0.19699477002E+03 -0.46436991821E+03 -0.66512585164E+03  0.83478191695E+03  0.46999998093E+01 0.  1.
</event>
<event>
 5   0  0.9507815E-03  0.9908170E+03  0.7818609E-02  0.9318674E-01
       -1   -1    0    0    0  501  0.00000000000E+00  0.00000000000E+00  0.37426094195E+03  0.37426094199E+03  0.50400001928E-02 0.  1.
        1   -1    0    0  501    0  0.00000000000E+00  0.00000000000E+00 -0.65577131302E+03  0.65577131304E+03  0.50400001928E-02 0. -1.
    10030    2    1    2    0    0  0.00000000000E+00  0.00000000000E+00 -0.28151037107E+03  0.10300322550E+04  0.99081701508E+03 0.  0.
        1    1    3    3  502    0 -0.46054250260E+03  0.63557421611E+02 -0.31867398908E+03  0.56364177798E+03  0.50400001928E-02 0.  1.
       -1    1    3    3    0  502  0.46054250260E+03 -0.63557421611E+02  0.37163618016E+02  0.46639047704E+03  0.50400001928E-02 0. -1.
</event>
<event>
 5   0  0.1617721E-02  0.1000302E+04  0.7818609E-02  0.9308214E-01
       -2   -1    0    0    0  501  0.00000000000E+00  0.00000000000E+00  0.23553235735E+03  0.23553235737E+03  0.25500000920E-02 0. -1.
        2   -1    0    0  501    0  0.00000000000E+00  0.00000000000E+00 -0.10620662307E+04  0.10620662307E+04  0.25500000920E-02 0.  1.
    10030    2    1    2    0    0  0.00000000000E+00  0.00000000000E+00 -0.82653387339E+03  0.12975985881E+04  0.10003018804E+04 0.  0.
        5    1    3    3  502    0  0.33150353951E+03 -0.33120139234E+03 -0.18657128808E+03  0.50440052987E+03  0.46999998093E+01 0. -1.
       -5    1    3    3    0  502 -0.33150353951E+03  0.33120139234E+03 -0.63996258531E+03  0.79319805824E+03  0.46999998093E+01 0.  1.
</event>
<event>
 5   0  0.1000773E-02  0.9911970E+03  0.7818609E-02  0.9318253E-01
        1   -1    0    0  501    0  0.00000000000E+00  0.00000000000E+00  0.16239203250E+03  0.16239203258E+03  0.50400001928E-02 0.  1.
       -1   -1    0    0    0  501  0.00000000000E+00  0.00000000000E+00 -0.15124995682E+04  0.15124995682E+04  0.50400001928E-02 0. -1.
    10030    2    1    2    0    0  0.00000000000E+00  0.00000000000E+00 -0.13501075357E+04  0.16748916008E+04  0.99119701192E+03 0.  0.
        3    1    3    3  502    0  0.16715415905E+03 -0.45958964178E+03 -0.53929579956E+03  0.72801313267E+03  0.10100000352E+00 0.  1.
       -3    1    3    3    0  502 -0.16715415905E+03  0.45958964178E+03 -0.81081173616E+03  0.94687846813E+03  0.10100000352E+00 0. -1.
</event>
<event>
 5   0  0.1656859E-02  0.9879070E+03  0.7818609E-02  0.9321908E-01
        2   -1    0    0  501    0  0.00000000000E+00  0.00000000000E+00  0.36569620663E+03  0.36569620664E+03  0.25500000920E-02 0. -1.
       -2   -1    0    0    0  501  0.00000000000E+00  0.00000000000E+00 -0.66719336161E+03  0.66719336162E+03  0.25500000920E-02 0.  1.
    10030    2    1    2    0    0  0.00000000000E+00  0.00000000000E+00 -0.30149715498E+03  0.10328895683E+04  0.98790704307E+03 0.  0.
        4    1    3    3  502    0 -0.48551893744E+03  0.54793997038E+02 -0.22655836772E+03  0.53857341895E+03  0.12699999809E+01 0.  1.
       -4    1    3    3    0  502  0.48551893744E+03 -0.54793997038E+02 -0.74938787265E+02  0.49431614930E+03  0.12699999809E+01 0. -1.
</event>
<event>
 5   0  0.9471140E-03  0.1029236E+04  0.7818609E-02  0.9277048E-01
       -1   -1    0    0    0  501  0.00000000000E+00  0.00000000000E+00  0.25654671465E+03  0.25654671470E+03  0.50400001928E-02 0. -1.
        1   -1    0    0  501    0  0.00000000000E+00  0.00000000000E+00 -0.10322948953E+04  0.10322948953E+04  0.50400001928E-02 0.  1.
    10030    2    1    2    0    0  0.00000000000E+00  0.00000000000E+00 -0.77574818062E+03  0.12888416100E+04  0.10292363460E+04 0.  0.
        4    1    3    3  502    0 -0.32453009334E+03 -0.14141523746E+03  0.79850850176E+02  0.36289918992E+03  0.12699999809E+01 0. -1.
       -4    1    3    3    0  502  0.32453009334E+03  0.14141523746E+03 -0.85559903080E+03  0.92594242006E+03  0.12699999809E+01 0.  1.
</event>
<event>
 5   0  0.1656859E-02  0.9397027E+03  0.7818609E-02  0.9377268E-01
       -2   -1    0    0    0  501  0.00000000000E+00  0.00000000000E+00  0.23570157864E+03  0.23570157865E+03  0.25500000920E-02 0.  1.
        2   -1    0    0  501    0  0.00000000000E+00  0.00000000000E+00 -0.93660939260E+03  0.93660939260E+03  0.25500000920E-02 0. -1.
    10030    2    1    2    0    0  0.00000000000E+00  0.00000000000E+00 -0.70090781396E+03  0.11723109713E+04  0.93970274537E+03 0.  0.
        4    1    3    3  502    0 -0.43512733627E+03  0.46233574175E+02 -0.13696387720E+03  0.45851287736E+03  0.12699999809E+01 0.  1.
       -4    1    3    3    0  502  0.43512733627E+03 -0.46233574175E+02 -0.56394393675E+03  0.71379809390E+03  0.12699999809E+01 0. -1.
</event>
<event>
 5   0  0.1571895E-02  0.1094435E+04  0.7818609E-02  0.9210632E-01
       -2   -1    0    0    0  501  0.00000000000E+00  0.00000000000E+00  0.66961357721E+03  0.66961357722E+03  0.25500000920E-02 0.  1.
        2   -1    0    0  501    0  0.00000000000E+00  0.00000000000E+00 -0.44719409927E+03  0.44719409928E+03  0.25500000920E-02 0. -1.
    10030    2    1    2    0    0  0.00000000000E+00  0.00000000000E+00  0.22241947794E+03  0.11168076765E+04  0.10944354536E+04 0.  0.
        2    1    3    3  502    0  0.10754759954E+03 -0.29812714023E+03 -0.34400448693E+03  0.46774497853E+03  0.25500000920E-02 0. -1.
       -2    1    3    3    0  502 -0.10754759954E+03  0.29812714023E+03  0.56642396487E+03  0.64906269797E+03  0.25500000920E-02 0.  1.
</event>
<event>
 5   0  0.9507815E-03  0.1189767E+04  0.7818609E-02  0.9121860E-01
        1   -1    0    0  501    0  0.00000000000E+00  0.00000000000E+00  0.43810783517E+03  0.43810783520E+03  0.50400001928E-02 0. -1.
       -1   -1    0    0    0  501  0.00000000000E+00  0.00000000000E+00 -0.80776155935E+03  0.80776155936E+03  0.50400001928E-02 0.  1.
    10030    2    1    2    0    0  0.00000000000E+00  0.00000000000E+00 -0.36965372417E+03  0.12458693946E+04  0.11897674867E+04 0.  0.
        1    1    3    3  502    0 -0.40925102072E+02 -0.10306613457E+03  0.42718870800E+03  0.44134757770E+03  0.50400001928E-02 0. -1.
       -1    1    3    3    0  502  0.40925102072E+02  0.10306613457E+03 -0.79684243217E+03  0.80452181686E+03  0.50400001928E-02 0.  1.
</event>
<event>
 5   0  0.6314750E-03  0.7891289E+03  0.7818609E-02  0.9575887E-01
        3   -1    0    0  501    0  0.00000000000E+00  0.00000000000E+00  0.99666762521E+03  0.99666763033E+03  0.10100000352E+00 0. -1.
       -3   -1    0    0    0  501  0.00000000000E+00  0.00000000000E+00 -0.15620159458E+03  0.15620162724E+03  0.10100000352E+00 0.  1.
    10030    2    1    2    0    0  0.00000000000E+00  0.00000000000E+00  0.84046603063E+03  0.11528692576E+04  0.78912887186E+03 0.  0.
        2    1    3    3  502    0 -0.11114627388E+03 -0.25410270017E+02 -0.13161132740E+03  0.17412845122E+03  0.25500000920E-02 0.  1.
       -2    1    3    3    0  502  0.11114627388E+03  0.25410270017E+02  0.97207735803E+03  0.97874080635E+03  0.25500000920E-02 0. -1.
</event>
<event>
 5   0  0.9507815E-03  0.1006968E+04  0.7818609E-02  0.9300935E-01
        1   -1    0    0  501    0  0.00000000000E+00  0.00000000000E+00  0.30918607891E+03  0.30918607895E+03  0.50400001928E-02 0. -1.
       -1   -1    0    0    0  501  0.00000000000E+00  0.00000000000E+00 -0.81988188277E+03  0.81988188279E+03  0.50400001928E-02 0.  1.
    10030    2    1    2    0    0  0.00000000000E+00  0.00000000000E+00 -0.51069580387E+03  0.11290679617E+04  0.10069678536E+04 0.  0.
        1    1    3    3  502    0 -0.19937263032E+03 -0.33648464843E+03  0.10015313426E+03  0.40373507982E+03  0.50400001928E-02 0. -1.
       -1    1    3    3    0  502  0.19937263032E+03  0.33648464843E+03 -0.61084893813E+03  0.72533288192E+03  0.50400001928E-02 0.  1.
</event>
<event>
 5   0  0.1617721E-02  0.9823889E+03  0.7818609E-02  0.9328074E-01
        2   -1    0    0  501    0  0.00000000000E+00  0.00000000000E+00  0.27747075130E+04  0.27747075130E+04  0.25500000920E-02 0. -1.
       -2   -1    0    0    0  501  0.00000000000E+00  0.00000000000E+00 -0.86954026263E+02  0.86954026300E+02  0.25500000920E-02 0.  1.
    10030    2    1    2    0    0  0.00000000000E+00  0.00000000000E+00  0.26877534867E+04  0.28616615393E+04  0.98238890469E+03 0.  0.
        5    1    3    3  502    0  0.43285773144E+03 -0.20043002595E+03  0.10027753739E+04  0.11104587122E+04  0.46999998093E+01 0.  1.
       -5    1    3    3    0  502 -0.43285773144E+03  0.20043002595E+03  0.16849781128E+04  0.17512028271E+04  0.46999998093E+01 0. -1.
</event>
<event>
 5   0  0.1598986E-02  0.1016862E+04  0.7818609E-02  0.9290242E-01
        2   -1    0    0  501    0  0.00000000000E+00  0.00000000000E+00  0.25133288790E+03  0.25133288791E+03  0.25500000920E-02 0. -1.
       -2   -1    0    0    0  501  0.00000000000E+00  0.00000000000E+00 -0.10285250673E+04  0.10285250673E+04  0.25500000920E-02 0.  1.
    10030    2    1    2    0    0  0.00000000000E+00  0.00000000000E+00 -0.77719217939E+03  0.12798579552E+04  0.10168621843E+04 0.  0.
        3    1    3    3  502    0  0.27677599906E+03  0.36800240764E+03 -0.65992291816E+03  0.80469186264E+03  0.10100000352E+00 0.  1.
       -3    1    3    3    0  502 -0.27677599906E+03 -0.36800240764E+03 -0.11726926123E+03  0.47516609256E+03  0.10100000352E+00 0. -1.
</event>
<event>
 5   0  0.1617721E-02  0.9770683E+03  0.7818609E-02  0.9334060E-01
       -2   -1    0    0    0  501  0.00000000000E+00  0.00000000000E+00  0.20310947333E+03  0.20310947335E+03  0.25500000920E-02 0.  1.
        2   -1    0    0  501    0  0.00000000000E+00  0.00000000000E+00 -0.11750589859E+04  0.11750589859E+04  0.25500000920E-02 0. -1.
    10030    2    1    2    0    0  0.00000000000E+00  0.00000000000E+00 -0.97194951254E+03  0.13781684592E+04  0.97706829191E+03 0.  0.
        5    1    3    3  502    0 -0.31703656783E+02  0.40376742125E+02 -0.11712118401E+04  0.11723457969E+04  0.46999998093E+01 0. -1.
       -5    1    3    3    0  502  0.31703656783E+02 -0.40376742125E+02  0.19926232753E+03  0.20582266233E+03  0.46999998093E+01 0.  1.
</event>
<event>
 5   0  0.9759443E-03  0.1021772E+04  0.7818609E-02  0.9284983E-01
       -1   -1    0    0    0  501  0.00000000000E+00  0.00000000000E+00  0.31369238109E+03  0.31369238113E+03  0.50400001928E-02 0.  1.
        1   -1    0    0  501    0  0.00000000000E+00  0.00000000000E+00 -0.83203948333E+03  0.83203948334E+03  0.50400001928E-02 0. -1.
    10030    2    1    2    0    0  0.00000000000E+00  0.00000000000E+00 -0.51834710224E+03  0.11457318645E+04  0.10217718859E+04 0.  0.
        2    1    3    3  502    0  0.26106433030E+03 -0.34102385530E+03 -0.56942155329E+03  0.71322700439E+03  0.25500000920E-02 0. -1.
       -2    1    3    3    0  502 -0.26106433030E+03  0.34102385530E+03  0.51074451054E+02  0.43250486008E+03  0.25500000920E-02 0.  1.
</event>
<event>
 5   0  0.1656859E-02  0.9904044E+03  0.7818609E-02  0.9319132E-01
        2   -1    0    0  501    0  0.00000000000E+00  0.00000000000E+00  0.11880988020E+04  0.11880988020E+04  0.25500000920E-02 0.  1.
       -2   -1    0    0    0  501  0.00000000000E+00  0.00000000000E+00 -0.20640136236E+03  0.20640136238E+03  0.25500000920E-02 0. -1.
    10030    2    1    2    0    0  0.00000000000E+00  0.00000000000E+00  0.98169743961E+03  0.13945001644E+04  0.99040438481E+03 0.  0.
        4    1    3    3  502    0  0.22268625033E+03 -0.15238991241E+03 -0.93792513139E+02  0.28567551507E+03  0.12699999809E+01 0. -1.
       -4    1    3    3    0  502 -0.22268625033E+03  0.15238991241E+03  0.10754899527E+04  0.11088246493E+04  0.12699999809E+01 0.  1.
</event>
<event>
 5   0  0.9507815E-03  0.1020539E+04  0.7818609E-02  0.9286300E-01
       -1   -1    0    0    0  501  0.00000000000E+00  0.00000000000E+00  0.40019334287E+03  0.40019334290E+03  0.50400001928E-02 0.  1.
        1   -1    0    0  501    0  0.00000000000E+00  0.00000000000E+00 -0.65062317489E+03  0.65062317491E+03  0.50400001928E-02 0. -1.
    10030    2    1    2    0    0  0.00000000000E+00  0.00000000000E+00 -0.25042983203E+03  0.10508165178E+04  0.10205391974E+04 0.  0.
        1    1    3    3  502    0 -0.34281674554E+03 -0.59716552254E+02  0.25906742572E+03  0.43382636934E+03  0.50400001928E-02 0.  1.
       -1    1    3    3    0  502  0.34281674554E+03  0.59716552254E+02 -0.50949725775E+03  0.61699014848E+03  0.50400001928E-02 0. -1.
</event>
<event>
 5   0  0.1598986E-02  0.9329113E+03  0.7818609E-02  0.9385351E-01
        2   -1    0    0  501    0  0.00000000000E+00  0.00000000000E+00  0.43276129432E+03  0.43276129432E+03  0.25500000920E-02 0. -1.
       -2   -1    0    0    0  501  0.00000000000E+00  0.00000000000E+00 -0.50277342300E+03  0.50277342300E+03  0.25500000920E-02 0.  1.
    10030    2    1    2    0    0  0.00000000000E+00  0.00000000000E+00 -0.70012128680E+02  0.93553471733E+03  0.93291130830E+03 0.  0.
        3    1    3    3  502    0  0.30000480804E+03 -0.48795922671E+02 -0.38983285947E+03  0.49432134835E+03  0.10100000352E+00 0.  1.
       -3    1    3    3    0  502 -0.30000480804E+03  0.48795922671E+02  0.31982073079E+03  0.44121336897E+03  0.10100000352E+00 0. -1.
</event>
<event>
 5   0  0.9507815E-03  0.9726307E+03  0.7818609E-02  0.9339083E-01
        1   -1    0    0  501    0  0.00000000000E+00  0.00000000000E+00  0.14091246366E+04  0.14091246366E+04  0.50400001928E-02 0.  1.
       -1   -1    0    0    0  501  0.00000000000E+00  0.00000000000E+00 -0.16783655238E+03  0.16783655246E+03  0.50400001928E-02 0. -1.
    10030    2    1    2    0    0  0.00000000000E+00  0.00000000000E+00  0.12412880842E+04  0.15769611891E+04  0.97263070269E+03 0.  0.
        1    1    3    3  502    0 -0.40357521047E+03 -0.57472194895E+02  0.10506088339E+04  0.11269227683E+04  0.50400001928E-02 0.  1.
       -1    1    3    3    0  502  0.40357521047E+03  0.57472194895E+02  0.19067925032E+03  0.45003842083E+03  0.50400001928E-02 0. -1.
</event>
<event>
 5   0  0.1617721E-02  0.1000901E+04  0.7818609E-02  0.9307557E-01
        2   -1    0    0  501    0  0.00000000000E+00  0.00000000000E+00  0.58202115145E+03  0.58202115146E+03  0.25500000920E-02 0. -1.
       -2   -1    0    0    0  501  0.00000000000E+00  0.00000000000E+00 -0.43031218731E+03  0.43031218732E+03  0.25500000920E-02 0.  1.
    10030    2    1    2    0    0  0.00000000000E+00  0.00000000000E+00  0.15170896414E+03  0.10123333388E+04  0.10009011834E+04 0.  0.
        5    1    3    3  502    0 -0.27700850346E+03 -0.16686021530E+03  0.46212318142E+03  0.56405315995E+03  0.46999998093E+01 0. -1.
       -5    1    3    3    0  502  0.27700850346E+03  0.16686021530E+03 -0.31041421728E+03  0.44828017883E+03  0.46999998093E+01 0.  1.
</event>
<event>
 5   0  0.6314750E-03  0.7705109E+03  0.7818609E-02  0.9603710E-01
       -3   -1    0    0    0  501  0.00000000000E+00  0.00000000000E+00  0.11072498705E+04  0.11072498751E+04  0.10100000352E+00 0. -1.
        3   -1    0    0  501    0  0.00000000000E+00  0.00000000000E+00 -0.13404539167E+03  0.13404542972E+03  0.10100000352E+00 0.  1.
    10030    2    1    2    0    0  0.00000000000E+00  0.00000000000E+00  0.97320447881E+03  0.12412953048E+04  0.77051091890E+03 0.  0.
        4    1    3    3  502    0  0.16386435667E+02  0.19972070273E+03 -0.43472256508E+02  0.20505688079E+03  0.12699999809E+01 0.  1.
       -4    1    3    3    0  502 -0.16386435667E+02 -0.19972070273E+03  0.10166767353E+04  0.10362384240E+04  0.12699999809E+01 0. -1.
</event>
<event>
 5   0  0.9471140E-03  0.9896917E+03  0.7818609E-02  0.9319924E-01
       -1   -1    0    0    0  501  0.00000000000E+00  0.00000000000E+00  0.40249306342E+03  0.40249306345E+03  0.50400001928E-02 0.  1.
        1   -1    0    0  501    0  0.00000000000E+00  0.00000000000E+00 -0.60838911667E+03  0.60838911669E+03  0.50400001928E-02 0. -1.
    10030    2    1    2    0    0  0.00000000000E+00  0.00000000000E+00 -0.20589605325E+03  0.10108821801E+04  0.98969166783E+03 0.  0.
        4    1    3    3  502    0  0.34590468925E+03  0.15107631436E+03  0.22389826661E+03  0.43886917583E+03  0.12699999809E+01 0.  1.
       -4    1    3    3    0  502 -0.34590468925E+03 -0.15107631436E+03 -0.42979431986E+03  0.57201300430E+03  0.12699999809E+01 0. -1.
</event>
<event>
 5   0  0.1571895E-02  0.9977126E+03  0.7818609E-02  0.9311057E-01
       -2   -1    0    0    0  501  0.00000000000E+00  0.00000000000E+00  0.20152316033E+03  0.20152316034E+03  0.25500000920E-02 0.  1.
        2   -1    0    0  501    0  0.00000000000E+00  0.00000000000E+00 -0.12348834097E+04  0.12348834098E+04  0.25500000920E-02 0. -1.
    10030    2    1    2    0    0  0.00000000000E+00  0.00000000000E+00 -0.10333602494E+04  0.14364065701E+04  0.99771259866E+03 0.  0.
        2    1    3    3  502    0 -0.19093907228E+03 -0.20124254453E+03 -0.11135937987E+04  0.11476268729E+04  0.25500000920E-02 0. -1.
       -2    1    3    3    0  502  0.19093907228E+03  0.20124254453E+03  0.80233549254E+02  0.28877969715E+03  0.25500000920E-02 0.  1.
</event>
<event>
 5   0  0.1598986E-02  0.1032080E+04  0.7818609E-02  0.9274043E-01
       -2   -1    0    0    0  501  0.00000000000E+00  0.00000000000E+00  0.37393180246E+03  0.37393180247E+03  0.25500000920E-02 0. -1.
        2   -1    0    0  501    0  0.00000000000E+00  0.00000000000E+00 -0.71215525721E+03  0.71215525721E+03  0.25500000920E-02 0.  1.
    10030    2    1    2    0    0  0.00000000000E+00  0.00000000000E+00 -0.33822345475E+03  0.10860870597E+04  0.10320804212E+04 0.  0.
        3    1    3    3  502    0  0.51425983541E+03  0.28808715381E+02 -0.13576159114E+03  0.53265780782E+03  0.10100000352E+00 0.  1.
       -3    1    3    3    0  502 -0.51425983541E+03 -0.28808715381E+02 -0.20246186361E+03  0.55342925186E+03  0.10100000352E+00 0. -1.
</event>
<event>
 5   0  0.9396660E-03  0.9800808E+03  0.7818609E-02  0.9330666E-01
       -1   -1    0    0    0  501  0.00000000000E+00  0.00000000000E+00  0.70502956067E+03  0.70502956069E+03  0.50400001928E-02 0. -1.
        1   -1    0    0  501    0  0.00000000000E+00  0.00000000000E+00 -0.34060922375E+03  0.34060922379E+03  0.50400001928E-02 0.  1.
    10030    2    1    2    0    0  0.00000000000E+00  0.00000000000E+00  0.36442033692E+03  0.10456387845E+04  0.98008075465E+03 0.  0.
        5    1    3    3  502    0 -0.25320215864E+03  0.25304010457E+03  0.53922310455E+03  0.64724359722E+03  0.46999998093E+01 0. -1.
       -5    1    3    3    0  502  0.25320215864E+03 -0.25304010457E+03 -0.17480276764E+03  0.39839518726E+03  0.46999998093E+01 0.  1.
</event>
<event>
 5   0  0.6314750E-03  0.1006614E+04  0.7818609E-02  0.9301320E-01
       -4   -1    0    0    0  501  0.00000000000E+00  0.00000000000E+00  0.46520055851E+03  0.46520229206E+03  0.12699999809E+01 0.  1.
        4   -1    0    0  501    0  0.00000000000E+00  0.00000000000E+00 -0.54453184786E+03  0.54453332886E+03  0.12699999809E+01 0. -1.
    10030    2    1    2    0    0  0.00000000000E+00  0.00000000000E+00 -0.79331289352E+02  0.10097356209E+04  0.10066144101E+04 0.  0.
        4    1    3    3  502    0  0.32444083491E+03  0.20340743902E+03 -0.36729757236E+03  0.53060867046E+03  0.12699999809E+01 0. -1.
       -4    1    3    3    0  502 -0.32444083491E+03 -0.20340743902E+03  0.28796628301E+03  0.47912695046E+03  0.12699999809E+01 0.  1.
</event>
<event>
 5   0  0.1656859E-02  0.9592304E+03  0.7818609E-02  0.9354426E-01
       -2   -1    0    0    0  501  0.00000000000E+00  0.00000000000E+00  0.66104701352E+03  0.66104701353E+03  0.25500000920E-02 0. -1.
        2   -1    0    0  501    0  0.00000000000E+00  0.00000000000E+00 -0.34797937910E+03  0.34797937911E+03  0.25500000920E-02 0.  1.
    10030    2    1    2    0    0  0.00000000000E+00  0.00000000000E+00  0.31306763442E+03  0.10090263926E+04  0.95923037761E+03 0.  0.
        4    1    3    3  502    0 -0.35388454806E+03  0.23947067822E+03 -0.72601205198E+02  0.43342015064E+03  0.12699999809E+01 0.  1.
       -4    1    3    3    0  502  0.35388454806E+03 -0.23947067822E+03  0.38566883962E+03  0.57560624200E+03  0.12699999809E+01 0. -1.
</event>
<event>
 5   0  0.1571895E-02  0.5396361E+03  0.7818609E-02  0.1003922E+00
        2   -1    0    0  501    0  0.00000000000E+00  0.00000000000E+00  0.10577987260E+04  0.10577987260E+04  0.25500000920E-02 0.  1.
       -2   -1    0    0    0  501  0.00000000000E+00  0.00000000000E+00 -0.68823846855E+02  0.68823846902E+02  0.25500000920E-02 0. -1.
    10030    2    1    2    0    0  0.00000000000E+00  0.00000000000E+00  0.98897487910E+03  0.11266225729E+04  0.53963609052E+03 0.  0.
        2    1    3    3  502    0  0.59670083026E+02  0.21713739301E+03  0.18417371296E+03  0.29091085026E+03  0.25500000920E-02 0. -1.
       -2    1    3    3    0  502 -0.59670083026E+02 -0.21713739301E+03  0.80480116615E+03  0.83571172260E+03  0.25500000920E-02 0.  1.
</event>
<event>
 5   0  0.9759443E-03  0.9813815E+03  0.7818609E-02  0.9329204E-01
       -1   -1    0    0    0  501  0.00000000000E+00  0.00000000000E+00  0.64514116438E+03  0.64514116440E+03  0.50400001928E-02 0. -1.
        1   -1    0    0  501    0  0.00000000000E+00  0.00000000000E+00 -0.37321661777E+03  0.37321661780E+03  0.50400001928E-02 0.  1.
    10030    2    1    2    0    0  0.00000000000E+00  0.00000000000E+00  0.27192454662E+03  0.10183577822E+04  0.98138148215E+03 0.  0.
        2    1    3    3  502    0  0.13252087302E+03  0.32857468664E+03  0.48824479015E+03  0.60324628603E+03  0.25500000920E-02 0. -1.
       -2    1    3    3    0  502 -0.13252087302E+03 -0.32857468664E+03 -0.21632024354E+03  0.41511149617E+03  0.25500000920E-02 0.  1.
</event>
<event>
 5   0  0.1571895E-02  0.1009978E+04  0.7818609E-02  0.9297669E-01
        2   -1    0    0  501    0  0.00000000000E+00  0.00000000000E+00  0.27159478638E+03  0.27159478639E+03  0.25500000920E-02 0.  1.
       -2   -1    0    0    0  501  0.00000000000E+00  0.00000000000E+00 -0.93894925207E+03  0.93894925207E+03  0.25500000920E-02 0. -1.
    10030    2    1    2    0    0  0.00000000000E+00  0.00000000000E+00 -0.66735446569E+03  0.12105440385E+04  0.10099776662E+04 0.  0.
        2    1    3    3  502    0  0.36295140228E+03  0.28868823626E+03 -0.94142785248E+02  0.47322033155E+03  0.25500000920E-02 0. -1.
       -2    1    3    3    0  502 -0.36295140228E+03 -0.28868823626E+03 -0.57321168044E+03  0.73732370691E+03  0.25500000920E-02 0.  1.
</event>
<event>
 5   0  0.1617721E-02  0.9933501E+03  0.7818609E-02  0.9315869E-01
       -2   -1    0    0    0  501  0.00000000000E+00  0.00000000000E+00  0.26207731358E+03  0.26207731359E+03  0.25500000920E-02 0.  1.
        2   -1    0    0  501    0  0.00000000000E+00  0.00000000000E+00 -0.94127225295E+03  0.94127225295E+03  0.25500000920E-02 0. -1.
    10030    2    1    2    0    0  0.00000000000E+00  0.00000000000E+00 -0.67919493937E+03  0.12033495665E+04  0.99335009621E+03 0.  0.
        5    1    3    3  502    0 -0.39601560297E+03 -0.26734295261E+03 -0.50375697335E+03  0.69432974176E+03  0.46999998093E+01 0. -1.
       -5    1    3    3    0  502  0.39601560297E+03  0.26734295261E+03 -0.17543796602E+03  0.50901982478E+03  0.46999998093E+01 0.  1.
</event>
<event>
 5   0  0.1656859E-02  0.1034030E+04  0.7818609E-02  0.9271989E-01
       -2   -1    0    0    0  501  0.00000000000E+00  0.00000000000E+00  0.21308693770E+03  0.21308693771E+03  0.25500000920E-02 0.  1.
        2   -1    0    0  501    0  0.00000000000E+00  0.00000000000E+00 -0.12544393015E+04  0.12544393015E+04  0.25500000920E-02 0. -1.
    10030    2    1    2    0    0  0.00000000000E+00  0.00000000000E+00 -0.10413523638E+04  0.14675262392E+04  0.10340302303E+04 0.  0.
        4    1    3    3  502    0  0.69742200676E+01 -0.38804003185E+03 -0.10054616200E+04  0.10777654607E+04  0.12699999809E+01 0. -1.
       -4    1    3    3    0  502 -0.69742200676E+01  0.38804003185E+03 -0.35890743768E+02  0.38976077849E+03  0.12699999809E+01 0.  1.
</event>
<event>
 5   0  0.1571895E-02  0.9765818E+03  0.7818609E-02  0.9334609E-01
       -2   -1    0    0    0  501  0.00000000000E+00  0.00000000000E+00  0.28552396277E+03  0.28552396278E+03  0.25500000920E-02 0.  1.
        2   -1    0    0  501    0  0.00000000000E+00  0.00000000000E+00 -0.83505418332E+03  0.83505418333E+03  0.25500000920E-02 0. -1.
    10030    2    1    2    0    0  0.00000000000E+00  0.00000000000E+00 -0.54953022055E+03  0.11205781461E+04  0.97658175194E+03 0.  0.
        2    1    3    3  502    0  0.17724024279E+03  0.41463251160E+03 -0.48972056531E+03  0.66570297839E+03  0.25500000920E-02 0.  1.
       -2    1    3    3    0  502 -0.17724024279E+03 -0.41463251160E+03 -0.59809655245E+02  0.45487516772E+03  0.25500000920E-02 0. -1.
</event>
<event>
 5   0  0.1617721E-02  0.1002078E+04  0.7818609E-02  0.9306269E-01
        2   -1    0    0  501    0  0.00000000000E+00  0.00000000000E+00  0.63572315022E+03  0.63572315022E+03  0.25500000920E-02 0.  1.
       -2   -1    0    0    0  501  0.00000000000E+00  0.00000000000E+00 -0.39488904129E+03  0.39488904129E+03  0.25500000920E-02 0. -1.
    10030    2    1    2    0    0  0.00000000000E+00  0.00000000000E+00  0.24083410893E+03  0.10306121915E+04  0.10020780515E+04 0.  0.
        5    1    3    3  502    0  0.10577205180E+03 -0.18673939226E+03  0.58603197810E+03  0.62411128568E+03  0.46999998093E+01 0.  1.
       -5    1    3    3    0  502 -0.10577205180E+03  0.18673939226E+03 -0.34519786917E+03  0.40650090583E+03  0.46999998093E+01 0. -1.
</event>
<event>
 5   0  0.9507815E-03  0.9746804E+03  0.7818609E-02  0.9336759E-01
        1   -1    0    0  501    0  0.00000000000E+00  0.00000000000E+00  0.62892621987E+03  0.62892621989E+03  0.50400001928E-02 0.  1.
       -1   -1    0    0    0  501  0.00000000000E+00  0.00000000000E+00 -0.37762852143E+03  0.37762852146E+03  0.50400001928E-02 0. -1.
    10030    2    1    2    0    0  0.00000000000E+00  0.00000000000E+00  0.25129769845E+03  0.10065547414E+04  0.97468041639E+03 0.  0.
        1    1    3    3  502    0 -0.27537944855E+03  0.21458689888E+03  0.47679664950E+03  0.59094536368E+03  0.50400001928E-02 0.  1.
       -1    1    3    3    0  502  0.27537944855E+03 -0.21458689888E+03 -0.22549895105E+03  0.41560937767E+03  0.50400001928E-02 0. -1.
</event>
<event>
 5   0  0.1598986E-02  0.9097271E+03  0.7818609E-02  0.9413503E-01
       -2   -1    0    0    0  501  0.00000000000E+00  0.00000000000E+00  0.46831673719E+03  0.46831673720E+03  0.25500000920E-02 0. -1.
        2   -1    0    0  501    0  0.00000000000E+00  0.00000000000E+00 -0.44179678137E+03  0.44179678138E+03  0.25500000920E-02 0.  1.
    10030    2    1    2    0    0  0.00000000000E+00  0.00000000000E+00  0.26519955816E+02  0.91011351858E+03  0.90972705172E+03 0.  0.
        3    1    3    3  502    0 -0.14142394169E+03 -0.42131815248E+03 -0.83688878422E+02  0.45223174973E+03  0.10100000352E+00 0.  1.
       -3    1    3    3    0  502  0.14142394169E+03  0.42131815248E+03  0.11020883424E+03  0.45788176884E+03  0.10100000352E+00 0. -1.
</event>
<event>
 5   0  0.9507815E-03  0.1016682E+04  0.7818609E-02  0.9290436E-01
       -1   -1    0    0    0  501  0.00000000000E+00  0.00000000000E+00  0.77291345559E+03  0.77291345561E+03  0.50400001928E-02 0. -1.
        1   -1    0    0  501    0  0.00000000000E+00  0.00000000000E+00 -0.33433290255E+03  0.33433290259E+03  0.50400001928E-02 0.  1.
    10030    2    1    2    0    0  0.00000000000E+00  0.00000000000E+00  0.43858055304E+03  0.11072463582E+04  0.10166816592E+04 0.  0.
        1    1    3    3  502    0 -0.31837041605E+03 -0.45016224996E+02  0.64809449020E+03  0.72347263292E+03  0.50400001928E-02 0. -1.
       -1    1    3    3    0  502  0.31837041605E+03  0.45016224996E+02 -0.20951393716E+03  0.38377372528E+03  0.50400001928E-02 0.  1.
</event>
<event>
 5   0  0.1571895E-02  0.1010699E+04  0.7818609E-02  0.9296888E-01
        2   -1    0    0  501    0  0.00000000000E+00  0.00000000000E+00  0.17002707723E+04  0.17002707723E+04  0.25500000920E-02 0. -1.
       -2   -1    0    0    0  501  0.00000000000E+00  0.00000000000E+00 -0.15019850186E+03  0.15019850188E+03  0.25500000920E-02 0.  1.
    10030    2    1    2    0    0  0.00000000000E+00  0.00000000000E+00  0.15500722704E+04  0.18504692742E+04  0.10106990111E+04 0.  0.
        2    1    3    3  502    0  0.37138930125E+03 -0.12623816743E+03  0.19170010191E+03  0.43659479735E+03  0.25500000920E-02 0.  1.
       -2    1    3    3    0  502 -0.37138930125E+03  0.12623816743E+03  0.13583721685E+04  0.14138744768E+04  0.25500000920E-02 0. -1.
</event>
<event>
 5   0  0.1617721E-02  0.9557608E+03  0.7818609E-02  0.9358442E-01
        2   -1    0    0  501    0  0.00000000000E+00  0.00000000000E+00  0.21171888746E+04  0.21171888746E+04  0.25500000920E-02 0.  1.
       -2   -1    0    0    0  501  0.00000000000E+00  0.00000000000E+00 -0.10786456779E+03  0.10786456782E+03  0.25500000920E-02 0. -1.
    10030    2    1    2    0    0  0.00000000000E+00  0.00000000000E+00  0.20093243068E+04  0.22250534424E+04  0.95576077117E+03 0.  0.
        5    1    3    3  502    0  0.98840649300E+02 -0.12767800684E+03 -0.42379310961E+02  0.16700072868E+03  0.46999998093E+01 0. -1.
       -5    1    3    3    0  502 -0.98840649300E+02  0.12767800684E+03  0.20517036177E+04  0.20580527137E+04  0.46999998093E+01 0.  1.
</event>
<event>
 5   0  0.9507815E-03  0.8666848E+03  0.7818609E-02  0.9468213E-01
       -1   -1    0    0    0  501  0.00000000000E+00  0.00000000000E+00  0.28417204872E+03  0.28417204877E+03  0.50400001928E-02 0. -1.
        1   -1    0    0  501    0  0.00000000000E+00  0.00000000000E+00 -0.66081668505E+03  0.66081668506E+03  0.50400001928E-02 0.  1.
    10030    2    1    2    0    0  0.00000000000E+00  0.00000000000E+00 -0.37664463632E+03  0.94498873383E+03  0.86668478987E+03 0.  0.
        1    1    3    3  502    0 -0.42478173421E+03 -0.31917438676E+02 -0.27505397480E+03  0.50706304705E+03  0.50400001928E-02 0.  1.
       -1    1    3    3    0  502  0.42478173421E+03  0.31917438676E+02 -0.10159066152E+03  0.43792568678E+03  0.50400001928E-02 0. -1.
</event>
<event>
 5   0  0.9471140E-03  0.9473323E+03  0.7818609E-02  0.9368274E-01
       -1   -1    0    0    0  501  0.00000000000E+00  0.00000000000E+00  0.19385024273E+03  0.19385024280E+03  0.50400001928E-02 0. -1.
        1   -1    0    0  501    0  0.00000000000E+00  0.00000000000E+00 -0.11573862284E+04  0.11573862284E+04  0.50400001928E-02 0.  1.
    10030    2    1    2    0    0  0.00000000000E+00  0.00000000000E+00 -0.96353598564E+03  0.13512364712E+04  0.94733225714E+03 0.  0.
        4    1    3    3  502    0  0.44689851743E+02 -0.47146785373E+03 -0.49443519905E+03  0.68465093216E+03  0.12699999809E+01 0. -1.
       -4    1    3    3    0  502 -0.44689851743E+02  0.47146785373E+03 -0.46910078659E+03  0.66658553902E+03  0.12699999809E+01 0.  1.
</event>
<event>
 5   0  0.9396660E-03  0.1048593E+04  0.7818609E-02  0.9256798E-01
       -1   -1    0    0    0  501  0.00000000000E+00  0.00000000000E+00  0.19516341808E+03  0.19516341814E+03  0.50400001928E-02 0. -1.
        1   -1    0    0  501    0  0.00000000000E+00  0.00000000000E+00 -0.14084958330E+04  0.14084958330E+04  0.50400001928E-02 0.  1.
    10030    2    1    2    0    0  0.00000000000E+00  0.00000000000E+00 -0.12133324149E+04  0.16036592512E+04  0.10485930787E+04 0.  0.
        5    1    3    3  502    0 -0.11838343329E+03 -0.26982115983E+03  0.56523743973E+02  0.30005852630E+03  0.46999998093E+01 0. -1.
       -5    1    3    3    0  502  0.11838343329E+03  0.26982115983E+03 -0.12698561589E+04  0.13036007249E+04  0.46999998093E+01 0.  1.
</event>
<event>
 5   0  0.6314750E-03  0.9436136E+03  0.7818609E-02  0.9372647E-01
        3   -1    0    0  501    0  0.00000000000E+00  0.00000000000E+00  0.70922472685E+03  0.70922473404E+03  0.10100000352E+00 0.  1.
       -3   -1    0    0    0  501  0.00000000000E+00  0.00000000000E+00 -0.31386619594E+03  0.31386621219E+03  0.10100000352E+00 0. -1.
    10030    2    1    2    0    0  0.00000000000E+00  0.00000000000E+00  0.39535853090E+03  0.10230909462E+04  0.94361364779E+03 0.  0.
        4    1    3    3  502    0 -0.28721426365E+02  0.29135125695E+03  0.59882782831E+03  0.66656346743E+03  0.12699999809E+01 0.  1.
       -4    1    3    3    0  502  0.28721426365E+02 -0.29135125695E+03 -0.20346929740E+03  0.35652747880E+03  0.12699999809E+01 0. -1.
</event>
<event>
 5   0  0.6314750E-03  0.9934901E+03  0.7818609E-02  0.9315714E-01
       -3   -1    0    0    0  501  0.00000000000E+00  0.00000000000E+00  0.29010588674E+03  0.29010590432E+03  0.10100000352E+00 0. -1.
        3   -1    0    0  501    0  0.00000000000E+00  0.00000000000E+00 -0.85057085757E+03  0.85057086356E+03  0.10100000352E+00 0.  1.
    10030    2    1    2    0    0  0.00000000000E+00  0.00000000000E+00 -0.56046497083E+03  0.11406767679E+04  0.99349006299E+03 0.  0.
        2    1    3    3  502    0 -0.87531053142E+02  0.69816864087E+02 -0.83589440729E+03  0.84335967411E+03  0.25500000920E-02 0.  1.
       -2    1    3    3    0  502  0.87531053142E+02 -0.69816864087E+02  0.27542943646E+03  0.29731709377E+03  0.25500000920E-02 0. -1.
</event>
<event>
 5   0  0.1000773E-02  0.9119654E+03  0.7818609E-02  0.9410747E-01
       -1   -1    0    0    0  501  0.00000000000E+00  0.00000000000E+00  0.34323151411E+03  0.34323151415E+03  0.50400001928E-02 0.  1.
        1   -1    0    0  501    0  0.00000000000E+00  0.00000000000E+00 -0.60577246593E+03  0.60577246595E+03  0.50400001928E-02 0. -1.
    10030    2    1    2    0    0  0.00000000000E+00  0.00000000000E+00 -0.26254095182E+03  0.94900398010E+03  0.91196535178E+03 0.  0.
        3    1    3    3  502    0 -0.81544794508E+01  0.42850208579E+03  0.30743669523E+02  0.42968094731E+03  0.10100000352E+00 0.  1.
       -3    1    3    3    0  502  0.81544794508E+01 -0.42850208579E+03 -0.29328462134E+03  0.51932303278E+03  0.10100000352E+00 0. -1.
</event>
<event>
 5   0  0.1617721E-02  0.9259548E+03  0.7818609E-02  0.9393706E-01
        2   -1    0    0  501    0  0.00000000000E+00  0.00000000000E+00  0.60655553723E+03  0.60655553723E+03  0.25500000920E-02 0.  1.
       -2   -1    0    0    0  501  0.00000000000E+00  0.00000000000E+00 -0.35338573764E+03  0.35338573765E+03  0.25500000920E-02 0. -1.
    10030    2    1    2    0    0  0.00000000000E+00  0.00000000000E+00  0.25316979959E+03  0.95994127488E+03  0.92595480656E+03 0.  0.
        5    1    3    3  502    0 -0.16562483143E+03  0.26509787108E+03  0.48061221835E+03  0.57333991703E+03  0.46999998093E+01 0.  1.
       -5    1    3    3    0  502  0.16562483143E+03 -0.26509787108E+03 -0.22744241876E+03  0.38660135785E+03  0.46999998093E+01 0. -1.
</event>
<event>
 5   0  0.6314750E-03  0.7410453E+03  0.7818609E-02  0.9649505E-01
        3   -1    0    0  501    0  0.00000000000E+00  0.00000000000E+00  0.19073832669E+04  0.19073832695E+04  0.10100000352E+00 0. -1.
       -3   -1    0    0    0  501  0.00000000000E+00  0.00000000000E+00 -0.71976599471E+02  0.71976670335E+02  0.10100000352E+00 0.  1.
    10030    2    1    2    0    0  0.00000000000E+00  0.00000000000E+00  0.18354066674E+04  0.19793599399E+04  0.74104530014E+03 0.  0.
        2    1    3    3  502    0 -0.21461333211E+03  0.14342777092E+03  0.16277002590E+04  0.16480408190E+04  0.25500000920E-02 0. -1.
       -2    1    3    3    0  502  0.21461333211E+03 -0.14342777092E+03  0.20770640838E+03  0.33131912090E+03  0.25500000920E-02 0.  1.
</event>
<event>
 5   0  0.1617721E-02  0.9868453E+03  0.7818609E-02  0.9323091E-01
        2   -1    0    0  501    0  0.00000000000E+00  0.00000000000E+00  0.72400632557E+03  0.72400632558E+03  0.25500000920E-02 0. -1.
       -2   -1    0    0    0  501  0.00000000000E+00  0.00000000000E+00 -0.33627596380E+03  0.33627596381E+03  0.25500000920E-02 0.  1.
    10030    2    1    2    0    0  0.00000000000E+00  0.00000000000E+00  0.38773036177E+03  0.10602822894E+04  0.98684532716E+03 0.  0.
        5    1    3    3  502    0 -0.14560410877E+03  0.53455326002E+02 -0.30937658960E+03  0.34611268766E+03  0.46999998093E+01 0.  1.
       -5    1    3    3    0  502  0.14560410877E+03 -0.53455326002E+02  0.69710695137E+03  0.71416960172E+03  0.46999998093E+01 0. -1.
</event>
<event>
 5   0  0.9471140E-03  0.9941228E+03  0.7818609E-02  0.9315014E-01
       -1   -1    0    0    0  501  0.00000000000E+00  0.00000000000E+00  0.20153417472E+03  0.20153417478E+03  0.50400001928E-02 0. -1.
        1   -1    0    0  501    0  0.00000000000E+00  0.00000000000E+00 -0.12259461106E+04  0.12259461106E+04  0.50400001928E-02 0.  1.
    10030    2    1    2    0    0  0.00000000000E+00  0.00000000000E+00 -0.10244119359E+04  0.14274802854E+04  0.99412280469E+03 0.  0.
        4    1    3    3  502    0 -0.26567180460E+03  0.21279318988E+03 -0.10323299630E+04  0.10870000988E+04  0.12699999809E+01 0.  1.
       -4    1    3    3    0  502  0.26567180460E+03 -0.21279318988E+03  0.79180270937E+01  0.34048018660E+03  0.12699999809E+01 0. -1.
</event>
<event>
 5   0  0.9396660E-03  0.1026884E+04  0.7818609E-02  0.9279540E-01
        1   -1    0    0  501    0  0.00000000000E+00  0.00000000000E+00  0.38121227466E+03  0.38121227470E+03  0.50400001928E-02 0. -1.
       -1   -1    0    0    0  501  0.00000000000E+00  0.00000000000E+00 -0.69153809464E+03  0.69153809466E+03  0.50400001928E-02 0.  1.
    10030    2    1    2    0    0  0.00000000000E+00  0.00000000000E+00 -0.31032581998E+03  0.10727503694E+04  0.10268842391E+04 0.  0.
        5    1    3    3  502    0 -0.12341164809E+03  0.11769205739E+03 -0.66106453710E+03  0.68272268708E+03  0.46999998093E+01 0.  1.
       -5    1    3    3    0  502  0.12341164809E+03 -0.11769205739E+03  0.35073871712E+03  0.39002768227E+03  0.46999998093E+01 0. -1.
</event>
<event>
 5   0  0.1598986E-02  0.1001566E+04  0.7818609E-02  0.9306829E-01
       -2   -1    0    0    0  501  0.00000000000E+00  0.00000000000E+00  0.43063880176E+03  0.43063880177E+03  0.25500000920E-02 0. -1.
        2   -1    0    0  501    0  0.00000000000E+00  0.00000000000E+00 -0.58235259515E+03  0.58235259516E+03  0.25500000920E-02 0.  1.
    10030    2    1    2    0    0  0.00000000000E+00  0.00000000000E+00 -0.15171379339E+03  0.10129913969E+04  0.10015660214E+04 0.  0.
        3    1    3    3  502    0 -0.38724135714E+03  0.29156173598E+03 -0.20306727304E+03  0.52554775439E+03  0.10100000352E+00 0. -1.
       -3    1    3    3    0  502  0.38724135714E+03 -0.29156173598E+03  0.51353479649E+02  0.48744364253E+03  0.10100000352E+00 0.  1.
</event>
<event>
 5   0  0.1617721E-02  0.1113580E+04  0.7818609E-02  0.9192056E-01
       -2   -1    0    0    0  501  0.00000000000E+00  0.00000000000E+00  0.45116935042E+03  0.45116935043E+03  0.25500000920E-02 0. -1.
        2   -1    0    0  501    0  0.00000000000E+00  0.00000000000E+00 -0.68713694166E+03  0.68713694166E+03  0.25500000920E-02 0.  1.
    10030    2    1    2    0    0  0.00000000000E+00  0.00000000000E+00 -0.23596759124E+03  0.11383062921E+04  0.11135800422E+04 0.  0.
        5    1    3    3  502    0 -0.89711456259E+02 -0.24214514836E+03 -0.62220166131E+03  0.67367604647E+03  0.46999998093E+01 0.  1.
       -5    1    3    3    0  502  0.89711456259E+02  0.24214514836E+03  0.38623407007E+03  0.46463024561E+03  0.46999998093E+01 0. -1.
</event>
<event>
 5   0  0.6314750E-03  0.1014948E+04  0.7818609E-02  0.9292300E-01
       -3   -1    0    0    0  501  0.00000000000E+00  0.00000000000E+00  0.29448709328E+03  0.29448711060E+03  0.10100000352E+00 0. -1.
        3   -1    0    0  501    0  0.00000000000E+00  0.00000000000E+00 -0.87450309515E+03  0.87450310098E+03  0.10100000352E+00 0.  1.
    10030    2    1    2    0    0  0.00000000000E+00  0.00000000000E+00 -0.58001600187E+03  0.11689902116E+04  0.10149480540E+04 0.  0.
        2    1    3    3  502    0  0.42519237188E+03  0.21720995231E+03 -0.48803658428E+03  0.68275063097E+03  0.25500000920E-02 0.  1.
       -2    1    3    3    0  502 -0.42519237188E+03 -0.21720995231E+03 -0.91979417589E+02  0.48623958061E+03  0.25500000920E-02 0. -1.
</event>
<event>
 5   0  0.1656859E-02  0.1006806E+04  0.7818609E-02  0.9301112E-01
        2   -1    0    0  501    0  0.00000000000E+00  0.00000000000E+00  0.14886587597E+04  0.14886587597E+04  0.25500000920E-02 0. -1.
       -2   -1    0    0    0  501  0.00000000000E+00  0.00000000000E+00 -0.17023011648E+03  0.17023011650E+03  0.25500000920E-02 0.  1.
    10030    2    1    2    0    0  0.00000000000E+00  0.00000000000E+00  0.13184286433E+04  0.16588888762E+04  0.10068059477E+04 0.  0.
        4    1    3    3  502    0  0.35584328417E+03  0.19381050584E+03  0.11513866593E+04  0.12206063277E+04  0.12699999809E+01 0. -1.
       -4    1    3    3    0  502 -0.35584328417E+03 -0.19381050584E+03  0.16704198396E+03  0.43828254855E+03  0.12699999809E+01 0.  1.
</event>
<event>
 5   0  0.9507815E-03  0.1042258E+04  0.7818609E-02  0.9263374E-01
        1   -1    0    0  501    0  0.00000000000E+00  0.00000000000E+00  0.78022934309E+03  0.78022934311E+03  0.50400001928E-02 0.  1.
       -1   -1    0    0    0  501  0.00000000000E+00  0.00000000000E+00 -0.34807122451E+03  0.34807122454E+03  0.50400001928E-02 0. -1.
    10030    2    1    2    0    0  0.00000000000E+00  0.00000000000E+00  0.43215811858E+03  0.11283005677E+04  0.10422579007E+04 0.  0.
        1    1    3    3  502    0  0.51897401447E+02 -0.25797814621E+03 -0.27086494218E+03  0.37764253087E+03  0.50400001928E-02 0. -1.
       -1    1    3    3    0  502 -0.51897401447E+02  0.25797814621E+03  0.70302306076E+03  0.75065803678E+03  0.50400001928E-02 0.  1.
</event>
<event>
 5   0  0.9759443E-03  0.9509396E+03  0.7818609E-02  0.9364053E-01
        1   -1    0    0  501    0  0.00000000000E+00  0.00000000000E+00  0.19823381716E+04  0.19823381716E+04  0.50400001928E-02 0.  1.
       -1   -1    0    0    0  501  0.00000000000E+00  0.00000000000E+00 -0.11404287849E+03  0.11404287860E+03  0.50400001928E-02 0. -1.
    10030    2    1    2    0    0  0.00000000000E+00  0.00000000000E+00  0.18682952931E+04  0.20963810502E+04  0.95093964339E+03 0.  0.
        2    1    3    3  502    0 -0.35228647723E+03 -0.89036065851E+02  0.25811165999E+03  0.44570709226E+03  0.25500000920E-02 0. -1.
       -2    1    3    3    0  502  0.35228647723E+03  0.89036065851E+02  0.16101836331E+04  0.16506739579E+04  0.25500000920E-02 0.  1.
</event>
<event>
 5   0  0.9471140E-03  0.9793694E+03  0.7818609E-02  0.9331466E-01
       -1   -1    0    0    0  501  0.00000000000E+00  0.00000000000E+00  0.25632002933E+03  0.25632002938E+03  0.50400001928E-02 0. -1.
        1   -1    0    0  501    0  0.00000000000E+00  0.00000000000E+00 -0.93551444687E+03  0.93551444688E+03  0.50400001928E-02 0.  1.
    10030    2    1    2    0    0  0.00000000000E+00  0.00000000000E+00 -0.67919441753E+03  0.11918344763E+04  0.97936936954E+03 0.  0.
        4    1    3    3  502    0  0.22758273158E+03  0.17746405078E+03  0.14182874110E+03  0.32156553568E+03  0.12699999809E+01 0. -1.
       -4    1    3    3    0  502 -0.22758273158E+03 -0.17746405078E+03 -0.82102315864E+03  0.87026894059E+03  0.12699999809E+01 0.  1.
</event>
<event>
 5   0  0.9471140E-03  0.1164948E+04  0.7818609E-02  0.9144103E-01
        1   -1    0    0  501    0  0.00000000000E+00  0.00000000000E+00  0.67711029919E+03  0.67711029921E+03  0.50400001928E-02 0. -1.
       -1   -1    0    0    0  501  0.00000000000E+00  0.00000000000E+00 -0.50106472654E+03  0.50106472657E+03  0.50400001928E-02 0.  1.
    10030    2    1    2    0    0  0.00000000000E+00  0.00000000000E+00  0.17604557265E+03  0.11781750258E+04  0.11649482168E+04 0.  0.
        4    1    3    3  502    0  0.27571451133E+03  0.50558510001E+03 -0.37492668642E+00  0.57587892701E+03  0.12699999809E+01 0.  1.
       -4    1    3    3    0  502 -0.27571451133E+03 -0.50558510001E+03  0.17642049933E+03  0.60229609877E+03  0.12699999809E+01 0. -1.
</event>
<event>
 5   0  0.9507815E-03  0.9940380E+03  0.7818609E-02  0.9315108E-01
        1   -1    0    0  501    0  0.00000000000E+00  0.00000000000E+00  0.58727557862E+03  0.58727557864E+03  0.50400001928E-02 0. -1.
       -1   -1    0    0    0  501  0.00000000000E+00  0.00000000000E+00 -0.42063370415E+03  0.42063370418E+03  0.50400001928E-02 0.  1.
    10030    2    1    2    0    0  0.00000000000E+00  0.00000000000E+00  0.16664187447E+03  0.10079092828E+04  0.99403803149E+03 0.  0.
        1    1    3    3  502    0  0.45444518523E+02  0.10109196169E+03 -0.40794298830E+03  0.42273191352E+03  0.50400001928E-02 0.  1.
       -1    1    3    3    0  502 -0.45444518523E+02 -0.10109196169E+03  0.57458486277E+03  0.58517736929E+03  0.50400001928E-02 0. -1.
</event>
<event>
 5   0  0.9396660E-03  0.9798939E+03  0.7818609E-02  0.9330876E-01
       -1   -1    0    0    0  501  0.00000000000E+00  0.00000000000E+00  0.48462338702E+03  0.48462338704E+03  0.50400001928E-02 0. -1.
        1   -1    0    0  501    0  0.00000000000E+00  0.00000000000E+00 -0.49532900761E+03  0.49532900764E+03  0.50400001928E-02 0.  1.
    10030    2    1    2    0    0  0.00000000000E+00  0.00000000000E+00 -0.10705620597E+02  0.97995239468E+03  0.97989391545E+03 0.  0.
        5    1    3    3  502    0 -0.30096596589E+02  0.27613246787E+02  0.48289516529E+03  0.48464226723E+03  0.46999998093E+01 0. -1.
       -5    1    3    3    0  502  0.30096596589E+02 -0.27613246787E+02 -0.49360078589E+03  0.49531012745E+03  0.46999998093E+01 0.  1.
</event>
<event>
 5   0  0.1656859E-02  0.9940167E+03  0.7818609E-02  0.9315132E-01
        2   -1    0    0  501    0  0.00000000000E+00  0.00000000000E+00  0.19012436358E+04  0.19012436358E+04  0.25500000920E-02 0.  1.
       -2   -1    0    0    0  501  0.00000000000E+00  0.00000000000E+00 -0.12992406772E+03  0.12992406774E+03  0.25500000920E-02 0. -1.
    10030    2    1    2    0    0  0.00000000000E+00  0.00000000000E+00  0.17713195681E+04  0.20311677036E+04  0.99401671397E+03 0.  0.
        4    1    3    3  502    0  0.32503657163E+03  0.32033299258E+03  0.12879214556E+04  0.13663840191E+04  0.12699999809E+01 0.  1.
       -4    1    3    3    0  502 -0.32503657163E+03 -0.32033299258E+03  0.48339811255E+03  0.66478368448E+03  0.12699999809E+01 0. -1.
</event>
<event>
 5   0  0.9396660E-03  0.1019006E+04  0.7818609E-02  0.9287941E-01
        1   -1    0    0  501    0  0.00000000000E+00  0.00000000000E+00  0.80119275763E+03  0.80119275765E+03  0.50400001928E-02 0.  1.
       -1   -1    0    0    0  501  0.00000000000E+00  0.00000000000E+00 -0.32400881890E+03  0.32400881894E+03  0.50400001928E-02 0. -1.
    10030    2    1    2    0    0  0.00000000000E+00  0.00000000000E+00  0.47718393873E+03  0.11252015766E+04  0.10190064164E+04 0.  0.
        5    1    3    3  502    0  0.35706724471E+03 -0.32786836095E+03  0.65484567831E+02  0.48918810082E+03  0.46999998093E+01 0. -1.
       -5    1    3    3    0  502 -0.35706724471E+03  0.32786836095E+03  0.41169937090E+03  0.63601347577E+03  0.46999998093E+01 0.  1.
</event>
<event>
 5   0  0.1656859E-02  0.9762035E+03  0.7818609E-02  0.9335036E-01
        2   -1    0    0  501    0  0.00000000000E+00  0.00000000000E+00  0.82487362540E+03  0.82487362540E+03  0.25500000920E-02 0. -1.
       -2   -1    0    0    0  501  0.00000000000E+00  0.00000000000E+00 -0.28882401023E+03  0.28882401024E+03  0.25500000920E-02 0.  1.
    10030    2    1    2    0    0  0.00000000000E+00  0.00000000000E+00  0.53604961517E+03  0.11136976356E+04  0.97620347966E+03 0.  0.
        4    1    3    3  502    0  0.31957391626E+03 -0.34653112679E+03  0.41246861674E+03  0.62637311763E+03  0.12699999809E+01 0. -1.
       -4    1    3    3    0  502 -0.31957391626E+03  0.34653112679E+03  0.12358099843E+03  0.48732451801E+03  0.12699999809E+01 0.  1.
</event>
<event>
 5   0  0.9507815E-03  0.9383271E+03  0.7818609E-02  0.9378899E-01
        1   -1    0    0  501    0  0.00000000000E+00  0.00000000000E+00  0.65754132687E+03  0.65754132689E+03  0.50400001928E-02 0.  1.
       -1   -1    0    0    0  501  0.00000000000E+00  0.00000000000E+00 -0.33475379770E+03  0.33475379774E+03  0.50400001928E-02 0. -1.
    10030    2    1    2    0    0  0.00000000000E+00  0.00000000000E+00  0.32278752917E+03  0.99229512462E+03  0.93832714197E+03 0.  0.
        1    1    3    3  502    0 -0.12175817003E+03  0.28155388468E+03  0.53679943396E+03  0.61826472831E+03  0.50400001928E-02 0.  1.
       -1    1    3    3    0  502  0.12175817003E+03 -0.28155388468E+03 -0.21401190479E+03  0.37403039631E+03  0.50400001928E-02 0. -1.
</event>
<event>
 5   0  0.6314750E-03  0.9930712E+03  0.7818609E-02  0.9316177E-01
       -3   -1    0    0    0  501  0.00000000000E+00  0.00000000000E+00  0.63200914844E+03  0.63200915651E+03  0.10100000352E+00 0. -1.
        3   -1    0    0  501    0  0.00000000000E+00  0.00000000000E+00 -0.39010128403E+03  0.39010129710E+03  0.10100000352E+00 0.  1.
    10030    2    1    2    0    0  0.00000000000E+00  0.00000000000E+00  0.24190786441E+03  0.10221104536E+04  0.99307117797E+03 0.  0.
        5    1    3    3  502    0 -0.10357347745E+03  0.38313233346E+03 -0.18611163694E+03  0.43838052144E+03  0.46999998093E+01 0.  1.
       -5    1    3    3    0  502  0.10357347745E+03 -0.38313233346E+03  0.42801950136E+03  0.58372993217E+03  0.46999998093E+01 0. -1.
</event>
<event>
 5   0  0.1663497E-02  0.9824519E+03  0.7818609E-02  0.9328003E-01
       -2   -1    0    0    0  501  0.00000000000E+00  0.00000000000E+00  0.21032419760E+03  0.21032419762E+03  0.25500000920E-02 0. -1.
        2   -1    0    0  501    0  0.00000000000E+00  0.00000000000E+00 -0.11472903174E+04  0.11472903174E+04  0.25500000920E-02 0.  1.
    10030    2    1    2    0    0  0.00000000000E+00  0.00000000000E+00 -0.93696611975E+03  0.13576145150E+04  0.98245186228E+03 0.  0.
        1    1    3    3  502    0 -0.40925425047E+03 -0.53833327152E+02 -0.83647375622E+03  0.93277833032E+03  0.50400001928E-02 0. -1.
       -1    1    3    3    0  502  0.40925425047E+03  0.53833327152E+02 -0.10049236353E+03  0.42483618465E+03  0.50400001928E-02 0.  1.
</event>
<event>
 5   0  0.1000773E-02  0.1087471E+04  0.7818609E-02  0.9217490E-01
        1   -1    0    0  501    0  0.00000000000E+00  0.00000000000E+00  0.12027664991E+04  0.12027664991E+04  0.50400001928E-02 0.  1.
       -1   -1    0    0    0  501  0.00000000000E+00  0.00000000000E+00 -0.24580700174E+03  0.24580700179E+03  0.50400001928E-02 0. -1.
    10030    2    1    2    0    0  0.00000000000E+00  0.00000000000E+00  0.95695949738E+03  0.14485735009E+04  0.10874712447E+04 0.  0.
        3    1    3    3  502    0 -0.22459680634E+02  0.49235128846E+02  0.11991703605E+04  0.12003908109E+04  0.10100000352E+00 0.  1.
       -3    1    3    3    0  502  0.22459680634E+02 -0.49235128846E+02 -0.24221086317E+03  0.24818268998E+03  0.10100000352E+00 0. -1.
</event>
<event>
 5   0  0.1571895E-02  0.8793501E+03  0.7818609E-02  0.9451769E-01
       -2   -1    0    0    0  501  0.00000000000E+00  0.00000000000E+00  0.81441531558E+03  0.81441531558E+03  0.25500000920E-02 0.  1.
        2   -1    0    0  501    0  0.00000000000E+00  0.00000000000E+00 -0.23736554509E+03  0.23736554511E+03  0.25500000920E-02 0. -1.
    10030    2    1    2    0    0  0.00000000000E+00  0.00000000000E+00  0.57704977048E+03  0.10517808607E+04  0.87935006754E+03 0.  0.
        2    1    3    3  502    0 -0.92807319318E+02  0.26777696321E+03 -0.11353971085E+03  0.30530143546E+03  0.25500000920E-02 0. -1.
       -2    1    3    3    0  502  0.92807319318E+02 -0.26777696321E+03  0.69058948133E+03  0.74647942523E+03  0.25500000920E-02 0.  1.
</event>
<event>
 5   0  0.9507815E-03  0.9796580E+03  0.7818609E-02  0.9331141E-01
       -1   -1    0    0    0  501  0.00000000000E+00  0.00000000000E+00  0.36676523979E+03  0.36676523983E+03  0.50400001928E-02 0. -1.
        1   -1    0    0  501    0  0.00000000000E+00  0.00000000000E+00 -0.65418532496E+03  0.65418532498E+03  0.50400001928E-02 0.  1.
    10030    2    1    2    0    0  0.00000000000E+00  0.00000000000E+00 -0.28742008517E+03  0.10209505648E+04  0.97965797624E+03 0.  0.
        1    1    3    3  502    0  0.10537033443E+03 -0.10306790820E+03 -0.63052522356E+03  0.64752448498E+03  0.50400001928E-02 0.  1.
       -1    1    3    3    0  502 -0.10537033443E+03  0.10306790820E+03  0.34310513839E+03  0.37342607983E+03  0.50400001928E-02 0. -1.
</event>
<event>
 5   0  0.1000773E-02  0.9138093E+03  0.7818609E-02  0.9408482E-01
        1   -1    0    0  501    0  0.00000000000E+00  0.00000000000E+00  0.12260958906E+04  0.12260958906E+04  0.50400001928E-02 0. -1.
       -1   -1    0    0    0  501  0.00000000000E+00  0.00000000000E+00 -0.17026552465E+03  0.17026552472E+03  0.50400001928E-02 0.  1.
    10030    2    1    2    0    0  0.00000000000E+00  0.00000000000E+00  0.10558303660E+04  0.13963614154E+04  0.91380930209E+03 0.  0.
        3    1    3    3  502    0  0.29671488948E+03 -0.19295061363E+02 -0.21935960162E+01  0.29734970505E+03  0.10100000352E+00 0.  1.
       -3    1    3    3    0  502 -0.29671488948E+03  0.19295061363E+02  0.10580239620E+04  0.10990117103E+04  0.10100000352E+00 0. -1.
</event>
<event>
 5   0  0.9507815E-03  0.9967028E+03  0.7818609E-02  0.9312169E-01
        1   -1    0    0  501    0  0.00000000000E+00  0.00000000000E+00  0.13706433063E+04  0.13706433063E+04  0.50400001928E-02 0. -1.
       -1   -1    0    0    0  501  0.00000000000E+00  0.00000000000E+00 -0.18119529166E+03  0.18119529173E+03  0.50400001928E-02 0.  1.
    10030    2    1    2    0    0  0.00000000000E+00  0.00000000000E+00  0.11894480147E+04  0.15518385981E+04  0.99670279164E+03 0.  0.
        1    1    3    3  502    0  0.39689313354E+03 -0.21679952640E+03  0.92067799845E+03  0.10257554148E+04  0.50400001928E-02 0. -1.
       -1    1    3    3    0  502 -0.39689313354E+03  0.21679952640E+03  0.26877001623E+03  0.52608318329E+03  0.50400001928E-02 0.  1.
</event>
<event>
 5   0  0.1617721E-02  0.1118035E+04  0.7818609E-02  0.9187790E-01
        2   -1    0    0  501    0  0.00000000000E+00  0.00000000000E+00  0.72712116873E+03  0.72712116873E+03  0.25500000920E-02 0. -1.
       -2   -1    0    0    0  501  0.00000000000E+00  0.00000000000E+00 -0.42977784983E+03  0.42977784984E+03  0.25500000920E-02 0.  1.
    10030    2    1    2    0    0  0.00000000000E+00  0.00000000000E+00  0.29734331890E+03  0.11568990186E+04  0.11180350128E+04 0.  0.
        5    1    3    3  502    0  0.34329486266E+03  0.43939092949E+03  0.18957720025E+03  0.58896295002E+03  0.46999998093E+01 0.  1.
       -5    1    3    3    0  502 -0.34329486266E+03 -0.43939092949E+03  0.10776611864E+03  0.56793606856E+03  0.46999998093E+01 0. -1.
</event>
<event>
 5   0  0.1598986E-02  0.1023139E+04  0.7818609E-02  0.9283524E-01
       -2   -1    0    0    0  501  0.00000000000E+00  0.00000000000E+00  0.13711959739E+03  0.13711959741E+03  0.25500000920E-02 0. -1.
        2   -1    0    0  501    0  0.00000000000E+00  0.00000000000E+00 -0.19085783158E+04  0.19085783158E+04  0.25500000920E-02 0.  1.
    10030    2    1    2    0    0  0.00000000000E+00  0.00000000000E+00 -0.17714587184E+04  0.20456979132E+04  0.10231392677E+04 0.  0.
        3    1    3    3  502    0 -0.11984084244E+03 -0.47182935030E+03 -0.57137483895E+03  0.75063571731E+03  0.10100000352E+00 0. -1.
       -3    1    3    3    0  502  0.11984084244E+03  0.47182935030E+03 -0.12000838795E+04  0.12950621959E+04  0.10100000352E+00 0.  1.
</event>
<event>
 5   0  0.1663497E-02  0.1022888E+04  0.7818609E-02  0.9283792E-01
       -2   -1    0    0    0  501  0.00000000000E+00  0.00000000000E+00  0.72905194223E+03  0.72905194224E+03  0.25500000920E-02 0.  1.
        2   -1    0    0  501    0  0.00000000000E+00  0.00000000000E+00 -0.35878804800E+03  0.35878804801E+03  0.25500000920E-02 0. -1.
    10030    2    1    2    0    0  0.00000000000E+00  0.00000000000E+00  0.37026389423E+03  0.10878399902E+04  0.10228883092E+04 0.  0.
        1    1    3    3  502    0  0.43332155053E+03  0.17161439944E+03 -0.38850126760E+02  0.46768408207E+03  0.50400001928E-02 0. -1.
       -1    1    3    3    0  502 -0.43332155053E+03 -0.17161439944E+03  0.40911402099E+03  0.62015590817E+03  0.50400001928E-02 0.  1.
</event>
<event>
 5   0  0.9759443E-03  0.9730612E+03  0.7818609E-02  0.9338594E-01
       -1   -1    0    0    0  501  0.00000000000E+00  0.00000000000E+00  0.60650050134E+03  0.60650050136E+03  0.50400001928E-02 0.  1.
        1   -1    0    0  501    0  0.00000000000E+00  0.00000000000E+00 -0.39029152913E+03  0.39029152916E+03  0.50400001928E-02 0. -1.
    10030    2    1    2    0    0  0.00000000000E+00  0.00000000000E+00  0.21620897221E+03  0.99679203051E+03  0.97306116582E+03 0.  0.
        2    1    3    3  502    0  0.43558464739E+03  0.20458915561E+03  0.34795950370E+02  0.48249504226E+03  0.25500000920E-02 0.  1.
       -2    1    3    3    0  502 -0.43558464739E+03 -0.20458915561E+03  0.18141302184E+03  0.51429698826E+03  0.25500000920E-02 0. -1.
</event>
<event>
 5   0  0.9507815E-03  0.1007944E+04  0.7818609E-02  0.9299874E-01
        1   -1    0    0  501    0  0.00000000000E+00  0.00000000000E+00  0.16227460053E+04  0.16227460053E+04  0.50400001928E-02 0.  1.
       -1   -1    0    0    0  501  0.00000000000E+00  0.00000000000E+00 -0.15651741093E+03  0.15651741101E+03  0.50400001928E-02 0. -1.
    10030    2    1    2    0    0  0.00000000000E+00  0.00000000000E+00  0.14662285944E+04  0.17792634163E+04  0.10079444497E+04 0.  0.
        1    1    3    3  502    0 -0.29573568572E+03 -0.16652123290E+03  0.13907675244E+04  0.14315806731E+04  0.50400001928E-02 0.  1.
       -1    1    3    3    0  502  0.29573568572E+03  0.16652123290E+03  0.75461070014E+02  0.34768274321E+03  0.50400001928E-02 0. -1.
</event>
<event>
 5   0  0.1617721E-02  0.9971866E+03  0.7818609E-02  0.9311636E-01
       -2   -1    0    0    0  501  0.00000000000E+00  0.00000000000E+00  0.20330882913E+03  0.20330882914E+03  0.25500000920E-02 0. -1.
        2   -1    0    0  501    0  0.00000000000E+00  0.00000000000E+00 -0.12227469678E+04  0.12227469678E+04  0.25500000920E-02 0.  1.
    10030    2    1    2    0    0  0.00000000000E+00  0.00000000000E+00 -0.10194381387E+04  0.14260557970E+04  0.99718655098E+03 0.  0.
        5    1    3    3  502    0  0.12679310945E+03 -0.26239996394E+03  0.68788079638E+02  0.29947307655E+03  0.46999998093E+01 0. -1.
       -5    1    3    3    0  502 -0.12679310945E+03  0.26239996394E+03 -0.10882262184E+04  0.11265827204E+04  0.46999998093E+01 0.  1.
</event>
<event>
 5   0  0.1000773E-02  0.1017899E+04  0.7818609E-02  0.9289128E-01
       -1   -1    0    0    0  501  0.00000000000E+00  0.00000000000E+00  0.12570311996E+03  0.12570312006E+03  0.50400001928E-02 0. -1.
        1   -1    0    0  501    0  0.00000000000E+00  0.00000000000E+00 -0.20606461940E+04  0.20606461940E+04  0.50400001928E-02 0.  1.
    10030    2    1    2    0    0  0.00000000000E+00  0.00000000000E+00 -0.19349430740E+04  0.21863493140E+04  0.10178991224E+04 0.  0.
        3    1    3    3  502    0  0.21124150337E+03 -0.46066202542E+03 -0.86679071284E+03  0.10040710256E+04  0.10100000352E+00 0. -1.
       -3    1    3    3    0  502 -0.21124150337E+03  0.46066202542E+03 -0.10681523612E+04  0.11822782884E+04  0.10100000352E+00 0.  1.
</event>
<event>
 5   0  0.9471140E-03  0.1039781E+04  0.7818609E-02  0.9265959E-01
       -1   -1    0    0    0  501  0.00000000000E+00  0.00000000000E+00  0.49379957594E+03  0.49379957597E+03  0.50400001928E-02 0.  1.
        1   -1    0    0  501    0  0.00000000000E+00  0.00000000000E+00 -0.54735984281E+03  0.54735984283E+03  0.50400001928E-02 0. -1.
    10030    2    1    2    0    0  0.00000000000E+00  0.00000000000E+00 -0.53560266868E+02  0.10411594188E+04  0.10397808582E+04 0.  0.
        4    1    3    3  502    0  0.21554804215E+03 -0.45726855201E+02 -0.49828929087E+03  0.54483551101E+03  0.12699999809E+01 0. -1.
       -4    1    3    3    0  502 -0.21554804215E+03  0.45726855201E+02  0.44472902400E+03  0.49632390779E+03  0.12699999809E+01 0.  1.
</event>
<event>
 5   0  0.1617721E-02  0.1010164E+04  0.7818609E-02  0.9297467E-01
       -2   -1    0    0    0  501  0.00000000000E+00  0.00000000000E+00  0.39958230851E+03  0.39958230852E+03  0.25500000920E-02 0.  1.
        2   -1    0    0  501    0  0.00000000000E+00  0.00000000000E+00 -0.63843656011E+03  0.63843656012E+03  0.25500000920E-02 0. -1.
    10030    2    1    2    0    0  0.00000000000E+00  0.00000000000E+00 -0.23885425160E+03  0.10380188686E+04  0.10101642530E+04 0.  0.
        5    1    3    3  502    0  0.16888811959E+03  0.47186941690E+03 -0.18361492535E+03  0.53377942481E+03  0.46999998093E+01 0. -1.
       -5    1    3    3    0  502 -0.16888811959E+03 -0.47186941690E+03 -0.55239326248E+02  0.50423944382E+03  0.46999998093E+01 0.  1.
</event>
<event>
 5   0  0.9396660E-03  0.1003155E+04  0.7818609E-02  0.9305091E-01
        1   -1    0    0  501    0  0.00000000000E+00  0.00000000000E+00  0.12944602976E+04  0.12944602976E+04  0.50400001928E-02 0. -1.
       -1   -1    0    0    0  501  0.00000000000E+00  0.00000000000E+00 -0.19435138167E+03  0.19435138173E+03  0.50400001928E-02 0.  1.
    10030    2    1    2    0    0  0.00000000000E+00  0.00000000000E+00  0.11001089159E+04  0.14888116793E+04  0.10031553168E+04 0.  0.
        5    1    3    3  502    0 -0.45764451496E+03  0.12243636458E+02  0.85410043031E+03  0.96907071144E+03  0.46999998093E+01 0. -1.
       -5    1    3    3    0  502  0.45764451496E+03 -0.12243636458E+02  0.24600848560E+03  0.51974096788E+03  0.46999998093E+01 0.  1.
</event>
<event>
 5   0  0.1617721E-02  0.1017555E+04  0.7818609E-02  0.9289498E-01
        2   -1    0    0  501    0  0.00000000000E+00  0.00000000000E+00  0.15655881664E+04  0.15655881664E+04  0.25500000920E-02 0. -1.
       -2   -1    0    0    0  501  0.00000000000E+00  0.00000000000E+00 -0.16534009806E+03  0.16534009808E+03  0.25500000920E-02 0.  1.
    10030    2    1    2    0    0  0.00000000000E+00  0.00000000000E+00  0.14002480683E+04  0.17309282645E+04  0.10175549144E+04 0.  0.
        5    1    3    3  502    0 -0.22875157098E+02  0.33152100826E+03  0.44820524343E+02  0.33535119074E+03  0.46999998093E+01 0.  1.
       -5    1    3    3    0  502  0.22875157098E+02 -0.33152100826E+03  0.13554275440E+04  0.13955770737E+04  0.46999998093E+01 0. -1.
</event>
<event>
 5   0  0.1656859E-02  0.9888462E+03  0.7818609E-02  0.9320863E-01
       -2   -1    0    0    0  501  0.00000000000E+00  0.00000000000E+00  0.10680432874E+03  0.10680432877E+03  0.25500000920E-02 0. -1.
        2   -1    0    0  501    0  0.00000000000E+00  0.00000000000E+00 -0.22888042821E+04  0.22888042821E+04  0.25500000920E-02 0.  1.
    10030    2    1    2    0    0  0.00000000000E+00  0.00000000000E+00 -0.21819999533E+04  0.23956086109E+04  0.98884620647E+03 0.  0.
        4    1    3    3  502    0  0.42505418754E+03  0.24984595080E+03 -0.11802938847E+04  0.12791361650E+04  0.12699999809E+01 0.  1.
       -4    1    3    3    0  502 -0.42505418754E+03 -0.24984595080E+03 -0.10017060687E+04  0.11164724459E+04  0.12699999809E+01 0. -1.
</event>
<event>
 5   0  0.1663497E-02  0.1004410E+04  0.7818609E-02  0.9303721E-01
        2   -1    0    0  501    0  0.00000000000E+00  0.00000000000E+00  0.92889942265E+03  0.92889942265E+03  0.25500000920E-02 0.  1.
       -2   -1    0    0    0  501  0.00000000000E+00  0.00000000000E+00 -0.27151465685E+03  0.27151465686E+03  0.25500000920E-02 0. -1.
    10030    2    1    2    0    0  0.00000000000E+00  0.00000000000E+00  0.65738476580E+03  0.12004140795E+04  0.10044098924E+04 0.  0.
        1    1    3    3  502    0  0.32134851056E+03 -0.31853977618E+03  0.58910579703E+03  0.74281767236E+03  0.50400001928E-02 0.  1.
       -1    1    3    3    0  502 -0.32134851056E+03  0.31853977618E+03  0.68278968767E+02  0.45759640716E+03  0.50400001928E-02 0. -1.
</event>
<event>
 5   0  0.1663497E-02  0.9795369E+03  0.7818609E-02  0.9331277E-01
        2   -1    0    0  501    0  0.00000000000E+00  0.00000000000E+00  0.87003995777E+03  0.87003995777E+03  0.25500000920E-02 0.  1.
       -2   -1    0    0    0  501  0.00000000000E+00  0.00000000000E+00 -0.27570360792E+03  0.27570360793E+03  0.25500000920E-02 0. -1.
    10030    2    1    2    0    0  0.00000000000E+00  0.00000000000E+00  0.59433634985E+03  0.11457435657E+04  0.97953694243E+03 0.  0.
        1    1    3    3  502    0  0.81567803426E+02 -0.22391273823E+03  0.79765256860E+03  0.83249014476E+03  0.50400001928E-02 0.  1.
       -1    1    3    3    0  502 -0.81567803426E+02  0.22391273823E+03 -0.20331621875E+03  0.31325342094E+03  0.50400001928E-02 0. -1.
</event>
<event>
 5   0  0.9759443E-03  0.9962491E+03  0.7818609E-02  0.9312668E-01
        1   -1    0    0  501    0  0.00000000000E+00  0.00000000000E+00  0.61432245410E+03  0.61432245412E+03  0.50400001928E-02 0.  1.
       -1   -1    0    0    0  501  0.00000000000E+00  0.00000000000E+00 -0.40390525644E+03  0.40390525647E+03  0.50400001928E-02 0. -1.
    10030    2    1    2    0    0  0.00000000000E+00  0.00000000000E+00  0.21041719766E+03  0.10182277106E+04  0.99624910216E+03 0.  0.
        2    1    3    3  502    0 -0.48365012080E+03 -0.11670632656E+03  0.13003990227E+03  0.51424525491E+03  0.25500000920E-02 0.  1.
       -2    1    3    3    0  502  0.48365012080E+03  0.11670632656E+03  0.80377295394E+02  0.50398245568E+03  0.25500000920E-02 0. -1.
</event>
<event>
 5   0  0.1663497E-02  0.9502029E+03  0.7818609E-02  0.9364913E-01
        2   -1    0    0  501    0  0.00000000000E+00  0.00000000000E+00  0.10060177062E+04  0.10060177062E+04  0.25500000920E-02 0.  1.
       -2   -1    0    0    0  501  0.00000000000E+00  0.00000000000E+00 -0.22437116775E+03  0.22437116776E+03  0.25500000920E-02 0. -1.
    10030    2    1    2    0    0  0.00000000000E+00  0.00000000000E+00  0.78164653844E+03  0.12303888740E+04  0.95020285733E+03 0.  0.
        1    1    3    3  502    0 -0.45228372137E+02  0.34800548347E+03  0.80552122167E+03  0.87864546933E+03  0.50400001928E-02 0.  1.
       -1    1    3    3    0  502  0.45228372137E+02 -0.34800548347E+03 -0.23874683232E+02  0.35174340463E+03  0.50400001928E-02 0. -1.
</event>
<event>
 5   0  0.9396660E-03  0.9992665E+03  0.7818609E-02  0.9309350E-01
       -1   -1    0    0    0  501  0.00000000000E+00  0.00000000000E+00  0.15052979847E+03  0.15052979855E+03  0.50400001928E-02 0. -1.
        1   -1    0    0  501    0  0.00000000000E+00  0.00000000000E+00 -0.16583651840E+04  0.16583651840E+04  0.50400001928E-02 0.  1.
    10030    2    1    2    0    0  0.00000000000E+00  0.00000000000E+00 -0.15078353855E+04  0.18088949825E+04  0.99926648500E+03 0.  0.
        5    1    3    3  502    0  0.17028941241E+03 -0.16418959026E+02 -0.16036495080E+04  0.16127559954E+04  0.46999998093E+01 0.  1.
       -5    1    3    3    0  502 -0.17028941241E+03  0.16418959026E+02  0.95814122514E+02  0.19613898711E+03  0.46999998093E+01 0. -1.
</event>
<event>
 5   0  0.1000773E-02  0.9960139E+03  0.7818609E-02  0.9312928E-01
        1   -1    0    0  501    0  0.00000000000E+00  0.00000000000E+00  0.15288196166E+04  0.15288196167E+04  0.50400001928E-02 0. -1.
       -1   -1    0    0    0  501  0.00000000000E+00  0.00000000000E+00 -0.16222378270E+03  0.16222378278E+03  0.50400001928E-02 0.  1.
    10030    2    1    2    0    0  0.00000000000E+00  0.00000000000E+00  0.13665958339E+04  0.16910433994E+04  0.99601385803E+03 0.  0.
        3    1    3    3  502    0  0.26927960928E+03 -0.19139562083E+03  0.13159851266E+04  0.13568200526E+04  0.10100000352E+00 0. -1.
       -3    1    3    3    0  502 -0.26927960928E+03  0.19139562083E+03  0.50610707377E+02  0.33422334681E+03  0.10100000352E+00 0.  1.
</event>
<event>
 5   0  0.1656859E-02  0.1008821E+04  0.7818609E-02  0.9298923E-01
       -2   -1    0    0    0  501  0.00000000000E+00  0.00000000000E+00  0.32538314656E+03  0.32538314657E+03  0.25500000920E-02 0. -1.
        2   -1    0    0  501    0  0.00000000000E+00  0.00000000000E+00 -0.78193921896E+03  0.78193921896E+03  0.25500000920E-02 0.  1.
    10030    2    1    2    0    0  0.00000000000E+00  0.00000000000E+00 -0.45655607240E+03  0.11073223655E+04  0.10088207839E+04 0.  0.
        4    1    3    3  502    0 -0.44932168711E+03  0.19952920206E+03 -0.10445199870E+03  0.50260691790E+03  0.12699999809E+01 0. -1.
       -4    1    3    3    0  502  0.44932168711E+03 -0.19952920206E+03 -0.35210407371E+03  0.60471544763E+03  0.12699999809E+01 0.  1.
</event>
<event>
 5   0  0.9471140E-03  0.1009011E+04  0.7818609E-02  0.9298716E-01
        1   -1    0    0  501    0  0.00000000000E+00  0.00000000000E+00  0.24915719013E+03  0.24915719018E+03  0.50400001928E-02 0.  1.
       -1   -1    0    0    0  501  0.00000000000E+00  0.00000000000E+00 -0.10215475130E+04  0.10215475131E+04  0.50400001928E-02 0. -1.
    10030    2    1    2    0    0  0.00000000000E+00  0.00000000000E+00 -0.77239032292E+03  0.12707047032E+04  0.10090112149E+04 0.  0.
        4    1    3    3  502    0 -0.36097339515E+03 -0.10366740549E+03  0.38033331809E+02  0.37748757621E+03  0.12699999809E+01 0.  1.
       -4    1    3    3    0  502  0.36097339515E+03  0.10366740549E+03 -0.81042365473E+03  0.89321712703E+03  0.12699999809E+01 0. -1.
</event>
<event>
 5   0  0.1598986E-02  0.1008494E+04  0.7818609E-02  0.9299277E-01
        2   -1    0    0  501    0  0.00000000000E+00  0.00000000000E+00  0.10933651646E+04  0.10933651646E+04  0.25500000920E-02 0. -1.
       -2   -1    0    0    0  501  0.00000000000E+00  0.00000000000E+00 -0.23255278186E+03  0.23255278187E+03  0.25500000920E-02 0.  1.
    10030    2    1    2    0    0  0.00000000000E+00  0.00000000000E+00  0.86081238277E+03  0.13259179465E+04  0.10084941460E+04 0.  0.
        3    1    3    3  502    0 -0.40919518109E+03 -0.29438365394E+03  0.41363766137E+03  0.65207250904E+03  0.10100000352E+00 0. -1.
       -3    1    3    3    0  502  0.40919518109E+03  0.29438365394E+03  0.44717472140E+03  0.67384543747E+03  0.10100000352E+00 0.  1.
</event>
<event>
 5   0  0.1598986E-02  0.1019349E+04  0.7818609E-02  0.9287574E-01
       -2   -1    0    0    0  501  0.00000000000E+00  0.00000000000E+00  0.13381069949E+03  0.13381069951E+03  0.25500000920E-02 0. -1.
        2   -1    0    0  501    0  0.00000000000E+00  0.00000000000E+00 -0.19413100720E+04  0.19413100720E+04  0.25500000920E-02 0.  1.
    10030    2    1    2    0    0  0.00000000000E+00  0.00000000000E+00 -0.18074993725E+04  0.20751207715E+04  0.10193489269E+04 0.  0.
        3    1    3    3  502    0  0.43657293676E+01  0.92122929897E+02  0.11668266843E+03  0.14872978558E+03  0.10100000352E+00 0. -1.
       -3    1    3    3    0  502 -0.43657293676E+01 -0.92122929897E+02 -0.19241820410E+04  0.19263909860E+04  0.10100000352E+00 0.  1.
</event>
<event>
 5   0  0.1598986E-02  0.9082235E+03  0.7818609E-02  0.9415360E-01
        2   -1    0    0  501    0  0.00000000000E+00  0.00000000000E+00  0.62338946488E+03  0.62338946489E+03  0.25500000920E-02 0.  1.
       -2   -1    0    0    0  501  0.00000000000E+00  0.00000000000E+00 -0.33080038312E+03  0.33080038313E+03  0.25500000920E-02 0. -1.
    10030    2    1    2    0    0  0.00000000000E+00  0.00000000000E+00  0.29258908176E+03  0.95418984802E+03  0.90822348312E+03 0.  0.
        3    1    3    3  502    0 -0.26418990351E+03 -0.15537727762E+03  0.49833408424E+03  0.58504296700E+03  0.10100000352E+00 0.  1.
       -3    1    3    3    0  502  0.26418990351E+03  0.15537727762E+03 -0.20574500248E+03  0.36914688102E+03  0.10100000352E+00 0. -1.
</event>
<event>
 5   0  0.9759443E-03  0.1050862E+04  0.7818609E-02  0.9254455E-01
        1   -1    0    0  501    0  0.00000000000E+00  0.00000000000E+00  0.21495747057E+03  0.21495747063E+03  0.50400001928E-02 0. -1.
       -1   -1    0    0    0  501  0.00000000000E+00  0.00000000000E+00 -0.12843354928E+04  0.12843354928E+04  0.50400001928E-02 0.  1.
    10030    2    1    2    0    0  0.00000000000E+00  0.00000000000E+00 -0.10693780222E+04  0.14992929634E+04  0.10508615683E+04 0.  0.
        2    1    3    3  502    0 -0.23061078153E+03 -0.22465959808E+03  0.57745234838E+02  0.32708986490E+03  0.25500000920E-02 0. -1.
       -2    1    3    3    0  502  0.23061078153E+03  0.22465959808E+03 -0.11271232570E+04  0.11722030985E+04  0.25500000920E-02 0.  1.
</event>
<event>
 5   0  0.1617721E-02  0.9783902E+03  0.7818609E-02  0.9332569E-01
        2   -1    0    0  501    0  0.00000000000E+00  0.00000000000E+00  0.60006340156E+03  0.60006340156E+03  0.25500000920E-02 0. -1.
       -2   -1    0    0    0  501  0.00000000000E+00  0.00000000000E+00 -0.39881089381E+03  0.39881089381E+03  0.25500000920E-02 0.  1.
    10030    2    1    2    0    0  0.00000000000E+00  0.00000000000E+00  0.20125250775E+03  0.99887429537E+03  0.97839015024E+03 0.  0.
        5    1    3    3  502    0 -0.38135059768E+03 -0.28306641629E+03 -0.19023232536E+02  0.47533025125E+03  0.46999998093E+01 0. -1.
       -5    1    3    3    0  502  0.38135059768E+03  0.28306641629E+03  0.22027574029E+03  0.52354404412E+03  0.46999998093E+01 0.  1.
</event>
<event>
 5   0  0.1617721E-02  0.5369307E+03  0.7818609E-02  0.1004565E+00
       -2   -1    0    0    0  501  0.00000000000E+00  0.00000000000E+00  0.14107235914E+03  0.14107235916E+03  0.25500000920E-02 0.  1.
        2   -1    0    0  501    0  0.00000000000E+00  0.00000000000E+00 -0.51089847962E+03  0.51089847963E+03  0.25500000920E-02 0. -1.
    10030    2    1    2    0    0  0.00000000000E+00  0.00000000000E+00 -0.36982612048E+03  0.65197083878E+03  0.53693073597E+03 0.  0.
        5    1    3    3  502    0 -0.16313283369E+03 -0.18166352853E+03 -0.32033164854E+03  0.40280071261E+03  0.46999998093E+01 0.  1.
       -5    1    3    3    0  502  0.16313283369E+03  0.18166352853E+03 -0.49494471939E+02  0.24917012617E+03  0.46999998093E+01 0. -1.
</event>
<event>
 5   0  0.1656859E-02  0.9649325E+03  0.7818609E-02  0.9347865E-01
        2   -1    0    0  501    0  0.00000000000E+00  0.00000000000E+00  0.66052135176E+03  0.66052135176E+03  0.25500000920E-02 0. -1.
       -2   -1    0    0    0  501  0.00000000000E+00  0.00000000000E+00 -0.35240901083E+03  0.35240901084E+03  0.25500000920E-02 0.  1.
    10030    2    1    2    0    0  0.00000000000E+00  0.00000000000E+00  0.30811234093E+03  0.10129303626E+04  0.96493248720E+03 0.  0.
        4    1    3    3  502    0 -0.20735152974E+03  0.40549032174E+03  0.32120930096E+03  0.55730968575E+03  0.12699999809E+01 0. -1.
       -4    1    3    3    0  502  0.20735152974E+03 -0.40549032174E+03 -0.13096960032E+02  0.45562067685E+03  0.12699999809E+01 0.  1.
</event>
<event>
 5   0  0.1656859E-02  0.9777688E+03  0.7818609E-02  0.9333269E-01
        2   -1    0    0  501    0  0.00000000000E+00  0.00000000000E+00  0.12713152835E+04  0.12713152835E+04  0.25500000920E-02 0. -1.
       -2   -1    0    0    0  501  0.00000000000E+00  0.00000000000E+00 -0.18800054218E+03  0.18800054219E+03  0.25500000920E-02 0.  1.
    10030    2    1    2    0    0  0.00000000000E+00  0.00000000000E+00  0.10833147414E+04  0.14593158257E+04  0.97776881234E+03 0.  0.
        4    1    3    3  502    0  0.22341600264E+03 -0.56667669628E+02  0.11851297770E+04  0.12073359666E+04  0.12699999809E+01 0. -1.
       -4    1    3    3    0  502 -0.22341600264E+03  0.56667669628E+02 -0.10181503565E+03  0.25197985912E+03  0.12699999809E+01 0.  1.
</event>
<event>
 5   0  0.9759443E-03  0.9975367E+03  0.7818609E-02  0.9311251E-01
       -1   -1    0    0    0  501  0.00000000000E+00  0.00000000000E+00  0.44851187504E+03  0.44851187507E+03  0.50400001928E-02 0. -1.
        1   -1    0    0  501    0  0.00000000000E+00  0.00000000000E+00 -0.55465611723E+03  0.55465611725E+03  0.50400001928E-02 0.  1.
    10030    2    1    2    0    0  0.00000000000E+00  0.00000000000E+00 -0.10614424219E+03  0.10031679923E+04  0.99753667635E+03 0.  0.
        2    1    3    3  502    0 -0.10872551465E+03  0.19467413995E+03 -0.50174160960E+03  0.54905728400E+03  0.25500000920E-02 0.  1.
       -2    1    3    3    0  502  0.10872551465E+03 -0.19467413995E+03  0.39559736741E+03  0.45411070832E+03  0.25500000920E-02 0. -1.
</event>
<event>
 5   0  0.1598986E-02  0.9576877E+03  0.7818609E-02  0.9356210E-01
        2   -1    0    0  501    0  0.00000000000E+00  0.00000000000E+00  0.78838562788E+03  0.78838562788E+03  0.25500000920E-02 0. -1.
       -2   -1    0    0    0  501  0.00000000000E+00  0.00000000000E+00 -0.29083661967E+03  0.29083661968E+03  0.25500000920E-02 0.  1.
    10030    2    1    2    0    0  0.00000000000E+00  0.00000000000E+00  0.49754900820E+03  0.10792222476E+04  0.95768765476E+03 0.  0.
        3    1    3    3  502    0 -0.39203199261E+03  0.27317519753E+02  0.55709366384E+03  0.68175412768E+03  0.10100000352E+00 0. -1.
       -3    1    3    3    0  502  0.39203199261E+03 -0.27317519753E+02 -0.59544655636E+02  0.39746811989E+03  0.10100000352E+00 0.  1.
</event>
<event>
 5   0  0.9471140E-03  0.1005343E+04  0.7818609E-02  0.9302704E-01
       -1   -1    0    0    0  501  0.00000000000E+00  0.00000000000E+00  0.22678155794E+03  0.22678155799E+03  0.50400001928E-02 0. -1.
        1   -1    0    0  501    0  0.00000000000E+00  0.00000000000E+00 -0.11141932192E+04  0.11141932192E+04  0.50400001928E-02 0.  1.
    10030    2    1    2    0    0  0.00000000000E+00  0.00000000000E+00 -0.88741166128E+03  0.13409747772E+04  0.10053426762E+04 0.  0.
        4    1    3    3  502    0 -0.44135200468E+03  0.22628284589E+03 -0.55273391213E+03  0.74263847792E+03  0.12699999809E+01 0.  1.
       -4    1    3    3    0  502  0.44135200468E+03 -0.22628284589E+03 -0.33467774915E+03  0.59833629930E+03  0.12699999809E+01 0. -1.
</event>
<event>
 5   0  0.1663497E-02  0.9698183E+03  0.7818609E-02  0.9342281E-01
       -2   -1    0    0    0  501  0.00000000000E+00  0.00000000000E+00  0.26118965744E+03  0.26118965745E+03  0.25500000920E-02 0. -1.
        2   -1    0    0  501    0  0.00000000000E+00  0.00000000000E+00 -0.90025342087E+03  0.90025342088E+03  0.25500000920E-02 0.  1.
    10030    2    1    2    0    0  0.00000000000E+00  0.00000000000E+00 -0.63906376343E+03  0.11614430783E+04  0.96981829765E+03 0.  0.
        1    1    3    3  502    0 -0.10721522943E+03  0.11962551451E+03 -0.86746160883E+03  0.88221029918E+03  0.50400001928E-02 0.  1.
       -1    1    3    3    0  502  0.10721522943E+03 -0.11962551451E+03  0.22839784540E+03  0.27923277915E+03  0.50400001928E-02 0. -1.
</event>
<event>
 5   0  0.1571895E-02  0.9996701E+03  0.7818609E-02  0.9308907E-01
        2   -1    0    0  501    0  0.00000000000E+00  0.00000000000E+00  0.42276660784E+03  0.42276660785E+03  0.25500000920E-02 0.  1.
       -2   -1    0    0    0  501  0.00000000000E+00  0.00000000000E+00 -0.59095268757E+03  0.59095268757E+03  0.25500000920E-02 0. -1.
    10030    2    1    2    0    0  0.00000000000E+00  0.00000000000E+00 -0.16818607973E+03  0.10137192954E+04  0.99967007182E+03 0.  0.
        2    1    3    3  502    0 -0.32769036563E+03  0.35876245575E+03  0.34787585854E+02  0.48713617348E+03  0.25500000920E-02 0.  1.
       -2    1    3    3    0  502  0.32769036563E+03 -0.35876245575E+03 -0.20297366559E+03  0.52658312194E+03  0.25500000920E-02 0. -1.
</event>
<event>
 5   0  0.9471140E-03  0.9898365E+03  0.7818609E-02  0.9319763E-01
        1   -1    0    0  501    0  0.00000000000E+00  0.00000000000E+00  0.12782159155E+03  0.12782159165E+03  0.50400001928E-02 0.  1.
       -1   -1    0    0    0  501  0.00000000000E+00  0.00000000000E+00 -0.19162963790E+04  0.19162963790E+04  0.50400001928E-02 0. -1.
    10030    2    1    2    0    0  0.00000000000E+00  0.00000000000E+00 -0.17884747874E+04  0.20441179706E+04  0.98983645751E+03 0.  0.
        4    1    3    3  502    0  0.44100215666E+02 -0.42525057963E+03 -0.14091060590E+04  0.14725367170E+04  0.12699999809E+01 0. -1.
       -4    1    3    3    0  502 -0.44100215666E+02  0.42525057963E+03 -0.37936872842E+03  0.57158125363E+03  0.12699999809E+01 0.  1.
</event>
<event>
 5   0  0.9759443E-03  0.1003408E+04  0.7818609E-02  0.9304815E-01
       -1   -1    0    0    0  501  0.00000000000E+00  0.00000000000E+00  0.25443698305E+03  0.25443698310E+03  0.50400001928E-02 0.  1.
        1   -1    0    0  501    0  0.00000000000E+00  0.00000000000E+00 -0.98926944176E+03  0.98926944178E+03  0.50400001928E-02 0. -1.
    10030    2    1    2    0    0  0.00000000000E+00  0.00000000000E+00 -0.73483245872E+03  0.12437064249E+04  0.10034076584E+04 0.  0.
        2    1    3    3  502    0  0.12104614782E+03 -0.48203080147E+03 -0.28243372420E+03  0.57164208386E+03  0.25500000920E-02 0.  1.
       -2    1    3    3    0  502 -0.12104614782E+03  0.48203080147E+03 -0.45239873452E+03  0.67206434102E+03  0.25500000920E-02 0. -1.
</event>
<event>
 5   0  0.1656859E-02  0.1016119E+04  0.7818609E-02  0.9291041E-01
        2   -1    0    0  501    0  0.00000000000E+00  0.00000000000E+00  0.38811201310E+03  0.38811201311E+03  0.25500000920E-02 0. -1.
       -2   -1    0    0    0  501  0.00000000000E+00  0.00000000000E+00 -0.66507674780E+03  0.66507674781E+03  0.25500000920E-02 0.  1.
    10030    2    1    2    0    0  0.00000000000E+00  0.00000000000E+00 -0.27696473471E+03  0.10531887609E+04  0.10161186456E+04 0.  0.
        4    1    3    3  502    0  0.33168053003E+03  0.38404598434E+03 -0.16427745719E+03  0.53337790349E+03  0.12699999809E+01 0.  1.
       -4    1    3    3    0  502 -0.33168053003E+03 -0.38404598434E+03 -0.11268727752E+03  0.51981085743E+03  0.12699999809E+01 0. -1.
</event>
<event>
 5   0  0.1656859E-02  0.9169040E+03  0.7818609E-02  0.9404694E-01
       -2   -1    0    0    0  501  0.00000000000E+00  0.00000000000E+00  0.19964961192E+03  0.19964961193E+03  0.25500000920E-02 0.  1.
        2   -1    0    0  501    0  0.00000000000E+00  0.00000000000E+00 -0.10527355188E+04  0.10527355188E+04  0.25500000920E-02 0. -1.
    10030    2    1    2    0    0  0.00000000000E+00  0.00000000000E+00 -0.85308590693E+03  0.12523851308E+04  0.91690400326E+03 0.  0.
        4    1    3    3  502    0  0.37205029846E+03 -0.46534598522E+01 -0.79236947080E+03  0.87538224247E+03  0.12699999809E+01 0. -1.
       -4    1    3    3    0  502 -0.37205029846E+03  0.46534598522E+01 -0.60716436122E+02  0.37700288830E+03  0.12699999809E+01 0.  1.
</event>
<event>
 5   0  0.9471140E-03  0.9918770E+03  0.7818609E-02  0.9317499E-01
       -1   -1    0    0    0  501  0.00000000000E+00  0.00000000000E+00  0.18734865438E+03  0.18734865445E+03  0.50400001928E-02 0. -1.
        1   -1    0    0  501    0  0.00000000000E+00  0.00000000000E+00 -0.13128195962E+04  0.13128195962E+04  0.50400001928E-02 0.  1.
    10030    2    1    2    0    0  0.00000000000E+00  0.00000000000E+00 -0.11254709418E+04  0.15001682506E+04  0.99187697794E+03 0.  0.
        4    1    3    3  502    0  0.21556826102E+03  0.73791724413E+02 -0.12289683930E+04  0.12499119239E+04  0.12699999809E+01 0.  1.
       -4    1    3    3    0  502 -0.21556826102E+03 -0.73791724413E+02  0.10349745118E+03  0.25025632670E+03  0.12699999809E+01 0. -1.
</event>
<event>
 5   0  0.9759443E-03  0.9751804E+03  0.7818609E-02  0.9336193E-01
        1   -1    0    0  501    0  0.00000000000E+00  0.00000000000E+00  0.17793183565E+03  0.17793183572E+03  0.50400001928E-02 0. -1.
       -1   -1    0    0    0  501  0.00000000000E+00  0.00000000000E+00 -0.13361532182E+04  0.13361532182E+04  0.50400001928E-02 0.  1.
    10030    2    1    2    0    0  0.00000000000E+00  0.00000000000E+00 -0.11582213826E+04  0.15140850539E+04  0.97518038308E+03 0.  0.
        2    1    3    3  502    0 -0.41187150502E+02 -0.20539080402E+03 -0.12627265726E+04  0.12799844378E+04  0.25500000920E-02 0.  1.
       -2    1    3    3    0  502  0.41187150502E+02  0.20539080402E+03  0.10450519004E+03  0.23410061618E+03  0.25500000920E-02 0. -1.
</event>
<event>
 5   0  0.1617721E-02  0.1000342E+04  0.7818609E-02  0.9308170E-01
       -2   -1    0    0    0  501  0.00000000000E+00  0.00000000000E+00  0.40374897594E+03  0.40374897595E+03  0.25500000920E-02 0.  1.
        2   -1    0    0  501    0  0.00000000000E+00  0.00000000000E+00 -0.61961997773E+03  0.61961997773E+03  0.25500000920E-02 0. -1.
    10030    2    1    2    0    0  0.00000000000E+00  0.00000000000E+00 -0.21587100179E+03  0.10233689537E+04  0.10003418046E+04 0.  0.
        5    1    3    3  502    0  0.26529125998E+03  0.17809196520E+03 -0.50156886165E+03  0.59471809596E+03  0.46999998093E+01 0. -1.
       -5    1    3    3    0  502 -0.26529125998E+03 -0.17809196520E+03  0.28569785987E+03  0.42865085772E+03  0.46999998093E+01 0.  1.
</event>
<event>
 5   0  0.1617721E-02  0.9939081E+03  0.7818609E-02  0.9315252E-01
        2   -1    0    0  501    0  0.00000000000E+00  0.00000000000E+00  0.12327025994E+04  0.12327025994E+04  0.25500000920E-02 0. -1.
       -2   -1    0    0    0  501  0.00000000000E+00  0.00000000000E+00 -0.20034298794E+03  0.20034298796E+03  0.25500000920E-02 0.  1.
    10030    2    1    2    0    0  0.00000000000E+00  0.00000000000E+00  0.10323596114E+04  0.14330455873E+04  0.99390808834E+03 0.  0.
        5    1    3    3  502    0  0.33584840918E+03 -0.21981015202E+03  0.93769220526E+02  0.41222010334E+03  0.46999998093E+01 0.  1.
       -5    1    3    3    0  502 -0.33584840918E+03  0.21981015202E+03  0.93859039091E+03  0.10208254840E+04  0.46999998093E+01 0. -1.
</event>
<event>
 5   0  0.9396660E-03  0.1008205E+04  0.7818609E-02  0.9299592E-01
        1   -1    0    0  501    0  0.00000000000E+00  0.00000000000E+00  0.16086319254E+04  0.16086319255E+04  0.50400001928E-02 0. -1.
       -1   -1    0    0    0  501  0.00000000000E+00  0.00000000000E+00 -0.15797218115E+03  0.15797218123E+03  0.50400001928E-02 0.  1.
    10030    2    1    2    0    0  0.00000000000E+00  0.00000000000E+00  0.14506597443E+04  0.17666041067E+04  0.10082045309E+04 0.  0.
        5    1    3    3  502    0  0.43766020702E+03 -0.17973957528E+03  0.42060221459E+03  0.63307273251E+03  0.46999998093E+01 0. -1.
       -5    1    3    3    0  502 -0.43766020702E+03  0.17973957528E+03  0.10300575297E+04  0.11335313742E+04  0.46999998093E+01 0.  1.
</event>
<event>
 5   0  0.1571895E-02  0.1013282E+04  0.7818609E-02  0.9294096E-01
        2   -1    0    0  501    0  0.00000000000E+00  0.00000000000E+00  0.72017172122E+03  0.72017172123E+03  0.25500000920E-02 0. -1.
       -2   -1    0    0    0  501  0.00000000000E+00  0.00000000000E+00 -0.35642184801E+03  0.35642184802E+03  0.25500000920E-02 0.  1.
    10030    2    1    2    0    0  0.00000000000E+00  0.00000000000E+00  0.36374987321E+03  0.10765935692E+04  0.10132816702E+04 0.  0.
        2    1    3    3  502    0  0.87647194284E+02 -0.21264883963E+03 -0.29775465663E+03  0.37624379757E+03  0.25500000920E-02 0.  1.
       -2    1    3    3    0  502 -0.87647194284E+02  0.21264883963E+03  0.66150452985E+03  0.70034977167E+03  0.25500000920E-02 0. -1.
</event>
<event>
 5   0  0.9471140E-03  0.1023785E+04  0.7818609E-02  0.9282836E-01
       -1   -1    0    0    0  501  0.00000000000E+00  0.00000000000E+00  0.36337770869E+03  0.36337770873E+03  0.50400001928E-02 0. -1.
        1   -1    0    0  501    0  0.00000000000E+00  0.00000000000E+00 -0.72110578164E+03  0.72110578165E+03  0.50400001928E-02 0.  1.
    10030    2    1    2    0    0  0.00000000000E+00  0.00000000000E+00 -0.35772807295E+03  0.10844834904E+04  0.10237846779E+04 0.  0.
        4    1    3    3  502    0 -0.16311933307E+03  0.17824234193E+03 -0.65690013121E+03  0.69992688515E+03  0.12699999809E+01 0.  1.
       -4    1    3    3    0  502  0.16311933307E+03 -0.17824234193E+03  0.29917205826E+03  0.38455660523E+03  0.12699999809E+01 0. -1.
</event>
<event>
 5   0  0.1598986E-02  0.9771622E+03  0.7818609E-02  0.9333954E-01
        2   -1    0    0  501    0  0.00000000000E+00  0.00000000000E+00  0.12375360498E+04  0.12375360498E+04  0.25500000920E-02 0. -1.
       -2   -1    0    0    0  501  0.00000000000E+00  0.00000000000E+00 -0.19289253920E+03  0.19289253922E+03  0.25500000920E-02 0.  1.
    10030    2    1    2    0    0  0.00000000000E+00  0.00000000000E+00  0.10446435106E+04  0.14304285890E+04  0.97716215853E+03 0.  0.
        3    1    3    3  502    0  0.41871834821E+03 -0.24128720964E+03  0.41709793360E+03  0.63836922629E+03  0.10100000352E+00 0.  1.
       -3    1    3    3    0  502 -0.41871834821E+03  0.24128720964E+03  0.62754557703E+03  0.79205936275E+03  0.10100000352E+00 0. -1.
</event>
<event>
 5   0  0.6314750E-03  0.8417951E+03  0.7818609E-02  0.9501416E-01
        4   -1    0    0  501    0  0.00000000000E+00  0.00000000000E+00  0.24994731423E+03  0.24995054069E+03  0.12699999809E+01 0.  1.
       -4   -1    0    0    0  501  0.00000000000E+00  0.00000000000E+00 -0.70876000383E+03  0.70876114166E+03  0.12699999809E+01 0. -1.
    10030    2    1    2    0    0  0.00000000000E+00  0.00000000000E+00 -0.45881268960E+03  0.95871168235E+03  0.84179510912E+03 0.  0.
        2    1    3    3  502    0 -0.21638798529E+03  0.35375704474E+03 -0.31142967990E+03  0.51860992317E+03  0.25500000920E-02 0. -1.
       -2    1    3    3    0  502  0.21638798529E+03 -0.35375704474E+03 -0.14738300970E+03  0.44010175918E+03  0.25500000920E-02 0.  1.
</event>
<event>
 5   0  0.1571895E-02  0.1027665E+04  0.7818609E-02  0.9278713E-01
        2   -1    0    0  501    0  0.00000000000E+00  0.00000000000E+00  0.10897916065E+04  0.10897916065E+04  0.25500000920E-02 0.  1.
       -2   -1    0    0    0  501  0.00000000000E+00  0.00000000000E+00 -0.24226980748E+03  0.24226980749E+03  0.25500000920E-02 0. -1.
    10030    2    1    2    0    0  0.00000000000E+00  0.00000000000E+00  0.84752179906E+03  0.13320614140E+04  0.10276645420E+04 0.  0.
        2    1    3    3  502    0 -0.72245185175E+02 -0.24137798271E+03  0.10042236586E+04  0.10353491458E+04  0.25500000920E-02 0.  1.
       -2    1    3    3    0  502  0.72245185175E+02  0.24137798271E+03 -0.15670185953E+03  0.29671226820E+03  0.25500000920E-02 0. -1.
</event>
<event>
 5   0  0.1000773E-02  0.9561075E+03  0.7818609E-02  0.9358040E-01
        1   -1    0    0  501    0  0.00000000000E+00  0.00000000000E+00  0.14607442539E+04  0.14607442539E+04  0.50400001928E-02 0. -1.
       -1   -1    0    0    0  501  0.00000000000E+00  0.00000000000E+00 -0.15645132570E+03  0.15645132579E+03  0.50400001928E-02 0.  1.
    10030    2    1    2    0    0  0.00000000000E+00  0.00000000000E+00  0.13042929282E+04  0.16171955797E+04  0.95610747326E+03 0.  0.
        3    1    3    3  502    0  0.40636536229E+03 -0.21225041088E+03  0.88128668275E+03  0.99340287496E+03  0.10100000352E+00 0. -1.
       -3    1    3    3    0  502 -0.40636536229E+03  0.21225041088E+03  0.42300624543E+03  0.62379270471E+03  0.10100000352E+00 0.  1.
</event>
<event>
 5   0  0.1571895E-02  0.1063952E+04  0.7818609E-02  0.9241057E-01
        2   -1    0    0  501    0  0.00000000000E+00  0.00000000000E+00  0.27237935453E+03  0.27237935454E+03  0.25500000920E-02 0. -1.
       -2   -1    0    0    0  501  0.00000000000E+00  0.00000000000E+00 -0.10389869444E+04  0.10389869444E+04  0.25500000920E-02 0.  1.
    10030    2    1    2    0    0  0.00000000000E+00  0.00000000000E+00 -0.76660758989E+03  0.13113662990E+04  0.10639522420E+04 0.  0.
        2    1    3    3  502    0 -0.44998811762E+03 -0.81876768930E+02 -0.48456962628E+02  0.45993607004E+03  0.25500000920E-02 0. -1.
       -2    1    3    3    0  502  0.44998811762E+03  0.81876768930E+02 -0.71815062726E+03  0.85143022893E+03  0.25500000920E-02 0.  1.
</event>
<event>
 5   0  0.9396660E-03  0.1002625E+04  0.7818609E-02  0.9305670E-01
        1   -1    0    0  501    0  0.00000000000E+00  0.00000000000E+00  0.12607202772E+04  0.12607202772E+04  0.50400001928E-02 0. -1.
       -1   -1    0    0    0  501  0.00000000000E+00  0.00000000000E+00 -0.19934185402E+03  0.19934185409E+03  0.50400001928E-02 0.  1.
    10030    2    1    2    0    0  0.00000000000E+00  0.00000000000E+00  0.10613784232E+04  0.14600621313E+04  0.10026251892E+04 0.  0.
        5    1    3    3  502    0 -0.47195400840E+03 -0.16568206607E+03  0.48236719907E+03  0.69490383349E+03  0.46999998093E+01 0. -1.
       -5    1    3    3    0  502  0.47195400840E+03  0.16568206607E+03  0.57901122410E+03  0.76515829780E+03  0.46999998093E+01 0.  1.
</event>
<event>
 5   0  0.9471140E-03  0.1041379E+04  0.7818609E-02  0.9264291E-01
       -1   -1    0    0    0  501  0.00000000000E+00  0.00000000000E+00  0.13180821277E+03  0.13180821286E+03  0.50400001928E-02 0. -1.
        1   -1    0    0  501    0  0.00000000000E+00  0.00000000000E+00 -0.20569078586E+04  0.20569078586E+04  0.50400001928E-02 0.  1.
    10030    2    1    2    0    0  0.00000000000E+00  0.00000000000E+00 -0.19250996458E+04  0.21887160715E+04  0.10413786032E+04 0.  0.
        4    1    3    3  502    0  0.47844957374E+03  0.60888822332E+02 -0.55018752773E+03  0.73166206125E+03  0.12699999809E+01 0. -1.
       -4    1    3    3    0  502 -0.47844957374E+03 -0.60888822332E+02 -0.13749121181E+04  0.14570540102E+04  0.12699999809E+01 0.  1.
</event>
<event>
 5   0  0.1598986E-02  0.9940753E+03  0.7818609E-02  0.9315067E-01
       -2   -1    0    0    0  501  0.00000000000E+00  0.00000000000E+00  0.11691147099E+03  0.11691147102E+03  0.25500000920E-02 0.  1.
        2   -1    0    0  501    0  0.00000000000E+00  0.00000000000E+00 -0.21131069472E+04  0.21131069472E+04  0.25500000920E-02 0. -1.
    10030    2    1    2    0    0  0.00000000000E+00  0.00000000000E+00 -0.19961954762E+04  0.22300184182E+04  0.99407533233E+03 0.  0.
        3    1    3    3  502    0  0.12112638042E+02  0.47008391630E+03 -0.63692614906E+03  0.79170735371E+03  0.10100000352E+00 0.  1.
       -3    1    3    3    0  502 -0.12112638042E+02 -0.47008391630E+03 -0.13592693271E+04  0.14383110645E+04  0.10100000352E+00 0. -1.
</event>
<event>
 5   0  0.1000773E-02  0.9926471E+03  0.7818609E-02  0.9316646E-01
        1   -1    0    0  501    0  0.00000000000E+00  0.00000000000E+00  0.47922253916E+03  0.47922253918E+03  0.50400001928E-02 0. -1.
       -1   -1    0    0    0  501  0.00000000000E+00  0.00000000000E+00 -0.51403481757E+03  0.51403481759E+03  0.50400001928E-02 0.  1.
    10030    2    1    2    0    0  0.00000000000E+00  0.00000000000E+00 -0.34812278413E+02  0.99325735678E+03  0.99264710853E+03 0.  0.
        3    1    3    3  502    0  0.12629512705E+03  0.17187788198E+03  0.43102626003E+03  0.48091175122E+03  0.10100000352E+00 0. -1.
       -3    1    3    3    0  502 -0.12629512705E+03 -0.17187788198E+03 -0.46583853844E+03  0.51234560555E+03  0.10100000352E+00 0.  1.
</event>
<event>
 5   0  0.9759443E-03  0.9954640E+03  0.7818609E-02  0.9313534E-01
        1   -1    0    0  501    0  0.00000000000E+00  0.00000000000E+00  0.36538917104E+03  0.36538917108E+03  0.50400001928E-02 0. -1.
       -1   -1    0    0    0  501  0.00000000000E+00  0.00000000000E+00 -0.67800905734E+03  0.67800905736E+03  0.50400001928E-02 0.  1.
    10030    2    1    2    0    0  0.00000000000E+00  0.00000000000E+00 -0.31261988629E+03  0.10433982284E+04  0.99546404746E+03 0.  0.
        2    1    3    3  502    0  0.15248162096E+02  0.49065922888E+03 -0.24247664314E+03  0.54751612561E+03  0.25500000920E-02 0. -1.
       -2    1    3    3    0  502 -0.15248162096E+02 -0.49065922888E+03 -0.70143243159E+02  0.49588210282E+03  0.25500000920E-02 0.  1.
</event>
<event>
 5   0  0.9759443E-03  0.1008213E+04  0.7818609E-02  0.9299582E-01
        1   -1    0    0  501    0  0.00000000000E+00  0.00000000000E+00  0.10899866843E+04  0.10899866843E+04  0.50400001928E-02 0.  1.
       -1   -1    0    0    0  501  0.00000000000E+00  0.00000000000E+00 -0.23314356209E+03  0.23314356214E+03  0.50400001928E-02 0. -1.
    10030    2    1    2    0    0  0.00000000000E+00  0.00000000000E+00  0.85684312218E+03  0.13231302464E+04  0.10082130296E+04 0.  0.
        2    1    3    3  502    0  0.21216418985E+03  0.75972214078E+02 -0.16335739865E+03  0.27833623635E+03  0.25500000920E-02 0. -1.
       -2    1    3    3    0  502 -0.21216418985E+03 -0.75972214078E+02  0.10202005208E+04  0.10447940101E+04  0.25500000920E-02 0.  1.
</event>
<event>
 5   0  0.1656859E-02  0.1022358E+04  0.7818609E-02  0.9284357E-01
       -2   -1    0    0    0  501  0.00000000000E+00  0.00000000000E+00  0.24041312647E+03  0.24041312648E+03  0.25500000920E-02 0.  1.
        2   -1    0    0  501    0  0.00000000000E+00  0.00000000000E+00 -0.10868952554E+04  0.10868952554E+04  0.25500000920E-02 0. -1.
    10030    2    1    2    0    0  0.00000000000E+00  0.00000000000E+00 -0.84648212894E+03  0.13273083819E+04  0.10223578366E+04 0.  0.
        4    1    3    3  502    0 -0.26546129292E+03 -0.21369481257E+03  0.71414627828E+02  0.34819079960E+03  0.12699999809E+01 0.  1.
       -4    1    3    3    0  502  0.26546129292E+03  0.21369481257E+03 -0.91789675677E+03  0.97911758229E+03  0.12699999809E+01 0. -1.
</event>
<event>
 5   0  0.9471140E-03  0.1001762E+04  0.7818609E-02  0.9306615E-01
        1   -1    0    0  501    0  0.00000000000E+00  0.00000000000E+00  0.70045268412E+03  0.70045268413E+03  0.50400001928E-02 0. -1.
       -1   -1    0    0    0  501  0.00000000000E+00  0.00000000000E+00 -0.35817060914E+03  0.35817060918E+03  0.50400001928E-02 0.  1.
    10030    2    1    2    0    0  0.00000000000E+00  0.00000000000E+00  0.34228207497E+03  0.10586232933E+04  0.10017615776E+04 0.  0.
        4    1    3    3  502    0 -0.32704472582E+03  0.28458131152E+03 -0.93967553369E+02  0.44359473570E+03  0.12699999809E+01 0.  1.
       -4    1    3    3    0  502  0.32704472582E+03 -0.28458131152E+03  0.43624962834E+03  0.61502855761E+03  0.12699999809E+01 0. -1.
</event>
<event>
 5   0  0.9507815E-03  0.9884012E+03  0.7818609E-02  0.9321358E-01
       -1   -1    0    0    0  501  0.00000000000E+00  0.00000000000E+00  0.30989192299E+03  0.30989192304E+03  0.50400001928E-02 0.  1.
        1   -1    0    0  501    0  0.00000000000E+00  0.00000000000E+00 -0.78812716809E+03  0.78812716811E+03  0.50400001928E-02 0. -1.
    10030    2    1    2    0    0  0.00000000000E+00  0.00000000000E+00 -0.47823524510E+03  0.10980190911E+04  0.98840122160E+03 0.  0.
        1    1    3    3  502    0  0.47255384245E+02  0.11678307318E+03  0.29175383906E+03  0.31779185036E+03  0.50400001928E-02 0.  1.
       -1    1    3    3    0  502 -0.47255384245E+02 -0.11678307318E+03 -0.76998908416E+03  0.78022724079E+03  0.50400001928E-02 0. -1.
</event>
<event>
 5   0  0.1617721E-02  0.9909612E+03  0.7818609E-02  0.9318514E-01
        2   -1    0    0  501    0  0.00000000000E+00  0.00000000000E+00  0.65275579033E+03  0.65275579033E+03  0.25500000920E-02 0. -1.
       -2   -1    0    0    0  501  0.00000000000E+00  0.00000000000E+00 -0.37609931297E+03  0.37609931298E+03  0.25500000920E-02 0.  1.
    10030    2    1    2    0    0  0.00000000000E+00  0.00000000000E+00  0.27665647736E+03  0.10288551033E+04  0.99096115824E+03 0.  0.
        5    1    3    3  502    0  0.21082419966E+03  0.13929622784E+03  0.58080425953E+03  0.63340820972E+03  0.46999998093E+01 0. -1.
       -5    1    3    3    0  502 -0.21082419966E+03 -0.13929622784E+03 -0.30414778217E+03  0.39544689359E+03  0.46999998093E+01 0.  1.
</event>
<event>
 5   0  0.1663497E-02  0.9920704E+03  0.7818609E-02  0.9317285E-01
        2   -1    0    0  501    0  0.00000000000E+00  0.00000000000E+00  0.38752135304E+03  0.38752135305E+03  0.25500000920E-02 0. -1.
       -2   -1    0    0    0  501  0.00000000000E+00  0.00000000000E+00 -0.63493509266E+03  0.63493509266E+03  0.25500000920E-02 0.  1.
    10030    2    1    2    0    0  0.00000000000E+00  0.00000000000E+00 -0.24741373962E+03  0.10224564457E+04  0.99207037293E+03 0.  0.
        1    1    3    3  502    0 -0.34805048775E+03 -0.16899484419E+03 -0.44362131187E+03  0.58864103472E+03  0.50400001928E-02 0.  1.
       -1    1    3    3    0  502  0.34805048775E+03  0.16899484419E+03  0.19620757225E+03  0.43381541100E+03  0.50400001928E-02 0. -1.
</event>
<event>
 5   0  0.1663497E-02  0.1012043E+04  0.7818609E-02  0.9295433E-01
       -2   -1    0    0    0  501  0.00000000000E+00  0.00000000000E+00  0.13643551543E+03  0.13643551545E+03  0.25500000920E-02 0. -1.
        2   -1    0    0  501    0  0.00000000000E+00  0.00000000000E+00 -0.18767694252E+04  0.18767694252E+04  0.25500000920E-02 0.  1.
    10030    2    1    2    0    0  0.00000000000E+00  0.00000000000E+00 -0.17403339098E+04  0.20132049407E+04  0.10120434850E+04 0.  0.
        1    1    3    3  502    0 -0.49809895126E+03  0.87797990127E+02 -0.83890654278E+03  0.97957911363E+03  0.50400001928E-02 0.  1.
       -1    1    3    3    0  502  0.49809895126E+03 -0.87797990127E+02 -0.90142736701E+03  0.10336258270E+04  0.50400001928E-02 0. -1.
</event>
<event>
 5   0  0.1000773E-02  0.1027659E+04  0.7818609E-02  0.9278719E-01
       -1   -1    0    0    0  501  0.00000000000E+00  0.00000000000E+00  0.24223619093E+03  0.24223619099E+03  0.50400001928E-02 0. -1.
        1   -1    0    0  501    0  0.00000000000E+00  0.00000000000E+00 -0.10899303984E+04  0.10899303984E+04  0.50400001928E-02 0.  1.
    10030    2    1    2    0    0  0.00000000000E+00  0.00000000000E+00 -0.84769420746E+03  0.13321665894E+04  0.10276586751E+04 0.  0.
        3    1    3    3  502    0 -0.44591974994E+03  0.11087714070E+03 -0.12574483490E+03  0.47639262948E+03  0.10100000352E+00 0. -1.
       -3    1    3    3    0  502  0.44591974994E+03 -0.11087714070E+03 -0.72194937256E+03  0.85577395991E+03  0.10100000352E+00 0.  1.
</event>
<event>
 5   0  0.1617721E-02  0.1038733E+04  0.7818609E-02  0.9267055E-01
       -2   -1    0    0    0  501  0.00000000000E+00  0.00000000000E+00  0.28017353570E+03  0.28017353572E+03  0.25500000920E-02 0. -1.
        2   -1    0    0  501    0  0.00000000000E+00  0.00000000000E+00 -0.96276566552E+03  0.96276566553E+03  0.25500000920E-02 0.  1.
    10030    2    1    2    0    0  0.00000000000E+00  0.00000000000E+00 -0.68259212982E+03  0.12429392012E+04  0.10387328060E+04 0.  0.
        5    1    3    3  502    0 -0.30317103106E+03  0.18905058288E+03  0.10971997832E+03  0.37378250441E+03  0.46999998093E+01 0. -1.
       -5    1    3    3    0  502  0.30317103106E+03 -0.18905058288E+03 -0.79231210814E+03  0.86915669684E+03  0.46999998093E+01 0.  1.
</event>
<event>
 5   0  0.1571895E-02  0.9925496E+03  0.7818609E-02  0.9316754E-01
       -2   -1    0    0    0  501  0.00000000000E+00  0.00000000000E+00  0.60873460110E+03  0.60873460110E+03  0.25500000920E-02 0.  1.
        2   -1    0    0  501    0  0.00000000000E+00  0.00000000000E+00 -0.40459125214E+03  0.40459125215E+03  0.25500000920E-02 0. -1.
    10030    2    1    2    0    0  0.00000000000E+00  0.00000000000E+00  0.20414334895E+03  0.10133258533E+04  0.99254963501E+03 0.  0.
        2    1    3    3  502    0 -0.16400401548E+03 -0.34456640426E+03  0.42599105791E+03  0.57191931727E+03  0.25500000920E-02 0.  1.
       -2    1    3    3    0  502  0.16400401548E+03  0.34456640426E+03 -0.22184770895E+03  0.44140653599E+03  0.25500000920E-02 0. -1.
</event>
<event>
 5   0  0.9396660E-03  0.9936801E+03  0.7818609E-02  0.9315504E-01
        1   -1    0    0  501    0  0.00000000000E+00  0.00000000000E+00  0.66957798841E+03  0.66957798843E+03  0.50400001928E-02 0.  1.
       -1   -1    0    0    0  501  0.00000000000E+00  0.00000000000E+00 -0.36866510028E+03  0.36866510031E+03  0.50400001928E-02 0. -1.
    10030    2    1    2    0    0  0.00000000000E+00  0.00000000000E+00  0.30091288813E+03  0.10382430887E+04  0.99368010198E+03 0.  0.
        5    1    3    3  502    0 -0.78553530930E+02  0.48914598815E+03  0.11145285339E+03  0.50781717524E+03  0.46999998093E+01 0. -1.
       -5    1    3    3    0  502  0.78553530930E+02 -0.48914598815E+03  0.18946003474E+03  0.53042591350E+03  0.46999998093E+01 0.  1.
</event>
<event>
 5   0  0.1663497E-02  0.1023389E+04  0.7818609E-02  0.9283258E-01
       -2   -1    0    0    0  501  0.00000000000E+00  0.00000000000E+00  0.26991370153E+03  0.26991370154E+03  0.25500000920E-02 0. -1.
        2   -1    0    0  501    0  0.00000000000E+00  0.00000000000E+00 -0.97005554860E+03  0.97005554860E+03  0.25500000920E-02 0.  1.
    10030    2    1    2    0    0  0.00000000000E+00  0.00000000000E+00 -0.70014184707E+03  0.12399692501E+04  0.10233890440E+04 0.  0.
        1    1    3    3  502    0 -0.22496280612E+02  0.21410679826E+03 -0.91251214463E+03  0.93756398066E+03  0.50400001928E-02 0.  1.
       -1    1    3    3    0  502  0.22496280612E+02 -0.21410679826E+03  0.21237029756E+03  0.30240526949E+03  0.50400001928E-02 0. -1.
</event>
<event>
 5   0  0.1656859E-02  0.1074630E+04  0.7818609E-02  0.9230278E-01
       -2   -1    0    0    0  501  0.00000000000E+00  0.00000000000E+00  0.22818949458E+03  0.22818949459E+03  0.25500000920E-02 0. -1.
        2   -1    0    0  501    0  0.00000000000E+00  0.00000000000E+00 -0.12652094545E+04  0.12652094545E+04  0.25500000920E-02 0.  1.
    10030    2    1    2    0    0  0.00000000000E+00  0.00000000000E+00 -0.10370199599E+04  0.14933989491E+04  0.10746301801E+04 0.  0.
        4    1    3    3  502    0 -0.46354993176E+03  0.12709604647E+03 -0.85224874303E+03  0.97844850512E+03  0.12699999809E+01 0. -1.
       -4    1    3    3    0  502  0.46354993176E+03 -0.12709604647E+03 -0.18477121690E+03  0.51495044398E+03  0.12699999809E+01 0.  1.
</event>
<event>
 5   0  0.1663497E-02  0.1006560E+04  0.7818609E-02  0.9301380E-01
        2   -1    0    0  501    0  0.00000000000E+00  0.00000000000E+00  0.56313653121E+03  0.56313653122E+03  0.25500000920E-02 0.  1.
       -2   -1    0    0    0  501  0.00000000000E+00  0.00000000000E+00 -0.44978527084E+03  0.44978527084E+03  0.25500000920E-02 0. -1.
    10030    2    1    2    0    0  0.00000000000E+00  0.00000000000E+00  0.11335126038E+03  0.10129218021E+04  0.10065595208E+04 0.  0.
        1    1    3    3  502    0  0.25056662057E+03  0.24643655944E+03  0.41919690290E+03  0.54702893214E+03  0.50400001928E-02 0.  1.
       -1    1    3    3    0  502 -0.25056662057E+03 -0.24643655944E+03 -0.30584564252E+03  0.46589286992E+03  0.50400001928E-02 0. -1.
</event>
<event>
 5   0  0.1571895E-02  0.9737993E+03  0.7818609E-02  0.9337757E-01
       -2   -1    0    0    0  501  0.00000000000E+00  0.00000000000E+00  0.16964025454E+03  0.16964025456E+03  0.25500000920E-02 0.  1.
        2   -1    0    0  501    0  0.00000000000E+00  0.00000000000E+00 -0.13974942350E+04  0.13974942350E+04  0.25500000920E-02 0. -1.
    10030    2    1    2    0    0  0.00000000000E+00  0.00000000000E+00 -0.12278539805E+04  0.15671344896E+04  0.97379931765E+03 0.  0.
        2    1    3    3  502    0  0.21096472729E+03 -0.19451072355E+03  0.19104193185E+02  0.28758565322E+03  0.25500000920E-02 0.  1.
       -2    1    3    3    0  502 -0.21096472729E+03  0.19451072355E+03 -0.12469581737E+04  0.12795488364E+04  0.25500000920E-02 0. -1.
</event>
<event>
 5   0  0.9759443E-03  0.1154684E+04  0.7818609E-02  0.9153473E-01
       -1   -1    0    0    0  501  0.00000000000E+00  0.00000000000E+00  0.39684001098E+03  0.39684001101E+03  0.50400001928E-02 0. -1.
        1   -1    0    0  501    0  0.00000000000E+00  0.00000000000E+00 -0.83994470666E+03  0.83994470667E+03  0.50400001928E-02 0.  1.
    10030    2    1    2    0    0  0.00000000000E+00  0.00000000000E+00 -0.44310469568E+03  0.12367847177E+04  0.11546837951E+04 0.  0.
        2    1    3    3  502    0 -0.52988000048E+03  0.13423879415E+03 -0.22515105462E+02  0.54708299073E+03  0.25500000920E-02 0.  1.
       -2    1    3    3    0  502  0.52988000048E+03 -0.13423879415E+03 -0.42058959022E+03  0.68970172696E+03  0.25500000920E-02 0. -1.
</event>
<event>
 5   0  0.9759443E-03  0.9374102E+03  0.7818609E-02  0.9379988E-01
       -1   -1    0    0    0  501  0.00000000000E+00  0.00000000000E+00  0.20497644504E+03  0.20497644510E+03  0.50400001928E-02 0.  1.
        1   -1    0    0  501    0  0.00000000000E+00  0.00000000000E+00 -0.10717546228E+04  0.10717546228E+04  0.50400001928E-02 0. -1.
    10030    2    1    2    0    0  0.00000000000E+00  0.00000000000E+00 -0.86677817772E+03  0.12767310679E+04  0.93741016119E+03 0.  0.
        2    1    3    3  502    0  0.44446145288E+03 -0.13974199339E+03 -0.36379959793E+03  0.59112093117E+03  0.25500000920E-02 0. -1.
       -2    1    3    3    0  502 -0.44446145288E+03  0.13974199339E+03 -0.50297857980E+03  0.68561013670E+03  0.25500000920E-02 0.  1.
</event>
<event>
 5   0  0.1663497E-02  0.9993054E+03  0.7818609E-02  0.9309307E-01
       -2   -1    0    0    0  501  0.00000000000E+00  0.00000000000E+00  0.14031938324E+04  0.14031938324E+04  0.25500000920E-02 0. -1.
        2   -1    0    0  501    0  0.00000000000E+00  0.00000000000E+00 -0.17791757106E+03  0.17791757108E+03  0.25500000920E-02 0.  1.
    10030    2    1    2    0    0  0.00000000000E+00  0.00000000000E+00  0.12252762613E+04  0.15811114035E+04  0.99930543559E+03 0.  0.
        1    1    3    3  502    0 -0.28955097498E+03  0.28455723768E+03  0.10734940716E+04  0.11476942582E+04  0.50400001928E-02 0. -1.
       -1    1    3    3    0  502  0.28955097498E+03 -0.28455723768E+03  0.15178218974E+03  0.43341714523E+03  0.50400001928E-02 0.  1.
</event>
<event>
 5   0  0.9507815E-03  0.1041798E+04  0.7818609E-02  0.9263853E-01
       -1   -1    0    0    0  501  0.00000000000E+00  0.00000000000E+00  0.44691215926E+03  0.44691215928E+03  0.50400001928E-02 0. -1.
        1   -1    0    0  501    0  0.00000000000E+00  0.00000000000E+00 -0.60713443102E+03  0.60713443104E+03  0.50400001928E-02 0.  1.
    10030    2    1    2    0    0  0.00000000000E+00  0.00000000000E+00 -0.16022227177E+03  0.10540465903E+04  0.10417979834E+04 0.  0.
        1    1    3    3  502    0 -0.51324122898E+03  0.87632540075E+02 -0.95776663454E+02  0.52940456222E+03  0.50400001928E-02 0.  1.
       -1    1    3    3    0  502  0.51324122898E+03 -0.87632540075E+02 -0.64445608312E+02  0.52464202811E+03  0.50400001928E-02 0. -1.
</event>
<event>
 5   0  0.9396660E-03  0.1008460E+04  0.7818609E-02  0.9299315E-01
        1   -1    0    0  501    0  0.00000000000E+00  0.00000000000E+00  0.64199458076E+03  0.64199458078E+03  0.50400001928E-02 0. -1.
       -1   -1    0    0    0  501  0.00000000000E+00  0.00000000000E+00 -0.39602771743E+03  0.39602771747E+03  0.50400001928E-02 0.  1.
    10030    2    1    2    0    0  0.00000000000E+00  0.00000000000E+00  0.24596686332E+03  0.10380222982E+04  0.10084595152E+04 0.  0.
        5    1    3    3  502    0 -0.83436011341E+02  0.95950742315E+02 -0.37923089696E+03  0.40000784511E+03  0.46999998093E+01 0.  1.
       -5    1    3    3    0  502  0.83436011341E+02 -0.95950742315E+02  0.62519776029E+03  0.63801445313E+03  0.46999998093E+01 0. -1.
</event>
<event>
 5   0  0.1663497E-02  0.1004612E+04  0.7818609E-02  0.9303501E-01
        2   -1    0    0  501    0  0.00000000000E+00  0.00000000000E+00  0.11342977338E+04  0.11342977338E+04  0.25500000920E-02 0. -1.
       -2   -1    0    0    0  501  0.00000000000E+00  0.00000000000E+00 -0.22243813747E+03  0.22243813748E+03  0.25500000920E-02 0.  1.
    10030    2    1    2    0    0  0.00000000000E+00  0.00000000000E+00  0.91185959631E+03  0.13567358713E+04  0.10046115175E+04 0.  0.
        1    1    3    3  502    0 -0.12070872100E+03 -0.17366547901E+03  0.10712351973E+04  0.10919135230E+04  0.50400001928E-02 0. -1.
       -1    1    3    3    0  502  0.12070872100E+03  0.17366547901E+03 -0.15937560094E+03  0.26482234824E+03  0.50400001928E-02 0.  1.
</event>
<event>
 5   0  0.9471140E-03  0.7995471E+03  0.7818609E-02  0.9560673E-01
       -1   -1    0    0    0  501  0.00000000000E+00  0.00000000000E+00  0.36288822876E+03  0.36288822880E+03  0.50400001928E-02 0. -1.
        1   -1    0    0  501    0  0.00000000000E+00  0.00000000000E+00 -0.44040808028E+03  0.44040808030E+03  0.50400001928E-02 0.  1.
    10030    2    1    2    0    0  0.00000000000E+00  0.00000000000E+00 -0.77519851515E+02  0.80329630910E+03  0.79954714235E+03 0.  0.
        4    1    3    3  502    0  0.11847373955E+03 -0.27867395865E+03  0.22346603659E+03  0.37634277541E+03  0.12699999809E+01 0. -1.
       -4    1    3    3    0  502 -0.11847373955E+03  0.27867395865E+03 -0.30098588810E+03  0.42695353369E+03  0.12699999809E+01 0.  1.
</event>
<event>
 5   0  0.1571895E-02  0.1045524E+04  0.7818609E-02  0.9259978E-01
        2   -1    0    0  501    0  0.00000000000E+00  0.00000000000E+00  0.59500059926E+03  0.59500059926E+03  0.25500000920E-02 0. -1.
       -2   -1    0    0    0  501  0.00000000000E+00  0.00000000000E+00 -0.45929361915E+03  0.45929361916E+03  0.25500000920E-02 0.  1.
    10030    2    1    2    0    0  0.00000000000E+00  0.00000000000E+00  0.13570698011E+03  0.10542942184E+04  0.10455237513E+04 0.  0.
        2    1    3    3  502    0 -0.15551332776E+02  0.13304965701E+03  0.57740005939E+03  0.59273508735E+03  0.25500000920E-02 0. -1.
       -2    1    3    3    0  502  0.15551332776E+02 -0.13304965701E+03 -0.44169307929E+03  0.46155913107E+03  0.25500000920E-02 0.  1.
</event>
<event>
 5   0  0.9471140E-03  0.1000171E+04  0.7818609E-02  0.9308357E-01
        1   -1    0    0  501    0  0.00000000000E+00  0.00000000000E+00  0.47627218955E+03  0.47627218958E+03  0.50400001928E-02 0. -1.
       -1   -1    0    0    0  501  0.00000000000E+00  0.00000000000E+00 -0.52508986693E+03  0.52508986696E+03  0.50400001928E-02 0.  1.
    10030    2    1    2    0    0  0.00000000000E+00  0.00000000000E+00 -0.48817677379E+02  0.10013620565E+04  0.10001713866E+04 0.  0.
        4    1    3    3  502    0 -0.20150124059E+02 -0.73601934930E+02  0.47040701588E+03  0.47655812428E+03  0.12699999809E+01 0. -1.
       -4    1    3    3    0  502  0.20150124059E+02  0.73601934930E+02 -0.51922469326E+03  0.52480393226E+03  0.12699999809E+01 0.  1.
</event>
<event>
 5   0  0.9507815E-03  0.1004739E+04  0.7818609E-02  0.9303362E-01
        1   -1    0    0  501    0  0.00000000000E+00  0.00000000000E+00  0.10943501915E+04  0.10943501915E+04  0.50400001928E-02 0. -1.
       -1   -1    0    0    0  501  0.00000000000E+00  0.00000000000E+00 -0.23061642562E+03  0.23061642567E+03  0.50400001928E-02 0.  1.
    10030    2    1    2    0    0  0.00000000000E+00  0.00000000000E+00  0.86373376587E+03  0.13249666172E+04  0.10047390300E+04 0.  0.
        1    1    3    3  502    0  0.49581171261E+02  0.76170760161E+02 -0.21968464084E+03  0.23774275739E+03  0.50400001928E-02 0.  1.
       -1    1    3    3    0  502 -0.49581171261E+02 -0.76170760161E+02  0.10834184067E+04  0.10872238598E+04  0.50400001928E-02 0. -1.
</event>
<event>
 5   0  0.1617721E-02  0.9986980E+03  0.7818609E-02  0.9309974E-01
       -2   -1    0    0    0  501  0.00000000000E+00  0.00000000000E+00  0.75891612099E+03  0.75891612099E+03  0.25500000920E-02 0.  1.
        2   -1    0    0  501    0  0.00000000000E+00  0.00000000000E+00 -0.32855992960E+03  0.32855992961E+03  0.25500000920E-02 0. -1.
    10030    2    1    2    0    0  0.00000000000E+00  0.00000000000E+00  0.43035619139E+03  0.10874760506E+04  0.99869800698E+03 0.  0.
        5    1    3    3  502    0  0.79437025397E+02 -0.48863283168E+03  0.14414872635E+03  0.51562896593E+03  0.46999998093E+01 0.  1.
       -5    1    3    3    0  502 -0.79437025397E+02  0.48863283168E+03  0.28620746504E+03  0.57184708467E+03  0.46999998093E+01 0. -1.
</event>
<event>
 5   0  0.1000773E-02  0.9913878E+03  0.7818609E-02  0.9318041E-01
        1   -1    0    0  501    0  0.00000000000E+00  0.00000000000E+00  0.36606739568E+03  0.36606739572E+03  0.50400001928E-02 0. -1.
       -1   -1    0    0    0  501  0.00000000000E+00  0.00000000000E+00 -0.67122187772E+03  0.67122187773E+03  0.50400001928E-02 0.  1.
    10030    2    1    2    0    0  0.00000000000E+00  0.00000000000E+00 -0.30515448203E+03  0.10372892735E+04  0.99138780450E+03 0.  0.
        3    1    3    3  502    0 -0.35031206089E+03 -0.33413631598E+03 -0.26403064509E+03  0.55143250667E+03  0.10100000352E+00 0. -1.
       -3    1    3    3    0  502  0.35031206089E+03  0.33413631598E+03 -0.41123836945E+02  0.48585676678E+03  0.10100000352E+00 0.  1.
</event>
<event>
 5   0  0.1000773E-02  0.1049297E+04  0.7818609E-02  0.9256070E-01
        1   -1    0    0  501    0  0.00000000000E+00  0.00000000000E+00  0.17425691280E+04  0.17425691281E+04  0.50400001928E-02 0.  1.
       -1   -1    0    0    0  501  0.00000000000E+00  0.00000000000E+00 -0.15795987873E+03  0.15795987881E+03  0.50400001928E-02 0. -1.
    10030    2    1    2    0    0  0.00000000000E+00  0.00000000000E+00  0.15846092493E+04  0.19005290069E+04  0.10492969231E+04 0.  0.
        3    1    3    3  502    0 -0.14512669391E+03  0.46149719155E+03  0.11600113370E+04  0.12568483310E+04  0.10100000352E+00 0.  1.
       -3    1    3    3    0  502  0.14512669391E+03 -0.46149719155E+03  0.42459791235E+03  0.64368067585E+03  0.10100000352E+00 0. -1.
</event>
<event>
 5   0  0.1571895E-02  0.1027287E+04  0.7818609E-02  0.9279113E-01
       -2   -1    0    0    0  501  0.00000000000E+00  0.00000000000E+00  0.25520137545E+03  0.25520137546E+03  0.25500000920E-02 0.  1.
        2   -1    0    0  501    0  0.00000000000E+00  0.00000000000E+00 -0.10338092902E+04  0.10338092902E+04  0.25500000920E-02 0. -1.
    10030    2    1    2    0    0  0.00000000000E+00  0.00000000000E+00 -0.77860791472E+03  0.12890106656E+04  0.10272868203E+04 0.  0.
        2    1    3    3  502    0 -0.14886545441E+03  0.45590413271E+03 -0.62005938452E+03  0.78388975123E+03  0.25500000920E-02 0. -1.
       -2    1    3    3    0  502  0.14886545441E+03 -0.45590413271E+03 -0.15854853020E+03  0.50512091441E+03  0.25500000920E-02 0.  1.
</event>
<event>
 5   0  0.1656859E-02  0.9978031E+03  0.7818609E-02  0.9310958E-01
        2   -1    0    0  501    0  0.00000000000E+00  0.00000000000E+00  0.11869530317E+04  0.11869530317E+04  0.25500000920E-02 0.  1.
       -2   -1    0    0    0  501  0.00000000000E+00  0.00000000000E+00 -0.20969891787E+03  0.20969891789E+03  0.25500000920E-02 0. -1.
    10030    2    1    2    0    0  0.00000000000E+00  0.00000000000E+00  0.97725411380E+03  0.13966519496E+04  0.99780311949E+03 0.  0.
        4    1    3    3  502    0 -0.35750243374E+03  0.16020752535E+03  0.56234395085E+02  0.39577564528E+03  0.12699999809E+01 0. -1.
       -4    1    3    3    0  502  0.35750243374E+03 -0.16020752535E+03  0.92101971872E+03  0.10008763043E+04  0.12699999809E+01 0.  1.
</event>
<event>
 5   0  0.1000773E-02  0.9997054E+03  0.7818609E-02  0.9308868E-01
        1   -1    0    0  501    0  0.00000000000E+00  0.00000000000E+00  0.62545187068E+03  0.62545187070E+03  0.50400001928E-02 0. -1.
       -1   -1    0    0    0  501  0.00000000000E+00  0.00000000000E+00 -0.39947555056E+03  0.39947555059E+03  0.50400001928E-02 0.  1.
    10030    2    1    2    0    0  0.00000000000E+00  0.00000000000E+00  0.22597632012E+03  0.10249274213E+04  0.99970541744E+03 0.  0.
        3    1    3    3  502    0 -0.30109427356E+03 -0.19962169831E+01 -0.29606550350E+03  0.42227543028E+03  0.10100000352E+00 0.  1.
       -3    1    3    3    0  502  0.30109427356E+03  0.19962169831E+01  0.52204182362E+03  0.60265199101E+03  0.10100000352E+00 0. -1.
</event>
<event>
 5   0  0.1571895E-02  0.1012410E+04  0.7818609E-02  0.9295037E-01
        2   -1    0    0  501    0  0.00000000000E+00  0.00000000000E+00  0.12991110924E+04  0.12991110924E+04  0.25500000920E-02 0. -1.
       -2   -1    0    0    0  501  0.00000000000E+00  0.00000000000E+00 -0.19724545104E+03  0.19724545106E+03  0.25500000920E-02 0.  1.
    10030    2    1    2    0    0  0.00000000000E+00  0.00000000000E+00  0.11018656414E+04  0.14963565435E+04  0.10124104966E+04 0.  0.
        2    1    3    3  502    0 -0.18891587626E+03  0.45713690697E+03  0.39188046566E+03  0.63105757216E+03  0.25500000920E-02 0.  1.
       -2    1    3    3    0  502  0.18891587626E+03 -0.45713690697E+03  0.70998517572E+03  0.86529897132E+03  0.25500000920E-02 0. -1.
</event>
<event>
 5   0  0.1656859E-02  0.9970956E+03  0.7818609E-02  0.9311736E-01
        2   -1    0    0  501    0  0.00000000000E+00  0.00000000000E+00  0.53694853871E+03  0.53694853872E+03  0.25500000920E-02 0.  1.
       -2   -1    0    0    0  501  0.00000000000E+00  0.00000000000E+00 -0.46289331564E+03  0.46289331565E+03  0.25500000920E-02 0. -1.
    10030    2    1    2    0    0  0.00000000000E+00  0.00000000000E+00  0.74055223066E+02  0.99984185437E+03  0.99709556096E+03 0.  0.
        4    1    3    3  502    0  0.12509606870E+02  0.23170983002E+03 -0.40543860479E+03  0.46714881007E+03  0.12699999809E+01 0. -1.
       -4    1    3    3    0  502 -0.12509606870E+02 -0.23170983002E+03  0.47949382786E+03  0.53269304430E+03  0.12699999809E+01 0.  1.
</event>
<event>
 5   0  0.1598986E-02  0.9912952E+03  0.7818609E-02  0.9318144E-01
        2   -1    0    0  501    0  0.00000000000E+00  0.00000000000E+00  0.12054529035E+04  0.12054529035E+04  0.25500000920E-02 0.  1.
       -2   -1    0    0    0  501  0.00000000000E+00  0.00000000000E+00 -0.20379605935E+03  0.20379605936E+03  0.25500000920E-02 0. -1.
    10030    2    1    2    0    0  0.00000000000E+00  0.00000000000E+00  0.10016568442E+04  0.14092489629E+04  0.99129521633E+03 0.  0.
        3    1    3    3  502    0 -0.45892586590E+03 -0.70831487926E+02  0.25444623137E+03  0.52950254478E+03  0.10100000352E+00 0. -1.
       -3    1    3    3    0  502  0.45892586590E+03  0.70831487926E+02  0.74721061281E+03  0.87974641811E+03  0.10100000352E+00 0.  1.
</event>
<event>
 5   0  0.1000773E-02  0.9804332E+03  0.7818609E-02  0.9330270E-01
        1   -1    0    0  501    0  0.00000000000E+00  0.00000000000E+00  0.11280683667E+04  0.11280683667E+04  0.50400001928E-02 0.  1.
       -1   -1    0    0    0  501  0.00000000000E+00  0.00000000000E+00 -0.21302990888E+03  0.21302990894E+03  0.50400001928E-02 0. -1.
    10030    2    1    2    0    0  0.00000000000E+00  0.00000000000E+00  0.91503845779E+03  0.13410982756E+04  0.98043317246E+03 0.  0.
        3    1    3    3  502    0  0.41234405917E+03 -0.36278237080E+02  0.81674557327E+03  0.91565117554E+03  0.10100000352E+00 0.  1.
       -3    1    3    3    0  502 -0.41234405917E+03  0.36278237080E+02  0.98292884522E+02  0.42544710008E+03  0.10100000352E+00 0. -1.
</event>
<event>
 5   0  0.1571895E-02  0.1014143E+04  0.7818609E-02  0.9293167E-01
        2   -1    0    0  501    0  0.00000000000E+00  0.00000000000E+00  0.13504431056E+04  0.13504431056E+04  0.25500000920E-02 0.  1.
       -2   -1    0    0    0  501  0.00000000000E+00  0.00000000000E+00 -0.19039797128E+03  0.19039797129E+03  0.25500000920E-02 0. -1.
    10030    2    1    2    0    0  0.00000000000E+00  0.00000000000E+00  0.11600451343E+04  0.15408410769E+04  0.10141432397E+04 0.  0.
        2    1    3    3  502    0 -0.33075342020E+03  0.27856197779E+03  0.17767510891E+03  0.46750726709E+03  0.25500000920E-02 0. -1.
       -2    1    3    3    0  502  0.33075342020E+03 -0.27856197779E+03  0.98237002541E+03  0.10733338098E+04  0.25500000920E-02 0.  1.
</event>
<event>
 5   0  0.9396660E-03  0.1035330E+04  0.7818609E-02  0.9270623E-01
       -1   -1    0    0    0  501  0.00000000000E+00  0.00000000000E+00  0.18335058017E+03  0.18335058024E+03  0.50400001928E-02 0.  1.
        1   -1    0    0  501    0  0.00000000000E+00  0.00000000000E+00 -0.14615541128E+04  0.14615541128E+04  0.50400001928E-02 0. -1.
    10030    2    1    2    0    0  0.00000000000E+00  0.00000000000E+00 -0.12782035326E+04  0.16449046931E+04  0.10353295023E+04 0.  0.
        5    1    3    3  502    0  0.19167820014E+03  0.42308628692E+03 -0.27606717761E+03  0.54034962306E+03  0.46999998093E+01 0.  1.
       -5    1    3    3    0  502 -0.19167820014E+03 -0.42308628692E+03 -0.10021363550E+04  0.11045550700E+04  0.46999998093E+01 0. -1.
</event>
<event>
 5   0  0.9471140E-03  0.1031723E+04  0.7818609E-02  0.9274419E-01
        1   -1    0    0  501    0  0.00000000000E+00  0.00000000000E+00  0.19364671825E+04  0.19364671825E+04  0.50400001928E-02 0. -1.
       -1   -1    0    0    0  501  0.00000000000E+00  0.00000000000E+00 -0.13742206344E+03  0.13742206354E+03  0.50400001928E-02 0.  1.
    10030    2    1    2    0    0  0.00000000000E+00  0.00000000000E+00  0.17990451191E+04  0.20738892461E+04  0.10317234438E+04 0.  0.
        4    1    3    3  502    0  0.16473905924E+03 -0.36676377630E+03  0.15491901426E+04  0.16005143973E+04  0.12699999809E+01 0. -1.
       -4    1    3    3    0  502 -0.16473905924E+03  0.36676377630E+03  0.24985497650E+03  0.47337484875E+03  0.12699999809E+01 0.  1.
</event>
<event>
 5   0  0.1571895E-02  0.9995315E+03  0.7818609E-02  0.9309059E-01
       -2   -1    0    0    0  501  0.00000000000E+00  0.00000000000E+00  0.81794317425E+02  0.81794317465E+02  0.25500000920E-02 0. -1.
        2   -1    0    0  501    0  0.00000000000E+00  0.00000000000E+00 -0.30535836757E+04  0.30535836757E+04  0.25500000920E-02 0.  1.
    10030    2    1    2    0    0  0.00000000000E+00  0.00000000000E+00 -0.29717893583E+04  0.31353779932E+04  0.99953147528E+03 0.  0.
        2    1    3    3  502    0  0.42853151684E+02 -0.32554338314E+03 -0.26677451020E+04  0.26878762650E+04  0.25500000920E-02 0.  1.
       -2    1    3    3    0  502 -0.42853151684E+02  0.32554338314E+03 -0.30404425636E+03  0.44750172821E+03  0.25500000920E-02 0. -1.
</event>
<event>
 5   0  0.9396660E-03  0.9778564E+03  0.7818609E-02  0.9333171E-01
        1   -1    0    0  501    0  0.00000000000E+00  0.00000000000E+00  0.85399364662E+03  0.85399364663E+03  0.50400001928E-02 0. -1.
       -1   -1    0    0    0  501  0.00000000000E+00  0.00000000000E+00 -0.27992102009E+03  0.27992102014E+03  0.50400001928E-02 0.  1.
    10030    2    1    2    0    0  0.00000000000E+00  0.00000000000E+00  0.57407262652E+03  0.11339146668E+04  0.97785637544E+03 0.  0.
        5    1    3    3  502    0 -0.37704535852E+03 -0.17430468389E+03  0.58602983126E+03  0.71833027107E+03  0.46999998093E+01 0. -1.
       -5    1    3    3    0  502  0.37704535852E+03  0.17430468389E+03 -0.11957204738E+02  0.41558439570E+03  0.46999998093E+01 0.  1.
</event>
<event>
 5   0  0.1000773E-02  0.9937483E+03  0.7818609E-02  0.9315428E-01
        1   -1    0    0  501    0  0.00000000000E+00  0.00000000000E+00  0.61339759468E+03  0.61339759470E+03  0.50400001928E-02 0. -1.
       -1   -1    0    0    0  501  0.00000000000E+00  0.00000000000E+00 -0.40248596385E+03  0.40248596388E+03  0.50400001928E-02 0.  1.
    10030    2    1    2    0    0  0.00000000000E+00  0.00000000000E+00  0.21091163083E+03  0.10158835586E+04  0.99374830242E+03 0.  0.
        3    1    3    3  502    0  0.25605444208E+03  0.42200604566E+03  0.47348415238E+02  0.49587787055E+03  0.10100000352E+00 0.  1.
       -3    1    3    3    0  502 -0.25605444208E+03 -0.42200604566E+03  0.16356321559E+03  0.52000568802E+03  0.10100000352E+00 0. -1.
</event>
<event>
 5   0  0.1000773E-02  0.1008585E+04  0.7818609E-02  0.9299179E-01
       -1   -1    0    0    0  501  0.00000000000E+00  0.00000000000E+00  0.22126788858E+03  0.22126788864E+03  0.50400001928E-02 0. -1.
        1   -1    0    0  501    0  0.00000000000E+00  0.00000000000E+00 -0.11493348087E+04  0.11493348087E+04  0.50400001928E-02 0.  1.
    10030    2    1    2    0    0  0.00000000000E+00  0.00000000000E+00 -0.92806692009E+03  0.13706026973E+04  0.10085849224E+04 0.  0.
        3    1    3    3  502    0  0.11191828909E+03 -0.38774335308E+03 -0.87496346040E+03  0.96355159619E+03  0.10100000352E+00 0.  1.
       -3    1    3    3    0  502 -0.11191828909E+03  0.38774335308E+03 -0.53103459684E+02  0.40705110112E+03  0.10100000352E+00 0. -1.
</event>
<event>
 5   0  0.9759443E-03  0.9808238E+03  0.7818609E-02  0.9329831E-01
        1   -1    0    0  501    0  0.00000000000E+00  0.00000000000E+00  0.42314907544E+03  0.42314907547E+03  0.50400001928E-02 0.  1.
       -1   -1    0    0    0  501  0.00000000000E+00  0.00000000000E+00 -0.56836661542E+03  0.56836661544E+03  0.50400001928E-02 0. -1.
    10030    2    1    2    0    0  0.00000000000E+00  0.00000000000E+00 -0.14521753998E+03  0.99151569091E+03  0.98082375145E+03 0.  0.
        2    1    3    3  502    0 -0.22835264850E+03  0.69352010197E+02 -0.50570543052E+03  0.55918924870E+03  0.25500000920E-02 0. -1.
       -2    1    3    3    0  502  0.22835264850E+03 -0.69352010197E+02  0.36048789055E+03  0.43232644221E+03  0.25500000920E-02 0.  1.
</event>
<event>
 5   0  0.1617721E-02  0.1011616E+04  0.7818609E-02  0.9295896E-01
        2   -1    0    0  501    0  0.00000000000E+00  0.00000000000E+00  0.55987591962E+03  0.55987591962E+03  0.25500000920E-02 0.  1.
       -2   -1    0    0    0  501  0.00000000000E+00  0.00000000000E+00 -0.45696113399E+03  0.45696113400E+03  0.25500000920E-02 0. -1.
    10030    2    1    2    0    0  0.00000000000E+00  0.00000000000E+00  0.10291478563E+03  0.10168370536E+04  0.10116156091E+04 0.  0.
        5    1    3    3  502    0  0.74750354656E+02 -0.14173718460E+03 -0.43075032907E+03  0.45961394780E+03  0.46999998093E+01 0. -1.
       -5    1    3    3    0  502 -0.74750354656E+02  0.14173718460E+03  0.53366511469E+03  0.55722310582E+03  0.46999998093E+01 0.  1.
</event>
<event>
 5   0  0.9471140E-03  0.5736307E+03  0.7818609E-02  0.9961676E-01
       -1   -1    0    0    0  501  0.00000000000E+00  0.00000000000E+00  0.64533505415E+03  0.64533505417E+03  0.50400001928E-02 0.  1.
        1   -1    0    0  501    0  0.00000000000E+00  0.00000000000E+00 -0.12747338923E+03  0.12747338933E+03  0.50400001928E-02 0. -1.
    10030    2    1    2    0    0  0.00000000000E+00  0.00000000000E+00  0.51786166492E+03  0.77280844350E+03  0.57363070555E+03 0.  0.
        4    1    3    3  502    0 -0.22685672273E+03  0.15917825950E+03  0.35847723225E+03  0.45311061551E+03  0.12699999809E+01 0.  1.
       -4    1    3    3    0  502  0.22685672273E+03 -0.15917825950E+03  0.15938443267E+03  0.31969782799E+03  0.12699999809E+01 0. -1.
</event>
<event>
 5   0  0.1000773E-02  0.9310117E+03  0.7818609E-02  0.9387624E-01
       -1   -1    0    0    0  501  0.00000000000E+00  0.00000000000E+00  0.64963475868E+03  0.64963475870E+03  0.50400001928E-02 0.  1.
        1   -1    0    0  501    0  0.00000000000E+00  0.00000000000E+00 -0.33356546364E+03  0.33356546368E+03  0.50400001928E-02 0. -1.
    10030    2    1    2    0    0  0.00000000000E+00  0.00000000000E+00  0.31606929504E+03  0.98320022238E+03  0.93101174966E+03 0.  0.
        3    1    3    3  502    0  0.10009704424E+03 -0.14533107818E+03 -0.29687310105E+03  0.34536095448E+03  0.10100000352E+00 0. -1.
       -3    1    3    3    0  502 -0.10009704424E+03  0.14533107818E+03  0.61294239608E+03  0.63783926790E+03  0.10100000352E+00 0.  1.
</event>
<event>
 5   0  0.1571895E-02  0.9913051E+03  0.7818609E-02  0.9318133E-01
        2   -1    0    0  501    0  0.00000000000E+00  0.00000000000E+00  0.27309726464E+04  0.27309726464E+04  0.25500000920E-02 0. -1.
       -2   -1    0    0    0  501  0.00000000000E+00  0.00000000000E+00 -0.89957485317E+02  0.89957485354E+02  0.25500000920E-02 0.  1.
    10030    2    1    2    0    0  0.00000000000E+00  0.00000000000E+00  0.26410151611E+04  0.28209301317E+04  0.99130506262E+03 0.  0.
        2    1    3    3  502    0  0.24681480990E+03  0.42161176075E+03  0.10824656310E+04  0.11876050983E+04  0.25500000920E-02 0.  1.
       -2    1    3    3    0  502 -0.24681480990E+03 -0.42161176075E+03  0.15585495301E+04  0.16333250335E+04  0.25500000920E-02 0. -1.
</event>
<event>
 5   0  0.6314750E-03  0.1013061E+04  0.7818609E-02  0.9294334E-01
       -4   -1    0    0    0  501  0.00000000000E+00  0.00000000000E+00  0.45201837063E+03  0.45202015474E+03  0.12699999809E+01 0.  1.
        4   -1    0    0  501    0  0.00000000000E+00  0.00000000000E+00 -0.56761333160E+03  0.56761475238E+03  0.12699999809E+01 0. -1.
    10030    2    1    2    0    0  0.00000000000E+00  0.00000000000E+00 -0.11559496097E+03  0.10196349071E+04  0.10130612759E+04 0.  0.
        5    1    3    3  502    0  0.22736943820E+03  0.87181871779E+02 -0.50481187888E+03  0.56049501626E+03  0.46999998093E+01 0. -1.
       -5    1    3    3    0  502 -0.22736943820E+03 -0.87181871779E+02  0.38921691790E+03  0.45913989086E+03  0.46999998093E+01 0.  1.
</event>
<event>
 5   0  0.1617721E-02  0.9596324E+03  0.7818609E-02  0.9353962E-01
        2   -1    0    0  501    0  0.00000000000E+00  0.00000000000E+00  0.15255945472E+04  0.15255945472E+04  0.25500000920E-02 0.  1.
       -2   -1    0    0    0  501  0.00000000000E+00  0.00000000000E+00 -0.15090743850E+03  0.15090743853E+03  0.25500000920E-02 0. -1.
    10030    2    1    2    0    0  0.00000000000E+00  0.00000000000E+00  0.13746871087E+04  0.16765019857E+04  0.95963235738E+03 0.  0.
        5    1    3    3  502    0  0.21454808729E+03 -0.25947291401E+03  0.90166460278E+02  0.34858163380E+03  0.46999998093E+01 0. -1.
       -5    1    3    3    0  502 -0.21454808729E+03  0.25947291401E+03  0.12845206484E+04  0.13279203519E+04  0.46999998093E+01 0.  1.
</event>
<event>
 5   0  0.9507815E-03  0.1014436E+04  0.7818609E-02  0.9292851E-01
       -1   -1    0    0    0  501  0.00000000000E+00  0.00000000000E+00  0.44904675742E+03  0.44904675744E+03  0.50400001928E-02 0.  1.
        1   -1    0    0  501    0  0.00000000000E+00  0.00000000000E+00 -0.57292545774E+03  0.57292545777E+03  0.50400001928E-02 0. -1.
    10030    2    1    2    0    0  0.00000000000E+00  0.00000000000E+00 -0.12387870033E+03  0.10219722152E+04  0.10144364328E+04 0.  0.
        1    1    3    3  502    0  0.36498907711E+03  0.33648398932E+03  0.42909800966E+02  0.49827678305E+03  0.50400001928E-02 0.  1.
       -1    1    3    3    0  502 -0.36498907711E+03 -0.33648398932E+03 -0.16678850129E+03  0.52369543216E+03  0.50400001928E-02 0. -1.
</event>
<event>
 5   0  0.1598986E-02  0.7219975E+03  0.7818609E-02  0.9680336E-01
        2   -1    0    0  501    0  0.00000000000E+00  0.00000000000E+00  0.63658350323E+03  0.63658350324E+03  0.25500000920E-02 0.  1.
       -2   -1    0    0    0  501  0.00000000000E+00  0.00000000000E+00 -0.20471797085E+03  0.20471797086E+03  0.25500000920E-02 0. -1.
    10030    2    1    2    0    0  0.00000000000E+00  0.00000000000E+00  0.43186553239E+03  0.84130147410E+03  0.72199746001E+03 0.  0.
        3    1    3    3  502    0 -0.26121014610E+03  0.23280940430E+03  0.31943032065E+03  0.47377916702E+03  0.10100000352E+00 0.  1.
       -3    1    3    3    0  502  0.26121014610E+03 -0.23280940430E+03  0.11243521174E+03  0.36752230708E+03  0.10100000352E+00 0. -1.
</event>
<event>
 5   0  0.1617721E-02  0.1027830E+04  0.7818609E-02  0.9278537E-01
       -2   -1    0    0    0  501  0.00000000000E+00  0.00000000000E+00  0.25323833547E+03  0.25323833549E+03  0.25500000920E-02 0.  1.
        2   -1    0    0  501    0  0.00000000000E+00  0.00000000000E+00 -0.10429247990E+04  0.10429247990E+04  0.25500000920E-02 0. -1.
    10030    2    1    2    0    0  0.00000000000E+00  0.00000000000E+00 -0.78968646351E+03  0.12961631345E+04  0.10278298305E+04 0.  0.
        5    1    3    3  502    0  0.29160583611E+03 -0.41317960530E+03 -0.50997465165E+03  0.71822530254E+03  0.46999998093E+01 0. -1.
       -5    1    3    3    0  502 -0.29160583611E+03  0.41317960530E+03 -0.27971181186E+03  0.57793783193E+03  0.46999998093E+01 0.  1.
</event>
<event>
 5   0  0.9507815E-03  0.9994833E+03  0.7818609E-02  0.9309112E-01
       -1   -1    0    0    0  501  0.00000000000E+00  0.00000000000E+00  0.19351969305E+03  0.19351969312E+03  0.50400001928E-02 0.  1.
        1   -1    0    0  501    0  0.00000000000E+00  0.00000000000E+00 -0.12905236141E+04  0.12905236142E+04  0.50400001928E-02 0. -1.
    10030    2    1    2    0    0  0.00000000000E+00  0.00000000000E+00 -0.10970039211E+04  0.14840433073E+04  0.99948333401E+03 0.  0.
        1    1    3    3  502    0  0.37888510177E+03 -0.28425501340E+03 -0.78508077998E+03  0.91690057482E+03  0.50400001928E-02 0.  1.
       -1    1    3    3    0  502 -0.37888510177E+03  0.28425501340E+03 -0.31192314112E+03  0.56714273246E+03  0.50400001928E-02 0. -1.
</event>
<event>
 5   0  0.1571895E-02  0.9901778E+03  0.7818609E-02  0.9319384E-01
        2   -1    0    0  501    0  0.00000000000E+00  0.00000000000E+00  0.30773585951E+03  0.30773585952E+03  0.25500000920E-02 0.  1.
       -2   -1    0    0    0  501  0.00000000000E+00  0.00000000000E+00 -0.79650456435E+03  0.79650456435E+03  0.25500000920E-02 0. -1.
    10030    2    1    2    0    0  0.00000000000E+00  0.00000000000E+00 -0.48876870484E+03  0.11042404239E+04  0.99017779560E+03 0.  0.
        2    1    3    3  502    0  0.59768201597E+02 -0.43806041806E+03  0.40909232754E+01  0.44213787833E+03  0.25500000920E-02 0.  1.
       -2    1    3    3    0  502 -0.59768201597E+02  0.43806041806E+03 -0.49285962811E+03  0.66210254555E+03  0.25500000920E-02 0. -1.
</event>
<event>
 5   0  0.1617721E-02  0.9946175E+03  0.7818609E-02  0.9314468E-01
        2   -1    0    0  501    0  0.00000000000E+00  0.00000000000E+00  0.10111685131E+04  0.10111685131E+04  0.25500000920E-02 0. -1.
       -2   -1    0    0    0  501  0.00000000000E+00  0.00000000000E+00 -0.24458433388E+03  0.24458433389E+03  0.25500000920E-02 0.  1.
    10030    2    1    2    0    0  0.00000000000E+00  0.00000000000E+00  0.76658417920E+03  0.12557528470E+04  0.99461746862E+03 0.  0.
        5    1    3    3  502    0  0.46768759803E+03  0.58639243898E+02  0.58341155929E+03  0.75004092408E+03  0.46999998093E+01 0. -1.
       -5    1    3    3    0  502 -0.46768759803E+03 -0.58639243898E+02  0.18317261990E+03  0.50571192290E+03  0.46999998093E+01 0.  1.
</event>
<event>
 5   0  0.9759443E-03  0.9801199E+03  0.7818609E-02  0.9330622E-01
       -1   -1    0    0    0  501  0.00000000000E+00  0.00000000000E+00  0.20352968653E+03  0.20352968659E+03  0.50400001928E-02 0. -1.
        1   -1    0    0  501    0  0.00000000000E+00  0.00000000000E+00 -0.11799691765E+04  0.11799691766E+04  0.50400001928E-02 0.  1.
    10030    2    1    2    0    0  0.00000000000E+00  0.00000000000E+00 -0.97643949001E+03  0.13834988631E+04  0.98011990423E+03 0.  0.
        2    1    3    3  502    0  0.92015441513E+02  0.35563227591E+02  0.18936940415E+03  0.21352366583E+03  0.25500000920E-02 0. -1.
       -2    1    3    3    0  502 -0.92015441513E+02 -0.35563227591E+02 -0.11658088942E+04  0.11699751973E+04  0.25500000920E-02 0.  1.
</event>
<event>
 5   0  0.1617721E-02  0.9838613E+03  0.7818609E-02  0.9326425E-01
        2   -1    0    0  501    0  0.00000000000E+00  0.00000000000E+00  0.11484089456E+04  0.11484089456E+04  0.25500000920E-02 0. -1.
       -2   -1    0    0    0  501  0.00000000000E+00  0.00000000000E+00 -0.21072264453E+03  0.21072264454E+03  0.25500000920E-02 0.  1.
    10030    2    1    2    0    0  0.00000000000E+00  0.00000000000E+00  0.93768630108E+03  0.13591315902E+04  0.98386131143E+03 0.  0.
        5    1    3    3  502    0 -0.25489065669E+03 -0.34383464564E+03  0.80377035892E+03  0.91063735388E+03  0.46999998093E+01 0. -1.
       -5    1    3    3    0  502  0.25489065669E+03  0.34383464564E+03  0.13391594216E+03  0.44849423627E+03  0.46999998093E+01 0.  1.
</event>
<event>
 5   0  0.9471140E-03  0.1005987E+04  0.7818609E-02  0.9302003E-01
        1   -1    0    0  501    0  0.00000000000E+00  0.00000000000E+00  0.10176333686E+04  0.10176333686E+04  0.50400001928E-02 0. -1.
       -1   -1    0    0    0  501  0.00000000000E+00  0.00000000000E+00 -0.24861838372E+03  0.24861838378E+03  0.50400001928E-02 0.  1.
    10030    2    1    2    0    0  0.00000000000E+00  0.00000000000E+00  0.76901498483E+03  0.12662517523E+04  0.10059868058E+04 0.  0.
        4    1    3    3  502    0 -0.37313453900E+03  0.21697491324E+03  0.59443604010E+02  0.43570936658E+03  0.12699999809E+01 0.  1.
       -4    1    3    3    0  502  0.37313453900E+03 -0.21697491324E+03  0.70957138082E+03  0.83054238576E+03  0.12699999809E+01 0. -1.
</event>
<event>
 5   0  0.9396660E-03  0.1006666E+04  0.7818609E-02  0.9301263E-01
        1   -1    0    0  501    0  0.00000000000E+00  0.00000000000E+00  0.36122312478E+03  0.36122312482E+03  0.50400001928E-02 0.  1.
       -1   -1    0    0    0  501  0.00000000000E+00  0.00000000000E+00 -0.70135118511E+03  0.70135118513E+03  0.50400001928E-02 0. -1.
    10030    2    1    2    0    0  0.00000000000E+00  0.00000000000E+00 -0.34012806032E+03  0.10625743099E+04  0.10066663135E+04 0.  0.
        5    1    3    3  502    0  0.17229219629E+03  0.26606831488E+03 -0.58273100786E+03  0.66338108701E+03  0.46999998093E+01 0. -1.
       -5    1    3    3    0  502 -0.17229219629E+03 -0.26606831488E+03  0.24260294753E+03  0.39919322293E+03  0.46999998093E+01 0.  1.
</event>
<event>
 5   0  0.9396660E-03  0.1001464E+04  0.7818609E-02  0.9306941E-01
        1   -1    0    0  501    0  0.00000000000E+00  0.00000000000E+00  0.45309456087E+03  0.45309456090E+03  0.50400001928E-02 0.  1.
       -1   -1    0    0    0  501  0.00000000000E+00  0.00000000000E+00 -0.55337750466E+03  0.55337750469E+03  0.50400001928E-02 0. -1.
    10030    2    1    2    0    0  0.00000000000E+00  0.00000000000E+00 -0.10028294379E+03  0.10064720656E+04  0.10014636039E+04 0.  0.
        5    1    3    3  502    0 -0.79786503269E+02 -0.49366677395E+03 -0.75516062897E+02  0.50576430831E+03  0.46999998093E+01 0. -1.
       -5    1    3    3    0  502  0.79786503269E+02  0.49366677395E+03 -0.24766880895E+02  0.50070775727E+03  0.46999998093E+01 0.  1.
</event>
<event>
 5   0  0.6314750E-03  0.1006966E+04  0.7818609E-02  0.9300937E-01
       -3   -1    0    0    0  501  0.00000000000E+00  0.00000000000E+00  0.27481884544E+04  0.27481884563E+04  0.10100000352E+00 0.  1.
        3   -1    0    0  501    0  0.00000000000E+00  0.00000000000E+00 -0.92240815197E+02  0.92240870492E+02  0.10100000352E+00 0. -1.
    10030    2    1    2    0    0  0.00000000000E+00  0.00000000000E+00  0.26559476392E+04  0.28404293267E+04  0.10069661852E+04 0.  0.
        2    1    3    3  502    0 -0.45190392112E+03 -0.60098354158E+02  0.72518274089E+03  0.85657397450E+03  0.25500000920E-02 0. -1.
       -2    1    3    3    0  502  0.45190392112E+03  0.60098354158E+02  0.19307648983E+04  0.19838553522E+04  0.25500000920E-02 0.  1.
</event>
<event>
 5   0  0.1598986E-02  0.1011609E+04  0.7818609E-02  0.9295903E-01
        2   -1    0    0  501    0  0.00000000000E+00  0.00000000000E+00  0.51306120449E+03  0.51306120450E+03  0.25500000920E-02 0. -1.
       -2   -1    0    0    0  501  0.00000000000E+00  0.00000000000E+00 -0.49865020724E+03  0.49865020724E+03  0.25500000920E-02 0.  1.
    10030    2    1    2    0    0  0.00000000000E+00  0.00000000000E+00  0.14410997255E+02  0.10117114117E+04  0.10116087701E+04 0.  0.
        3    1    3    3  502    0  0.28149398944E+03 -0.42018944741E+03  0.13532904788E+02  0.50594583457E+03  0.10100000352E+00 0.  1.
       -3    1    3    3    0  502 -0.28149398944E+03  0.42018944741E+03  0.87809246615E+00  0.50576557717E+03  0.10100000352E+00 0. -1.
</event>
<event>
 5   0  0.9396660E-03  0.9747267E+03  0.7818609E-02  0.9336707E-01
        1   -1    0    0  501    0  0.00000000000E+00  0.00000000000E+00  0.55492147603E+03  0.55492147605E+03  0.50400001928E-02 0. -1.
       -1   -1    0    0    0  501  0.00000000000E+00  0.00000000000E+00 -0.42802996015E+03  0.42802996018E+03  0.50400001928E-02 0.  1.
    10030    2    1    2    0    0  0.00000000000E+00  0.00000000000E+00  0.12689151588E+03  0.98295143623E+03  0.97472666383E+03 0.  0.
        5    1    3    3  502    0  0.23545436319E+03  0.35949378935E+03 -0.16833355096E+03  0.46155478126E+03  0.46999998093E+01 0.  1.
       -5    1    3    3    0  502 -0.23545436319E+03 -0.35949378935E+03  0.29522506684E+03  0.52139665497E+03  0.46999998093E+01 0. -1.
</event>
<event>
 5   0  0.9396660E-03  0.9855014E+03  0.7818609E-02  0.9324591E-01
       -1   -1    0    0    0  501  0.00000000000E+00  0.00000000000E+00  0.37460374335E+03  0.37460374339E+03  0.50400001928E-02 0.  1.
        1   -1    0    0  501    0  0.00000000000E+00  0.00000000000E+00 -0.64816023253E+03  0.64816023255E+03  0.50400001928E-02 0. -1.
    10030    2    1    2    0    0  0.00000000000E+00  0.00000000000E+00 -0.27355648917E+03  0.10227639759E+04  0.98550139406E+03 0.  0.
        5    1    3    3  502    0 -0.47295682383E+03  0.11053541208E+02 -0.27972070333E+03  0.54961450113E+03  0.46999998093E+01 0. -1.
       -5    1    3    3    0  502  0.47295682383E+03 -0.11053541208E+02  0.61642141523E+01  0.47314947481E+03  0.46999998093E+01 0.  1.
</event>
<event>
 5   0  0.1598986E-02  0.9545493E+03  0.7818609E-02  0.9359849E-01
        2   -1    0    0  501    0  0.00000000000E+00  0.00000000000E+00  0.45892021687E+03  0.45892021688E+03  0.25500000920E-02 0. -1.
       -2   -1    0    0    0  501  0.00000000000E+00  0.00000000000E+00 -0.49636318306E+03  0.49636318307E+03  0.25500000920E-02 0.  1.
    10030    2    1    2    0    0  0.00000000000E+00  0.00000000000E+00 -0.37442966189E+02  0.95528339994E+03  0.95454931695E+03 0.  0.
        3    1    3    3  502    0  0.31003651222E+03  0.29019618973E+03 -0.23672982855E+03  0.48618668161E+03  0.10100000352E+00 0.  1.
       -3    1    3    3    0  502 -0.31003651222E+03 -0.29019618973E+03  0.19928686236E+03  0.46909671834E+03  0.10100000352E+00 0. -1.
</event>
<event>
 5   0  0.1663497E-02  0.1046469E+04  0.7818609E-02  0.9258997E-01
        2   -1    0    0  501    0  0.00000000000E+00  0.00000000000E+00  0.13680354350E+04  0.13680354350E+04  0.25500000920E-02 0.  1.
       -2   -1    0    0    0  501  0.00000000000E+00  0.00000000000E+00 -0.20012224702E+03  0.20012224704E+03  0.25500000920E-02 0. -1.
    10030    2    1    2    0    0  0.00000000000E+00  0.00000000000E+00  0.11679131880E+04  0.15681576820E+04  0.10464689680E+04 0.  0.
        1    1    3    3  502    0 -0.42652749766E+03  0.19342774053E+03  0.23433374356E+03  0.52369103530E+03  0.50400001928E-02 0. -1.
       -1    1    3    3    0  502  0.42652749766E+03 -0.19342774053E+03  0.93357944441E+03  0.10444666467E+04  0.50400001928E-02 0.  1.
</event>
<event>
 5   0  0.1656859E-02  0.9752248E+03  0.7818609E-02  0.9336143E-01
        2   -1    0    0  501    0  0.00000000000E+00  0.00000000000E+00  0.53397491574E+03  0.53397491574E+03  0.25500000920E-02 0. -1.
       -2   -1    0    0    0  501  0.00000000000E+00  0.00000000000E+00 -0.44527532415E+03  0.44527532416E+03  0.25500000920E-02 0.  1.
    10030    2    1    2    0    0  0.00000000000E+00  0.00000000000E+00  0.88699591589E+02  0.97925023990E+03  0.97522480218E+03 0.  0.
        4    1    3    3  502    0 -0.34890305513E+01 -0.91952941217E+02 -0.43647612703E+03  0.44607234739E+03  0.12699999809E+01 0.  1.
       -4    1    3    3    0  502  0.34890305513E+01  0.91952941217E+02  0.52517571862E+03  0.53317789251E+03  0.12699999809E+01 0. -1.
</event>
<event>
 5   0  0.9759443E-03  0.1009164E+04  0.7818609E-02  0.9298550E-01
       -1   -1    0    0    0  501  0.00000000000E+00  0.00000000000E+00  0.10714952467E+03  0.10714952479E+03  0.50400001928E-02 0.  1.
        1   -1    0    0  501    0  0.00000000000E+00  0.00000000000E+00 -0.23761484147E+04  0.23761484147E+04  0.50400001928E-02 0. -1.
    10030    2    1    2    0    0  0.00000000000E+00  0.00000000000E+00 -0.22689988900E+04  0.24832979395E+04  0.10091643540E+04 0.  0.
        2    1    3    3  502    0  0.42637494344E+03  0.20300474659E+03 -0.69709068921E+03  0.84198690519E+03  0.25500000920E-02 0.  1.
       -2    1    3    3    0  502 -0.42637494344E+03 -0.20300474659E+03 -0.15719082008E+04  0.16413110343E+04  0.25500000920E-02 0. -1.
</event>
<event>
 5   0  0.1617721E-02  0.1150176E+04  0.7818609E-02  0.9157621E-01
       -2   -1    0    0    0  501  0.00000000000E+00  0.00000000000E+00  0.51911241565E+03  0.51911241566E+03  0.25500000920E-02 0.  1.
        2   -1    0    0  501    0  0.00000000000E+00  0.00000000000E+00 -0.63709902738E+03  0.63709902738E+03  0.25500000920E-02 0. -1.
    10030    2    1    2    0    0  0.00000000000E+00  0.00000000000E+00 -0.11798661173E+03  0.11562114430E+04  0.11501756650E+04 0.  0.
        5    1    3    3  502    0  0.56822436812E+02  0.29964300599E+02 -0.63346160759E+03  0.63672784369E+03  0.46999998093E+01 0. -1.
       -5    1    3    3    0  502 -0.56822436812E+02 -0.29964300599E+02  0.51547499587E+03  0.51948359935E+03  0.46999998093E+01 0.  1.
</event>
<event>
 5   0  0.9471140E-03  0.1000063E+04  0.7818609E-02  0.9308476E-01
        1   -1    0    0  501    0  0.00000000000E+00  0.00000000000E+00  0.51682867608E+03  0.51682867610E+03  0.50400001928E-02 0. -1.
       -1   -1    0    0    0  501  0.00000000000E+00  0.00000000000E+00 -0.48378011317E+03  0.48378011320E+03  0.50400001928E-02 0.  1.
    10030    2    1    2    0    0  0.00000000000E+00  0.00000000000E+00  0.33048562906E+02  0.10006087893E+04  0.10000628689E+04 0.  0.
        4    1    3    3  502    0  0.22999030746E+03  0.14577797855E+03 -0.40308880059E+03  0.48644522263E+03  0.12699999809E+01 0.  1.
       -4    1    3    3    0  502 -0.22999030746E+03 -0.14577797855E+03  0.43613736349E+03  0.51416356667E+03  0.12699999809E+01 0. -1.
</event>
<event>
 5   0  0.1663497E-02  0.9332522E+03  0.7818609E-02  0.9384943E-01
       -2   -1    0    0    0  501  0.00000000000E+00  0.00000000000E+00  0.12013480710E+04  0.12013480710E+04  0.25500000920E-02 0.  1.
        2   -1    0    0  501    0  0.00000000000E+00  0.00000000000E+00 -0.18124632298E+03  0.18124632300E+03  0.25500000920E-02 0. -1.
    10030    2    1    2    0    0  0.00000000000E+00  0.00000000000E+00  0.10201017480E+04  0.13825943940E+04  0.93325220710E+03 0.  0.
        1    1    3    3  502    0  0.25248290828E+03 -0.29736066212E+03  0.13069672252E+03  0.41140322757E+03  0.50400001928E-02 0. -1.
       -1    1    3    3    0  502 -0.25248290828E+03  0.29736066212E+03  0.88940502553E+03  0.97119116647E+03  0.50400001928E-02 0.  1.
</event>
<event>
 5   0  0.1617721E-02  0.9979586E+03  0.7818609E-02  0.9310787E-01
       -2   -1    0    0    0  501  0.00000000000E+00  0.00000000000E+00  0.17882615504E+03  0.17882615506E+03  0.25500000920E-02 0.  1.
        2   -1    0    0  501    0  0.00000000000E+00  0.00000000000E+00 -0.13923039672E+04  0.13923039672E+04  0.25500000920E-02 0. -1.
    10030    2    1    2    0    0  0.00000000000E+00  0.00000000000E+00 -0.12134778122E+04  0.15711301223E+04  0.99795864668E+03 0.  0.
        5    1    3    3  502    0 -0.46083769760E+01 -0.12152989596E+03  0.15509963594E+03  0.19715156559E+03  0.46999998093E+01 0.  1.
       -5    1    3    3    0  502  0.46083769760E+01  0.12152989596E+03 -0.13685774481E+04  0.13739785567E+04  0.46999998093E+01 0. -1.
</event>
<event>
 5   0  0.1571895E-02  0.1116810E+04  0.7818609E-02  0.9188961E-01
       -2   -1    0    0    0  501  0.00000000000E+00  0.00000000000E+00  0.13387944012E+03  0.13387944014E+03  0.25500000920E-02 0.  1.
        2   -1    0    0  501    0  0.00000000000E+00  0.00000000000E+00 -0.23290812269E+04  0.23290812269E+04  0.25500000920E-02 0. -1.
    10030    2    1    2    0    0  0.00000000000E+00  0.00000000000E+00 -0.21952017868E+04  0.24629606670E+04  0.11168099045E+04 0.  0.
        2    1    3    3  502    0 -0.42174376784E+03 -0.18307360407E+03 -0.39870094049E+03  0.60856075307E+03  0.25500000920E-02 0.  1.
       -2    1    3    3    0  502  0.42174376784E+03  0.18307360407E+03 -0.17965008463E+04  0.18543999140E+04  0.25500000920E-02 0. -1.
</event>
<event>
 5   0  0.9507815E-03  0.1020655E+04  0.7818609E-02  0.9286176E-01
       -1   -1    0    0    0  501  0.00000000000E+00  0.00000000000E+00  0.82456190448E+03  0.82456190449E+03  0.50400001928E-02 0. -1.
        1   -1    0    0  501    0  0.00000000000E+00  0.00000000000E+00 -0.31584565894E+03  0.31584565898E+03  0.50400001928E-02 0.  1.
    10030    2    1    2    0    0  0.00000000000E+00  0.00000000000E+00  0.50871624554E+03  0.11404075635E+04  0.10206552760E+04 0.  0.
        1    1    3    3  502    0  0.22177036996E+03 -0.21341371486E+02  0.76735291507E+03  0.79904195598E+03  0.50400001928E-02 0. -1.
       -1    1    3    3    0  502 -0.22177036996E+03  0.21341371486E+02 -0.25863666953E+03  0.34136560749E+03  0.50400001928E-02 0.  1.
</event>
<event>
 5   0  0.9471140E-03  0.1010093E+04  0.7818609E-02  0.9297544E-01
        1   -1    0    0  501    0  0.00000000000E+00  0.00000000000E+00  0.89688899375E+03  0.89688899376E+03  0.50400001928E-02 0.  1.
       -1   -1    0    0    0  501  0.00000000000E+00  0.00000000000E+00 -0.28439631205E+03  0.28439631210E+03  0.50400001928E-02 0. -1.
    10030    2    1    2    0    0  0.00000000000E+00  0.00000000000E+00  0.61249268170E+03  0.11812853059E+04  0.10100929109E+04 0.  0.
        4    1    3    3  502    0 -0.15160231500E+03 -0.26972769842E+03  0.77306448747E+03  0.83268638027E+03  0.12699999809E+01 0.  1.
       -4    1    3    3    0  502  0.15160231500E+03  0.26972769842E+03 -0.16057180577E+03  0.34859892559E+03  0.12699999809E+01 0. -1.
</event>
<event>
 5   0  0.1571895E-02  0.1005499E+04  0.7818609E-02  0.9302534E-01
        2   -1    0    0  501    0  0.00000000000E+00  0.00000000000E+00  0.48567773122E+03  0.48567773122E+03  0.25500000920E-02 0. -1.
       -2   -1    0    0    0  501  0.00000000000E+00  0.00000000000E+00 -0.52042184269E+03  0.52042184269E+03  0.25500000920E-02 0.  1.
    10030    2    1    2    0    0  0.00000000000E+00  0.00000000000E+00 -0.34744111470E+02  0.10060995739E+04  0.10054994776E+04 0.  0.
        2    1    3    3  502    0 -0.33014173270E+02  0.41729092236E+03 -0.29599048061E+03  0.51267144854E+03  0.25500000920E-02 0.  1.
       -2    1    3    3    0  502  0.33014173270E+02 -0.41729092236E+03  0.26124636915E+03  0.49342812538E+03  0.25500000920E-02 0. -1.
</event>
<event>
 5   0  0.1617721E-02  0.9984253E+03  0.7818609E-02  0.9310274E-01
       -2   -1    0    0    0  501  0.00000000000E+00  0.00000000000E+00  0.45877451808E+03  0.45877451809E+03  0.25500000920E-02 0. -1.
        2   -1    0    0  501    0  0.00000000000E+00  0.00000000000E+00 -0.54321514882E+03  0.54321514882E+03  0.25500000920E-02 0.  1.
    10030    2    1    2    0    0  0.00000000000E+00  0.00000000000E+00 -0.84440630735E+02  0.10019896669E+04  0.99842529639E+03 0.  0.
        5    1    3    3  502    0 -0.42569818842E+03  0.24742068675E+03 -0.12470396602E+03  0.50794597449E+03  0.46999998093E+01 0.  1.
       -5    1    3    3    0  502  0.42569818842E+03 -0.24742068675E+03  0.40263335288E+02  0.49404369242E+03  0.46999998093E+01 0. -1.
</event>
<event>
 5   0  0.9471140E-03  0.9981492E+03  0.7818609E-02  0.9310577E-01
       -1   -1    0    0    0  501  0.00000000000E+00  0.00000000000E+00  0.12761097068E+04  0.12761097068E+04  0.50400001928E-02 0. -1.
        1   -1    0    0  501    0  0.00000000000E+00  0.00000000000E+00 -0.19518341567E+03  0.19518341573E+03  0.50400001928E-02 0.  1.
    10030    2    1    2    0    0  0.00000000000E+00  0.00000000000E+00  0.10809262911E+04  0.14712931225E+04  0.99814919004E+03 0.  0.
        4    1    3    3  502    0 -0.47377321831E+03 -0.12980822481E+03  0.67033270728E+03  0.83105883604E+03  0.12699999809E+01 0.  1.
       -4    1    3    3    0  502  0.47377321831E+03  0.12980822481E+03  0.41059358386E+03  0.64023428651E+03  0.12699999809E+01 0. -1.
</event>
<event>
 5   0  0.9759443E-03  0.1010498E+04  0.7818609E-02  0.9297105E-01
        1   -1    0    0  501    0  0.00000000000E+00  0.00000000000E+00  0.15886532299E+04  0.15886532299E+04  0.50400001928E-02 0. -1.
       -1   -1    0    0    0  501  0.00000000000E+00  0.00000000000E+00 -0.16068729780E+03  0.16068729788E+03  0.50400001928E-02 0.  1.
    10030    2    1    2    0    0  0.00000000000E+00  0.00000000000E+00  0.14279659321E+04  0.17493405278E+04  0.10104976887E+04 0.  0.
        2    1    3    3  502    0 -0.20751900656E+03  0.44871917857E+03  0.53354786485E+03  0.72738323008E+03  0.25500000920E-02 0.  1.
       -2    1    3    3    0  502  0.20751900656E+03 -0.44871917857E+03  0.89441806725E+03  0.10219572977E+04  0.25500000920E-02 0. -1.
</event>
<event>
 5   0  0.1656859E-02  0.9759322E+03  0.7818609E-02  0.9335343E-01
        2   -1    0    0  501    0  0.00000000000E+00  0.00000000000E+00  0.41394218075E+03  0.41394218076E+03  0.25500000920E-02 0.  1.
       -2   -1    0    0    0  501  0.00000000000E+00  0.00000000000E+00 -0.57522752344E+03  0.57522752345E+03  0.25500000920E-02 0. -1.
    10030    2    1    2    0    0  0.00000000000E+00  0.00000000000E+00 -0.16128534269E+03  0.98916970420E+03  0.97593224250E+03 0.  0.
        4    1    3    3  502    0  0.33294783388E+03  0.32790088471E+03  0.61747988987E+02  0.47136787897E+03  0.12699999809E+01 0. -1.
       -4    1    3    3    0  502 -0.33294783388E+03 -0.32790088471E+03 -0.22303333168E+03  0.51780182524E+03  0.12699999809E+01 0.  1.
</event>
<event>
 5   0  0.9396660E-03  0.1007122E+04  0.7818609E-02  0.9300767E-01
       -1   -1    0    0    0  501  0.00000000000E+00  0.00000000000E+00  0.19981141545E+03  0.19981141552E+03  0.50400001928E-02 0.  1.
        1   -1    0    0  501    0  0.00000000000E+00  0.00000000000E+00 -0.12690658520E+04  0.12690658520E+04  0.50400001928E-02 0. -1.
    10030    2    1    2    0    0  0.00000000000E+00  0.00000000000E+00 -0.10692544365E+04  0.14688772675E+04  0.10071223247E+04 0.  0.
        5    1    3    3  502    0  0.24901464063E+03  0.21185152590E+03 -0.10931780097E+04  0.11410300659E+04  0.46999998093E+01 0. -1.
       -5    1    3    3    0  502 -0.24901464063E+03 -0.21185152590E+03  0.23923573192E+02  0.32784720164E+03  0.46999998093E+01 0.  1.
</event>
<event>
 5   0  0.1656859E-02  0.9858592E+03  0.7818609E-02  0.9324192E-01
       -2   -1    0    0    0  501  0.00000000000E+00  0.00000000000E+00  0.20655439566E+03  0.20655439568E+03  0.25500000920E-02 0.  1.
        2   -1    0    0  501    0  0.00000000000E+00  0.00000000000E+00 -0.11763467960E+04  0.11763467960E+04  0.25500000920E-02 0. -1.
    10030    2    1    2    0    0  0.00000000000E+00  0.00000000000E+00 -0.96979240036E+03  0.13829011917E+04  0.98585922232E+03 0.  0.
        4    1    3    3  502    0 -0.41260226247E+03  0.18626270411E+03 -0.75849668388E+03  0.88331945201E+03  0.12699999809E+01 0. -1.
       -4    1    3    3    0  502  0.41260226247E+03 -0.18626270411E+03 -0.21129571648E+03  0.49958173970E+03  0.12699999809E+01 0.  1.
</event>
<event>
 5   0  0.1656859E-02  0.9676293E+03  0.7818609E-02  0.9344779E-01
        2   -1    0    0  501    0  0.00000000000E+00  0.00000000000E+00  0.71647236780E+03  0.71647236781E+03  0.25500000920E-02 0.  1.
       -2   -1    0    0    0  501  0.00000000000E+00  0.00000000000E+00 -0.32670712003E+03  0.32670712004E+03  0.25500000920E-02 0. -1.
    10030    2    1    2    0    0  0.00000000000E+00  0.00000000000E+00  0.38976524778E+03  0.10431794878E+04  0.96762931719E+03 0.  0.
        4    1    3    3  502    0 -0.31070110520E+03  0.12071169709E+03 -0.18316541932E+03  0.38033889404E+03  0.12699999809E+01 0. -1.
       -4    1    3    3    0  502  0.31070110520E+03 -0.12071169709E+03  0.57293066710E+03  0.66284059380E+03  0.12699999809E+01 0.  1.
</event>
<event>
 5   0  0.1598986E-02  0.9984362E+03  0.7818609E-02  0.9310262E-01
        2   -1    0    0  501    0  0.00000000000E+00  0.00000000000E+00  0.17111269388E+04  0.17111269388E+04  0.25500000920E-02 0.  1.
       -2   -1    0    0    0  501  0.00000000000E+00  0.00000000000E+00 -0.14564593823E+03  0.14564593825E+03  0.25500000920E-02 0. -1.
    10030    2    1    2    0    0  0.00000000000E+00  0.00000000000E+00  0.15654810005E+04  0.18567728770E+04  0.99843615408E+03 0.  0.
        3    1    3    3  502    0  0.11969273064E+03  0.37843295218E+03  0.13458304177E+04  0.14031384010E+04  0.10100000352E+00 0.  1.
       -3    1    3    3    0  502 -0.11969273064E+03 -0.37843295218E+03  0.21965058287E+03  0.45363447600E+03  0.10100000352E+00 0. -1.
</event>
<event>
 5   0  0.9759443E-03  0.9184117E+03  0.7818609E-02  0.9402854E-01
       -1   -1    0    0    0  501  0.00000000000E+00  0.00000000000E+00  0.75878795874E+03  0.75878795876E+03  0.50400001928E-02 0.  1.
        1   -1    0    0  501    0  0.00000000000E+00  0.00000000000E+00 -0.27790372388E+03  0.27790372393E+03  0.50400001928E-02 0. -1.
    10030    2    1    2    0    0  0.00000000000E+00  0.00000000000E+00  0.48088423486E+03  0.10366916827E+04  0.91841167110E+03 0.  0.
        2    1    3    3  502    0 -0.32113238413E+03  0.28319787881E+03  0.42777648921E+03  0.60524356372E+03  0.25500000920E-02 0.  1.
       -2    1    3    3    0  502  0.32113238413E+03 -0.28319787881E+03  0.53107745648E+02  0.43144811896E+03  0.25500000920E-02 0. -1.
</event>
<event>
 5   0  0.9471140E-03  0.1010684E+04  0.7818609E-02  0.9296904E-01
        1   -1    0    0  501    0  0.00000000000E+00  0.00000000000E+00  0.46429070537E+03  0.46429070540E+03  0.50400001928E-02 0.  1.
       -1   -1    0    0    0  501  0.00000000000E+00  0.00000000000E+00 -0.55002290585E+03  0.55002290587E+03  0.50400001928E-02 0. -1.
    10030    2    1    2    0    0  0.00000000000E+00  0.00000000000E+00 -0.85732200477E+02  0.10143136113E+04  0.10106839723E+04 0.  0.
        4    1    3    3  502    0  0.49650963371E+03  0.93978439901E+02 -0.46771929020E+02  0.50748693558E+03  0.12699999809E+01 0.  1.
       -4    1    3    3    0  502 -0.49650963371E+03 -0.93978439901E+02 -0.38960271457E+02  0.50682667569E+03  0.12699999809E+01 0. -1.
</event>
<event>
 5   0  0.9396660E-03  0.9747358E+03  0.7818609E-02  0.9336697E-01
       -1   -1    0    0    0  501  0.00000000000E+00  0.00000000000E+00  0.21507290845E+03  0.21507290851E+03  0.50400001928E-02 0.  1.
        1   -1    0    0  501    0  0.00000000000E+00  0.00000000000E+00 -0.11044043688E+04  0.11044043688E+04  0.50400001928E-02 0. -1.
    10030    2    1    2    0    0  0.00000000000E+00  0.00000000000E+00 -0.88933146032E+03  0.13194772773E+04  0.97473577906E+03 0.  0.
        5    1    3    3  502    0  0.46313753458E+02 -0.21199454948E+03  0.14603815213E+03  0.26160253180E+03  0.46999998093E+01 0.  1.
       -5    1    3    3    0  502 -0.46313753458E+02  0.21199454948E+03 -0.10353696125E+04  0.10578747455E+04  0.46999998093E+01 0. -1.
</event>
<event>
 5   0  0.1663497E-02  0.1028419E+04  0.7818609E-02  0.9277913E-01
        2   -1    0    0  501    0  0.00000000000E+00  0.00000000000E+00  0.43629692505E+03  0.43629692505E+03  0.25500000920E-02 0. -1.
       -2   -1    0    0    0  501  0.00000000000E+00  0.00000000000E+00 -0.60603516485E+03  0.60603516486E+03  0.25500000920E-02 0.  1.
    10030    2    1    2    0    0  0.00000000000E+00  0.00000000000E+00 -0.16973823981E+03  0.10423320899E+04  0.10284187453E+04 0.  0.
        1    1    3    3  502    0 -0.10442759929E+03 -0.49266449171E+03  0.20400645317E+02  0.50402342330E+03  0.50400001928E-02 0.  1.
       -1    1    3    3    0  502  0.10442759929E+03  0.49266449171E+03 -0.19013888512E+03  0.53830866661E+03  0.50400001928E-02 0. -1.
</event>
<event>
 5   0  0.1617721E-02  0.1027063E+04  0.7818609E-02  0.9279350E-01
       -2   -1    0    0    0  501  0.00000000000E+00  0.00000000000E+00  0.13268249765E+03  0.13268249768E+03  0.25500000920E-02 0.  1.
        2   -1    0    0  501    0  0.00000000000E+00  0.00000000000E+00 -0.19875630726E+04  0.19875630726E+04  0.25500000920E-02 0. -1.
    10030    2    1    2    0    0  0.00000000000E+00  0.00000000000E+00 -0.18548805750E+04  0.21202455703E+04  0.10270634503E+04 0.  0.
        5    1    3    3  502    0 -0.17626261490E+03  0.23499114738E+02 -0.19219299794E+04  0.19301444644E+04  0.46999998093E+01 0. -1.
       -5    1    3    3    0  502  0.17626261490E+03 -0.23499114738E+02  0.67049404470E+02  0.19010110585E+03  0.46999998093E+01 0.  1.
</event>
<event>
 5   0  0.1656859E-02  0.9642938E+03  0.7818609E-02  0.9348598E-01
        2   -1    0    0  501    0  0.00000000000E+00  0.00000000000E+00  0.80557667782E+03  0.80557667782E+03  0.25500000920E-02 0.  1.
       -2   -1    0    0    0  501  0.00000000000E+00  0.00000000000E+00 -0.28857044288E+03  0.28857044289E+03  0.25500000920E-02 0. -1.
    10030    2    1    2    0    0  0.00000000000E+00  0.00000000000E+00  0.51700623494E+03  0.10941471207E+04  0.96429376997E+03 0.  0.
        4    1    3    3  502    0 -0.27582039419E+03 -0.25920342830E+03 -0.80380433375E+02  0.38694435526E+03  0.12699999809E+01 0. -1.
       -4    1    3    3    0  502  0.27582039419E+03  0.25920342830E+03  0.59738666831E+03  0.70720276546E+03  0.12699999809E+01 0.  1.
</event>
<event>
 5   0  0.9396660E-03  0.9961723E+03  0.7818609E-02  0.9312753E-01
        1   -1    0    0  501    0  0.00000000000E+00  0.00000000000E+00  0.30863093452E+03  0.30863093456E+03  0.50400001928E-02 0.  1.
       -1   -1    0    0    0  501  0.00000000000E+00  0.00000000000E+00 -0.80383973557E+03  0.80383973559E+03  0.50400001928E-02 0. -1.
    10030    2    1    2    0    0  0.00000000000E+00  0.00000000000E+00 -0.49520880105E+03  0.11124706702E+04  0.99617229198E+03 0.  0.
        5    1    3    3  502    0 -0.12143916347E+03  0.23076572636E+03  0.22627921418E+03  0.34528924636E+03  0.46999998093E+01 0.  1.
       -5    1    3    3    0  502  0.12143916347E+03 -0.23076572636E+03 -0.72148801523E+03  0.76718142379E+03  0.46999998093E+01 0. -1.
</event>
<event>
 5   0  0.9507815E-03  0.1033337E+04  0.7818609E-02  0.9272719E-01
       -1   -1    0    0    0  501  0.00000000000E+00  0.00000000000E+00  0.31842301838E+03  0.31842301842E+03  0.50400001928E-02 0. -1.
        1   -1    0    0  501    0  0.00000000000E+00  0.00000000000E+00 -0.83833801674E+03  0.83833801675E+03  0.50400001928E-02 0.  1.
    10030    2    1    2    0    0  0.00000000000E+00  0.00000000000E+00 -0.51991499836E+03  0.11567610352E+04  0.10333365797E+04 0.  0.
        1    1    3    3  502    0 -0.46573164688E+03 -0.22171150375E+03 -0.29324400761E+03  0.59334139062E+03  0.50400001928E-02 0.  1.
       -1    1    3    3    0  502  0.46573164688E+03  0.22171150375E+03 -0.22667099075E+03  0.56341964456E+03  0.50400001928E-02 0. -1.
</event>
<event>
 5   0  0.9759443E-03  0.1007011E+04  0.7818609E-02  0.9300889E-01
        1   -1    0    0  501    0  0.00000000000E+00  0.00000000000E+00  0.50151116207E+03  0.50151116210E+03  0.50400001928E-02 0.  1.
       -1   -1    0    0    0  501  0.00000000000E+00  0.00000000000E+00 -0.50550728210E+03  0.50550728213E+03  0.50400001928E-02 0. -1.
    10030    2    1    2    0    0  0.00000000000E+00  0.00000000000E+00 -0.39961200301E+01  0.10070184442E+04  0.10070105154E+04 0.  0.
        2    1    3    3  502    0 -0.35023940727E+03 -0.36095316173E+03 -0.25719906408E+02  0.50360335678E+03  0.25500000920E-02 0. -1.
       -2    1    3    3    0  502  0.35023940727E+03  0.36095316173E+03  0.21723786378E+02  0.50341508744E+03  0.25500000920E-02 0.  1.
</event>
<event>
 5   0  0.9759443E-03  0.9951873E+03  0.7818609E-02  0.9313839E-01
        1   -1    0    0  501    0  0.00000000000E+00  0.00000000000E+00  0.17824378167E+04  0.17824378167E+04  0.50400001928E-02 0.  1.
       -1   -1    0    0    0  501  0.00000000000E+00  0.00000000000E+00 -0.13891056477E+03  0.13891056487E+03  0.50400001928E-02 0. -1.
    10030    2    1    2    0    0  0.00000000000E+00  0.00000000000E+00  0.16435272519E+04  0.19213483815E+04  0.99518730676E+03 0.  0.
        2    1    3    3  502    0  0.24777969572E+03  0.11545469116E+03  0.19037797033E+02  0.27402007417E+03  0.25500000920E-02 0. -1.
       -2    1    3    3    0  502 -0.24777969572E+03 -0.11545469116E+03  0.16244894549E+04  0.16473283074E+04  0.25500000920E-02 0.  1.
</event>
<event>
 5   0  0.9396660E-03  0.1025763E+04  0.7818609E-02  0.9280731E-01
       -1   -1    0    0    0  501  0.00000000000E+00  0.00000000000E+00  0.32483076853E+03  0.32483076857E+03  0.50400001928E-02 0. -1.
        1   -1    0    0  501    0  0.00000000000E+00  0.00000000000E+00 -0.80979831927E+03  0.80979831928E+03  0.50400001928E-02 0.  1.
    10030    2    1    2    0    0  0.00000000000E+00  0.00000000000E+00 -0.48496755074E+03  0.11346290879E+04  0.10257629559E+04 0.  0.
        5    1    3    3  502    0 -0.21203709942E+03  0.45919016142E+03 -0.14856031830E+03  0.52716941684E+03  0.46999998093E+01 0. -1.
       -5    1    3    3    0  502  0.21203709942E+03 -0.45919016142E+03 -0.33640723244E+03  0.60745967101E+03  0.46999998093E+01 0.  1.
</event>
<event>
 5   0  0.1663497E-02  0.1014934E+04  0.7818609E-02  0.9292315E-01
        2   -1    0    0  501    0  0.00000000000E+00  0.00000000000E+00  0.86800337863E+03  0.86800337863E+03  0.25500000920E-02 0.  1.
       -2   -1    0    0    0  501  0.00000000000E+00  0.00000000000E+00 -0.29668425423E+03  0.29668425424E+03  0.25500000920E-02 0. -1.
    10030    2    1    2    0    0  0.00000000000E+00  0.00000000000E+00  0.57131912440E+03  0.11646876329E+04  0.10149343527E+04 0.  0.
        1    1    3    3  502    0  0.29319455520E+03 -0.30018781066E+03  0.61315820211E+03  0.74299310206E+03  0.50400001928E-02 0.  1.
       -1    1    3    3    0  502 -0.29319455520E+03  0.30018781066E+03 -0.41839077704E+02  0.42169453081E+03  0.50400001928E-02 0. -1.
</event>
<event>
 5   0  0.9759443E-03  0.7817727E+03  0.7818609E-02  0.9586782E-01
        1   -1    0    0  501    0  0.00000000000E+00  0.00000000000E+00  0.16563873597E+04  0.16563873598E+04  0.50400001928E-02 0. -1.
       -1   -1    0    0    0  501  0.00000000000E+00  0.00000000000E+00 -0.92244196651E+02  0.92244196789E+02  0.50400001928E-02 0.  1.
    10030    2    1    2    0    0  0.00000000000E+00  0.00000000000E+00  0.15641431631E+04  0.17486315565E+04  0.78177265613E+03 0.  0.
        2    1    3    3  502    0 -0.10236886000E+03 -0.14071182231E+03  0.15649760698E+04  0.15746203667E+04  0.25500000920E-02 0. -1.
       -2    1    3    3    0  502  0.10236886000E+03  0.14071182231E+03 -0.83290666344E+00  0.17401118980E+03  0.25500000920E-02 0.  1.
</event>
<event>
 5   0  0.9471140E-03  0.1001217E+04  0.7818609E-02  0.9307211E-01
        1   -1    0    0  501    0  0.00000000000E+00  0.00000000000E+00  0.47379770057E+03  0.47379770060E+03  0.50400001928E-02 0.  1.
       -1   -1    0    0    0  501  0.00000000000E+00  0.00000000000E+00 -0.52893657568E+03  0.52893657570E+03  0.50400001928E-02 0. -1.
    10030    2    1    2    0    0  0.00000000000E+00  0.00000000000E+00 -0.55138875106E+02  0.10027342763E+04  0.10012171260E+04 0.  0.
        4    1    3    3  502    0  0.15109683381E+03 -0.15761580976E+02  0.45015298529E+03  0.47509788853E+03  0.12699999809E+01 0.  1.
       -4    1    3    3    0  502 -0.15109683381E+03  0.15761580976E+02 -0.50529186039E+03  0.52763638777E+03  0.12699999809E+01 0. -1.
</event>
<event>
 5   0  0.1656859E-02  0.9899283E+03  0.7818609E-02  0.9319661E-01
        2   -1    0    0  501    0  0.00000000000E+00  0.00000000000E+00  0.75405754157E+03  0.75405754158E+03  0.25500000920E-02 0.  1.
       -2   -1    0    0    0  501  0.00000000000E+00  0.00000000000E+00 -0.32489495588E+03  0.32489495589E+03  0.25500000920E-02 0. -1.
    10030    2    1    2    0    0  0.00000000000E+00  0.00000000000E+00  0.42916258570E+03  0.10789524975E+04  0.98992826348E+03 0.  0.
        4    1    3    3  502    0 -0.24007767454E+03 -0.43250797897E+03  0.23305993386E+03  0.54682628627E+03  0.12699999809E+01 0.  1.
       -4    1    3    3    0  502  0.24007767454E+03  0.43250797897E+03  0.19610265184E+03  0.53212621120E+03  0.12699999809E+01 0. -1.
</event>
<event>
 5   0  0.9396660E-03  0.1018460E+04  0.7818609E-02  0.9288527E-01
        1   -1    0    0  501    0  0.00000000000E+00  0.00000000000E+00  0.13813860929E+04  0.13813860929E+04  0.50400001928E-02 0. -1.
       -1   -1    0    0    0  501  0.00000000000E+00  0.00000000000E+00 -0.18772087236E+03  0.18772087243E+03  0.50400001928E-02 0.  1.
    10030    2    1    2    0    0  0.00000000000E+00  0.00000000000E+00  0.11936652206E+04  0.15691069654E+04  0.10184596261E+04 0.  0.
        5    1    3    3  502    0  0.38742496965E+03  0.17837271292E+03  0.10253983293E+04  0.11105758666E+04  0.46999998093E+01 0. -1.
       -5    1    3    3    0  502 -0.38742496965E+03 -0.17837271292E+03  0.16826689129E+03  0.45853109876E+03  0.46999998093E+01 0.  1.
</event>
<event>
 5   0  0.9396660E-03  0.9592212E+03  0.7818609E-02  0.9354437E-01
       -1   -1    0    0    0  501  0.00000000000E+00  0.00000000000E+00  0.20390166321E+03  0.20390166327E+03  0.50400001928E-02 0.  1.
        1   -1    0    0  501    0  0.00000000000E+00  0.00000000000E+00 -0.11281238442E+04  0.11281238442E+04  0.50400001928E-02 0. -1.
    10030    2    1    2    0    0  0.00000000000E+00  0.00000000000E+00 -0.92422218100E+03  0.13320255075E+04  0.95922120116E+03 0.  0.
        5    1    3    3  502    0 -0.37485389430E+02 -0.33995508250E+03 -0.92897458543E+03  0.98994468679E+03  0.46999998093E+01 0. -1.
       -5    1    3    3    0  502  0.37485389430E+02  0.33995508250E+03  0.47524044288E+01  0.34208082069E+03  0.46999998093E+01 0.  1.
</event>
<event>
 5   0  0.9759443E-03  0.1014227E+04  0.7818609E-02  0.9293077E-01
        1   -1    0    0  501    0  0.00000000000E+00  0.00000000000E+00  0.34235223694E+03  0.34235223698E+03  0.50400001928E-02 0. -1.
       -1   -1    0    0    0  501  0.00000000000E+00  0.00000000000E+00 -0.75116768016E+03  0.75116768018E+03  0.50400001928E-02 0.  1.
    10030    2    1    2    0    0  0.00000000000E+00  0.00000000000E+00 -0.40881544322E+03  0.10935199172E+04  0.10142266722E+04 0.  0.
        2    1    3    3  502    0  0.29386299045E+03 -0.39881188737E+03 -0.87498110446E+02  0.50305297734E+03  0.25500000920E-02 0. -1.
       -2    1    3    3    0  502 -0.29386299045E+03  0.39881188737E+03 -0.32131733278E+03  0.59046693982E+03  0.25500000920E-02 0.  1.
</event>
<event>
 5   0  0.1663497E-02  0.9783261E+03  0.7818609E-02  0.9332641E-01
        2   -1    0    0  501    0  0.00000000000E+00  0.00000000000E+00  0.16933662684E+04  0.16933662684E+04  0.25500000920E-02 0.  1.
       -2   -1    0    0    0  501  0.00000000000E+00  0.00000000000E+00 -0.14130464147E+03  0.14130464149E+03  0.25500000920E-02 0. -1.
    10030    2    1    2    0    0  0.00000000000E+00  0.00000000000E+00  0.15520616270E+04  0.18346709099E+04  0.97832614902E+03 0.  0.
        1    1    3    3  502    0 -0.41906805845E+03  0.16598907991E+03  0.11323907443E+04  0.12188023671E+04  0.50400001928E-02 0.  1.
       -1    1    3    3    0  502  0.41906805845E+03 -0.16598907991E+03  0.41967088266E+03  0.61586854282E+03  0.50400001928E-02 0. -1.
</event>
<event>
 5   0  0.9759443E-03  0.1007204E+04  0.7818609E-02  0.9300679E-01
       -1   -1    0    0    0  501  0.00000000000E+00  0.00000000000E+00  0.15466191135E+03  0.15466191144E+03  0.50400001928E-02 0.  1.
        1   -1    0    0  501    0  0.00000000000E+00  0.00000000000E+00 -0.16398020540E+04  0.16398020540E+04  0.50400001928E-02 0. -1.
    10030    2    1    2    0    0  0.00000000000E+00  0.00000000000E+00 -0.14851401426E+04  0.17944639654E+04  0.10072038920E+04 0.  0.
        2    1    3    3  502    0 -0.11318682019E+03  0.32781951874E+03 -0.91999583143E+02  0.35880470515E+03  0.25500000920E-02 0.  1.
       -2    1    3    3    0  502  0.11318682019E+03 -0.32781951874E+03 -0.13931405595E+04  0.14356592603E+04  0.25500000920E-02 0. -1.
</event>
<event>
 5   0  0.1663497E-02  0.9951445E+03  0.7818609E-02  0.9313886E-01
       -2   -1    0    0    0  501  0.00000000000E+00  0.00000000000E+00  0.20729350601E+03  0.20729350603E+03  0.25500000920E-02 0. -1.
        2   -1    0    0  501    0  0.00000000000E+00  0.00000000000E+00 -0.11943362281E+04  0.11943362281E+04  0.25500000920E-02 0.  1.
    10030    2    1    2    0    0  0.00000000000E+00  0.00000000000E+00 -0.98704272209E+03  0.14016297341E+04  0.99514450024E+03 0.  0.
        1    1    3    3  502    0 -0.88552130803E+02  0.67264185998E+02  0.18956729138E+03  0.21977649687E+03  0.50400001928E-02 0. -1.
       -1    1    3    3    0  502  0.88552130803E+02 -0.67264185998E+02 -0.11766100135E+04  0.11818532373E+04  0.50400001928E-02 0.  1.
</event>
<event>
 5   0  0.1598986E-02  0.8826528E+03  0.7818609E-02  0.9447530E-01
       -2   -1    0    0    0  501  0.00000000000E+00  0.00000000000E+00  0.16678716067E+03  0.16678716069E+03  0.25500000920E-02 0. -1.
        2   -1    0    0  501    0  0.00000000000E+00  0.00000000000E+00 -0.11677696745E+04  0.11677696745E+04  0.25500000920E-02 0.  1.
    10030    2    1    2    0    0  0.00000000000E+00  0.00000000000E+00 -0.10009825138E+04  0.13345568352E+04  0.88265279322E+03 0.  0.
        3    1    3    3  502    0  0.19434457965E+03 -0.13871791153E+03 -0.10616726071E+04  0.10881917154E+04  0.10100000352E+00 0.  1.
       -3    1    3    3    0  502 -0.19434457965E+03  0.13871791153E+03  0.60690093275E+02  0.24636511978E+03  0.10100000352E+00 0. -1.
</event>
<event>
 5   0  0.1598986E-02  0.1013668E+04  0.7818609E-02  0.9293680E-01
       -2   -1    0    0    0  501  0.00000000000E+00  0.00000000000E+00  0.22932781566E+03  0.22932781567E+03  0.25500000920E-02 0. -1.
        2   -1    0    0  501    0  0.00000000000E+00  0.00000000000E+00 -0.11201465155E+04  0.11201465155E+04  0.25500000920E-02 0.  1.
    10030    2    1    2    0    0  0.00000000000E+00  0.00000000000E+00 -0.89081869982E+03  0.13494743312E+04  0.10136680988E+04 0.  0.
        3    1    3    3  502    0  0.19199620228E+03 -0.17746230687E+03 -0.10234437773E+04  0.10563108385E+04  0.10100000352E+00 0.  1.
       -3    1    3    3    0  502 -0.19199620228E+03  0.17746230687E+03  0.13262507748E+03  0.29316349265E+03  0.10100000352E+00 0. -1.
</event>
<event>
 5   0  0.9507815E-03  0.1007942E+04  0.7818609E-02  0.9299877E-01
        1   -1    0    0  501    0  0.00000000000E+00  0.00000000000E+00  0.21851245484E+03  0.21851245490E+03  0.50400001928E-02 0. -1.
       -1   -1    0    0    0  501  0.00000000000E+00  0.00000000000E+00 -0.11623443466E+04  0.11623443466E+04  0.50400001928E-02 0.  1.
    10030    2    1    2    0    0  0.00000000000E+00  0.00000000000E+00 -0.94383189177E+03  0.13808568015E+04  0.10079418963E+04 0.  0.
        1    1    3    3  502    0  0.47950642840E+03  0.94525575138E+02 -0.30342989236E+03  0.57526619824E+03  0.50400001928E-02 0.  1.
       -1    1    3    3    0  502 -0.47950642840E+03 -0.94525575138E+02 -0.64040199940E+03  0.80559060328E+03  0.50400001928E-02 0. -1.
</event>
<event>
 5   0  0.9396660E-03  0.9819388E+03  0.7818609E-02  0.9328579E-01
        1   -1    0    0  501    0  0.00000000000E+00  0.00000000000E+00  0.74133117699E+03  0.74133117701E+03  0.50400001928E-02 0.  1.
       -1   -1    0    0    0  501  0.00000000000E+00  0.00000000000E+00 -0.32515959012E+03  0.32515959016E+03  0.50400001928E-02 0. -1.
    10030    2    1    2    0    0  0.00000000000E+00  0.00000000000E+00  0.41617158687E+03  0.10664907672E+04  0.98193877952E+03 0.  0.
        5    1    3    3  502    0 -0.21044041522E+02  0.35450700115E+03 -0.16008818125E+03  0.38957461586E+03  0.46999998093E+01 0. -1.
       -5    1    3    3    0  502  0.21044041522E+02 -0.35450700115E+03  0.57625976812E+03  0.67691615131E+03  0.46999998093E+01 0.  1.
</event>
<event>
 5   0  0.1598986E-02  0.1004423E+04  0.7818609E-02  0.9303707E-01
       -2   -1    0    0    0  501  0.00000000000E+00  0.00000000000E+00  0.44643310714E+03  0.44643310714E+03  0.25500000920E-02 0. -1.
        2   -1    0    0  501    0  0.00000000000E+00  0.00000000000E+00 -0.56495883477E+03  0.56495883477E+03  0.25500000920E-02 0.  1.
    10030    2    1    2    0    0  0.00000000000E+00  0.00000000000E+00 -0.11852572763E+03  0.10113919419E+04  0.10044228751E+04 0.  0.
        3    1    3    3  502    0  0.67937431735E+02 -0.50718238569E+02  0.43917517694E+03  0.44728366905E+03  0.10100000352E+00 0. -1.
       -3    1    3    3    0  502 -0.67937431735E+02  0.50718238569E+02 -0.55770090458E+03  0.56410827287E+03  0.10100000352E+00 0.  1.
</event>
<event>
 5   0  0.9396660E-03  0.9779638E+03  0.7818609E-02  0.9333049E-01
       -1   -1    0    0    0  501  0.00000000000E+00  0.00000000000E+00  0.19281776977E+03  0.19281776984E+03  0.50400001928E-02 0. -1.
        1   -1    0    0  501    0  0.00000000000E+00  0.00000000000E+00 -0.12400480261E+04  0.12400480261E+04  0.50400001928E-02 0.  1.
    10030    2    1    2    0    0  0.00000000000E+00  0.00000000000E+00 -0.10472302563E+04  0.14328657959E+04  0.97796379247E+03 0.  0.
        5    1    3    3  502    0  0.13975181755E+03  0.46856183193E+03 -0.52263884414E+03  0.71571936696E+03  0.46999998093E+01 0.  1.
       -5    1    3    3    0  502 -0.13975181755E+03 -0.46856183193E+03 -0.52459141215E+03  0.71714642894E+03  0.46999998093E+01 0. -1.
</event>
<event>
 5   0  0.1571895E-02  0.8411929E+03  0.7818609E-02  0.9502234E-01
       -2   -1    0    0    0  501  0.00000000000E+00  0.00000000000E+00  0.25287316407E+03  0.25287316408E+03  0.25500000920E-02 0. -1.
        2   -1    0    0  501    0  0.00000000000E+00  0.00000000000E+00 -0.69956562428E+03  0.69956562429E+03  0.25500000920E-02 0.  1.
    10030    2    1    2    0    0  0.00000000000E+00  0.00000000000E+00 -0.44669246021E+03  0.95243878837E+03  0.84119289796E+03 0.  0.
        2    1    3    3  502    0  0.30372135747E+03  0.27651755833E+03 -0.32583029051E+03  0.52428427524E+03  0.25500000920E-02 0.  1.
       -2    1    3    3    0  502 -0.30372135747E+03 -0.27651755833E+03 -0.12086216970E+03  0.42815451313E+03  0.25500000920E-02 0. -1.
</event>
<event>
 5   0  0.9507815E-03  0.9948257E+03  0.7818609E-02  0.9314238E-01
        1   -1    0    0  501    0  0.00000000000E+00  0.00000000000E+00  0.11647901705E+04  0.11647901705E+04  0.50400001928E-02 0.  1.
       -1   -1    0    0    0  501  0.00000000000E+00  0.00000000000E+00 -0.21241554983E+03  0.21241554989E+03  0.50400001928E-02 0. -1.
    10030    2    1    2    0    0  0.00000000000E+00  0.00000000000E+00  0.95237462070E+03  0.13772057204E+04  0.99482570244E+03 0.  0.
        1    1    3    3  502    0  0.15968727865E+03 -0.37537297636E+03  0.82153407282E+02  0.41611786875E+03  0.50400001928E-02 0. -1.
       -1    1    3    3    0  502 -0.15968727865E+03  0.37537297636E+03  0.87022121342E+03  0.96108785168E+03  0.50400001928E-02 0.  1.
</event>
<event>
 5   0  0.9507815E-03  0.1106513E+04  0.7818609E-02  0.9198867E-01
        1   -1    0    0  501    0  0.00000000000E+00  0.00000000000E+00  0.11775915084E+04  0.11775915084E+04  0.50400001928E-02 0. -1.
       -1   -1    0    0    0  501  0.00000000000E+00  0.00000000000E+00 -0.25993126499E+03  0.25993126503E+03  0.50400001928E-02 0.  1.
    10030    2    1    2    0    0  0.00000000000E+00  0.00000000000E+00  0.91766024343E+03  0.14375227735E+04  0.11065131729E+04 0.  0.
        1    1    3    3  502    0  0.46695380059E+03  0.28460865677E+03  0.56787264732E+03  0.78837001654E+03  0.50400001928E-02 0.  1.
       -1    1    3    3    0  502 -0.46695380059E+03 -0.28460865677E+03  0.34978759611E+03  0.64915275691E+03  0.50400001928E-02 0. -1.
</event>
<event>
 5   0  0.9759443E-03  0.1011290E+04  0.7818609E-02  0.9296248E-01
       -1   -1    0    0    0  501  0.00000000000E+00  0.00000000000E+00  0.70444203620E+03  0.70444203622E+03  0.50400001928E-02 0.  1.
        1   -1    0    0  501    0  0.00000000000E+00  0.00000000000E+00 -0.36294969222E+03  0.36294969225E+03  0.50400001928E-02 0. -1.
    10030    2    1    2    0    0  0.00000000000E+00  0.00000000000E+00  0.34149234398E+03  0.10673917285E+04  0.10112903050E+04 0.  0.
        2    1    3    3  502    0 -0.36870903150E+03 -0.34431118620E+03  0.13448207845E+03  0.52209383475E+03  0.25500000920E-02 0.  1.
       -2    1    3    3    0  502  0.36870903150E+03  0.34431118620E+03  0.20701026554E+03  0.54529789372E+03  0.25500000920E-02 0. -1.
</event>
<event>
 5   0  0.1656859E-02  0.1002108E+04  0.7818609E-02  0.9306236E-01
       -2   -1    0    0    0  501  0.00000000000E+00  0.00000000000E+00  0.18907313812E+03  0.18907313814E+03  0.25500000920E-02 0.  1.
        2   -1    0    0  501    0  0.00000000000E+00  0.00000000000E+00 -0.13278190329E+04  0.13278190329E+04  0.25500000920E-02 0. -1.
    10030    2    1    2    0    0  0.00000000000E+00  0.00000000000E+00 -0.11387458948E+04  0.15168921711E+04  0.10021076019E+04 0.  0.
        4    1    3    3  502    0 -0.34562972910E+03  0.36114746428E+03 -0.62105867314E+03  0.79724706896E+03  0.12699999809E+01 0.  1.
       -4    1    3    3    0  502  0.34562972910E+03 -0.36114746428E+03 -0.51768722166E+03  0.71964510209E+03  0.12699999809E+01 0. -1.
</event>
<event>
 5   0  0.1000773E-02  0.1006660E+04  0.7818609E-02  0.9301270E-01
       -1   -1    0    0    0  501  0.00000000000E+00  0.00000000000E+00  0.70648391990E+03  0.70648391992E+03  0.50400001928E-02 0. -1.
        1   -1    0    0  501    0  0.00000000000E+00  0.00000000000E+00 -0.35859451012E+03  0.35859451015E+03  0.50400001928E-02 0.  1.
    10030    2    1    2    0    0  0.00000000000E+00  0.00000000000E+00  0.34788940979E+03  0.10650784301E+04  0.10066603304E+04 0.  0.
        3    1    3    3  502    0  0.90378218734E+02  0.35090476290E+03 -0.19566870854E+03  0.41181139949E+03  0.10100000352E+00 0.  1.
       -3    1    3    3    0  502 -0.90378218734E+02 -0.35090476290E+03  0.54355811833E+03  0.65326703058E+03  0.10100000352E+00 0. -1.
</event>
<event>
 5   0  0.9396660E-03  0.1011306E+04  0.7818609E-02  0.9296231E-01
        1   -1    0    0  501    0  0.00000000000E+00  0.00000000000E+00  0.13998810537E+03  0.13998810546E+03  0.50400001928E-02 0. -1.
       -1   -1    0    0    0  501  0.00000000000E+00  0.00000000000E+00 -0.18264748846E+04  0.18264748846E+04  0.50400001928E-02 0.  1.
    10030    2    1    2    0    0  0.00000000000E+00  0.00000000000E+00 -0.16864867792E+04  0.19664629901E+04  0.10113056090E+04 0.  0.
        5    1    3    3  502    0 -0.33961848315E+03 -0.35682726316E+03 -0.10649162564E+04  0.11733435699E+04  0.46999998093E+01 0. -1.
       -5    1    3    3    0  502  0.33961848315E+03  0.35682726316E+03 -0.62157052277E+03  0.79311942014E+03  0.46999998093E+01 0.  1.
</event>
<event>
 5   0  0.9759443E-03  0.1004977E+04  0.7818609E-02  0.9303103E-01
        1   -1    0    0  501    0  0.00000000000E+00  0.00000000000E+00  0.40513326727E+03  0.40513326731E+03  0.50400001928E-02 0. -1.
       -1   -1    0    0    0  501  0.00000000000E+00  0.00000000000E+00 -0.62323827213E+03  0.62323827215E+03  0.50400001928E-02 0.  1.
    10030    2    1    2    0    0  0.00000000000E+00  0.00000000000E+00 -0.21810500485E+03  0.10283715395E+04  0.10049767311E+04 0.  0.
        2    1    3    3  502    0  0.19314629073E+03 -0.24382609803E+03 -0.51287564315E+03  0.59983171060E+03  0.25500000920E-02 0.  1.
       -2    1    3    3    0  502 -0.19314629073E+03  0.24382609803E+03  0.29477063830E+03  0.42853982885E+03  0.25500000920E-02 0. -1.
</event>
<event>
 5   0  0.1571895E-02  0.1018722E+04  0.7818609E-02  0.9288246E-01
        2   -1    0    0  501    0  0.00000000000E+00  0.00000000000E+00  0.15279906691E+04  0.15279906691E+04  0.25500000920E-02 0. -1.
       -2   -1    0    0    0  501  0.00000000000E+00  0.00000000000E+00 -0.16979730378E+03  0.16979730380E+03  0.25500000920E-02 0.  1.
    10030    2    1    2    0    0  0.00000000000E+00  0.00000000000E+00  0.13581933653E+04  0.16977879729E+04  0.10187221326E+04 0.  0.
        2    1    3    3  502    0 -0.85238482993E-01 -0.41481463865E+03  0.11717342519E+04  0.12429933020E+04  0.25500000920E-02 0. -1.
       -2    1    3    3    0  502  0.85238482993E-01  0.41481463865E+03  0.18645911339E+03  0.45479467090E+03  0.25500000920E-02 0.  1.
</event>
<event>
 5   0  0.6314750E-03  0.9556012E+03  0.7818609E-02  0.9358627E-01
       -3   -1    0    0    0  501  0.00000000000E+00  0.00000000000E+00  0.29510393071E+03  0.29510394799E+03  0.10100000352E+00 0. -1.
        3   -1    0    0  501    0  0.00000000000E+00  0.00000000000E+00 -0.77360340387E+03  0.77360341046E+03  0.10100000352E+00 0.  1.
    10030    2    1    2    0    0  0.00000000000E+00  0.00000000000E+00 -0.47849947316E+03  0.10687073585E+04  0.95560120981E+03 0.  0.
        3    1    3    3  502    0  0.37250762401E+03  0.18069488414E+02  0.94773467901E+02  0.38479924217E+03  0.10100000352E+00 0. -1.
       -3    1    3    3    0  502 -0.37250762401E+03 -0.18069488414E+02 -0.57327294106E+03  0.68390811628E+03  0.10100000352E+00 0.  1.
</event>
<event>
 5   0  0.1656859E-02  0.9918957E+03  0.7818609E-02  0.9317478E-01
       -2   -1    0    0    0  501  0.00000000000E+00  0.00000000000E+00  0.32789496007E+03  0.32789496008E+03  0.25500000920E-02 0. -1.
        2   -1    0    0  501    0  0.00000000000E+00  0.00000000000E+00 -0.75013122895E+03  0.75013122896E+03  0.25500000920E-02 0.  1.
    10030    2    1    2    0    0  0.00000000000E+00  0.00000000000E+00 -0.42223626889E+03  0.10780261890E+04  0.99189565856E+03 0.  0.
        4    1    3    3  502    0  0.78099964463E+02  0.43016649730E+03 -0.46558551035E+03  0.63868168926E+03  0.12699999809E+01 0.  1.
       -4    1    3    3    0  502 -0.78099964463E+02 -0.43016649730E+03  0.43349241463E+02  0.43934449977E+03  0.12699999809E+01 0. -1.
</event>
<event>
 5   0  0.1656859E-02  0.9984152E+03  0.7818609E-02  0.9310285E-01
        2   -1    0    0  501    0  0.00000000000E+00  0.00000000000E+00  0.13975551639E+04  0.13975551639E+04  0.25500000920E-02 0.  1.
       -2   -1    0    0    0  501  0.00000000000E+00  0.00000000000E+00 -0.17831727486E+03  0.17831727488E+03  0.25500000920E-02 0. -1.
    10030    2    1    2    0    0  0.00000000000E+00  0.00000000000E+00  0.12192378891E+04  0.15758724388E+04  0.99841520084E+03 0.  0.
        4    1    3    3  502    0  0.26008411453E+03  0.27218160259E+03  0.11270753809E+04  0.11882874646E+04  0.12699999809E+01 0.  1.
       -4    1    3    3    0  502 -0.26008411453E+03 -0.27218160259E+03  0.92162508183E+02  0.38758497421E+03  0.12699999809E+01 0. -1.
</event>
<event>
 5   0  0.9471140E-03  0.1007418E+04  0.7818609E-02  0.9300446E-01
        1   -1    0    0  501    0  0.00000000000E+00  0.00000000000E+00  0.12138350481E+04  0.12138350481E+04  0.50400001928E-02 0. -1.
       -1   -1    0    0    0  501  0.00000000000E+00  0.00000000000E+00 -0.20902570765E+03  0.20902570771E+03  0.50400001928E-02 0.  1.
    10030    2    1    2    0    0  0.00000000000E+00  0.00000000000E+00  0.10048093405E+04  0.14228607558E+04  0.10074179469E+04 0.  0.
        4    1    3    3  502    0 -0.19393250893E+02 -0.13115623179E+03  0.11887462542E+04  0.11961176050E+04  0.12699999809E+01 0. -1.
       -4    1    3    3    0  502  0.19393250893E+02  0.13115623179E+03 -0.18393691371E+03  0.22674315082E+03  0.12699999809E+01 0.  1.
</event>
<event>
 5   0  0.1571895E-02  0.1035458E+04  0.7818609E-02  0.9270488E-01
        2   -1    0    0  501    0  0.00000000000E+00  0.00000000000E+00  0.39259547735E+03  0.39259547736E+03  0.25500000920E-02 0.  1.
       -2   -1    0    0    0  501  0.00000000000E+00  0.00000000000E+00 -0.68274701129E+03  0.68274701129E+03  0.25500000920E-02 0. -1.
    10030    2    1    2    0    0  0.00000000000E+00  0.00000000000E+00 -0.29015153393E+03  0.10753424887E+04  0.10354581379E+04 0.  0.
        2    1    3    3  502    0 -0.35319700890E+03 -0.16016656992E+03  0.21112539641E+03  0.44156017736E+03  0.25500000920E-02 0.  1.
       -2    1    3    3    0  502  0.35319700890E+03  0.16016656992E+03 -0.50127693034E+03  0.63378231130E+03  0.25500000920E-02 0. -1.
</event>
<event>
 5   0  0.1656859E-02  0.9290410E+03  0.7818609E-02  0.9389990E-01
        2   -1    0    0  501    0  0.00000000000E+00  0.00000000000E+00  0.29264532033E+03  0.29264532034E+03  0.25500000920E-02 0. -1.
       -2   -1    0    0    0  501  0.00000000000E+00  0.00000000000E+00 -0.73734065889E+03  0.73734065890E+03  0.25500000920E-02 0.  1.
    10030    2    1    2    0    0  0.00000000000E+00  0.00000000000E+00 -0.44469533857E+03  0.10299859792E+04  0.92904099655E+03 0.  0.
        4    1    3    3  502    0  0.36112672002E+03 -0.57935529861E+02  0.95139557338E+02  0.37791822105E+03  0.12699999809E+01 0. -1.
       -4    1    3    3    0  502 -0.36112672002E+03  0.57935529861E+02 -0.53983489591E+03  0.65206775819E+03  0.12699999809E+01 0.  1.
</event>
<event>
 5   0  0.1617721E-02  0.9710257E+03  0.7818609E-02  0.9340907E-01
        2   -1    0    0  501    0  0.00000000000E+00  0.00000000000E+00  0.55295238435E+03  0.55295238435E+03  0.25500000920E-02 0.  1.
       -2   -1    0    0    0  501  0.00000000000E+00  0.00000000000E+00 -0.42629846290E+03  0.42629846291E+03  0.25500000920E-02 0. -1.
    10030    2    1    2    0    0  0.00000000000E+00  0.00000000000E+00  0.12665392144E+03  0.97925084726E+03  0.97102574943E+03 0.  0.
        5    1    3    3  502    0 -0.17568988331E+03  0.10747866617E+03  0.50668948931E+03  0.54696885410E+03  0.46999998093E+01 0.  1.
       -5    1    3    3    0  502  0.17568988331E+03 -0.10747866617E+03 -0.38003556786E+03  0.43228199317E+03  0.46999998093E+01 0. -1.
</event>
<event>
 5   0  0.6314750E-03  0.9281385E+03  0.7818609E-02  0.9391075E-01
        4   -1    0    0  501    0  0.00000000000E+00  0.00000000000E+00  0.31093000916E+03  0.31093260282E+03  0.12699999809E+01 0.  1.
       -4   -1    0    0    0  501  0.00000000000E+00  0.00000000000E+00 -0.69262655774E+03  0.69262772208E+03  0.12699999809E+01 0. -1.
    10030    2    1    2    0    0  0.00000000000E+00  0.00000000000E+00 -0.38169654858E+03  0.10035603249E+04  0.92813849748E+03 0.  0.
        4    1    3    3  502    0  0.24228574807E+03  0.33517712509E+02 -0.61727237212E+03  0.66396732981E+03  0.12699999809E+01 0. -1.
       -4    1    3    3    0  502 -0.24228574807E+03 -0.33517712509E+02  0.23557582354E+03  0.33959299508E+03  0.12699999809E+01 0.  1.
</event>
<event>
 5   0  0.1617721E-02  0.9730299E+03  0.7818609E-02  0.9338630E-01
        2   -1    0    0  501    0  0.00000000000E+00  0.00000000000E+00  0.28501694091E+03  0.28501694093E+03  0.25500000920E-02 0. -1.
       -2   -1    0    0    0  501  0.00000000000E+00  0.00000000000E+00 -0.83046565224E+03  0.83046565225E+03  0.25500000920E-02 0.  1.
    10030    2    1    2    0    0  0.00000000000E+00  0.00000000000E+00 -0.54544871133E+03  0.11154825932E+04  0.97302986541E+03 0.  0.
        5    1    3    3  502    0  0.33683745875E+03 -0.28708104245E+03 -0.41163542893E+02  0.44451268352E+03  0.46999998093E+01 0. -1.
       -5    1    3    3    0  502 -0.33683745875E+03  0.28708104245E+03 -0.50428516844E+03  0.67096990965E+03  0.46999998093E+01 0.  1.
</event>
<event>
 5   0  0.9396660E-03  0.9829130E+03  0.7818609E-02  0.9327487E-01
        1   -1    0    0  501    0  0.00000000000E+00  0.00000000000E+00  0.29178848044E+03  0.29178848048E+03  0.50400001928E-02 0.  1.
       -1   -1    0    0    0  501  0.00000000000E+00  0.00000000000E+00 -0.82775536922E+03  0.82775536923E+03  0.50400001928E-02 0. -1.
    10030    2    1    2    0    0  0.00000000000E+00  0.00000000000E+00 -0.53596688878E+03  0.11195438497E+04  0.98291297965E+03 0.  0.
        5    1    3    3  502    0 -0.46640574738E+03 -0.79601234575E+02 -0.11671969176E+03  0.48735639339E+03  0.46999998093E+01 0.  1.
       -5    1    3    3    0  502  0.46640574738E+03  0.79601234575E+02 -0.41924719702E+03  0.63218745633E+03  0.46999998093E+01 0. -1.
</event>
<event>
 5   0  0.9759443E-03  0.9938320E+03  0.7818609E-02  0.9315336E-01
       -1   -1    0    0    0  501  0.00000000000E+00  0.00000000000E+00  0.10060664102E+04  0.10060664103E+04  0.50400001928E-02 0. -1.
        1   -1    0    0  501    0  0.00000000000E+00  0.00000000000E+00 -0.24543660973E+03  0.24543660979E+03  0.50400001928E-02 0.  1.
    10030    2    1    2    0    0  0.00000000000E+00  0.00000000000E+00  0.76062980051E+03  0.12515030200E+04  0.99383203599E+03 0.  0.
        2    1    3    3  502    0  0.21995540360E+03 -0.32489199938E+02 -0.17930226391E+03  0.28563128249E+03  0.25500000920E-02 0.  1.
       -2    1    3    3    0  502 -0.21995540360E+03  0.32489199938E+02  0.93993206442E+03  0.96587173756E+03  0.25500000920E-02 0. -1.
</event>
<event>
 5   0  0.1663497E-02  0.1031220E+04  0.7818609E-02  0.9274951E-01
       -2   -1    0    0    0  501  0.00000000000E+00  0.00000000000E+00  0.17505384922E+03  0.17505384924E+03  0.25500000920E-02 0.  1.
        2   -1    0    0  501    0  0.00000000000E+00  0.00000000000E+00 -0.15186952723E+04  0.15186952723E+04  0.25500000920E-02 0. -1.
    10030    2    1    2    0    0  0.00000000000E+00  0.00000000000E+00 -0.13436414231E+04  0.16937491216E+04  0.10312195755E+04 0.  0.
        1    1    3    3  502    0  0.25030153228E+03 -0.30206123797E+03 -0.12223872253E+03  0.41089433417E+03  0.50400001928E-02 0.  1.
       -1    1    3    3    0  502 -0.25030153228E+03  0.30206123797E+03 -0.12214027006E+04  0.12828547874E+04  0.50400001928E-02 0. -1.
</event>
<event>
 5   0  0.9471140E-03  0.1009704E+04  0.7818609E-02  0.9297965E-01
       -1   -1    0    0    0  501  0.00000000000E+00  0.00000000000E+00  0.62315555027E+03  0.62315555029E+03  0.50400001928E-02 0. -1.
        1   -1    0    0  501    0  0.00000000000E+00  0.00000000000E+00 -0.40900821225E+03  0.40900821228E+03  0.50400001928E-02 0.  1.
    10030    2    1    2    0    0  0.00000000000E+00  0.00000000000E+00  0.21414733802E+03  0.10321637626E+04  0.10097043876E+04 0.  0.
        4    1    3    3  502    0  0.27769593335E+03  0.15839992014E+03 -0.29234574195E+03  0.43321266352E+03  0.12699999809E+01 0.  1.
       -4    1    3    3    0  502 -0.27769593335E+03 -0.15839992014E+03  0.50649307996E+03  0.59895109905E+03  0.12699999809E+01 0. -1.
</event>
<event>
 5   0  0.1598986E-02  0.9952247E+03  0.7818609E-02  0.9313798E-01
        2   -1    0    0  501    0  0.00000000000E+00  0.00000000000E+00  0.11990615227E+04  0.11990615227E+04  0.25500000920E-02 0.  1.
       -2   -1    0    0    0  501  0.00000000000E+00  0.00000000000E+00 -0.20650988096E+03  0.20650988097E+03  0.25500000920E-02 0. -1.
    10030    2    1    2    0    0  0.00000000000E+00  0.00000000000E+00  0.99255164178E+03  0.14055714037E+04  0.99522470294E+03 0.  0.
        3    1    3    3  502    0 -0.22841250551E+03  0.44195892555E+03  0.48092910297E+03  0.69194853625E+03  0.10100000352E+00 0. -1.
       -3    1    3    3    0  502  0.22841250551E+03 -0.44195892555E+03  0.51162253882E+03  0.71362286746E+03  0.10100000352E+00 0.  1.
</event>
<event>
 5   0  0.9396660E-03  0.1000559E+04  0.7818609E-02  0.9307932E-01
        1   -1    0    0  501    0  0.00000000000E+00  0.00000000000E+00  0.33284428835E+03  0.33284428839E+03  0.50400001928E-02 0.  1.
       -1   -1    0    0    0  501  0.00000000000E+00  0.00000000000E+00 -0.75194189608E+03  0.75194189610E+03  0.50400001928E-02 0. -1.
    10030    2    1    2    0    0  0.00000000000E+00  0.00000000000E+00 -0.41909760773E+03  0.10847861845E+04  0.10005589744E+04 0.  0.
        5    1    3    3  502    0  0.28279211283E+03 -0.13668826085E+03 -0.63168686826E+03  0.70548242307E+03  0.46999998093E+01 0. -1.
       -5    1    3    3    0  502 -0.28279211283E+03  0.13668826085E+03  0.21258926052E+03  0.37930376142E+03  0.46999998093E+01 0.  1.
</event>
<event>
 5   0  0.1000773E-02  0.9877164E+03  0.7818609E-02  0.9322121E-01
       -1   -1    0    0    0  501  0.00000000000E+00  0.00000000000E+00  0.94104874991E+03  0.94104874992E+03  0.50400001928E-02 0. -1.
        1   -1    0    0  501    0  0.00000000000E+00  0.00000000000E+00 -0.25917456991E+03  0.25917456996E+03  0.50400001928E-02 0.  1.
    10030    2    1    2    0    0  0.00000000000E+00  0.00000000000E+00  0.68187418000E+03  0.12002233199E+04  0.98771636628E+03 0.  0.
        3    1    3    3  502    0 -0.38694618318E+03  0.24140950060E+03  0.57114303500E+03  0.73089689580E+03  0.10100000352E+00 0.  1.
       -3    1    3    3    0  502  0.38694618318E+03 -0.24140950060E+03  0.11073114500E+03  0.46932642407E+03  0.10100000352E+00 0. -1.
</event>
<event>
 5   0  0.6314750E-03  0.6938485E+03  0.7818609E-02  0.9727810E-01
       -3   -1    0    0    0  501  0.00000000000E+00  0.00000000000E+00  0.14864717414E+03  0.14864720845E+03  0.10100000352E+00 0. -1.
        3   -1    0    0  501    0  0.00000000000E+00  0.00000000000E+00 -0.80967846096E+03  0.80967846726E+03  0.10100000352E+00 0.  1.
    10030    2    1    2    0    0  0.00000000000E+00  0.00000000000E+00 -0.66103128683E+03  0.95832567571E+03  0.69384849828E+03 0.  0.
        2    1    3    3  502    0 -0.17943582477E+03 -0.87847465821E+02 -0.72224851405E+03  0.74937127548E+03  0.25500000920E-02 0.  1.
       -2    1    3    3    0  502  0.17943582477E+03  0.87847465821E+02  0.61217227221E+02  0.20895440023E+03  0.25500000920E-02 0. -1.
</event>
<event>
 5   0  0.1571895E-02  0.1022365E+04  0.7818609E-02  0.9284350E-01
       -2   -1    0    0    0  501  0.00000000000E+00  0.00000000000E+00  0.23370964353E+03  0.23370964355E+03  0.25500000920E-02 0. -1.
        2   -1    0    0  501    0  0.00000000000E+00  0.00000000000E+00 -0.11180858514E+04  0.11180858514E+04  0.25500000920E-02 0.  1.
    10030    2    1    2    0    0  0.00000000000E+00  0.00000000000E+00 -0.88437620791E+03  0.13517954950E+04  0.10223647995E+04 0.  0.
        2    1    3    3  502    0 -0.42125396749E+03  0.27551162729E+03 -0.56005075730E+03  0.75300625008E+03  0.25500000920E-02 0.  1.
       -2    1    3    3    0  502  0.42125396749E+03 -0.27551162729E+03 -0.32432545061E+03  0.59878924491E+03  0.25500000920E-02 0. -1.
</event>
<event>
 5   0  0.1617721E-02  0.1012424E+04  0.7818609E-02  0.9295022E-01
        2   -1    0    0  501    0  0.00000000000E+00  0.00000000000E+00  0.10971810961E+04  0.10971810961E+04  0.25500000920E-02 0.  1.
       -2   -1    0    0    0  501  0.00000000000E+00  0.00000000000E+00 -0.23355357422E+03  0.23355357423E+03  0.25500000920E-02 0. -1.
    10030    2    1    2    0    0  0.00000000000E+00  0.00000000000E+00  0.86362752186E+03  0.13307346703E+04  0.10124239558E+04 0.  0.
        5    1    3    3  502    0 -0.38797934753E+03  0.16371407062E+03  0.62612970634E+02  0.42576137109E+03  0.46999998093E+01 0.  1.
       -5    1    3    3    0  502  0.38797934753E+03 -0.16371407062E+03  0.80101455122E+03  0.90497329922E+03  0.46999998093E+01 0. -1.
</event>
<event>
 5   0  0.9471140E-03  0.1001967E+04  0.7818609E-02  0.9306390E-01
       -1   -1    0    0    0  501  0.00000000000E+00  0.00000000000E+00  0.34239028230E+03  0.34239028234E+03  0.50400001928E-02 0.  1.
        1   -1    0    0  501    0  0.00000000000E+00  0.00000000000E+00 -0.73303589960E+03  0.73303589962E+03  0.50400001928E-02 0. -1.
    10030    2    1    2    0    0  0.00000000000E+00  0.00000000000E+00 -0.39064561730E+03  0.10754261820E+04  0.10019668031E+04 0.  0.
        4    1    3    3  502    0 -0.49255268511E+03  0.41443379701E+02 -0.10775019216E+03  0.50590257771E+03  0.12699999809E+01 0. -1.
       -4    1    3    3    0  502  0.49255268511E+03 -0.41443379701E+02 -0.28289542514E+03  0.56952360425E+03  0.12699999809E+01 0.  1.
</event>
<event>
 5   0  0.1656859E-02  0.9864121E+03  0.7818609E-02  0.9323575E-01
        2   -1    0    0  501    0  0.00000000000E+00  0.00000000000E+00  0.56280271420E+03  0.56280271421E+03  0.25500000920E-02 0.  1.
       -2   -1    0    0    0  501  0.00000000000E+00  0.00000000000E+00 -0.43221580918E+03  0.43221580918E+03  0.25500000920E-02 0. -1.
    10030    2    1    2    0    0  0.00000000000E+00  0.00000000000E+00  0.13058690503E+03  0.99501852339E+03  0.98641214618E+03 0.  0.
        4    1    3    3  502    0 -0.27219659755E+03 -0.11759680637E+03 -0.33226527671E+03  0.44533338477E+03  0.12699999809E+01 0. -1.
       -4    1    3    3    0  502  0.27219659755E+03  0.11759680637E+03  0.46285218173E+03  0.54968513862E+03  0.12699999809E+01 0.  1.
</event>
<event>
 5   0  0.9396660E-03  0.1008105E+04  0.7818609E-02  0.9299700E-01
       -1   -1    0    0    0  501  0.00000000000E+00  0.00000000000E+00  0.84575142008E+03  0.84575142010E+03  0.50400001928E-02 0.  1.
        1   -1    0    0  501    0  0.00000000000E+00  0.00000000000E+00 -0.30040618525E+03  0.30040618530E+03  0.50400001928E-02 0. -1.
    10030    2    1    2    0    0  0.00000000000E+00  0.00000000000E+00  0.54534523483E+03  0.11461576054E+04  0.10081050696E+04 0.  0.
        5    1    3    3  502    0  0.36385780381E+03 -0.29746639563E+03  0.65611333001E+02  0.47455842100E+03  0.46999998093E+01 0. -1.
       -5    1    3    3    0  502 -0.36385780381E+03  0.29746639563E+03  0.47973390183E+03  0.67159918440E+03  0.46999998093E+01 0.  1.
</event>
<event>
 5   0  0.1571895E-02  0.8795097E+03  0.7818609E-02  0.9451564E-01
       -2   -1    0    0    0  501  0.00000000000E+00  0.00000000000E+00  0.13632020482E+03  0.13632020485E+03  0.25500000920E-02 0. -1.
        2   -1    0    0  501    0  0.00000000000E+00  0.00000000000E+00 -0.14186035697E+04  0.14186035697E+04  0.25500000920E-02 0.  1.
    10030    2    1    2    0    0  0.00000000000E+00  0.00000000000E+00 -0.12822833649E+04  0.15549237746E+04  0.87950970253E+03 0.  0.
        2    1    3    3  502    0  0.29804193704E+03  0.20271382155E+03 -0.19576564158E+03  0.41017810292E+03  0.25500000920E-02 0. -1.
       -2    1    3    3    0  502 -0.29804193704E+03 -0.20271382155E+03 -0.10865177233E+04  0.11447456717E+04  0.25500000920E-02 0.  1.
</event>
<event>
 5   0  0.1598986E-02  0.1067297E+04  0.7818609E-02  0.9237666E-01
        2   -1    0    0  501    0  0.00000000000E+00  0.00000000000E+00  0.34340106365E+03  0.34340106366E+03  0.25500000920E-02 0. -1.
       -2   -1    0    0    0  501  0.00000000000E+00  0.00000000000E+00 -0.82929451838E+03  0.82929451838E+03  0.25500000920E-02 0.  1.
    10030    2    1    2    0    0  0.00000000000E+00  0.00000000000E+00 -0.48589345473E+03  0.11726955820E+04  0.10672968091E+04 0.  0.
        3    1    3    3  502    0  0.37434837765E+03  0.28390522949E+03  0.35108830038E+02  0.47113854366E+03  0.10100000352E+00 0. -1.
       -3    1    3    3    0  502 -0.37434837765E+03 -0.28390522949E+03 -0.52100228476E+03  0.70155703838E+03  0.10100000352E+00 0.  1.
</event>
<event>
 5   0  0.9759443E-03  0.1007770E+04  0.7818609E-02  0.9300063E-01
        1   -1    0    0  501    0  0.00000000000E+00  0.00000000000E+00  0.40156203803E+03  0.40156203806E+03  0.50400001928E-02 0. -1.
       -1   -1    0    0    0  501  0.00000000000E+00  0.00000000000E+00 -0.63228160532E+03  0.63228160534E+03  0.50400001928E-02 0.  1.
    10030    2    1    2    0    0  0.00000000000E+00  0.00000000000E+00 -0.23071956729E+03  0.10338436434E+04  0.10077703906E+04 0.  0.
        2    1    3    3  502    0  0.17157445188E+03  0.44159572819E+03  0.60707238114E+02  0.47762950962E+03  0.25500000920E-02 0. -1.
       -2    1    3    3    0  502 -0.17157445188E+03 -0.44159572819E+03 -0.29142680540E+03  0.55621413377E+03  0.25500000920E-02 0.  1.
</event>
<event>
 5   0  0.9396660E-03  0.1042844E+04  0.7818609E-02  0.9262764E-01
       -1   -1    0    0    0  501  0.00000000000E+00  0.00000000000E+00  0.25884861938E+03  0.25884861943E+03  0.50400001928E-02 0. -1.
        1   -1    0    0  501    0  0.00000000000E+00  0.00000000000E+00 -0.10503467269E+04  0.10503467269E+04  0.50400001928E-02 0.  1.
    10030    2    1    2    0    0  0.00000000000E+00  0.00000000000E+00 -0.79149810751E+03  0.13091953463E+04  0.10428438045E+04 0.  0.
        5    1    3    3  502    0  0.40471471457E+03 -0.26993365224E+03 -0.63128641730E+03  0.79699611509E+03  0.46999998093E+01 0.  1.
       -5    1    3    3    0  502 -0.40471471457E+03  0.26993365224E+03 -0.16021169021E+03  0.51219923124E+03  0.46999998093E+01 0. -1.
</event>
<event>
 5   0  0.1598986E-02  0.9767246E+03  0.7818609E-02  0.9334448E-01
        2   -1    0    0  501    0  0.00000000000E+00  0.00000000000E+00  0.56826099484E+03  0.56826099485E+03  0.25500000920E-02 0. -1.
       -2   -1    0    0    0  501  0.00000000000E+00  0.00000000000E+00 -0.41969757209E+03  0.41969757209E+03  0.25500000920E-02 0.  1.
    10030    2    1    2    0    0  0.00000000000E+00  0.00000000000E+00  0.14856342275E+03  0.98795856694E+03  0.97672464872E+03 0.  0.
        3    1    3    3  502    0  0.39716209385E+03  0.76545448338E+02 -0.20254618720E+03  0.45235152548E+03  0.10100000352E+00 0.  1.
       -3    1    3    3    0  502 -0.39716209385E+03 -0.76545448338E+02  0.35110960996E+03  0.53560704146E+03  0.10100000352E+00 0. -1.
</event>
<event>
 5   0  0.1598986E-02  0.9965062E+03  0.7818609E-02  0.9312385E-01
        2   -1    0    0  501    0  0.00000000000E+00  0.00000000000E+00  0.86544431397E+03  0.86544431397E+03  0.25500000920E-02 0.  1.
       -2   -1    0    0    0  501  0.00000000000E+00  0.00000000000E+00 -0.28685398018E+03  0.28685398019E+03  0.25500000920E-02 0. -1.
    10030    2    1    2    0    0  0.00000000000E+00  0.00000000000E+00  0.57859033379E+03  0.11522982942E+04  0.99650618883E+03 0.  0.
        3    1    3    3  502    0  0.29032013613E+03  0.12017671074E+03 -0.15784743962E+03  0.35163055561E+03  0.10100000352E+00 0. -1.
       -3    1    3    3    0  502 -0.29032013613E+03 -0.12017671074E+03  0.73643777341E+03  0.80066773855E+03  0.10100000352E+00 0.  1.
</event>
<event>
 5   0  0.1571895E-02  0.1068141E+04  0.7818609E-02  0.9236812E-01
       -2   -1    0    0    0  501  0.00000000000E+00  0.00000000000E+00  0.32892387889E+03  0.32892387890E+03  0.25500000920E-02 0.  1.
        2   -1    0    0  501    0  0.00000000000E+00  0.00000000000E+00 -0.86716523889E+03  0.86716523889E+03  0.25500000920E-02 0. -1.
    10030    2    1    2    0    0  0.00000000000E+00  0.00000000000E+00 -0.53824136000E+03  0.11960891178E+04  0.10681411031E+04 0.  0.
        2    1    3    3  502    0 -0.14779889687E+03 -0.40191932744E+03  0.88243082965E+02  0.43723049000E+03  0.25500000920E-02 0.  1.
       -2    1    3    3    0  502  0.14779889687E+03  0.40191932744E+03 -0.62648444297E+03  0.75885862779E+03  0.25500000920E-02 0. -1.
</event>
<event>
 5   0  0.9507815E-03  0.1001785E+04  0.7818609E-02  0.9306590E-01
        1   -1    0    0  501    0  0.00000000000E+00  0.00000000000E+00  0.31232604605E+03  0.31232604609E+03  0.50400001928E-02 0. -1.
       -1   -1    0    0    0  501  0.00000000000E+00  0.00000000000E+00 -0.80330494578E+03  0.80330494580E+03  0.50400001928E-02 0.  1.
    10030    2    1    2    0    0  0.00000000000E+00  0.00000000000E+00 -0.49097889973E+03  0.11156309919E+04  0.10017845228E+04 0.  0.
        1    1    3    3  502    0  0.27730336010E+03 -0.33412318653E+03  0.32604121340E+02  0.43542908269E+03  0.50400001928E-02 0. -1.
       -1    1    3    3    0  502 -0.27730336010E+03  0.33412318653E+03 -0.52358302107E+03  0.68020190920E+03  0.50400001928E-02 0.  1.
</event>
<event>
 5   0  0.1656859E-02  0.1011049E+04  0.7818609E-02  0.9296508E-01
       -2   -1    0    0    0  501  0.00000000000E+00  0.00000000000E+00  0.86711662127E+02  0.86711662165E+02  0.25500000920E-02 0. -1.
        2   -1    0    0  501    0  0.00000000000E+00  0.00000000000E+00 -0.29471841500E+04  0.29471841500E+04  0.25500000920E-02 0.  1.
    10030    2    1    2    0    0  0.00000000000E+00  0.00000000000E+00 -0.28604724879E+04  0.30338958122E+04  0.10110494277E+04 0.  0.
        4    1    3    3  502    0  0.88757450388E+02 -0.42877409988E+03 -0.21883521819E+04  0.22317284778E+04  0.12699999809E+01 0.  1.
       -4    1    3    3    0  502 -0.88757450388E+02  0.42877409988E+03 -0.67212030602E+03  0.80216733441E+03  0.12699999809E+01 0. -1.
</event>
<event>
 5   0  0.1598986E-02  0.1014656E+04  0.7818609E-02  0.9292615E-01
       -2   -1    0    0    0  501  0.00000000000E+00  0.00000000000E+00  0.15372602999E+03  0.15372603001E+03  0.25500000920E-02 0.  1.
        2   -1    0    0  501    0  0.00000000000E+00  0.00000000000E+00 -0.16742878052E+04  0.16742878052E+04  0.25500000920E-02 0. -1.
    10030    2    1    2    0    0  0.00000000000E+00  0.00000000000E+00 -0.15205617752E+04  0.18280138352E+04  0.10146558379E+04 0.  0.
        3    1    3    3  502    0 -0.10257712651E+03  0.35569752804E+03 -0.13530455098E+03  0.39414480848E+03  0.10100000352E+00 0.  1.
       -3    1    3    3    0  502  0.10257712651E+03 -0.35569752804E+03 -0.13852572242E+04  0.14338690267E+04  0.10100000352E+00 0. -1.
</event>
<event>
 5   0  0.6314750E-03  0.9920335E+03  0.7818609E-02  0.9317326E-01
        4   -1    0    0  501    0  0.00000000000E+00  0.00000000000E+00  0.39923185782E+03  0.39923387782E+03  0.12699999809E+01 0.  1.
       -4   -1    0    0    0  501  0.00000000000E+00  0.00000000000E+00 -0.61626074961E+03  0.61626205822E+03  0.12699999809E+01 0. -1.
    10030    2    1    2    0    0  0.00000000000E+00  0.00000000000E+00 -0.21702889179E+03  0.10154959360E+04  0.99203349553E+03 0.  0.
        5    1    3    3  502    0  0.36146462499E+03  0.27269233482E+03  0.98740701168E+02  0.46345398979E+03  0.46999998093E+01 0.  1.
       -5    1    3    3    0  502 -0.36146462499E+03 -0.27269233482E+03 -0.31576959295E+03  0.55204194625E+03  0.46999998093E+01 0. -1.
</event>
<event>
 5   0  0.9507815E-03  0.9679272E+03  0.7818609E-02  0.9344438E-01
       -1   -1    0    0    0  501  0.00000000000E+00  0.00000000000E+00  0.39827986791E+03  0.39827986794E+03  0.50400001928E-02 0. -1.
        1   -1    0    0  501    0  0.00000000000E+00  0.00000000000E+00 -0.58808091479E+03  0.58808091481E+03  0.50400001928E-02 0.  1.
    10030    2    1    2    0    0  0.00000000000E+00  0.00000000000E+00 -0.18980104689E+03  0.98636078275E+03  0.96792724745E+03 0.  0.
        1    1    3    3  502    0 -0.90798505776E+01  0.37753990710E+03 -0.40332261180E+03  0.55252869098E+03  0.50400001928E-02 0.  1.
       -1    1    3    3    0  502  0.90798505776E+01 -0.37753990710E+03  0.21352156492E+03  0.43383209177E+03  0.50400001928E-02 0. -1.
</event>
<event>
 5   0  0.1663497E-02  0.7091332E+03  0.7818609E-02  0.9701739E-01
       -2   -1    0    0    0  501  0.00000000000E+00  0.00000000000E+00  0.84070974235E+02  0.84070974274E+02  0.25500000920E-02 0.  1.
        2   -1    0    0  501    0  0.00000000000E+00  0.00000000000E+00 -0.14953732035E+04  0.14953732035E+04  0.25500000920E-02 0. -1.
    10030    2    1    2    0    0  0.00000000000E+00  0.00000000000E+00 -0.14113022292E+04  0.15794441777E+04  0.70913322329E+03 0.  0.
        1    1    3    3  502    0 -0.21220156972E+02 -0.44224798351E+02  0.76477152415E+02  0.90856385125E+02  0.50400001928E-02 0.  1.
       -1    1    3    3    0  502  0.21220156972E+02  0.44224798351E+02 -0.14877793816E+04  0.14885877926E+04  0.50400001928E-02 0. -1.
</event>
<event>
 5   0  0.9396660E-03  0.1004568E+04  0.7818609E-02  0.9303549E-01
        1   -1    0    0  501    0  0.00000000000E+00  0.00000000000E+00  0.11068348228E+04  0.11068348228E+04  0.50400001928E-02 0. -1.
       -1   -1    0    0    0  501  0.00000000000E+00  0.00000000000E+00 -0.22793743338E+03  0.22793743344E+03  0.50400001928E-02 0.  1.
    10030    2    1    2    0    0  0.00000000000E+00  0.00000000000E+00  0.87889738941E+03  0.13347722562E+04  0.10045677453E+04 0.  0.
        5    1    3    3  502    0  0.15491778323E+03 -0.46702957834E+03  0.30557994965E+03  0.57923858834E+03  0.46999998093E+01 0.  1.
       -5    1    3    3    0  502 -0.15491778323E+03  0.46702957834E+03  0.57331743976E+03  0.75553366790E+03  0.46999998093E+01 0. -1.
</event>
<event>
 5   0  0.9471140E-03  0.9930975E+03  0.7818609E-02  0.9316148E-01
       -1   -1    0    0    0  501  0.00000000000E+00  0.00000000000E+00  0.13577834835E+04  0.13577834835E+04  0.50400001928E-02 0. -1.
        1   -1    0    0  501    0  0.00000000000E+00  0.00000000000E+00 -0.18159055866E+03  0.18159055873E+03  0.50400001928E-02 0.  1.
    10030    2    1    2    0    0  0.00000000000E+00  0.00000000000E+00  0.11761929248E+04  0.15393740422E+04  0.99309750049E+03 0.  0.
        4    1    3    3  502    0 -0.90658391946E+02  0.26840440920E+03 -0.44020320076E+02  0.28670415481E+03  0.12699999809E+01 0.  1.
       -4    1    3    3    0  502  0.90658391946E+02 -0.26840440920E+03  0.12202132449E+04  0.12526698874E+04  0.12699999809E+01 0. -1.
</event>
<event>
 5   0  0.1598986E-02  0.9948793E+03  0.7818609E-02  0.9314179E-01
       -2   -1    0    0    0  501  0.00000000000E+00  0.00000000000E+00  0.35064025332E+03  0.35064025333E+03  0.25500000920E-02 0. -1.
        2   -1    0    0  501    0  0.00000000000E+00  0.00000000000E+00 -0.70569825429E+03  0.70569825429E+03  0.25500000920E-02 0.  1.
    10030    2    1    2    0    0  0.00000000000E+00  0.00000000000E+00 -0.35505800097E+03  0.10563385076E+04  0.99487931863E+03 0.  0.
        3    1    3    3  502    0 -0.21448656477E+03 -0.31450294771E+03  0.16245413104E+03  0.41389364029E+03  0.10100000352E+00 0. -1.
       -3    1    3    3    0  502  0.21448656477E+03  0.31450294771E+03 -0.51751213200E+03  0.64244486733E+03  0.10100000352E+00 0.  1.
</event>
<event>
 5   0  0.9471140E-03  0.1006037E+04  0.7818609E-02  0.9301948E-01
       -1   -1    0    0    0  501  0.00000000000E+00  0.00000000000E+00  0.13855994418E+03  0.13855994427E+03  0.50400001928E-02 0.  1.
        1   -1    0    0  501    0  0.00000000000E+00  0.00000000000E+00 -0.18261244695E+04  0.18261244695E+04  0.50400001928E-02 0. -1.
    10030    2    1    2    0    0  0.00000000000E+00  0.00000000000E+00 -0.16875645253E+04  0.19646844137E+04  0.10060371855E+04 0.  0.
        4    1    3    3  502    0 -0.36666380887E+03 -0.26653741737E+03 -0.12695918409E+04  0.13480910945E+04  0.12699999809E+01 0. -1.
       -4    1    3    3    0  502  0.36666380887E+03  0.26653741737E+03 -0.41797268439E+03  0.61659331929E+03  0.12699999809E+01 0.  1.
</event>
<event>
 5   0  0.9507815E-03  0.9986047E+03  0.7818609E-02  0.9310076E-01
       -1   -1    0    0    0  501  0.00000000000E+00  0.00000000000E+00  0.13358394282E+03  0.13358394291E+03  0.50400001928E-02 0. -1.
        1   -1    0    0  501    0  0.00000000000E+00  0.00000000000E+00 -0.18662635165E+04  0.18662635165E+04  0.50400001928E-02 0.  1.
    10030    2    1    2    0    0  0.00000000000E+00  0.00000000000E+00 -0.17326795737E+04  0.19998474595E+04  0.99860470453E+03 0.  0.
        1    1    3    3  502    0 -0.31951026738E+02  0.44304639204E+03 -0.13229766441E+04  0.13955565823E+04  0.50400001928E-02 0. -1.
       -1    1    3    3    0  502  0.31951026738E+02 -0.44304639204E+03 -0.40970292960E+03  0.60429087711E+03  0.50400001928E-02 0.  1.
</event>
<event>
 5   0  0.9759443E-03  0.8596990E+03  0.7818609E-02  0.9477411E-01
        1   -1    0    0  501    0  0.00000000000E+00  0.00000000000E+00  0.40111451500E+03  0.40111451503E+03  0.50400001928E-02 0. -1.
       -1   -1    0    0    0  501  0.00000000000E+00  0.00000000000E+00 -0.46064295384E+03  0.46064295387E+03  0.50400001928E-02 0.  1.
    10030    2    1    2    0    0  0.00000000000E+00  0.00000000000E+00 -0.59528438839E+02  0.86175746890E+03  0.85969895904E+03 0.  0.
        2    1    3    3  502    0 -0.41008539922E+02 -0.39441396435E+03 -0.19607260503E+03  0.44236697670E+03  0.25500000920E-02 0. -1.
       -2    1    3    3    0  502  0.41008539922E+02  0.39441396435E+03  0.13654416619E+03  0.41939049220E+03  0.25500000920E-02 0.  1.
</event>
<event>
 5   0  0.1663497E-02  0.1051879E+04  0.7818609E-02  0.9253406E-01
       -2   -1    0    0    0  501  0.00000000000E+00  0.00000000000E+00  0.10082612910E+03  0.10082612913E+03  0.25500000920E-02 0. -1.
        2   -1    0    0  501    0  0.00000000000E+00  0.00000000000E+00 -0.27434582761E+04  0.27434582761E+04  0.25500000920E-02 0.  1.
    10030    2    1    2    0    0  0.00000000000E+00  0.00000000000E+00 -0.26426321470E+04  0.28442844052E+04  0.10518788492E+04 0.  0.
        1    1    3    3  502    0  0.45849868600E+03 -0.50257678406E+02 -0.20046612175E+04  0.20570399792E+04  0.50400001928E-02 0.  1.
       -1    1    3    3    0  502 -0.45849868600E+03  0.50257678406E+02 -0.63797092953E+03  0.78724442599E+03  0.50400001928E-02 0. -1.
</event>
<event>
 5   0  0.6314750E-03  0.1001169E+04  0.7818609E-02  0.9307263E-01
        3   -1    0    0  501    0  0.00000000000E+00  0.00000000000E+00  0.23836115257E+03  0.23836117397E+03  0.10100000352E+00 0. -1.
       -3   -1    0    0    0  501  0.00000000000E+00  0.00000000000E+00 -0.10512828077E+04  0.10512828125E+04  0.10100000352E+00 0.  1.
    10030    2    1    2    0    0  0.00000000000E+00  0.00000000000E+00 -0.81292165511E+03  0.12896439865E+04  0.10011693136E+04 0.  0.
        2    1    3    3  502    0  0.15557612481E+03 -0.34497301767E+03  0.15637138279E+02  0.37875431830E+03  0.25500000920E-02 0. -1.
       -2    1    3    3    0  502 -0.15557612481E+03  0.34497301767E+03 -0.82855879339E+03  0.91088966820E+03  0.25500000920E-02 0.  1.
</event>
<event>
 5   0  0.1598986E-02  0.1005661E+04  0.7818609E-02  0.9302358E-01
       -2   -1    0    0    0  501  0.00000000000E+00  0.00000000000E+00  0.18297607960E+03  0.18297607962E+03  0.25500000920E-02 0.  1.
        2   -1    0    0  501    0  0.00000000000E+00  0.00000000000E+00 -0.13818111598E+04  0.13818111598E+04  0.25500000920E-02 0. -1.
    10030    2    1    2    0    0  0.00000000000E+00  0.00000000000E+00 -0.11988350802E+04  0.15647872395E+04  0.10056607555E+04 0.  0.
        3    1    3    3  502    0  0.78396626463E+02  0.36994556866E+03 -0.83750382547E+02  0.38732401370E+03  0.10100000352E+00 0.  1.
       -3    1    3    3    0  502 -0.78396626463E+02 -0.36994556866E+03 -0.11150846977E+04  0.11774632258E+04  0.10100000352E+00 0. -1.
</event>
<event>
 5   0  0.1571895E-02  0.9641881E+03  0.7818609E-02  0.9348719E-01
       -2   -1    0    0    0  501  0.00000000000E+00  0.00000000000E+00  0.16220579106E+03  0.16220579108E+03  0.25500000920E-02 0. -1.
        2   -1    0    0  501    0  0.00000000000E+00  0.00000000000E+00 -0.14328384411E+04  0.14328384411E+04  0.25500000920E-02 0.  1.
    10030    2    1    2    0    0  0.00000000000E+00  0.00000000000E+00 -0.12706326501E+04  0.15950442322E+04  0.96418814103E+03 0.  0.
        2    1    3    3  502    0  0.14722012347E+03  0.22878063212E+03  0.23082450337E+02  0.27303322492E+03  0.25500000920E-02 0. -1.
       -2    1    3    3    0  502 -0.14722012347E+03 -0.22878063212E+03 -0.12937151004E+04  0.13220110073E+04  0.25500000920E-02 0.  1.
</event>
<event>
 5   0  0.1656859E-02  0.1002617E+04  0.7818609E-02  0.9305679E-01
        2   -1    0    0  501    0  0.00000000000E+00  0.00000000000E+00  0.14528601388E+04  0.14528601388E+04  0.25500000920E-02 0.  1.
       -2   -1    0    0    0  501  0.00000000000E+00  0.00000000000E+00 -0.17297612452E+03  0.17297612454E+03  0.25500000920E-02 0. -1.
    10030    2    1    2    0    0  0.00000000000E+00  0.00000000000E+00  0.12798840142E+04  0.16258362633E+04  0.10026168087E+04 0.  0.
        4    1    3    3  502    0  0.18526839549E+03 -0.44174036700E+03  0.87963939629E+03  0.10016117065E+04  0.12699999809E+01 0.  1.
       -4    1    3    3    0  502 -0.18526839549E+03  0.44174036700E+03  0.40024461793E+03  0.62422455678E+03  0.12699999809E+01 0. -1.
</event>
<event>
 5   0  0.1598986E-02  0.1005582E+04  0.7818609E-02  0.9302443E-01
       -2   -1    0    0    0  501  0.00000000000E+00  0.00000000000E+00  0.29147517227E+03  0.29147517228E+03  0.25500000920E-02 0.  1.
        2   -1    0    0  501    0  0.00000000000E+00  0.00000000000E+00 -0.86730851447E+03  0.86730851447E+03  0.25500000920E-02 0. -1.
    10030    2    1    2    0    0  0.00000000000E+00  0.00000000000E+00 -0.57583334220E+03  0.11587836868E+04  0.10055822168E+04 0.  0.
        3    1    3    3  502    0 -0.15382943594E+03  0.15949956250E+03  0.23216946128E+03  0.32094590627E+03  0.10100000352E+00 0.  1.
       -3    1    3    3    0  502  0.15382943594E+03 -0.15949956250E+03 -0.80800280347E+03  0.83783778049E+03  0.10100000352E+00 0. -1.
</event>
<event>
 5   0  0.9507815E-03  0.1011519E+04  0.7818609E-02  0.9296001E-01
       -1   -1    0    0    0  501  0.00000000000E+00  0.00000000000E+00  0.55757633802E+03  0.55757633804E+03  0.50400001928E-02 0.  1.
        1   -1    0    0  501    0  0.00000000000E+00  0.00000000000E+00 -0.45875786155E+03  0.45875786158E+03  0.50400001928E-02 0. -1.
    10030    2    1    2    0    0  0.00000000000E+00  0.00000000000E+00  0.98818476472E+02  0.10163341996E+04  0.10115187166E+04 0.  0.
        1    1    3    3  502    0  0.10879206278E+03  0.47886828989E+03  0.17098933070E+03  0.51998836836E+03  0.50400001928E-02 0.  1.
       -1    1    3    3    0  502 -0.10879206278E+03 -0.47886828989E+03 -0.72170854224E+02  0.49634583127E+03  0.50400001928E-02 0. -1.
</event>
<event>
 5   0  0.9396660E-03  0.9638038E+03  0.7818609E-02  0.9349160E-01
        1   -1    0    0  501    0  0.00000000000E+00  0.00000000000E+00  0.53538623925E+03  0.53538623927E+03  0.50400001928E-02 0. -1.
       -1   -1    0    0    0  501  0.00000000000E+00  0.00000000000E+00 -0.43376060408E+03  0.43376060411E+03  0.50400001928E-02 0.  1.
    10030    2    1    2    0    0  0.00000000000E+00  0.00000000000E+00  0.10162563517E+03  0.96914684339E+03  0.96380383602E+03 0.  0.
        5    1    3    3  502    0  0.24545522769E+03 -0.36295797072E+03  0.25247537406E+03  0.50571994405E+03  0.46999998093E+01 0. -1.
       -5    1    3    3    0  502 -0.24545522769E+03  0.36295797072E+03 -0.15084973889E+03  0.46342689934E+03  0.46999998093E+01 0.  1.
</event>
<event>
 5   0  0.6314750E-03  0.9986957E+03  0.7818609E-02  0.9309976E-01
        3   -1    0    0  501    0  0.00000000000E+00  0.00000000000E+00  0.42192011360E+03  0.42192012569E+03  0.10100000352E+00 0. -1.
       -3   -1    0    0    0  501  0.00000000000E+00  0.00000000000E+00 -0.59098455777E+03  0.59098456640E+03  0.10100000352E+00 0.  1.
    10030    2    1    2    0    0  0.00000000000E+00  0.00000000000E+00 -0.16906444416E+03  0.10129046921E+04  0.99869571390E+03 0.  0.
        4    1    3    3  502    0 -0.80980860519E+02 -0.22715897990E+03  0.35893877329E+03  0.43243237366E+03  0.12699999809E+01 0. -1.
       -4    1    3    3    0  502  0.80980860519E+02  0.22715897990E+03 -0.52800321745E+03  0.58047231843E+03  0.12699999809E+01 0.  1.
</event>
<event>
 5   0  0.1656859E-02  0.9943286E+03  0.7818609E-02  0.9314787E-01
       -2   -1    0    0    0  501  0.00000000000E+00  0.00000000000E+00  0.10965586011E+03  0.10965586014E+03  0.25500000920E-02 0. -1.
        2   -1    0    0  501    0  0.00000000000E+00  0.00000000000E+00 -0.22540733750E+04  0.22540733750E+04  0.25500000920E-02 0.  1.
    10030    2    1    2    0    0  0.00000000000E+00  0.00000000000E+00 -0.21444175149E+04  0.23637292351E+04  0.99432862718E+03 0.  0.
        4    1    3    3  502    0 -0.33767581866E+02  0.45654591217E+02 -0.22463349277E+04  0.22470529169E+04  0.12699999809E+01 0.  1.
       -4    1    3    3    0  502  0.33767581866E+02 -0.45654591217E+02  0.10191741282E+03  0.11667631817E+03  0.12699999809E+01 0. -1.
</event>
<event>
 5   0  0.1571895E-02  0.9962363E+03  0.7818609E-02  0.9312682E-01
       -2   -1    0    0    0  501  0.00000000000E+00  0.00000000000E+00  0.42109833023E+03  0.42109833024E+03  0.25500000920E-02 0.  1.
        2   -1    0    0  501    0  0.00000000000E+00  0.00000000000E+00 -0.58922512199E+03  0.58922512200E+03  0.25500000920E-02 0. -1.
    10030    2    1    2    0    0  0.00000000000E+00  0.00000000000E+00 -0.16812679176E+03  0.10103234522E+04  0.99623634747E+03 0.  0.
        2    1    3    3  502    0 -0.95384099243E+02 -0.48785701640E+03 -0.11643846820E+03  0.51054922556E+03  0.25500000920E-02 0. -1.
       -2    1    3    3    0  502  0.95384099243E+02  0.48785701640E+03 -0.51688323566E+02  0.49977422667E+03  0.25500000920E-02 0.  1.
</event>
<event>
 5   0  0.9759443E-03  0.9989435E+03  0.7818609E-02  0.9309704E-01
        1   -1    0    0  501    0  0.00000000000E+00  0.00000000000E+00  0.62744728507E+03  0.62744728509E+03  0.50400001928E-02 0.  1.
       -1   -1    0    0    0  501  0.00000000000E+00  0.00000000000E+00 -0.39759838722E+03  0.39759838725E+03  0.50400001928E-02 0. -1.
    10030    2    1    2    0    0  0.00000000000E+00  0.00000000000E+00  0.22984889785E+03  0.10250456723E+04  0.99894349917E+03 0.  0.
        2    1    3    3  502    0  0.23737919075E+03 -0.43169273325E+03  0.30528580829E+02  0.49359851134E+03  0.25500000920E-02 0. -1.
       -2    1    3    3    0  502 -0.23737919075E+03  0.43169273325E+03  0.19932031702E+03  0.53144716099E+03  0.25500000920E-02 0.  1.
</event>
<event>
 5   0  0.6314750E-03  0.9999459E+03  0.7818609E-02  0.9308604E-01
       -4   -1    0    0    0  501  0.00000000000E+00  0.00000000000E+00  0.40889491006E+03  0.40889688232E+03  0.12699999809E+01 0. -1.
        4   -1    0    0  501    0  0.00000000000E+00  0.00000000000E+00 -0.61133377755E+03  0.61133509672E+03  0.12699999809E+01 0.  1.
    10030    2    1    2    0    0  0.00000000000E+00  0.00000000000E+00 -0.20243886749E+03  0.10202319790E+04  0.99994589653E+03 0.  0.
        1    1    3    3  502    0 -0.31312448251E+01 -0.99755395970E+02  0.39862966396E+03  0.41093375711E+03  0.50400001928E-02 0. -1.
       -1    1    3    3    0  502  0.31312448251E+01  0.99755395970E+02 -0.60106853145E+03  0.60929822193E+03  0.50400001928E-02 0.  1.
</event>
<event>
 5   0  0.1663497E-02  0.9910289E+03  0.7818609E-02  0.9318439E-01
       -2   -1    0    0    0  501  0.00000000000E+00  0.00000000000E+00  0.19532023529E+03  0.19532023531E+03  0.25500000920E-02 0.  1.
        2   -1    0    0  501    0  0.00000000000E+00  0.00000000000E+00 -0.12570873370E+04  0.12570873370E+04  0.25500000920E-02 0. -1.
    10030    2    1    2    0    0  0.00000000000E+00  0.00000000000E+00 -0.10617671017E+04  0.14524075723E+04  0.99102894903E+03 0.  0.
        1    1    3    3  502    0 -0.21992998605E+03 -0.41101902320E+03 -0.77711756816E+03  0.90621054451E+03  0.50400001928E-02 0. -1.
       -1    1    3    3    0  502  0.21992998605E+03  0.41101902320E+03 -0.28464953353E+03  0.54619702779E+03  0.50400001928E-02 0.  1.
</event>
<event>
 5   0  0.9471140E-03  0.9103287E+03  0.7818609E-02  0.9412761E-01
        1   -1    0    0  501    0  0.00000000000E+00  0.00000000000E+00  0.11784646534E+04  0.11784646534E+04  0.50400001928E-02 0.  1.
       -1   -1    0    0    0  501  0.00000000000E+00  0.00000000000E+00 -0.17580043287E+03  0.17580043294E+03  0.50400001928E-02 0. -1.
    10030    2    1    2    0    0  0.00000000000E+00  0.00000000000E+00  0.10026642206E+04  0.13542650864E+04  0.91032872359E+03 0.  0.
        4    1    3    3  502    0 -0.37114212969E+03  0.17467931490E+03  0.79479714473E+03  0.89440676298E+03  0.12699999809E+01 0.  1.
       -4    1    3    3    0  502  0.37114212969E+03 -0.17467931490E+03  0.20786707583E+03  0.45985832340E+03  0.12699999809E+01 0. -1.
</event>
<event>
 5   0  0.9396660E-03  0.9857022E+03  0.7818609E-02  0.9324367E-01
        1   -1    0    0  501    0  0.00000000000E+00  0.00000000000E+00  0.10143941194E+04  0.10143941194E+04  0.50400001928E-02 0. -1.
       -1   -1    0    0    0  501  0.00000000000E+00  0.00000000000E+00 -0.23945545824E+03  0.23945545830E+03  0.50400001928E-02 0.  1.
    10030    2    1    2    0    0  0.00000000000E+00  0.00000000000E+00  0.77493866118E+03  0.12538495777E+04  0.98570220401E+03 0.  0.
        5    1    3    3  502    0  0.46315897654E+03  0.16046531572E+03  0.32242402932E+03  0.58672369969E+03  0.46999998093E+01 0.  1.
       -5    1    3    3    0  502 -0.46315897654E+03 -0.16046531572E+03  0.45251463187E+03  0.66712587804E+03  0.46999998093E+01 0. -1.
</event>
<event>
 5   0  0.9507815E-03  0.8852383E+03  0.7818609E-02  0.9444225E-01
        1   -1    0    0  501    0  0.00000000000E+00  0.00000000000E+00  0.10157271764E+04  0.10157271764E+04  0.50400001928E-02 0. -1.
       -1   -1    0    0    0  501  0.00000000000E+00  0.00000000000E+00 -0.19287827895E+03  0.19287827902E+03  0.50400001928E-02 0.  1.
    10030    2    1    2    0    0  0.00000000000E+00  0.00000000000E+00  0.82284889744E+03  0.12086054554E+04  0.88523829495E+03 0.  0.
        1    1    3    3  502    0 -0.29787903887E+03 -0.23653653512E+03  0.72044518141E+03  0.81469179061E+03  0.50400001928E-02 0. -1.
       -1    1    3    3    0  502  0.29787903887E+03  0.23653653512E+03  0.10240371603E+03  0.39391366481E+03  0.50400001928E-02 0.  1.
</event>
<event>
 5   0  0.1000773E-02  0.9898249E+03  0.7818609E-02  0.9319776E-01
       -1   -1    0    0    0  501  0.00000000000E+00  0.00000000000E+00  0.21863467656E+03  0.21863467662E+03  0.50400001928E-02 0. -1.
        1   -1    0    0  501    0  0.00000000000E+00  0.00000000000E+00 -0.11203087644E+04  0.11203087644E+04  0.50400001928E-02 0.  1.
    10030    2    1    2    0    0  0.00000000000E+00  0.00000000000E+00 -0.90167408782E+03  0.13389434410E+04  0.98982492269E+03 0.  0.
        3    1    3    3  502    0  0.17941130415E+02  0.10760337828E+03 -0.11038430642E+04  0.11092203982E+04  0.10100000352E+00 0.  1.
       -3    1    3    3    0  502 -0.17941130415E+02 -0.10760337828E+03  0.20216897640E+03  0.22972304281E+03  0.10100000352E+00 0. -1.
</event>
<event>
 5   0  0.1598986E-02  0.1008728E+04  0.7818609E-02  0.9299023E-01
        2   -1    0    0  501    0  0.00000000000E+00  0.00000000000E+00  0.49554282231E+03  0.49554282232E+03  0.25500000920E-02 0.  1.
       -2   -1    0    0    0  501  0.00000000000E+00  0.00000000000E+00 -0.51334241300E+03  0.51334241300E+03  0.25500000920E-02 0. -1.
    10030    2    1    2    0    0  0.00000000000E+00  0.00000000000E+00 -0.17799590686E+02  0.10088852353E+04  0.10087282055E+04 0.  0.
        3    1    3    3  502    0  0.12808691257E+03 -0.47246729401E+03 -0.13037460758E+03  0.50658577712E+03  0.10100000352E+00 0. -1.
       -3    1    3    3    0  502 -0.12808691257E+03  0.47246729401E+03  0.11257501690E+03  0.50229945820E+03  0.10100000352E+00 0.  1.
</event>
<event>
 5   0  0.1663497E-02  0.9868785E+03  0.7818609E-02  0.9323054E-01
        2   -1    0    0  501    0  0.00000000000E+00  0.00000000000E+00  0.21212759364E+03  0.21212759365E+03  0.25500000920E-02 0. -1.
       -2   -1    0    0    0  501  0.00000000000E+00  0.00000000000E+00 -0.11478105261E+04  0.11478105261E+04  0.25500000920E-02 0.  1.
    10030    2    1    2    0    0  0.00000000000E+00  0.00000000000E+00 -0.93568293244E+03  0.13599381197E+04  0.98687848261E+03 0.  0.
        1    1    3    3  502    0 -0.38823759910E+03 -0.11365202174E+03 -0.85720722897E+03  0.94786573354E+03  0.50400001928E-02 0.  1.
       -1    1    3    3    0  502  0.38823759910E+03  0.11365202174E+03 -0.78475703469E+02  0.41207238619E+03  0.50400001928E-02 0. -1.
</event>
<event>
 5   0  0.6314750E-03  0.1000400E+04  0.7818609E-02  0.9308106E-01
        3   -1    0    0  501    0  0.00000000000E+00  0.00000000000E+00  0.59949242439E+03  0.59949243290E+03  0.10100000352E+00 0. -1.
       -3   -1    0    0    0  501  0.00000000000E+00  0.00000000000E+00 -0.41735328800E+03  0.41735330022E+03  0.10100000352E+00 0.  1.
    10030    2    1    2    0    0  0.00000000000E+00  0.00000000000E+00  0.18213913639E+03  0.10168457331E+04  0.10004002099E+04 0.  0.
        2    1    3    3  502    0 -0.39740338174E+03  0.13756547517E+03 -0.18420799035E+03  0.45911468229E+03  0.25500000920E-02 0.  1.
       -2    1    3    3    0  502  0.39740338174E+03 -0.13756547517E+03  0.36634712674E+03  0.55773105083E+03  0.25500000920E-02 0. -1.
</event>
<event>
 5   0  0.1656859E-02  0.8887864E+03  0.7818609E-02  0.9439708E-01
       -2   -1    0    0    0  501  0.00000000000E+00  0.00000000000E+00  0.12316872721E+03  0.12316872723E+03  0.25500000920E-02 0. -1.
        2   -1    0    0  501    0  0.00000000000E+00  0.00000000000E+00 -0.16033723632E+04  0.16033723632E+04  0.25500000920E-02 0.  1.
    10030    2    1    2    0    0  0.00000000000E+00  0.00000000000E+00 -0.14802036360E+04  0.17265410904E+04  0.88878643833E+03 0.  0.
        4    1    3    3  502    0  0.37833746280E+03  0.13682372912E+03 -0.11067498238E+04  0.11776063663E+04  0.12699999809E+01 0.  1.
       -4    1    3    3    0  502 -0.37833746280E+03 -0.13682372912E+03 -0.37345381222E+03  0.54893472414E+03  0.12699999809E+01 0. -1.
</event>
<event>
 5   0  0.9759443E-03  0.1010756E+04  0.7818609E-02  0.9296826E-01
       -1   -1    0    0    0  501  0.00000000000E+00  0.00000000000E+00  0.23802803795E+03  0.23802803800E+03  0.50400001928E-02 0.  1.
        1   -1    0    0  501    0  0.00000000000E+00  0.00000000000E+00 -0.10730118176E+04  0.10730118176E+04  0.50400001928E-02 0. -1.
    10030    2    1    2    0    0  0.00000000000E+00  0.00000000000E+00 -0.83498377969E+03  0.13110398556E+04  0.10107559501E+04 0.  0.
        2    1    3    3  502    0 -0.41897883423E+01  0.45240909016E+03 -0.12538665659E+03  0.46948200481E+03  0.25500000920E-02 0.  1.
       -2    1    3    3    0  502  0.41897883423E+01 -0.45240909016E+03 -0.70959712309E+03  0.84155785083E+03  0.25500000920E-02 0. -1.
</event>
<event>
 5   0  0.1617721E-02  0.1008160E+04  0.7818609E-02  0.9299640E-01
        2   -1    0    0  501    0  0.00000000000E+00  0.00000000000E+00  0.78562942135E+03  0.78562942135E+03  0.25500000920E-02 0.  1.
       -2   -1    0    0    0  501  0.00000000000E+00  0.00000000000E+00 -0.32343078481E+03  0.32343078482E+03  0.25500000920E-02 0. -1.
    10030    2    1    2    0    0  0.00000000000E+00  0.00000000000E+00  0.46219863654E+03  0.11090602062E+04  0.10081601863E+04 0.  0.
        5    1    3    3  502    0 -0.43654003727E+03 -0.16450106413E+03  0.44111685318E+03  0.64205449333E+03  0.46999998093E+01 0.  1.
       -5    1    3    3    0  502  0.43654003727E+03  0.16450106413E+03  0.21081783356E+02  0.46700571284E+03  0.46999998093E+01 0. -1.
</event>
<event>
 5   0  0.1617721E-02  0.9931516E+03  0.7818609E-02  0.9316088E-01
       -2   -1    0    0    0  501  0.00000000000E+00  0.00000000000E+00  0.28904368925E+03  0.28904368926E+03  0.25500000920E-02 0. -1.
        2   -1    0    0  501    0  0.00000000000E+00  0.00000000000E+00 -0.85311506685E+03  0.85311506685E+03  0.25500000920E-02 0.  1.
    10030    2    1    2    0    0  0.00000000000E+00  0.00000000000E+00 -0.56407137760E+03  0.11421587561E+04  0.99315160229E+03 0.  0.
        5    1    3    3  502    0  0.18401995719E+03 -0.23484395544E+03 -0.73851457259E+03  0.79651797969E+03  0.46999998093E+01 0.  1.
       -5    1    3    3    0  502 -0.18401995719E+03  0.23484395544E+03  0.17444319499E+03  0.34564077642E+03  0.46999998093E+01 0. -1.
</event>
<event>
 5   0  0.1598986E-02  0.9919824E+03  0.7818609E-02  0.9317382E-01
       -2   -1    0    0    0  501  0.00000000000E+00  0.00000000000E+00  0.26970190056E+03  0.26970190057E+03  0.25500000920E-02 0.  1.
        2   -1    0    0  501    0  0.00000000000E+00  0.00000000000E+00 -0.91214506239E+03  0.91214506240E+03  0.25500000920E-02 0. -1.
    10030    2    1    2    0    0  0.00000000000E+00  0.00000000000E+00 -0.64244316183E+03  0.11818469630E+04  0.99198237267E+03 0.  0.
        3    1    3    3  502    0  0.14157131624E+02 -0.49367549042E+03 -0.37570556193E+03  0.62054056570E+03  0.10100000352E+00 0.  1.
       -3    1    3    3    0  502 -0.14157131624E+02  0.49367549042E+03 -0.26673759990E+03  0.56130639727E+03  0.10100000352E+00 0. -1.
</event>
<event>
 5   0  0.1617721E-02  0.8882085E+03  0.7818609E-02  0.9440443E-01
       -2   -1    0    0    0  501  0.00000000000E+00  0.00000000000E+00  0.24923525122E+03  0.24923525123E+03  0.25500000920E-02 0.  1.
        2   -1    0    0  501    0  0.00000000000E+00  0.00000000000E+00 -0.79133505988E+03  0.79133505989E+03  0.25500000920E-02 0. -1.
    10030    2    1    2    0    0  0.00000000000E+00  0.00000000000E+00 -0.54209980866E+03  0.10405703111E+04  0.88820851709E+03 0.  0.
        5    1    3    3  502    0 -0.10738657736E+03 -0.40266758487E+03 -0.91328741822E+02  0.42665687617E+03  0.46999998093E+01 0.  1.
       -5    1    3    3    0  502  0.10738657736E+03  0.40266758487E+03 -0.45077106684E+03  0.61391343495E+03  0.46999998093E+01 0. -1.
</event>
<event>
 5   0  0.1571895E-02  0.1013173E+04  0.7818609E-02  0.9294214E-01
       -2   -1    0    0    0  501  0.00000000000E+00  0.00000000000E+00  0.19485078123E+03  0.19485078124E+03  0.25500000920E-02 0. -1.
        2   -1    0    0  501    0  0.00000000000E+00  0.00000000000E+00 -0.13170587276E+04  0.13170587276E+04  0.25500000920E-02 0.  1.
    10030    2    1    2    0    0  0.00000000000E+00  0.00000000000E+00 -0.11222079464E+04  0.15119095088E+04  0.10131730790E+04 0.  0.
        2    1    3    3  502    0 -0.36395693409E+03  0.16034245442E+03 -0.10293372777E+04  0.11034987919E+04  0.25500000920E-02 0.  1.
       -2    1    3    3    0  502  0.36395693409E+03 -0.16034245442E+03 -0.92870668664E+02  0.40841071689E+03  0.25500000920E-02 0. -1.
</event>
<event>
 5   0  0.1617721E-02  0.1004520E+04  0.7818609E-02  0.9303601E-01
        2   -1    0    0  501    0  0.00000000000E+00  0.00000000000E+00  0.78467675059E+03  0.78467675059E+03  0.25500000920E-02 0. -1.
       -2   -1    0    0    0  501  0.00000000000E+00  0.00000000000E+00 -0.32148910096E+03  0.32148910097E+03  0.25500000920E-02 0.  1.
    10030    2    1    2    0    0  0.00000000000E+00  0.00000000000E+00  0.46318764962E+03  0.11061658516E+04  0.10045198318E+04 0.  0.
        5    1    3    3  502    0  0.23952541540E+02  0.91162328652E+02 -0.31163788849E+03  0.32561412431E+03  0.46999998093E+01 0.  1.
       -5    1    3    3    0  502 -0.23952541540E+02 -0.91162328652E+02  0.77482553811E+03  0.78055172725E+03  0.46999998093E+01 0. -1.
</event>
<event>
 5   0  0.1571895E-02  0.9874952E+03  0.7818609E-02  0.9322367E-01
        2   -1    0    0  501    0  0.00000000000E+00  0.00000000000E+00  0.11053192291E+04  0.11053192291E+04  0.25500000920E-02 0. -1.
       -2   -1    0    0    0  501  0.00000000000E+00  0.00000000000E+00 -0.22055771365E+03  0.22055771367E+03  0.25500000920E-02 0.  1.
    10030    2    1    2    0    0  0.00000000000E+00  0.00000000000E+00  0.88476151545E+03  0.13258769428E+04  0.98749517880E+03 0.  0.
        2    1    3    3  502    0  0.24150060692E+03 -0.29189710691E+03  0.17240182068E+02  0.37924093667E+03  0.25500000920E-02 0.  1.
       -2    1    3    3    0  502 -0.24150060692E+03  0.29189710691E+03  0.86752133338E+03  0.94663600610E+03  0.25500000920E-02 0. -1.
</event>
<event>
 5   0  0.1656859E-02  0.1006149E+04  0.7818609E-02  0.9301827E-01
       -2   -1    0    0    0  501  0.00000000000E+00  0.00000000000E+00  0.37218972870E+03  0.37218972871E+03  0.25500000920E-02 0.  1.
        2   -1    0    0  501    0  0.00000000000E+00  0.00000000000E+00 -0.67998612620E+03  0.67998612620E+03  0.25500000920E-02 0. -1.
    10030    2    1    2    0    0  0.00000000000E+00  0.00000000000E+00 -0.30779639750E+03  0.10521758549E+04  0.10061487998E+04 0.  0.
        4    1    3    3  502    0 -0.23740259500E+03 -0.42230131085E+03 -0.12108608299E+02  0.48460976110E+03  0.12699999809E+01 0.  1.
       -4    1    3    3    0  502  0.23740259500E+03  0.42230131085E+03 -0.29568778920E+03  0.56756609381E+03  0.12699999809E+01 0. -1.
</event>
<event>
 5   0  0.1663497E-02  0.1020364E+04  0.7818609E-02  0.9286488E-01
        2   -1    0    0  501    0  0.00000000000E+00  0.00000000000E+00  0.10067936948E+04  0.10067936949E+04  0.25500000920E-02 0.  1.
       -2   -1    0    0    0  501  0.00000000000E+00  0.00000000000E+00 -0.25852918898E+03  0.25852918899E+03  0.25500000920E-02 0. -1.
    10030    2    1    2    0    0  0.00000000000E+00  0.00000000000E+00  0.74826450587E+03  0.12653228838E+04  0.10203637732E+04 0.  0.
        1    1    3    3  502    0  0.50221688646E+03  0.75370017133E+02  0.31359551712E+03  0.59686228639E+03  0.50400001928E-02 0.  1.
       -1    1    3    3    0  502 -0.50221688646E+03 -0.75370017133E+02  0.43466898875E+03  0.66846059745E+03  0.50400001928E-02 0. -1.
</event>
<event>
 5   0  0.9507815E-03  0.9053617E+03  0.7818609E-02  0.9418904E-01
       -1   -1    0    0    0  501  0.00000000000E+00  0.00000000000E+00  0.32913354870E+03  0.32913354874E+03  0.50400001928E-02 0. -1.
        1   -1    0    0  501    0  0.00000000000E+00  0.00000000000E+00 -0.62260427912E+03  0.62260427914E+03  0.50400001928E-02 0.  1.
    10030    2    1    2    0    0  0.00000000000E+00  0.00000000000E+00 -0.29347073042E+03  0.95173782788E+03  0.90536170861E+03 0.  0.
        1    1    3    3  502    0 -0.46407755886E+02  0.31468326487E+02 -0.61893971667E+03  0.62147430218E+03  0.50400001928E-02 0.  1.
       -1    1    3    3    0  502  0.46407755886E+02 -0.31468326487E+02  0.32546898624E+03  0.33026352570E+03  0.50400001928E-02 0. -1.
</event>
<event>
 5   0  0.9396660E-03  0.1032377E+04  0.7818609E-02  0.9273730E-01
       -1   -1    0    0    0  501  0.00000000000E+00  0.00000000000E+00  0.69319990008E+03  0.69319990009E+03  0.50400001928E-02 0.  1.
        1   -1    0    0  501    0  0.00000000000E+00  0.00000000000E+00 -0.38437793130E+03  0.38437793133E+03  0.50400001928E-02 0. -1.
    10030    2    1    2    0    0  0.00000000000E+00  0.00000000000E+00  0.30882196878E+03  0.10775778314E+04  0.10323773411E+04 0.  0.
        5    1    3    3  502    0  0.47261641434E+02  0.42085695152E+03  0.46241435732E+03  0.62705929883E+03  0.46999998093E+01 0.  1.
       -5    1    3    3    0  502 -0.47261641434E+02 -0.42085695152E+03 -0.15359238854E+03  0.45051853260E+03  0.46999998093E+01 0. -1.
</event>
<event>
 5   0  0.9759443E-03  0.9780275E+03  0.7818609E-02  0.9332978E-01
        1   -1    0    0  501    0  0.00000000000E+00  0.00000000000E+00  0.80233853712E+03  0.80233853714E+03  0.50400001928E-02 0.  1.
       -1   -1    0    0    0  501  0.00000000000E+00  0.00000000000E+00 -0.29804678798E+03  0.29804678802E+03  0.50400001928E-02 0. -1.
    10030    2    1    2    0    0  0.00000000000E+00  0.00000000000E+00  0.50429174914E+03  0.11003853252E+04  0.97802745134E+03 0.  0.
        2    1    3    3  502    0  0.37252548610E+03  0.19109174407E+03  0.53642883899E+03  0.68047570989E+03  0.25500000920E-02 0.  1.
       -2    1    3    3    0  502 -0.37252548610E+03 -0.19109174407E+03 -0.32137089845E+02  0.41990961527E+03  0.25500000920E-02 0. -1.
</event>
<event>
 5   0  0.9396660E-03  0.9816314E+03  0.7818609E-02  0.9328924E-01
       -1   -1    0    0    0  501  0.00000000000E+00  0.00000000000E+00  0.38957462702E+03  0.38957462705E+03  0.50400001928E-02 0.  1.
        1   -1    0    0  501    0  0.00000000000E+00  0.00000000000E+00 -0.61836689417E+03  0.61836689419E+03  0.50400001928E-02 0. -1.
    10030    2    1    2    0    0  0.00000000000E+00  0.00000000000E+00 -0.22879226715E+03  0.10079415212E+04  0.98163140167E+03 0.  0.
        5    1    3    3  502    0 -0.39521988226E+03  0.15020040428E+03  0.14152095116E+03  0.44588023772E+03  0.46999998093E+01 0.  1.
       -5    1    3    3    0  502  0.39521988226E+03 -0.15020040428E+03 -0.37031321831E+03  0.56206128352E+03  0.46999998093E+01 0. -1.
</event>
<event>
 5   0  0.1663497E-02  0.1047681E+04  0.7818609E-02  0.9257741E-01
        2   -1    0    0  501    0  0.00000000000E+00  0.00000000000E+00  0.67748980234E+03  0.67748980235E+03  0.25500000920E-02 0. -1.
       -2   -1    0    0    0  501  0.00000000000E+00  0.00000000000E+00 -0.40503800467E+03  0.40503800468E+03  0.25500000920E-02 0.  1.
    10030    2    1    2    0    0  0.00000000000E+00  0.00000000000E+00  0.27245179767E+03  0.10825278070E+04  0.10476814740E+04 0.  0.
        1    1    3    3  502    0  0.25437122388E+03 -0.29198480969E+03 -0.22828118403E+03  0.44952435711E+03  0.50400001928E-02 0.  1.
       -1    1    3    3    0  502 -0.25437122388E+03  0.29198480969E+03  0.50073298170E+03  0.63300344992E+03  0.50400001928E-02 0. -1.
</event>
<event>
 5   0  0.1656859E-02  0.9720044E+03  0.7818609E-02  0.9339794E-01
        2   -1    0    0  501    0  0.00000000000E+00  0.00000000000E+00  0.47263627099E+03  0.47263627100E+03  0.25500000920E-02 0.  1.
       -2   -1    0    0    0  501  0.00000000000E+00  0.00000000000E+00 -0.49974608991E+03  0.49974608991E+03  0.25500000920E-02 0. -1.
    10030    2    1    2    0    0  0.00000000000E+00  0.00000000000E+00 -0.27109818918E+02  0.97238236091E+03  0.97200437938E+03 0.  0.
        4    1    3    3  502    0 -0.30813053555E+03 -0.89350758730E+02  0.35164667649E+03  0.47600943584E+03  0.12699999809E+01 0.  1.
       -4    1    3    3    0  502  0.30813053555E+03  0.89350758730E+02 -0.37875649541E+03  0.49637292507E+03  0.12699999809E+01 0. -1.
</event>
<event>
 5   0  0.9471140E-03  0.1003597E+04  0.7818609E-02  0.9304608E-01
       -1   -1    0    0    0  501  0.00000000000E+00  0.00000000000E+00  0.35940871979E+03  0.35940871983E+03  0.50400001928E-02 0.  1.
        1   -1    0    0  501    0  0.00000000000E+00  0.00000000000E+00 -0.70060033414E+03  0.70060033416E+03  0.50400001928E-02 0. -1.
    10030    2    1    2    0    0  0.00000000000E+00  0.00000000000E+00 -0.34119161435E+03  0.10600090540E+04  0.10035972682E+04 0.  0.
        4    1    3    3  502    0 -0.42859744329E+03  0.26026449861E+03 -0.15036508722E+03  0.52349274110E+03  0.12699999809E+01 0.  1.
       -4    1    3    3    0  502  0.42859744329E+03 -0.26026449861E+03 -0.19082652713E+03  0.53651631288E+03  0.12699999809E+01 0. -1.
</event>
<event>
 5   0  0.9759443E-03  0.9081376E+03  0.7818609E-02  0.9415466E-01
        1   -1    0    0  501    0  0.00000000000E+00  0.00000000000E+00  0.10707270375E+04  0.10707270375E+04  0.50400001928E-02 0.  1.
       -1   -1    0    0    0  501  0.00000000000E+00  0.00000000000E+00 -0.19255931161E+03  0.19255931168E+03  0.50400001928E-02 0. -1.
    10030    2    1    2    0    0  0.00000000000E+00  0.00000000000E+00  0.87816772588E+03  0.12632863492E+04  0.90813756957E+03 0.  0.
        2    1    3    3  502    0 -0.39056321710E+03  0.19396535531E+03  0.61513179517E+03  0.75402208923E+03  0.25500000920E-02 0. -1.
       -2    1    3    3    0  502  0.39056321710E+03 -0.19396535531E+03  0.26303593072E+03  0.50926425996E+03  0.25500000920E-02 0.  1.
</event>
<event>
 5   0  0.9759443E-03  0.7134403E+03  0.7818609E-02  0.9694520E-01
       -1   -1    0    0    0  501  0.00000000000E+00  0.00000000000E+00  0.18843293973E+03  0.18843293980E+03  0.50400001928E-02 0.  1.
        1   -1    0    0  501    0  0.00000000000E+00  0.00000000000E+00 -0.67530272784E+03  0.67530272786E+03  0.50400001928E-02 0. -1.
    10030    2    1    2    0    0  0.00000000000E+00  0.00000000000E+00 -0.48686978811E+03  0.86373566766E+03  0.71344033598E+03 0.  0.
        2    1    3    3  502    0  0.15622891609E+03 -0.29852030105E+03 -0.38528114928E+03  0.51182361059E+03  0.25500000920E-02 0. -1.
       -2    1    3    3    0  502 -0.15622891609E+03  0.29852030105E+03 -0.10158863883E+03  0.35191205706E+03  0.25500000920E-02 0.  1.
</event>
<event>
 5   0  0.1571895E-02  0.9977282E+03  0.7818609E-02  0.9311040E-01
        2   -1    0    0  501    0  0.00000000000E+00  0.00000000000E+00  0.40155351747E+03  0.40155351747E+03  0.25500000920E-02 0.  1.
       -2   -1    0    0    0  501  0.00000000000E+00  0.00000000000E+00 -0.61975651411E+03  0.61975651411E+03  0.25500000920E-02 0. -1.
    10030    2    1    2    0    0  0.00000000000E+00  0.00000000000E+00 -0.21820299664E+03  0.10213100316E+04  0.99772823598E+03 0.  0.
        2    1    3    3  502    0 -0.48820089350E+03 -0.10096943408E+03 -0.12770997474E+03  0.51463071875E+03  0.25500000920E-02 0.  1.
       -2    1    3    3    0  502  0.48820089350E+03  0.10096943408E+03 -0.90493021905E+02  0.50667931283E+03  0.25500000920E-02 0. -1.
</event>
<event>
 5   0  0.9507815E-03  0.1002332E+04  0.7818609E-02  0.9305991E-01
       -1   -1    0    0    0  501  0.00000000000E+00  0.00000000000E+00  0.26308914724E+03  0.26308914728E+03  0.50400001928E-02 0. -1.
        1   -1    0    0  501    0  0.00000000000E+00  0.00000000000E+00 -0.95468484338E+03  0.95468484339E+03  0.50400001928E-02 0.  1.
    10030    2    1    2    0    0  0.00000000000E+00  0.00000000000E+00 -0.69159569614E+03  0.12177739907E+04  0.10023317243E+04 0.  0.
        1    1    3    3  502    0  0.16488583066E+03  0.28645436508E+03  0.11190414559E+03  0.34894982197E+03  0.50400001928E-02 0. -1.
       -1    1    3    3    0  502 -0.16488583066E+03 -0.28645436508E+03 -0.80349984173E+03  0.86882416870E+03  0.50400001928E-02 0.  1.
</event>
<event>
 5   0  0.9759443E-03  0.1005935E+04  0.7818609E-02  0.9302060E-01
        1   -1    0    0  501    0  0.00000000000E+00  0.00000000000E+00  0.97554239813E+03  0.97554239814E+03  0.50400001928E-02 0.  1.
       -1   -1    0    0    0  501  0.00000000000E+00  0.00000000000E+00 -0.25931847178E+03  0.25931847183E+03  0.50400001928E-02 0. -1.
    10030    2    1    2    0    0  0.00000000000E+00  0.00000000000E+00  0.71622392635E+03  0.12348608700E+04  0.10059347173E+04 0.  0.
        2    1    3    3  502    0  0.88683472085E+02  0.20250415146E+02 -0.24913645709E+03  0.26522407846E+03  0.25500000920E-02 0. -1.
       -2    1    3    3    0  502 -0.88683472085E+02 -0.20250415146E+02  0.96536038344E+03  0.96963679152E+03  0.25500000920E-02 0.  1.
</event>
<event>
 5   0  0.1000773E-02  0.9820075E+03  0.7818609E-02  0.9328502E-01
        1   -1    0    0  501    0  0.00000000000E+00  0.00000000000E+00  0.94434751753E+03  0.94434751754E+03  0.50400001928E-02 0.  1.
       -1   -1    0    0    0  501  0.00000000000E+00  0.00000000000E+00 -0.25529232875E+03  0.25529232880E+03  0.50400001928E-02 0. -1.
    10030    2    1    2    0    0  0.00000000000E+00  0.00000000000E+00  0.68905518878E+03  0.11996398463E+04  0.98200748864E+03 0.  0.
        3    1    3    3  502    0  0.37469365176E+03 -0.29279666071E+03  0.19511270094E+03  0.51399824267E+03  0.10100000352E+00 0. -1.
       -3    1    3    3    0  502 -0.37469365176E+03  0.29279666071E+03  0.49394248784E+03  0.68564160367E+03  0.10100000352E+00 0.  1.
</event>
<event>
 5   0  0.9471140E-03  0.1005502E+04  0.7818609E-02  0.9302530E-01
        1   -1    0    0  501    0  0.00000000000E+00  0.00000000000E+00  0.10955694700E+04  0.10955694700E+04  0.50400001928E-02 0. -1.
       -1   -1    0    0    0  501  0.00000000000E+00  0.00000000000E+00 -0.23070995647E+03  0.23070995652E+03  0.50400001928E-02 0.  1.
    10030    2    1    2    0    0  0.00000000000E+00  0.00000000000E+00  0.86485951357E+03  0.13262794266E+04  0.10055024312E+04 0.  0.
        4    1    3    3  502    0 -0.46324874628E+03 -0.18996849781E+03  0.37242165513E+03  0.62400876051E+03  0.12699999809E+01 0. -1.
       -4    1    3    3    0  502  0.46324874628E+03  0.18996849781E+03  0.49243785844E+03  0.70227066606E+03  0.12699999809E+01 0.  1.
</event>
<event>
 5   0  0.1656859E-02  0.9213079E+03  0.7818609E-02  0.9399331E-01
        2   -1    0    0  501    0  0.00000000000E+00  0.00000000000E+00  0.32679671201E+03  0.32679671202E+03  0.25500000920E-02 0.  1.
       -2   -1    0    0    0  501  0.00000000000E+00  0.00000000000E+00 -0.64933971315E+03  0.64933971315E+03  0.25500000920E-02 0. -1.
    10030    2    1    2    0    0  0.00000000000E+00  0.00000000000E+00 -0.32254300114E+03  0.97613642517E+03  0.92130794687E+03 0.  0.
        4    1    3    3  502    0 -0.10043880453E+03 -0.44724356057E+03 -0.11288400737E+03  0.47207962034E+03  0.12699999809E+01 0.  1.
       -4    1    3    3    0  502  0.10043880453E+03  0.44724356057E+03 -0.20965899377E+03  0.50405680483E+03  0.12699999809E+01 0. -1.
</event>
<event>
 5   0  0.1571895E-02  0.9647933E+03  0.7818609E-02  0.9348025E-01
       -2   -1    0    0    0  501  0.00000000000E+00  0.00000000000E+00  0.51756449135E+03  0.51756449136E+03  0.25500000920E-02 0. -1.
        2   -1    0    0  501    0  0.00000000000E+00  0.00000000000E+00 -0.44961837910E+03  0.44961837911E+03  0.25500000920E-02 0.  1.
    10030    2    1    2    0    0  0.00000000000E+00  0.00000000000E+00  0.67946112251E+02  0.96718287047E+03  0.96479325804E+03 0.  0.
        2    1    3    3  502    0 -0.19630011667E+03  0.83149026775E+02 -0.39983308845E+03  0.45311587379E+03  0.25500000920E-02 0.  1.
       -2    1    3    3    0  502  0.19630011667E+03 -0.83149026775E+02  0.46777920070E+03  0.51406699667E+03  0.25500000920E-02 0. -1.
</event>
<event>
 5   0  0.1617721E-02  0.9938535E+03  0.7818609E-02  0.9315312E-01
        2   -1    0    0  501    0  0.00000000000E+00  0.00000000000E+00  0.56314459238E+03  0.56314459238E+03  0.25500000920E-02 0. -1.
       -2   -1    0    0    0  501  0.00000000000E+00  0.00000000000E+00 -0.43849521148E+03  0.43849521149E+03  0.25500000920E-02 0.  1.
    10030    2    1    2    0    0  0.00000000000E+00  0.00000000000E+00  0.12464938090E+03  0.10016398039E+04  0.99385352469E+03 0.  0.
        5    1    3    3  502    0  0.21541780038E+03  0.12749350399E+03  0.49493660239E+03  0.55465642758E+03  0.46999998093E+01 0. -1.
       -5    1    3    3    0  502 -0.21541780038E+03 -0.12749350399E+03 -0.37028722149E+03  0.44698337629E+03  0.46999998093E+01 0.  1.
</event>
<event>
 5   0  0.1598986E-02  0.1038332E+04  0.7818609E-02  0.9267474E-01
       -2   -1    0    0    0  501  0.00000000000E+00  0.00000000000E+00  0.18369686379E+03  0.18369686381E+03  0.25500000920E-02 0.  1.
        2   -1    0    0  501    0  0.00000000000E+00  0.00000000000E+00 -0.14672736241E+04  0.14672736241E+04  0.25500000920E-02 0. -1.
    10030    2    1    2    0    0  0.00000000000E+00  0.00000000000E+00 -0.12835767603E+04  0.16509704879E+04  0.10383324383E+04 0.  0.
        3    1    3    3  502    0 -0.16804549189E+03  0.35305310177E+03 -0.98736759866E+02  0.40327997466E+03  0.10100000352E+00 0.  1.
       -3    1    3    3    0  502  0.16804549189E+03 -0.35305310177E+03 -0.11848400004E+04  0.12476905132E+04  0.10100000352E+00 0. -1.
</event>
<event>
 5   0  0.1663497E-02  0.1018213E+04  0.7818609E-02  0.9288792E-01
       -2   -1    0    0    0  501  0.00000000000E+00  0.00000000000E+00  0.26719814746E+03  0.26719814747E+03  0.25500000920E-02 0.  1.
        2   -1    0    0  501    0  0.00000000000E+00  0.00000000000E+00 -0.97002646101E+03  0.97002646101E+03  0.25500000920E-02 0. -1.
    10030    2    1    2    0    0  0.00000000000E+00  0.00000000000E+00 -0.70282831355E+03  0.12372246085E+04  0.10182126956E+04 0.  0.
        1    1    3    3  502    0  0.19968060512E+02 -0.47937557113E+03 -0.55830022259E+03  0.73613775899E+03  0.50400001928E-02 0.  1.
       -1    1    3    3    0  502 -0.19968060512E+02  0.47937557113E+03 -0.14452809096E+03  0.50108684950E+03  0.50400001928E-02 0. -1.
</event>
<event>
 5   0  0.1000773E-02  0.8165412E+03  0.7818609E-02  0.9536378E-01
        1   -1    0    0  501    0  0.00000000000E+00  0.00000000000E+00  0.14899913845E+03  0.14899913854E+03  0.50400001928E-02 0.  1.
       -1   -1    0    0    0  501  0.00000000000E+00  0.00000000000E+00 -0.11186969841E+04  0.11186969841E+04  0.50400001928E-02 0. -1.
    10030    2    1    2    0    0  0.00000000000E+00  0.00000000000E+00 -0.96969784566E+03  0.12676961227E+04  0.81654120995E+03 0.  0.
        3    1    3    3  502    0  0.12033701302E+03 -0.13539681777E+03  0.83194128136E+02  0.19933531580E+03  0.10100000352E+00 0.  1.
       -3    1    3    3    0  502 -0.12033701302E+03  0.13539681777E+03 -0.10528919738E+04  0.10683608069E+04  0.10100000352E+00 0. -1.
</event>
<event>
 5   0  0.1000773E-02  0.1010815E+04  0.7818609E-02  0.9296762E-01
        1   -1    0    0  501    0  0.00000000000E+00  0.00000000000E+00  0.58151517813E+03  0.58151517815E+03  0.50400001928E-02 0. -1.
       -1   -1    0    0    0  501  0.00000000000E+00  0.00000000000E+00 -0.43926046521E+03  0.43926046524E+03  0.50400001928E-02 0.  1.
    10030    2    1    2    0    0  0.00000000000E+00  0.00000000000E+00  0.14225471292E+03  0.10207756434E+04  0.10108147757E+04 0.  0.
        3    1    3    3  502    0  0.11398740730E+02 -0.24250040009E+03  0.51877908126E+03  0.57277231139E+03  0.10100000352E+00 0. -1.
       -3    1    3    3    0  502 -0.11398740730E+02  0.24250040009E+03 -0.37652436834E+03  0.44800333201E+03  0.10100000352E+00 0.  1.
</event>
<event>
 5   0  0.1617721E-02  0.7874634E+03  0.7818609E-02  0.9578343E-01
       -2   -1    0    0    0  501  0.00000000000E+00  0.00000000000E+00  0.31745131796E+03  0.31745131797E+03  0.25500000920E-02 0.  1.
        2   -1    0    0  501    0  0.00000000000E+00  0.00000000000E+00 -0.48834154024E+03  0.48834154025E+03  0.25500000920E-02 0. -1.
    10030    2    1    2    0    0  0.00000000000E+00  0.00000000000E+00 -0.17089022228E+03  0.80579285822E+03  0.78746343553E+03 0.  0.
        5    1    3    3  502    0  0.11894681921E+03  0.14055821049E+03 -0.44153596514E+03  0.47841514905E+03  0.46999998093E+01 0. -1.
       -5    1    3    3    0  502 -0.11894681921E+03 -0.14055821049E+03  0.27064574286E+03  0.32737770917E+03  0.46999998093E+01 0.  1.
</event>
<event>
 5   0  0.9471140E-03  0.9954228E+03  0.7818609E-02  0.9313579E-01
        1   -1    0    0  501    0  0.00000000000E+00  0.00000000000E+00  0.13751508807E+04  0.13751508807E+04  0.50400001928E-02 0.  1.
       -1   -1    0    0    0  501  0.00000000000E+00  0.00000000000E+00 -0.18013780099E+03  0.18013780106E+03  0.50400001928E-02 0. -1.
    10030    2    1    2    0    0  0.00000000000E+00  0.00000000000E+00  0.11950130797E+04  0.15552886818E+04  0.99542283627E+03 0.  0.
        4    1    3    3  502    0 -0.19807810900E+03  0.34137206318E+02  0.13089141718E+04  0.13242576064E+04  0.12699999809E+01 0.  1.
       -4    1    3    3    0  502  0.19807810900E+03 -0.34137206318E+02 -0.11390109206E+03  0.23103107538E+03  0.12699999809E+01 0. -1.
</event>
<event>
 5   0  0.1663497E-02  0.9788536E+03  0.7818609E-02  0.9332047E-01
        2   -1    0    0  501    0  0.00000000000E+00  0.00000000000E+00  0.14059719041E+04  0.14059719041E+04  0.25500000920E-02 0. -1.
       -2   -1    0    0    0  501  0.00000000000E+00  0.00000000000E+00 -0.17037225268E+03  0.17037225270E+03  0.25500000920E-02 0.  1.
    10030    2    1    2    0    0  0.00000000000E+00  0.00000000000E+00  0.12355996514E+04  0.15763441568E+04  0.97885361626E+03 0.  0.
        1    1    3    3  502    0 -0.45469020611E+02  0.48335500132E+03  0.71758100812E+03  0.86638443683E+03  0.50400001928E-02 0. -1.
       -1    1    3    3    0  502  0.45469020611E+02 -0.48335500132E+03  0.51801864328E+03  0.70995971995E+03  0.50400001928E-02 0.  1.
</event>
<event>
 5   0  0.1598986E-02  0.9414693E+03  0.7818609E-02  0.9375178E-01
        2   -1    0    0  501    0  0.00000000000E+00  0.00000000000E+00  0.10168087684E+04  0.10168087684E+04  0.25500000920E-02 0.  1.
       -2   -1    0    0    0  501  0.00000000000E+00  0.00000000000E+00 -0.21792802149E+03  0.21792802150E+03  0.25500000920E-02 0. -1.
    10030    2    1    2    0    0  0.00000000000E+00  0.00000000000E+00  0.79888074688E+03  0.12347367899E+04  0.94146932639E+03 0.  0.
        3    1    3    3  502    0 -0.25062093494E+03 -0.24479693669E+02  0.92104973587E+03  0.95485220562E+03  0.10100000352E+00 0.  1.
       -3    1    3    3    0  502  0.25062093494E+03  0.24479693669E+02 -0.12216898899E+03  0.27988458426E+03  0.10100000352E+00 0. -1.
</event>
<event>
 5   0  0.9507815E-03  0.1053047E+04  0.7818609E-02  0.9252204E-01
        1   -1    0    0  501    0  0.00000000000E+00  0.00000000000E+00  0.48321789645E+03  0.48321789647E+03  0.50400001928E-02 0. -1.
       -1   -1    0    0    0  501  0.00000000000E+00  0.00000000000E+00 -0.57370979030E+03  0.57370979032E+03  0.50400001928E-02 0.  1.
    10030    2    1    2    0    0  0.00000000000E+00  0.00000000000E+00 -0.90491893850E+02  0.10569276868E+04  0.10530466999E+04 0.  0.
        1    1    3    3  502    0 -0.46929387198E+03  0.23531144028E+03 -0.85626371154E+02  0.53192112918E+03  0.50400001928E-02 0.  1.
       -1    1    3    3    0  502  0.46929387198E+03 -0.23531144028E+03 -0.48655226966E+01  0.52500655761E+03  0.50400001928E-02 0. -1.
</event>
<event>
 5   0  0.1598986E-02  0.1037658E+04  0.7818609E-02  0.9268180E-01
       -2   -1    0    0    0  501  0.00000000000E+00  0.00000000000E+00  0.28229922826E+03  0.28229922827E+03  0.25500000920E-02 0.  1.
        2   -1    0    0  501    0  0.00000000000E+00  0.00000000000E+00 -0.95353984764E+03  0.95353984764E+03  0.25500000920E-02 0. -1.
    10030    2    1    2    0    0  0.00000000000E+00  0.00000000000E+00 -0.67124061938E+03  0.12358390759E+04  0.10376580614E+04 0.  0.
        3    1    3    3  502    0 -0.32536673398E+02 -0.50957319981E+03 -0.44516584548E+03  0.67741871931E+03  0.10100000352E+00 0.  1.
       -3    1    3    3    0  502  0.32536673398E+02  0.50957319981E+03 -0.22607477389E+03  0.55842035661E+03  0.10100000352E+00 0. -1.
</event>
<event>
 5   0  0.1663497E-02  0.1017564E+04  0.7818609E-02  0.9289488E-01
       -2   -1    0    0    0  501  0.00000000000E+00  0.00000000000E+00  0.57618384769E+03  0.57618384770E+03  0.25500000920E-02 0.  1.
        2   -1    0    0  501    0  0.00000000000E+00  0.00000000000E+00 -0.44926477417E+03  0.44926477418E+03  0.25500000920E-02 0. -1.
    10030    2    1    2    0    0  0.00000000000E+00  0.00000000000E+00  0.12691907352E+03  0.10254486219E+04  0.10175639660E+04 0.  0.
        1    1    3    3  502    0 -0.72799265156E+02 -0.21898863354E+03 -0.39348898991E+03  0.45616810479E+03  0.50400001928E-02 0. -1.
       -1    1    3    3    0  502  0.72799265156E+02  0.21898863354E+03  0.52040806343E+03  0.56928051708E+03  0.50400001928E-02 0.  1.
</event>
<event>
 5   0  0.9759443E-03  0.1000787E+04  0.7818609E-02  0.9307682E-01
       -1   -1    0    0    0  501  0.00000000000E+00  0.00000000000E+00  0.17824294973E+03  0.17824294980E+03  0.50400001928E-02 0.  1.
        1   -1    0    0  501    0  0.00000000000E+00  0.00000000000E+00 -0.14047891436E+04  0.14047891436E+04  0.50400001928E-02 0. -1.
    10030    2    1    2    0    0  0.00000000000E+00  0.00000000000E+00 -0.12265461939E+04  0.15830320934E+04  0.10007872117E+04 0.  0.
        2    1    3    3  502    0 -0.94421550814E+02 -0.34988144442E+03 -0.11590727987E+04  0.12144061130E+04  0.25500000920E-02 0. -1.
       -2    1    3    3    0  502  0.94421550814E+02  0.34988144442E+03 -0.67473395136E+02  0.36862598045E+03  0.25500000920E-02 0.  1.
</event>
<event>
 5   0  0.1656859E-02  0.9920746E+03  0.7818609E-02  0.9317280E-01
        2   -1    0    0  501    0  0.00000000000E+00  0.00000000000E+00  0.94906846000E+03  0.94906846000E+03  0.25500000920E-02 0. -1.
       -2   -1    0    0    0  501  0.00000000000E+00  0.00000000000E+00 -0.25925736493E+03  0.25925736494E+03  0.25500000920E-02 0.  1.
    10030    2    1    2    0    0  0.00000000000E+00  0.00000000000E+00  0.68981109507E+03  0.12083258249E+04  0.99207456994E+03 0.  0.
        4    1    3    3  502    0 -0.20844427364E+02 -0.34703402300E+03 -0.86032286014E+02  0.35814839161E+03  0.12699999809E+01 0.  1.
       -4    1    3    3    0  502  0.20844427364E+02  0.34703402300E+03  0.77584338108E+03  0.85017743333E+03  0.12699999809E+01 0. -1.
</event>
<event>
 5   0  0.1571895E-02  0.1015557E+04  0.7818609E-02  0.9291644E-01
        2   -1    0    0  501    0  0.00000000000E+00  0.00000000000E+00  0.54642509577E+03  0.54642509578E+03  0.25500000920E-02 0. -1.
       -2   -1    0    0    0  501  0.00000000000E+00  0.00000000000E+00 -0.47186562905E+03  0.47186562906E+03  0.25500000920E-02 0.  1.
    10030    2    1    2    0    0  0.00000000000E+00  0.00000000000E+00  0.74559466718E+02  0.10182907248E+04  0.10155574263E+04 0.  0.
        2    1    3    3  502    0  0.15042524166E+03  0.45620774222E+03 -0.12774135662E+03  0.49706248258E+03  0.25500000920E-02 0.  1.
       -2    1    3    3    0  502 -0.15042524166E+03 -0.45620774222E+03  0.20230082334E+03  0.52122824225E+03  0.25500000920E-02 0. -1.
</event>
<event>
 5   0  0.1000773E-02  0.9921361E+03  0.7818609E-02  0.9317212E-01
       -1   -1    0    0    0  501  0.00000000000E+00  0.00000000000E+00  0.26815552434E+03  0.26815552439E+03  0.50400001928E-02 0.  1.
        1   -1    0    0  501    0  0.00000000000E+00  0.00000000000E+00 -0.91768948088E+03  0.91768948089E+03  0.50400001928E-02 0. -1.
    10030    2    1    2    0    0  0.00000000000E+00  0.00000000000E+00 -0.64953395654E+03  0.11858450053E+04  0.99213608737E+03 0.  0.
        3    1    3    3  502    0 -0.14029097433E+03 -0.18466539382E+02  0.24352225816E+03  0.28164813327E+03  0.10100000352E+00 0.  1.
       -3    1    3    3    0  502  0.14029097433E+03  0.18466539382E+02 -0.89305621469E+03  0.90419687201E+03  0.10100000352E+00 0. -1.
</event>
<event>
 5   0  0.9471140E-03  0.1016223E+04  0.7818609E-02  0.9290929E-01
        1   -1    0    0  501    0  0.00000000000E+00  0.00000000000E+00  0.62737458039E+03  0.62737458041E+03  0.50400001928E-02 0.  1.
       -1   -1    0    0    0  501  0.00000000000E+00  0.00000000000E+00 -0.41152001855E+03  0.41152001858E+03  0.50400001928E-02 0. -1.
    10030    2    1    2    0    0  0.00000000000E+00  0.00000000000E+00  0.21585456183E+03  0.10388945990E+04  0.10162228082E+04 0.  0.
        4    1    3    3  502    0 -0.19116134146E+03 -0.65315678102E+01  0.58916303909E+03  0.61943524228E+03  0.12699999809E+01 0.  1.
       -4    1    3    3    0  502  0.19116134146E+03  0.65315678102E+01 -0.37330847726E+03  0.41945935672E+03  0.12699999809E+01 0. -1.
</event>
<event>
 5   0  0.9396660E-03  0.1010730E+04  0.7818609E-02  0.9296854E-01
       -1   -1    0    0    0  501  0.00000000000E+00  0.00000000000E+00  0.79478796881E+03  0.79478796882E+03  0.50400001928E-02 0. -1.
        1   -1    0    0  501    0  0.00000000000E+00  0.00000000000E+00 -0.32133549208E+03  0.32133549212E+03  0.50400001928E-02 0.  1.
    10030    2    1    2    0    0  0.00000000000E+00  0.00000000000E+00  0.47345247672E+03  0.11161234609E+04  0.10107296040E+04 0.  0.
        5    1    3    3  502    0  0.46734983174E+03  0.18107115891E+03  0.30802567147E+03  0.58830649673E+03  0.46999998093E+01 0. -1.
       -5    1    3    3    0  502 -0.46734983174E+03 -0.18107115891E+03  0.16542680525E+03  0.52781696421E+03  0.46999998093E+01 0.  1.
</event>
<event>
 5   0  0.9471140E-03  0.9960687E+03  0.7818609E-02  0.9312867E-01
       -1   -1    0    0    0  501  0.00000000000E+00  0.00000000000E+00  0.28044774756E+03  0.28044774761E+03  0.50400001928E-02 0. -1.
        1   -1    0    0  501    0  0.00000000000E+00  0.00000000000E+00 -0.88443637484E+03  0.88443637486E+03  0.50400001928E-02 0.  1.
    10030    2    1    2    0    0  0.00000000000E+00  0.00000000000E+00 -0.60398862728E+03  0.11648841225E+04  0.99606865069E+03 0.  0.
        4    1    3    3  502    0  0.20724995606E+03  0.12705714319E+03 -0.81033632243E+03  0.84601573878E+03  0.12699999809E+01 0.  1.
       -4    1    3    3    0  502 -0.20724995606E+03 -0.12705714319E+03  0.20634769515E+03  0.31886838369E+03  0.12699999809E+01 0. -1.
</event>
<event>
 5   0  0.9507815E-03  0.9715023E+03  0.7818609E-02  0.9340365E-01
       -1   -1    0    0    0  501  0.00000000000E+00  0.00000000000E+00  0.27075845773E+03  0.27075845777E+03  0.50400001928E-02 0.  1.
        1   -1    0    0  501    0  0.00000000000E+00  0.00000000000E+00 -0.87145628474E+03  0.87145628476E+03  0.50400001928E-02 0. -1.
    10030    2    1    2    0    0  0.00000000000E+00  0.00000000000E+00 -0.60069782702E+03  0.11422147425E+04  0.97150225871E+03 0.  0.
        1    1    3    3  502    0 -0.80461275945E+02  0.40654459234E+03 -0.59825336860E+03  0.72777717439E+03  0.50400001928E-02 0. -1.
       -1    1    3    3    0  502  0.80461275945E+02 -0.40654459234E+03 -0.24444584129E+01  0.41443756814E+03  0.50400001928E-02 0.  1.
</event>
<event>
 5   0  0.1617721E-02  0.7435809E+03  0.7818609E-02  0.9645475E-01
        2   -1    0    0  501    0  0.00000000000E+00  0.00000000000E+00  0.24604999444E+03  0.24604999446E+03  0.25500000920E-02 0. -1.
       -2   -1    0    0    0  501  0.00000000000E+00  0.00000000000E+00 -0.56178877918E+03  0.56178877919E+03  0.25500000920E-02 0.  1.
    10030    2    1    2    0    0  0.00000000000E+00  0.00000000000E+00 -0.31573878474E+03  0.80783877364E+03  0.74358086582E+03 0.  0.
        5    1    3    3  502    0 -0.30620206612E+02  0.21834897495E+03  0.16731635445E+03  0.27682255034E+03  0.46999998093E+01 0. -1.
       -5    1    3    3    0  502  0.30620206612E+02 -0.21834897495E+03 -0.48305513919E+03  0.53101622330E+03  0.46999998093E+01 0.  1.
</event>
<event>
 5   0  0.9471140E-03  0.6315735E+03  0.7818609E-02  0.9841983E-01
       -1   -1    0    0    0  501  0.00000000000E+00  0.00000000000E+00  0.89036298283E+03  0.89036298284E+03  0.50400001928E-02 0.  1.
        1   -1    0    0  501    0  0.00000000000E+00  0.00000000000E+00 -0.11200069385E+03  0.11200069397E+03  0.50400001928E-02 0. -1.
    10030    2    1    2    0    0  0.00000000000E+00  0.00000000000E+00  0.77836228897E+03  0.10023636768E+04  0.63157350141E+03 0.  0.
        4    1    3    3  502    0 -0.21753316067E+03 -0.22511440353E+03  0.32331237244E+03  0.45003296962E+03  0.12699999809E+01 0. -1.
       -4    1    3    3    0  502  0.21753316067E+03  0.22511440353E+03  0.45504991653E+03  0.55233070719E+03  0.12699999809E+01 0.  1.
</event>
<event>
 5   0  0.6314750E-03  0.1024594E+04  0.7818609E-02  0.9281975E-01
        4   -1    0    0  501    0  0.00000000000E+00  0.00000000000E+00  0.84226419206E+03  0.84226514954E+03  0.12699999809E+01 0. -1.
       -4   -1    0    0    0  501  0.00000000000E+00  0.00000000000E+00 -0.31159581690E+03  0.31159840502E+03  0.12699999809E+01 0.  1.
    10030    2    1    2    0    0  0.00000000000E+00  0.00000000000E+00  0.53066837516E+03  0.11538635546E+04  0.10245936649E+04 0.  0.
        2    1    3    3  502    0 -0.73469965533E+02 -0.80197229500E+02  0.82911390937E+03  0.83621726015E+03  0.25500000920E-02 0. -1.
       -2    1    3    3    0  502  0.73469965533E+02  0.80197229500E+02 -0.29844553421E+03  0.31764629441E+03  0.25500000920E-02 0.  1.
</event>
<event>
 5   0  0.1598986E-02  0.9945114E+03  0.7818609E-02  0.9314585E-01
       -2   -1    0    0    0  501  0.00000000000E+00  0.00000000000E+00  0.23673829656E+03  0.23673829658E+03  0.25500000920E-02 0.  1.
        2   -1    0    0  501    0  0.00000000000E+00  0.00000000000E+00 -0.10444581942E+04  0.10444581942E+04  0.25500000920E-02 0. -1.
    10030    2    1    2    0    0  0.00000000000E+00  0.00000000000E+00 -0.80771989763E+03  0.12811964908E+04  0.99451144536E+03 0.  0.
        3    1    3    3  502    0 -0.10495004522E+03  0.48582969753E+03 -0.38482859473E+03  0.62860008313E+03  0.10100000352E+00 0. -1.
       -3    1    3    3    0  502  0.10495004522E+03 -0.48582969753E+03 -0.42289130291E+03  0.65259640765E+03  0.10100000352E+00 0.  1.
</event>
<event>
 5   0  0.1598986E-02  0.1008378E+04  0.7818609E-02  0.9299403E-01
       -2   -1    0    0    0  501  0.00000000000E+00  0.00000000000E+00  0.12744126534E+04  0.12744126534E+04  0.25500000920E-02 0. -1.
        2   -1    0    0  501    0  0.00000000000E+00  0.00000000000E+00 -0.19946975344E+03  0.19946975346E+03  0.25500000920E-02 0.  1.
    10030    2    1    2    0    0  0.00000000000E+00  0.00000000000E+00  0.10749429000E+04  0.14738824069E+04  0.10083784563E+04 0.  0.
        3    1    3    3  502    0 -0.27025425283E+03 -0.42124814416E+03  0.44833072659E+03  0.67192842680E+03  0.10100000352E+00 0. -1.
       -3    1    3    3    0  502  0.27025425283E+03  0.42124814416E+03  0.62661217339E+03  0.80195398008E+03  0.10100000352E+00 0.  1.
</event>
<event>
 5   0  0.9396660E-03  0.9834647E+03  0.7818609E-02  0.9326869E-01
        1   -1    0    0  501    0  0.00000000000E+00  0.00000000000E+00  0.60911413686E+03  0.60911413688E+03  0.50400001928E-02 0. -1.
       -1   -1    0    0    0  501  0.00000000000E+00  0.00000000000E+00 -0.39697105734E+03  0.39697105737E+03  0.50400001928E-02 0.  1.
    10030    2    1    2    0    0  0.00000000000E+00  0.00000000000E+00  0.21214307952E+03  0.10060851943E+04  0.98346465717E+03 0.  0.
        5    1    3    3  502    0  0.46359223070E+03 -0.59161047805E+02 -0.50286393619E+02  0.47007297022E+03  0.46999998093E+01 0.  1.
       -5    1    3    3    0  502 -0.46359223070E+03  0.59161047805E+02  0.26242947314E+03  0.53601222403E+03  0.46999998093E+01 0. -1.
</event>
<event>
 5   0  0.1617721E-02  0.8782361E+03  0.7818609E-02  0.9453204E-01
        2   -1    0    0  501    0  0.00000000000E+00  0.00000000000E+00  0.16257668068E+04  0.16257668068E+04  0.25500000920E-02 0.  1.
       -2   -1    0    0    0  501  0.00000000000E+00  0.00000000000E+00 -0.11860537450E+03  0.11860537453E+03  0.25500000920E-02 0. -1.
    10030    2    1    2    0    0  0.00000000000E+00  0.00000000000E+00  0.15071614323E+04  0.17443721814E+04  0.87823614364E+03 0.  0.
        5    1    3    3  502    0 -0.43370094450E+03 -0.67573089058E+02  0.77707860476E+03  0.89248858794E+03  0.46999998093E+01 0. -1.
       -5    1    3    3    0  502  0.43370094450E+03  0.67573089058E+02  0.73008282758E+03  0.85188359343E+03  0.46999998093E+01 0.  1.
</event>
<event>
 5   0  0.1598986E-02  0.1009404E+04  0.7818609E-02  0.9298290E-01
        2   -1    0    0  501    0  0.00000000000E+00  0.00000000000E+00  0.14799011660E+04  0.14799011660E+04  0.25500000920E-02 0. -1.
       -2   -1    0    0    0  501  0.00000000000E+00  0.00000000000E+00 -0.17212234812E+03  0.17212234814E+03  0.25500000920E-02 0.  1.
    10030    2    1    2    0    0  0.00000000000E+00  0.00000000000E+00  0.13077788178E+04  0.16520235141E+04  0.10094039106E+04 0.  0.
        3    1    3    3  502    0  0.47590564567E+02 -0.20792887162E+03  0.14025031550E+04  0.14186311669E+04  0.10100000352E+00 0. -1.
       -3    1    3    3    0  502 -0.47590564567E+02  0.20792887162E+03 -0.94724337204E+02  0.23339234724E+03  0.10100000352E+00 0.  1.
</event>
<event>
 5   0  0.1000773E-02  0.1008746E+04  0.7818609E-02  0.9299004E-01
        1   -1    0    0  501    0  0.00000000000E+00  0.00000000000E+00  0.43315220417E+03  0.43315220420E+03  0.50400001928E-02 0.  1.
       -1   -1    0    0    0  501  0.00000000000E+00  0.00000000000E+00 -0.58730448902E+03  0.58730448905E+03  0.50400001928E-02 0. -1.
    10030    2    1    2    0    0  0.00000000000E+00  0.00000000000E+00 -0.15415228485E+03  0.10204566932E+04  0.10087462198E+04 0.  0.
        3    1    3    3  502    0 -0.28131636459E+03  0.40074965872E+03 -0.19953113423E+03  0.52872664930E+03  0.10100000352E+00 0.  1.
       -3    1    3    3    0  502  0.28131636459E+03 -0.40074965872E+03  0.45378849379E+02  0.49173004395E+03  0.10100000352E+00 0. -1.
</event>
<event>
 5   0  0.1000773E-02  0.5509578E+03  0.7818609E-02  0.1001272E+00
       -1   -1    0    0    0  501  0.00000000000E+00  0.00000000000E+00  0.44899925292E+03  0.44899925295E+03  0.50400001928E-02 0.  1.
        1   -1    0    0  501    0  0.00000000000E+00  0.00000000000E+00 -0.16901727577E+03  0.16901727585E+03  0.50400001928E-02 0. -1.
    10030    2    1    2    0    0  0.00000000000E+00  0.00000000000E+00  0.27998197715E+03  0.61801652880E+03  0.55095782265E+03 0.  0.
        3    1    3    3  502    0 -0.27158296055E+03 -0.36869764636E+02  0.17115637317E+03  0.32312721687E+03  0.10100000352E+00 0. -1.
       -3    1    3    3    0  502  0.27158296055E+03  0.36869764636E+02  0.10882560398E+03  0.29488931193E+03  0.10100000352E+00 0.  1.
</event>
<event>
 5   0  0.9471140E-03  0.9338364E+03  0.7818609E-02  0.9384245E-01
        1   -1    0    0  501    0  0.00000000000E+00  0.00000000000E+00  0.55869161243E+03  0.55869161245E+03  0.50400001928E-02 0.  1.
       -1   -1    0    0    0  501  0.00000000000E+00  0.00000000000E+00 -0.39021995740E+03  0.39021995744E+03  0.50400001928E-02 0. -1.
    10030    2    1    2    0    0  0.00000000000E+00  0.00000000000E+00  0.16847165502E+03  0.94891156989E+03  0.93383642514E+03 0.  0.
        4    1    3    3  502    0 -0.35421231741E+03  0.12221982483E+03 -0.19884160508E+03  0.42419765228E+03  0.12699999809E+01 0. -1.
       -4    1    3    3    0  502  0.35421231741E+03 -0.12221982483E+03  0.36731326010E+03  0.52471391761E+03  0.12699999809E+01 0.  1.
</event>
<event>
 5   0  0.1663497E-02  0.9046872E+03  0.7818609E-02  0.9419741E-01
        2   -1    0    0  501    0  0.00000000000E+00  0.00000000000E+00  0.42025973125E+03  0.42025973125E+03  0.25500000920E-02 0.  1.
       -2   -1    0    0    0  501  0.00000000000E+00  0.00000000000E+00 -0.48687686489E+03  0.48687686489E+03  0.25500000920E-02 0. -1.
    10030    2    1    2    0    0  0.00000000000E+00  0.00000000000E+00 -0.66617133641E+02  0.90713659615E+03  0.90468721754E+03 0.  0.
        1    1    3    3  502    0  0.38069455491E+03 -0.21097723121E+03  0.90211819924E+02  0.44449736637E+03  0.50400001928E-02 0. -1.
       -1    1    3    3    0  502 -0.38069455491E+03  0.21097723121E+03 -0.15682895357E+03  0.46263922978E+03  0.50400001928E-02 0.  1.
</event>
<event>
 5   0  0.1617721E-02  0.1038498E+04  0.7818609E-02  0.9267301E-01
       -2   -1    0    0    0  501  0.00000000000E+00  0.00000000000E+00  0.45072808869E+03  0.45072808870E+03  0.25500000920E-02 0.  1.
        2   -1    0    0  501    0  0.00000000000E+00  0.00000000000E+00 -0.59818635118E+03  0.59818635119E+03  0.25500000920E-02 0. -1.
    10030    2    1    2    0    0  0.00000000000E+00  0.00000000000E+00 -0.14745826249E+03  0.10489144399E+04  0.10384977434E+04 0.  0.
        5    1    3    3  502    0 -0.71589970620E+02  0.47906245055E+03  0.11515291409E+03  0.49790384518E+03  0.46999998093E+01 0.  1.
       -5    1    3    3    0  502  0.71589970620E+02 -0.47906245055E+03 -0.26261117658E+03  0.55101059471E+03  0.46999998093E+01 0. -1.
</event>
<event>
 5   0  0.1571895E-02  0.1041737E+04  0.7818609E-02  0.9263917E-01
       -2   -1    0    0    0  501  0.00000000000E+00  0.00000000000E+00  0.20149918249E+03  0.20149918250E+03  0.25500000920E-02 0.  1.
        2   -1    0    0  501    0  0.00000000000E+00  0.00000000000E+00 -0.13464274275E+04  0.13464274275E+04  0.25500000920E-02 0. -1.
    10030    2    1    2    0    0  0.00000000000E+00  0.00000000000E+00 -0.11449282451E+04  0.15479266100E+04  0.10417370608E+04 0.  0.
        2    1    3    3  502    0  0.24645933658E+03  0.40434532169E+03 -0.89482998404E+03  0.10124021158E+04  0.25500000920E-02 0. -1.
       -2    1    3    3    0  502 -0.24645933658E+03 -0.40434532169E+03 -0.25009826102E+03  0.53552449423E+03  0.25500000920E-02 0.  1.
</event>
<event>
 5   0  0.1598986E-02  0.8861873E+03  0.7818609E-02  0.9443015E-01
        2   -1    0    0  501    0  0.00000000000E+00  0.00000000000E+00  0.21461808050E+03  0.21461808052E+03  0.25500000920E-02 0.  1.
       -2   -1    0    0    0  501  0.00000000000E+00  0.00000000000E+00 -0.91479713054E+03  0.91479713054E+03  0.25500000920E-02 0. -1.
    10030    2    1    2    0    0  0.00000000000E+00  0.00000000000E+00 -0.70017905004E+03  0.11294152111E+04  0.88618734863E+03 0.  0.
        3    1    3    3  502    0 -0.20868254953E+03  0.28626145924E+03 -0.68929364891E+03  0.77499662848E+03  0.10100000352E+00 0. -1.
       -3    1    3    3    0  502  0.20868254953E+03 -0.28626145924E+03 -0.10885401129E+02  0.35441858259E+03  0.10100000352E+00 0.  1.
</event>
<event>
 5   0  0.9759443E-03  0.1009718E+04  0.7818609E-02  0.9297950E-01
        1   -1    0    0  501    0  0.00000000000E+00  0.00000000000E+00  0.63816304694E+03  0.63816304696E+03  0.50400001928E-02 0. -1.
       -1   -1    0    0    0  501  0.00000000000E+00  0.00000000000E+00 -0.39940019068E+03  0.39940019071E+03  0.50400001928E-02 0.  1.
    10030    2    1    2    0    0  0.00000000000E+00  0.00000000000E+00  0.23876285626E+03  0.10375632377E+04  0.10097176688E+04 0.  0.
        2    1    3    3  502    0 -0.20573735859E+03  0.35193312680E+03  0.42541614194E+03  0.58920597441E+03  0.25500000920E-02 0. -1.
       -2    1    3    3    0  502  0.20573735859E+03 -0.35193312680E+03 -0.18665328568E+03  0.44835726326E+03  0.25500000920E-02 0.  1.
</event>
<event>
 5   0  0.9507815E-03  0.1002157E+04  0.7818609E-02  0.9306183E-01
       -1   -1    0    0    0  501  0.00000000000E+00  0.00000000000E+00  0.31669636871E+03  0.31669636875E+03  0.50400001928E-02 0.  1.
        1   -1    0    0  501    0  0.00000000000E+00  0.00000000000E+00 -0.79280801127E+03  0.79280801129E+03  0.50400001928E-02 0. -1.
    10030    2    1    2    0    0  0.00000000000E+00  0.00000000000E+00 -0.47611164256E+03  0.11095043800E+04  0.10021565113E+04 0.  0.
        1    1    3    3  502    0 -0.24567477160E+03  0.17506126214E+03 -0.68100894954E+03  0.74483268476E+03  0.50400001928E-02 0. -1.
       -1    1    3    3    0  502  0.24567477160E+03 -0.17506126214E+03  0.20489730698E+03  0.36467169528E+03  0.50400001928E-02 0.  1.
</event>
<event>
 5   0  0.1598986E-02  0.1082082E+04  0.7818609E-02  0.9222834E-01
       -2   -1    0    0    0  501  0.00000000000E+00  0.00000000000E+00  0.20428067106E+03  0.20428067107E+03  0.25500000920E-02 0. -1.
        2   -1    0    0  501    0  0.00000000000E+00  0.00000000000E+00 -0.14329577059E+04  0.14329577059E+04  0.25500000920E-02 0.  1.
    10030    2    1    2    0    0  0.00000000000E+00  0.00000000000E+00 -0.12286770349E+04  0.16372383770E+04  0.10820823661E+04 0.  0.
        3    1    3    3  502    0  0.17913763137E+03  0.35101585049E+02  0.15627959098E+03  0.24030341862E+03  0.10100000352E+00 0. -1.
       -3    1    3    3    0  502 -0.17913763137E+03 -0.35101585049E+02 -0.13849566259E+04  0.13969349584E+04  0.10100000352E+00 0.  1.
</event>
<event>
 5   0  0.1617721E-02  0.8993196E+03  0.7818609E-02  0.9426432E-01
        2   -1    0    0  501    0  0.00000000000E+00  0.00000000000E+00  0.73655747426E+03  0.73655747426E+03  0.25500000920E-02 0. -1.
       -2   -1    0    0    0  501  0.00000000000E+00  0.00000000000E+00 -0.27451210484E+03  0.27451210485E+03  0.25500000920E-02 0.  1.
    10030    2    1    2    0    0  0.00000000000E+00  0.00000000000E+00  0.46204536942E+03  0.10110695791E+04  0.89931961527E+03 0.  0.
        5    1    3    3  502    0  0.44367557500E+03  0.43054863588E+02  0.29725027314E+03  0.53579991789E+03  0.46999998093E+01 0. -1.
       -5    1    3    3    0  502 -0.44367557500E+03 -0.43054863588E+02  0.16479509627E+03  0.47526966122E+03  0.46999998093E+01 0.  1.
</event>
<event>
 5   0  0.1000773E-02  0.1035238E+04  0.7818609E-02  0.9270719E-01
        1   -1    0    0  501    0  0.00000000000E+00  0.00000000000E+00  0.54306080901E+03  0.54306080903E+03  0.50400001928E-02 0.  1.
       -1   -1    0    0    0  501  0.00000000000E+00  0.00000000000E+00 -0.49336921595E+03  0.49336921597E+03  0.50400001928E-02 0. -1.
    10030    2    1    2    0    0  0.00000000000E+00  0.00000000000E+00  0.49691593063E+02  0.10364300250E+04  0.10352381090E+04 0.  0.
        3    1    3    3  502    0  0.40087374356E+03  0.49953530747E+01  0.35264415673E+03  0.53393129081E+03  0.10100000352E+00 0.  1.
       -3    1    3    3    0  502 -0.40087374356E+03 -0.49953530747E+01 -0.30295256367E+03  0.50249873419E+03  0.10100000352E+00 0. -1.
</event>
<event>
 5   0  0.9759443E-03  0.1011012E+04  0.7818609E-02  0.9296549E-01
       -1   -1    0    0    0  501  0.00000000000E+00  0.00000000000E+00  0.43621889141E+03  0.43621889144E+03  0.50400001928E-02 0.  1.
        1   -1    0    0  501    0  0.00000000000E+00  0.00000000000E+00 -0.58579816450E+03  0.58579816452E+03  0.50400001928E-02 0. -1.
    10030    2    1    2    0    0  0.00000000000E+00  0.00000000000E+00 -0.14957927309E+03  0.10220170560E+04  0.10110118218E+04 0.  0.
        2    1    3    3  502    0  0.20813291419E+03 -0.30509727156E+03 -0.42370264919E+03  0.56207436343E+03  0.25500000920E-02 0. -1.
       -2    1    3    3    0  502 -0.20813291419E+03  0.30509727156E+03  0.27412337611E+03  0.45994269253E+03  0.25500000920E-02 0.  1.
</event>
<event>
 5   0  0.9759443E-03  0.9875091E+03  0.7818609E-02  0.9322352E-01
        1   -1    0    0  501    0  0.00000000000E+00  0.00000000000E+00  0.13371897990E+04  0.13371897990E+04  0.50400001928E-02 0. -1.
       -1   -1    0    0    0  501  0.00000000000E+00  0.00000000000E+00 -0.18231784063E+03  0.18231784070E+03  0.50400001928E-02 0.  1.
    10030    2    1    2    0    0  0.00000000000E+00  0.00000000000E+00  0.11548719583E+04  0.15195076397E+04  0.98750910219E+03 0.  0.
        2    1    3    3  502    0 -0.16831948060E+03 -0.44683570611E+03  0.77085081655E+03  0.90675497086E+03  0.25500000920E-02 0. -1.
       -2    1    3    3    0  502  0.16831948060E+03  0.44683570611E+03  0.38402114179E+03  0.61275266883E+03  0.25500000920E-02 0.  1.
</event>
<event>
 5   0  0.1656859E-02  0.1007281E+04  0.7818609E-02  0.9300595E-01
        2   -1    0    0  501    0  0.00000000000E+00  0.00000000000E+00  0.18702161919E+04  0.18702161919E+04  0.25500000920E-02 0. -1.
       -2   -1    0    0    0  501  0.00000000000E+00  0.00000000000E+00 -0.13562802694E+03  0.13562802696E+03  0.25500000920E-02 0.  1.
    10030    2    1    2    0    0  0.00000000000E+00  0.00000000000E+00  0.17345881649E+04  0.20058442188E+04  0.10072809580E+04 0.  0.
        4    1    3    3  502    0 -0.29320840860E+03 -0.65936210618E+02  0.16720867876E+04  0.16988803939E+04  0.12699999809E+01 0. -1.
       -4    1    3    3    0  502  0.29320840860E+03  0.65936210618E+02  0.62501377375E+02  0.30696382493E+03  0.12699999809E+01 0.  1.
</event>
<event>
 5   0  0.9396660E-03  0.1003735E+04  0.7818609E-02  0.9304458E-01
       -1   -1    0    0    0  501  0.00000000000E+00  0.00000000000E+00  0.23911890648E+03  0.23911890653E+03  0.50400001928E-02 0.  1.
        1   -1    0    0  501    0  0.00000000000E+00  0.00000000000E+00 -0.10533286605E+04  0.10533286606E+04  0.50400001928E-02 0. -1.
    10030    2    1    2    0    0  0.00000000000E+00  0.00000000000E+00 -0.81420975406E+03  0.12924475671E+04  0.10037346213E+04 0.  0.
        5    1    3    3  502    0  0.24354485175E+03 -0.21300610945E+03 -0.90106667205E+03  0.95740740281E+03  0.46999998093E+01 0. -1.
       -5    1    3    3    0  502 -0.24354485175E+03  0.21300610945E+03  0.86856917988E+02  0.33504016428E+03  0.46999998093E+01 0.  1.
</event>
<event>
 5   0  0.1617721E-02  0.1061031E+04  0.7818609E-02  0.9244029E-01
        2   -1    0    0  501    0  0.00000000000E+00  0.00000000000E+00  0.70497494377E+03  0.70497494378E+03  0.25500000920E-02 0.  1.
       -2   -1    0    0    0  501  0.00000000000E+00  0.00000000000E+00 -0.39922907838E+03  0.39922907838E+03  0.25500000920E-02 0. -1.
    10030    2    1    2    0    0  0.00000000000E+00  0.00000000000E+00  0.30574586540E+03  0.11042040222E+04  0.10610306256E+04 0.  0.
        5    1    3    3  502    0  0.10675383122E+02 -0.21522611840E+03  0.65735344765E+03  0.69178890637E+03  0.46999998093E+01 0.  1.
       -5    1    3    3    0  502 -0.10675383122E+02  0.21522611840E+03 -0.35160758225E+03  0.41241511580E+03  0.46999998093E+01 0. -1.
</event>
<event>
 5   0  0.9759443E-03  0.1006862E+04  0.7818609E-02  0.9301051E-01
        1   -1    0    0  501    0  0.00000000000E+00  0.00000000000E+00  0.81692275141E+03  0.81692275142E+03  0.50400001928E-02 0.  1.
       -1   -1    0    0    0  501  0.00000000000E+00  0.00000000000E+00 -0.31024052339E+03  0.31024052344E+03  0.50400001928E-02 0. -1.
    10030    2    1    2    0    0  0.00000000000E+00  0.00000000000E+00  0.50668222801E+03  0.11271632749E+04  0.10068615436E+04 0.  0.
        2    1    3    3  502    0  0.15073707446E+03  0.81501083013E+02 -0.27658719739E+03  0.32536836035E+03  0.25500000920E-02 0. -1.
       -2    1    3    3    0  502 -0.15073707446E+03 -0.81501083013E+02  0.78326942541E+03  0.80179491451E+03  0.25500000920E-02 0.  1.
</event>
<event>
 5   0  0.1663497E-02  0.9836140E+03  0.7818609E-02  0.9326702E-01
       -2   -1    0    0    0  501  0.00000000000E+00  0.00000000000E+00  0.39549635513E+03  0.39549635513E+03  0.25500000920E-02 0. -1.
        2   -1    0    0  501    0  0.00000000000E+00  0.00000000000E+00 -0.61157101994E+03  0.61157101995E+03  0.25500000920E-02 0.  1.
    10030    2    1    2    0    0  0.00000000000E+00  0.00000000000E+00 -0.21607466482E+03  0.10070673751E+04  0.98361396756E+03 0.  0.
        1    1    3    3  502    0 -0.79410727867E+02  0.12788508208E+03  0.37132890149E+03  0.40068168292E+03  0.50400001928E-02 0. -1.
       -1    1    3    3    0  502  0.79410727867E+02 -0.12788508208E+03 -0.58740356631E+03  0.60638569216E+03  0.50400001928E-02 0.  1.
</event>
<event>
 5   0  0.9396660E-03  0.9978128E+03  0.7818609E-02  0.9310947E-01
       -1   -1    0    0    0  501  0.00000000000E+00  0.00000000000E+00  0.19363969756E+03  0.19363969762E+03  0.50400001928E-02 0. -1.
        1   -1    0    0  501    0  0.00000000000E+00  0.00000000000E+00 -0.12854161287E+04  0.12854161288E+04  0.50400001928E-02 0.  1.
    10030    2    1    2    0    0  0.00000000000E+00  0.00000000000E+00 -0.10917764312E+04  0.14790558264E+04  0.99781278898E+03 0.  0.
        5    1    3    3  502    0 -0.40673928442E+03 -0.77617170264E+02 -0.13343570867E+03  0.43507292372E+03  0.46999998093E+01 0. -1.
       -5    1    3    3    0  502  0.40673928442E+03  0.77617170264E+02 -0.95834072251E+03  0.10439829027E+04  0.46999998093E+01 0.  1.
</event>
<event>
 5   0  0.6314750E-03  0.9913559E+03  0.7818609E-02  0.9318077E-01
        4   -1    0    0  501    0  0.00000000000E+00  0.00000000000E+00  0.87569597397E+03  0.87569689489E+03  0.12699999809E+01 0.  1.
       -4   -1    0    0    0  501  0.00000000000E+00  0.00000000000E+00 -0.28057046570E+03  0.28057334001E+03  0.12699999809E+01 0. -1.
    10030    2    1    2    0    0  0.00000000000E+00  0.00000000000E+00  0.59512550827E+03  0.11562702349E+04  0.99135588238E+03 0.  0.
        3    1    3    3  502    0  0.21608393342E+02 -0.46721591261E+03  0.48899730701E+03  0.67666535903E+03  0.10100000352E+00 0.  1.
       -3    1    3    3    0  502 -0.21608393342E+02  0.46721591261E+03  0.10612820126E+03  0.47960487587E+03  0.10100000352E+00 0. -1.
</event>
<event>
 5   0  0.1571895E-02  0.1038437E+04  0.7818609E-02  0.9267364E-01
       -2   -1    0    0    0  501  0.00000000000E+00  0.00000000000E+00  0.41496731560E+03  0.41496731561E+03  0.25500000920E-02 0. -1.
        2   -1    0    0  501    0  0.00000000000E+00  0.00000000000E+00 -0.64966049220E+03  0.64966049220E+03  0.25500000920E-02 0.  1.
    10030    2    1    2    0    0  0.00000000000E+00  0.00000000000E+00 -0.23469317660E+03  0.10646278078E+04  0.10384370381E+04 0.  0.
        2    1    3    3  502    0  0.42083622418E+03 -0.16538033915E+03  0.14430405006E+03  0.47463400955E+03  0.25500000920E-02 0. -1.
       -2    1    3    3    0  502 -0.42083622418E+03  0.16538033915E+03 -0.37899722666E+03  0.58999379825E+03  0.25500000920E-02 0.  1.
</event>
<event>
 5   0  0.1571895E-02  0.9929146E+03  0.7818609E-02  0.9316350E-01
        2   -1    0    0  501    0  0.00000000000E+00  0.00000000000E+00  0.11696180938E+04  0.11696180938E+04  0.25500000920E-02 0. -1.
       -2   -1    0    0    0  501  0.00000000000E+00  0.00000000000E+00 -0.21072676223E+03  0.21072676225E+03  0.25500000920E-02 0.  1.
    10030    2    1    2    0    0  0.00000000000E+00  0.00000000000E+00  0.95889133152E+03  0.13803448560E+04  0.99291456622E+03 0.  0.
        2    1    3    3  502    0  0.44977122362E+02  0.10724753824E+03  0.11504143999E+04  0.11562777640E+04  0.25500000920E-02 0. -1.
       -2    1    3    3    0  502 -0.44977122362E+02 -0.10724753824E+03 -0.19152306838E+03  0.22406709201E+03  0.25500000920E-02 0.  1.
</event>
<event>
 5   0  0.1656859E-02  0.1004432E+04  0.7818609E-02  0.9303697E-01
        2   -1    0    0  501    0  0.00000000000E+00  0.00000000000E+00  0.69489788871E+03  0.69489788871E+03  0.25500000920E-02 0.  1.
       -2   -1    0    0    0  501  0.00000000000E+00  0.00000000000E+00 -0.36296103914E+03  0.36296103915E+03  0.25500000920E-02 0. -1.
    10030    2    1    2    0    0  0.00000000000E+00  0.00000000000E+00  0.33193684957E+03  0.10578589279E+04  0.10044318987E+04 0.  0.
        4    1    3    3  502    0  0.34905137784E+03 -0.73602770015E+02 -0.20633881503E+03  0.41210623826E+03  0.12699999809E+01 0. -1.
       -4    1    3    3    0  502 -0.34905137784E+03  0.73602770015E+02  0.53827566460E+03  0.64575268960E+03  0.12699999809E+01 0.  1.
</event>
<event>
 5   0  0.1571895E-02  0.1001214E+04  0.7818609E-02  0.9307214E-01
        2   -1    0    0  501    0  0.00000000000E+00  0.00000000000E+00  0.34481788951E+03  0.34481788952E+03  0.25500000920E-02 0.  1.
       -2   -1    0    0    0  501  0.00000000000E+00  0.00000000000E+00 -0.72678229985E+03  0.72678229985E+03  0.25500000920E-02 0. -1.
    10030    2    1    2    0    0  0.00000000000E+00  0.00000000000E+00 -0.38196441034E+03  0.10716001894E+04  0.10012143402E+04 0.  0.
        2    1    3    3  502    0  0.72803777452E+02 -0.31878514664E+03  0.21472122960E+03  0.39118993619E+03  0.25500000920E-02 0. -1.
       -2    1    3    3    0  502 -0.72803777452E+02  0.31878514664E+03 -0.59668563993E+03  0.68041025318E+03  0.25500000920E-02 0.  1.
</event>
<event>
 5   0  0.1571895E-02  0.9013575E+03  0.7818609E-02  0.9423886E-01
       -2   -1    0    0    0  501  0.00000000000E+00  0.00000000000E+00  0.39626034784E+03  0.39626034785E+03  0.25500000920E-02 0. -1.
        2   -1    0    0  501    0  0.00000000000E+00  0.00000000000E+00 -0.51257045394E+03  0.51257045395E+03  0.25500000920E-02 0.  1.
    10030    2    1    2    0    0  0.00000000000E+00  0.00000000000E+00 -0.11631010610E+03  0.90883080180E+03  0.90135752369E+03 0.  0.
        2    1    3    3  502    0  0.28305887618E+03 -0.12373365146E+03 -0.38902053514E+03  0.49675881537E+03  0.25500000920E-02 0.  1.
       -2    1    3    3    0  502 -0.28305887618E+03  0.12373365146E+03  0.27271042904E+03  0.41207198643E+03  0.25500000920E-02 0. -1.
</event>
<event>
 5   0  0.1598986E-02  0.1005411E+04  0.7818609E-02  0.9302630E-01
        2   -1    0    0  501    0  0.00000000000E+00  0.00000000000E+00  0.11694217452E+04  0.11694217452E+04  0.25500000920E-02 0. -1.
       -2   -1    0    0    0  501  0.00000000000E+00  0.00000000000E+00 -0.21610074743E+03  0.21610074745E+03  0.25500000920E-02 0.  1.
    10030    2    1    2    0    0  0.00000000000E+00  0.00000000000E+00  0.95332099781E+03  0.13855224927E+04  0.10054111860E+04 0.  0.
        3    1    3    3  502    0  0.15239578747E+03  0.47311713687E+00 -0.18350078439E+03  0.23853144017E+03  0.10100000352E+00 0.  1.
       -3    1    3    3    0  502 -0.15239578747E+03 -0.47311713687E+00  0.11368217822E+04  0.11469910525E+04  0.10100000352E+00 0. -1.
</event>
<event>
 5   0  0.9471140E-03  0.9866449E+03  0.7818609E-02  0.9323315E-01
       -1   -1    0    0    0  501  0.00000000000E+00  0.00000000000E+00  0.28749939287E+03  0.28749939291E+03  0.50400001928E-02 0. -1.
        1   -1    0    0  501    0  0.00000000000E+00  0.00000000000E+00 -0.84649579732E+03  0.84649579734E+03  0.50400001928E-02 0.  1.
    10030    2    1    2    0    0  0.00000000000E+00  0.00000000000E+00 -0.55899640446E+03  0.11339951902E+04  0.98664487599E+03 0.  0.
        4    1    3    3  502    0 -0.33986932232E+02 -0.49196958545E+03 -0.26424044464E+03  0.55947637131E+03  0.12699999809E+01 0. -1.
       -4    1    3    3    0  502  0.33986932232E+02  0.49196958545E+03 -0.29475595982E+03  0.57451881894E+03  0.12699999809E+01 0.  1.
</event>
<event>
 5   0  0.9507815E-03  0.9645944E+03  0.7818609E-02  0.9348253E-01
        1   -1    0    0  501    0  0.00000000000E+00  0.00000000000E+00  0.17203936264E+04  0.17203936264E+04  0.50400001928E-02 0. -1.
       -1   -1    0    0    0  501  0.00000000000E+00  0.00000000000E+00 -0.13520778030E+03  0.13520778039E+03  0.50400001928E-02 0.  1.
    10030    2    1    2    0    0  0.00000000000E+00  0.00000000000E+00  0.15851858461E+04  0.18556014068E+04  0.96459442993E+03 0.  0.
        1    1    3    3  502    0  0.34666273398E+03  0.19037948208E+03  0.26159555917E+03  0.47418523272E+03  0.50400001928E-02 0.  1.
       -1    1    3    3    0  502 -0.34666273398E+03 -0.19037948208E+03  0.13235902870E+04  0.13814161741E+04  0.50400001928E-02 0. -1.
</event>
<event>
 5   0  0.1000773E-02  0.9821852E+03  0.7818609E-02  0.9328302E-01
       -1   -1    0    0    0  501  0.00000000000E+00  0.00000000000E+00  0.94662097016E+03  0.94662097017E+03  0.50400001928E-02 0. -1.
        1   -1    0    0  501    0  0.00000000000E+00  0.00000000000E+00 -0.25477141470E+03  0.25477141475E+03  0.50400001928E-02 0.  1.
    10030    2    1    2    0    0  0.00000000000E+00  0.00000000000E+00  0.69184955546E+03  0.12013923849E+04  0.98218524482E+03 0.  0.
        3    1    3    3  502    0  0.21453094407E+03  0.35280402844E+03  0.67111150563E+03  0.78796248111E+03  0.10100000352E+00 0. -1.
       -3    1    3    3    0  502 -0.21453094407E+03 -0.35280402844E+03  0.20738049832E+02  0.41342990381E+03  0.10100000352E+00 0.  1.
</event>
<event>
 5   0  0.6314750E-03  0.9646325E+03  0.7818609E-02  0.9348209E-01
       -3   -1    0    0    0  501  0.00000000000E+00  0.00000000000E+00  0.52325632509E+03  0.52325633484E+03  0.10100000352E+00 0.  1.
        3   -1    0    0  501    0  0.00000000000E+00  0.00000000000E+00 -0.44457934897E+03  0.44457936045E+03  0.10100000352E+00 0. -1.
    10030    2    1    2    0    0  0.00000000000E+00  0.00000000000E+00  0.78676976115E+02  0.96783569528E+03  0.96463250333E+03 0.  0.
        5    1    3    3  502    0  0.44529542211E+02 -0.47229964014E+03  0.12655842913E+03  0.49100810196E+03  0.46999998093E+01 0.  1.
       -5    1    3    3    0  502 -0.44529542211E+02  0.47229964014E+03 -0.47881453018E+02  0.47682759332E+03  0.46999998093E+01 0. -1.
</event>
<event>
 5   0  0.9759443E-03  0.9848573E+03  0.7818609E-02  0.9325311E-01
       -1   -1    0    0    0  501  0.00000000000E+00  0.00000000000E+00  0.35041186266E+03  0.35041186269E+03  0.50400001928E-02 0. -1.
        1   -1    0    0  501    0  0.00000000000E+00  0.00000000000E+00 -0.69200276727E+03  0.69200276729E+03  0.50400001928E-02 0.  1.
    10030    2    1    2    0    0  0.00000000000E+00  0.00000000000E+00 -0.34159090462E+03  0.10424146300E+04  0.98485730677E+03 0.  0.
        2    1    3    3  502    0 -0.24682564394E+02  0.15368635175E+03  0.32368773619E+03  0.35916914437E+03  0.25500000920E-02 0. -1.
       -2    1    3    3    0  502  0.24682564394E+02 -0.15368635175E+03 -0.66527864080E+03  0.68324548562E+03  0.25500000920E-02 0.  1.
</event>
<event>
 5   0  0.9507815E-03  0.1018526E+04  0.7818609E-02  0.9288456E-01
        1   -1    0    0  501    0  0.00000000000E+00  0.00000000000E+00  0.12380200968E+04  0.12380200969E+04  0.50400001928E-02 0.  1.
       -1   -1    0    0    0  501  0.00000000000E+00  0.00000000000E+00 -0.20948686859E+03  0.20948686865E+03  0.50400001928E-02 0. -1.
    10030    2    1    2    0    0  0.00000000000E+00  0.00000000000E+00  0.10285332283E+04  0.14475069655E+04  0.10185262950E+04 0.  0.
        1    1    3    3  502    0  0.93287092071E+01 -0.39186121378E+02 -0.20721929004E+03  0.21109810779E+03  0.50400001928E-02 0. -1.
       -1    1    3    3    0  502 -0.93287092071E+01  0.39186121378E+02  0.12357525183E+04  0.12364088577E+04  0.50400001928E-02 0.  1.
</event>
<event>
 5   0  0.1656859E-02  0.9206292E+03  0.7818609E-02  0.9400155E-01
       -2   -1    0    0    0  501  0.00000000000E+00  0.00000000000E+00  0.29440283698E+03  0.29440283699E+03  0.25500000920E-02 0. -1.
        2   -1    0    0  501    0  0.00000000000E+00  0.00000000000E+00 -0.71972659684E+03  0.71972659684E+03  0.25500000920E-02 0.  1.
    10030    2    1    2    0    0  0.00000000000E+00  0.00000000000E+00 -0.42532375985E+03  0.10141294338E+04  0.92062924561E+03 0.  0.
        4    1    3    3  502    0  0.34237208105E+03  0.32905183295E+02 -0.54965057393E+03  0.64839706916E+03  0.12699999809E+01 0.  1.
       -4    1    3    3    0  502 -0.34237208105E+03 -0.32905183295E+02  0.12432681408E+03  0.36573236467E+03  0.12699999809E+01 0. -1.
</event>
<event>
 5   0  0.1656859E-02  0.1078012E+04  0.7818609E-02  0.9226892E-01
        2   -1    0    0  501    0  0.00000000000E+00  0.00000000000E+00  0.23197397242E+04  0.23197397242E+04  0.25500000920E-02 0. -1.
       -2   -1    0    0    0  501  0.00000000000E+00  0.00000000000E+00 -0.12524140052E+03  0.12524140055E+03  0.25500000920E-02 0.  1.
    10030    2    1    2    0    0  0.00000000000E+00  0.00000000000E+00  0.21944983236E+04  0.24449811247E+04  0.10780119701E+04 0.  0.
        4    1    3    3  502    0  0.39912821894E+03 -0.26396878729E+03  0.53459543528E+03  0.71747944092E+03  0.12699999809E+01 0.  1.
       -4    1    3    3    0  502 -0.39912821894E+03  0.26396878729E+03  0.16599028884E+04  0.17275016838E+04  0.12699999809E+01 0. -1.
</event>
<event>
 5   0  0.1571895E-02  0.9865303E+03  0.7818609E-02  0.9323443E-01
        2   -1    0    0  501    0  0.00000000000E+00  0.00000000000E+00  0.97301393211E+03  0.97301393211E+03  0.25500000920E-02 0. -1.
       -2   -1    0    0    0  501  0.00000000000E+00  0.00000000000E+00 -0.25005861597E+03  0.25005861599E+03  0.25500000920E-02 0.  1.
    10030    2    1    2    0    0  0.00000000000E+00  0.00000000000E+00  0.72295531613E+03  0.12230725481E+04  0.98653031823E+03 0.  0.
        2    1    3    3  502    0 -0.36761696281E+03 -0.27783712905E+03  0.57967333738E+03  0.74051122861E+03  0.25500000920E-02 0. -1.
       -2    1    3    3    0  502  0.36761696281E+03  0.27783712905E+03  0.14328197875E+03  0.48256131949E+03  0.25500000920E-02 0.  1.
</event>
<event>
 5   0  0.9396660E-03  0.1009886E+04  0.7818609E-02  0.9297768E-01
       -1   -1    0    0    0  501  0.00000000000E+00  0.00000000000E+00  0.27845025600E+03  0.27845025605E+03  0.50400001928E-02 0. -1.
        1   -1    0    0  501    0  0.00000000000E+00  0.00000000000E+00 -0.91566579174E+03  0.91566579175E+03  0.50400001928E-02 0.  1.
    10030    2    1    2    0    0  0.00000000000E+00  0.00000000000E+00 -0.63721553573E+03  0.11941160478E+04  0.10098858830E+04 0.  0.
        5    1    3    3  502    0  0.27319022472E+03  0.41832509196E+03 -0.40482364555E+03  0.64306535860E+03  0.46999998093E+01 0. -1.
       -5    1    3    3    0  502 -0.27319022472E+03 -0.41832509196E+03 -0.23239189019E+03  0.55105068920E+03  0.46999998093E+01 0.  1.
</event>
<event>
 5   0  0.9471140E-03  0.6341989E+03  0.7818609E-02  0.9836889E-01
       -1   -1    0    0    0  501  0.00000000000E+00  0.00000000000E+00  0.92225511747E+03  0.92225511748E+03  0.50400001928E-02 0. -1.
        1   -1    0    0  501    0  0.00000000000E+00  0.00000000000E+00 -0.10902848195E+03  0.10902848207E+03  0.50400001928E-02 0.  1.
    10030    2    1    2    0    0  0.00000000000E+00  0.00000000000E+00  0.81322663552E+03  0.10312835996E+04  0.63419894513E+03 0.  0.
        4    1    3    3  502    0  0.29193879766E+02 -0.30597874700E+03  0.27986786164E+03  0.41569569292E+03  0.12699999809E+01 0.  1.
       -4    1    3    3    0  502 -0.29193879766E+02  0.30597874700E+03  0.53335877387E+03  0.61558790664E+03  0.12699999809E+01 0. -1.
</event>
<event>
 5   0  0.1000773E-02  0.9994292E+03  0.7818609E-02  0.9309171E-01
        1   -1    0    0  501    0  0.00000000000E+00  0.00000000000E+00  0.34758283664E+03  0.34758283667E+03  0.50400001928E-02 0. -1.
       -1   -1    0    0    0  501  0.00000000000E+00  0.00000000000E+00 -0.71843218348E+03  0.71843218350E+03  0.50400001928E-02 0.  1.
    10030    2    1    2    0    0  0.00000000000E+00  0.00000000000E+00 -0.37084934684E+03  0.10660150202E+04  0.99942922970E+03 0.  0.
        3    1    3    3  502    0 -0.19648745940E+03  0.17153975867E+03 -0.64006358295E+03  0.69116901762E+03  0.10100000352E+00 0.  1.
       -3    1    3    3    0  502  0.19648745940E+03 -0.17153975867E+03  0.26921423611E+03  0.37484600255E+03  0.10100000352E+00 0. -1.
</event>
<event>
 5   0  0.6314750E-03  0.1031515E+04  0.7818609E-02  0.9274640E-01
       -3   -1    0    0    0  501  0.00000000000E+00  0.00000000000E+00  0.65736777041E+03  0.65736777817E+03  0.10100000352E+00 0. -1.
        3   -1    0    0  501    0  0.00000000000E+00  0.00000000000E+00 -0.40465286648E+03  0.40465287908E+03  0.10100000352E+00 0.  1.
    10030    2    1    2    0    0  0.00000000000E+00  0.00000000000E+00  0.25271490394E+03  0.10620206573E+04  0.10315149314E+04 0.  0.
        3    1    3    3  502    0 -0.14917482498E+03 -0.18876441761E+03 -0.34333653495E+03  0.41924350943E+03  0.10100000352E+00 0.  1.
       -3    1    3    3    0  502  0.14917482498E+03  0.18876441761E+03  0.59605143889E+03  0.64277714782E+03  0.10100000352E+00 0. -1.
</event>
<event>
 5   0  0.9471140E-03  0.9768958E+03  0.7818609E-02  0.9334254E-01
        1   -1    0    0  501    0  0.00000000000E+00  0.00000000000E+00  0.75206418239E+03  0.75206418241E+03  0.50400001928E-02 0.  1.
       -1   -1    0    0    0  501  0.00000000000E+00  0.00000000000E+00 -0.31723537784E+03  0.31723537788E+03  0.50400001928E-02 0. -1.
    10030    2    1    2    0    0  0.00000000000E+00  0.00000000000E+00  0.43482880455E+03  0.10692995603E+04  0.97689582882E+03 0.  0.
        4    1    3    3  502    0  0.42393968414E+03 -0.59527568605E+02 -0.40015102405E+02  0.42996652025E+03  0.12699999809E+01 0. -1.
       -4    1    3    3    0  502 -0.42393968414E+03  0.59527568605E+02  0.47484390696E+03  0.63933304004E+03  0.12699999809E+01 0.  1.
</event>
<event>
 5   0  0.9759443E-03  0.9876302E+03  0.7818609E-02  0.9322217E-01
        1   -1    0    0  501    0  0.00000000000E+00  0.00000000000E+00  0.10238126358E+03  0.10238126370E+03  0.50400001928E-02 0. -1.
       -1   -1    0    0    0  501  0.00000000000E+00  0.00000000000E+00 -0.23818163099E+04  0.23818163099E+04  0.50400001928E-02 0.  1.
    10030    2    1    2    0    0  0.00000000000E+00  0.00000000000E+00 -0.22794350463E+04  0.24841975736E+04  0.98763022144E+03 0.  0.
        2    1    3    3  502    0  0.32611411352E+03 -0.33541332764E+03 -0.15374299249E+04  0.16070293368E+04  0.25500000920E-02 0.  1.
       -2    1    3    3    0  502 -0.32611411352E+03  0.33541332764E+03 -0.74200512136E+03  0.87716823673E+03  0.25500000920E-02 0. -1.
</event>
<event>
 5   0  0.1663497E-02  0.1000519E+04  0.7818609E-02  0.9307975E-01
       -2   -1    0    0    0  501  0.00000000000E+00  0.00000000000E+00  0.24074651206E+03  0.24074651207E+03  0.25500000920E-02 0.  1.
        2   -1    0    0  501    0  0.00000000000E+00  0.00000000000E+00 -0.10395155948E+04  0.10395155948E+04  0.25500000920E-02 0. -1.
    10030    2    1    2    0    0  0.00000000000E+00  0.00000000000E+00 -0.79876908274E+03  0.12802621069E+04  0.10005193725E+04 0.  0.
        1    1    3    3  502    0  0.39944624792E+03 -0.17994286440E+03 -0.70840936689E+03  0.83293491376E+03  0.50400001928E-02 0. -1.
       -1    1    3    3    0  502 -0.39944624792E+03  0.17994286440E+03 -0.90359715845E+02  0.44732719311E+03  0.50400001928E-02 0.  1.
</event>
<event>
 5   0  0.1571895E-02  0.1008753E+04  0.7818609E-02  0.9298997E-01
       -2   -1    0    0    0  501  0.00000000000E+00  0.00000000000E+00  0.41948605817E+03  0.41948605818E+03  0.25500000920E-02 0.  1.
        2   -1    0    0  501    0  0.00000000000E+00  0.00000000000E+00 -0.60644575214E+03  0.60644575214E+03  0.25500000920E-02 0. -1.
    10030    2    1    2    0    0  0.00000000000E+00  0.00000000000E+00 -0.18695969397E+03  0.10259318103E+04  0.10087527706E+04 0.  0.
        2    1    3    3  502    0 -0.88443504364E+02  0.30741773854E+03 -0.49007931543E+03  0.58523982678E+03  0.25500000920E-02 0. -1.
       -2    1    3    3    0  502  0.88443504364E+02 -0.30741773854E+03  0.30311962147E+03  0.44069198354E+03  0.25500000920E-02 0.  1.
</event>
<event>
 5   0  0.1598986E-02  0.1020228E+04  0.7818609E-02  0.9286633E-01
       -2   -1    0    0    0  501  0.00000000000E+00  0.00000000000E+00  0.14516887272E+03  0.14516887274E+03  0.25500000920E-02 0.  1.
        2   -1    0    0  501    0  0.00000000000E+00  0.00000000000E+00 -0.17925073772E+04  0.17925073772E+04  0.25500000920E-02 0. -1.
    10030    2    1    2    0    0  0.00000000000E+00  0.00000000000E+00 -0.16473385045E+04  0.19376762499E+04  0.10202279653E+04 0.  0.
        3    1    3    3  502    0 -0.50748237468E+03  0.16543671317E+02 -0.73054338664E+03  0.88966606299E+03  0.10100000352E+00 0.  1.
       -3    1    3    3    0  502  0.50748237468E+03 -0.16543671317E+02 -0.91679511784E+03  0.10480101870E+04  0.10100000352E+00 0. -1.
</event>
<event>
 5   0  0.1617721E-02  0.1337708E+04  0.7818609E-02  0.9000185E-01
        2   -1    0    0  501    0  0.00000000000E+00  0.00000000000E+00  0.74062982378E+03  0.74062982378E+03  0.25500000920E-02 0.  1.
       -2   -1    0    0    0  501  0.00000000000E+00  0.00000000000E+00 -0.60403426081E+03  0.60403426081E+03  0.25500000920E-02 0. -1.
    10030    2    1    2    0    0  0.00000000000E+00  0.00000000000E+00  0.13659556297E+03  0.13446640846E+04  0.13377081717E+04 0.  0.
        5    1    3    3  502    0  0.49218927571E+03  0.42396810919E+02 -0.38493024984E+03  0.62629159338E+03  0.46999998093E+01 0. -1.
       -5    1    3    3    0  502 -0.49218927571E+03 -0.42396810919E+02  0.52152581281E+03  0.71837249121E+03  0.46999998093E+01 0.  1.
</event>
<event>
 5   0  0.9396660E-03  0.1021457E+04  0.7818609E-02  0.9285319E-01
        1   -1    0    0  501    0  0.00000000000E+00  0.00000000000E+00  0.43595978655E+03  0.43595978658E+03  0.50400001928E-02 0.  1.
       -1   -1    0    0    0  501  0.00000000000E+00  0.00000000000E+00 -0.59832071409E+03  0.59832071411E+03  0.50400001928E-02 0. -1.
    10030    2    1    2    0    0  0.00000000000E+00  0.00000000000E+00 -0.16236092754E+03  0.10342805007E+04  0.10214573331E+04 0.  0.
        5    1    3    3  502    0  0.95329682818E+02 -0.44847637751E+03 -0.30895527016E+03  0.55289624575E+03  0.46999998093E+01 0. -1.
       -5    1    3    3    0  502 -0.95329682818E+02  0.44847637751E+03  0.14659434262E+03  0.48138425493E+03  0.46999998093E+01 0.  1.
</event>
<event>
 5   0  0.9759443E-03  0.1009803E+04  0.7818609E-02  0.9297858E-01
        1   -1    0    0  501    0  0.00000000000E+00  0.00000000000E+00  0.73133348036E+03  0.73133348038E+03  0.50400001928E-02 0. -1.
       -1   -1    0    0    0  501  0.00000000000E+00  0.00000000000E+00 -0.34857634410E+03  0.34857634414E+03  0.50400001928E-02 0.  1.
    10030    2    1    2    0    0  0.00000000000E+00  0.00000000000E+00  0.38275713626E+03  0.10799098245E+04  0.10098030520E+04 0.  0.
        2    1    3    3  502    0  0.26636154400E+03 -0.97687737860E+02  0.63802782225E+03  0.69826275013E+03  0.25500000920E-02 0. -1.
       -2    1    3    3    0  502 -0.26636154400E+03  0.97687737860E+02 -0.25527068599E+03  0.38164707438E+03  0.25500000920E-02 0.  1.
</event>
<event>
 5   0  0.9396660E-03  0.1012636E+04  0.7818609E-02  0.9294794E-01
        1   -1    0    0  501    0  0.00000000000E+00  0.00000000000E+00  0.15645407696E+04  0.15645407696E+04  0.50400001928E-02 0. -1.
       -1   -1    0    0    0  501  0.00000000000E+00  0.00000000000E+00 -0.16385499874E+03  0.16385499882E+03  0.50400001928E-02 0.  1.
    10030    2    1    2    0    0  0.00000000000E+00  0.00000000000E+00  0.14006857709E+04  0.17283957684E+04  0.10126358199E+04 0.  0.
        5    1    3    3  502    0  0.28201629516E+03 -0.32924160299E+02  0.14158248781E+04  0.14440219412E+04  0.46999998093E+01 0. -1.
       -5    1    3    3    0  502 -0.28201629516E+03  0.32924160299E+02 -0.15139107263E+02  0.28437382727E+03  0.46999998093E+01 0.  1.
</event>
<event>
 5   0  0.1571895E-02  0.1000186E+04  0.7818609E-02  0.9308341E-01
       -2   -1    0    0    0  501  0.00000000000E+00  0.00000000000E+00  0.23652559825E+03  0.23652559827E+03  0.25500000920E-02 0.  1.
        2   -1    0    0  501    0  0.00000000000E+00  0.00000000000E+00 -0.10573616870E+04  0.10573616870E+04  0.25500000920E-02 0. -1.
    10030    2    1    2    0    0  0.00000000000E+00  0.00000000000E+00 -0.82083608879E+03  0.12938872853E+04  0.10001861939E+04 0.  0.
        2    1    3    3  502    0  0.34140062780E+03 -0.29615827719E+03 -0.13347801032E+03  0.47125417033E+03  0.25500000920E-02 0.  1.
       -2    1    3    3    0  502 -0.34140062780E+03  0.29615827719E+03 -0.68735807847E+03  0.82263311498E+03  0.25500000920E-02 0. -1.
</event>
<event>
 5   0  0.1663497E-02  0.1008470E+04  0.7818609E-02  0.9299304E-01
       -2   -1    0    0    0  501  0.00000000000E+00  0.00000000000E+00  0.50653607145E+03  0.50653607145E+03  0.25500000920E-02 0. -1.
        2   -1    0    0  501    0  0.00000000000E+00  0.00000000000E+00 -0.50194408336E+03  0.50194408336E+03  0.25500000920E-02 0.  1.
    10030    2    1    2    0    0  0.00000000000E+00  0.00000000000E+00  0.45919880907E+01  0.10084801548E+04  0.10084697002E+04 0.  0.
        1    1    3    3  502    0  0.36695442568E+03 -0.17817709696E+03  0.29869433597E+03  0.50558969014E+03  0.50400001928E-02 0.  1.
       -1    1    3    3    0  502 -0.36695442568E+03  0.17817709696E+03 -0.29410234788E+03  0.50289046468E+03  0.50400001928E-02 0. -1.
</event>
<event>
 5   0  0.1663497E-02  0.1022381E+04  0.7818609E-02  0.9284333E-01
       -2   -1    0    0    0  501  0.00000000000E+00  0.00000000000E+00  0.18026216558E+03  0.18026216559E+03  0.25500000920E-02 0.  1.
        2   -1    0    0  501    0  0.00000000000E+00  0.00000000000E+00 -0.14496417095E+04  0.14496417095E+04  0.25500000920E-02 0. -1.
    10030    2    1    2    0    0  0.00000000000E+00  0.00000000000E+00 -0.12693795440E+04  0.16299038751E+04  0.10223806608E+04 0.  0.
        1    1    3    3  502    0  0.26397529525E+03  0.30019986571E+03 -0.11426262735E+04  0.12105361279E+04  0.50400001928E-02 0. -1.
       -1    1    3    3    0  502 -0.26397529525E+03 -0.30019986571E+03 -0.12675327045E+03  0.41936774729E+03  0.50400001928E-02 0.  1.
</event>
<event>
 5   0  0.1598986E-02  0.9980537E+03  0.7818609E-02  0.9310682E-01
        2   -1    0    0  501    0  0.00000000000E+00  0.00000000000E+00  0.41050000878E+03  0.41050000879E+03  0.25500000920E-02 0.  1.
       -2   -1    0    0    0  501  0.00000000000E+00  0.00000000000E+00 -0.60664502388E+03  0.60664502388E+03  0.25500000920E-02 0. -1.
    10030    2    1    2    0    0  0.00000000000E+00  0.00000000000E+00 -0.19614501509E+03  0.10171450327E+04  0.99805368119E+03 0.  0.
        3    1    3    3  502    0 -0.47312610714E+03  0.32329476140E+02  0.60251238708E+02  0.47804155703E+03  0.10100000352E+00 0.  1.
       -3    1    3    3    0  502  0.47312610714E+03 -0.32329476140E+02 -0.25639625380E+03  0.53910347564E+03  0.10100000352E+00 0. -1.
</event>
<event>
 5   0  0.9471140E-03  0.1004543E+04  0.7818609E-02  0.9303576E-01
       -1   -1    0    0    0  501  0.00000000000E+00  0.00000000000E+00  0.19151781402E+03  0.19151781409E+03  0.50400001928E-02 0. -1.
        1   -1    0    0  501    0  0.00000000000E+00  0.00000000000E+00 -0.13172496677E+04  0.13172496677E+04  0.50400001928E-02 0.  1.
    10030    2    1    2    0    0  0.00000000000E+00  0.00000000000E+00 -0.11257318536E+04  0.15087674818E+04  0.10045432334E+04 0.  0.
        4    1    3    3  502    0 -0.48153259171E+03  0.70546286389E+02 -0.74940195713E+03  0.89356327233E+03  0.12699999809E+01 0. -1.
       -4    1    3    3    0  502  0.48153259171E+03 -0.70546286389E+02 -0.37632989649E+03  0.61520420942E+03  0.12699999809E+01 0.  1.
</event>
<event>
 5   0  0.1598986E-02  0.9870326E+03  0.7818609E-02  0.9322883E-01
       -2   -1    0    0    0  501  0.00000000000E+00  0.00000000000E+00  0.10028624896E+03  0.10028624900E+03  0.25500000920E-02 0. -1.
        2   -1    0    0  501    0  0.00000000000E+00  0.00000000000E+00 -0.24286312559E+04  0.24286312559E+04  0.25500000920E-02 0.  1.
    10030    2    1    2    0    0  0.00000000000E+00  0.00000000000E+00 -0.23283450069E+04  0.25289175049E+04  0.98703256038E+03 0.  0.
        3    1    3    3  502    0  0.45309991777E+03 -0.17894139805E+03 -0.13665452130E+04  0.14507809583E+04  0.10100000352E+00 0.  1.
       -3    1    3    3    0  502 -0.45309991777E+03  0.17894139805E+03 -0.96179979387E+03  0.10781365466E+04  0.10100000352E+00 0. -1.
</event>
<event>
 5   0  0.9759443E-03  0.9605468E+03  0.7818609E-02  0.9352907E-01
        1   -1    0    0  501    0  0.00000000000E+00  0.00000000000E+00  0.42842222349E+03  0.42842222352E+03  0.50400001928E-02 0.  1.
       -1   -1    0    0    0  501  0.00000000000E+00  0.00000000000E+00 -0.53840000407E+03  0.53840000409E+03  0.50400001928E-02 0. -1.
    10030    2    1    2    0    0  0.00000000000E+00  0.00000000000E+00 -0.10997778058E+03  0.96682222762E+03  0.96054677533E+03 0.  0.
        2    1    3    3  502    0 -0.30415888532E+03  0.35756559328E+03  0.47146935681E+02  0.47179297850E+03  0.25500000920E-02 0. -1.
       -2    1    3    3    0  502  0.30415888532E+03 -0.35756559328E+03 -0.15712471626E+03  0.49502924912E+03  0.25500000920E-02 0.  1.
</event>
<event>
 5   0  0.1617721E-02  0.9912548E+03  0.7818609E-02  0.9318189E-01
       -2   -1    0    0    0  501  0.00000000000E+00  0.00000000000E+00  0.27185670613E+03  0.27185670614E+03  0.25500000920E-02 0. -1.
        2   -1    0    0  501    0  0.00000000000E+00  0.00000000000E+00 -0.90358815275E+03  0.90358815276E+03  0.25500000920E-02 0.  1.
    10030    2    1    2    0    0  0.00000000000E+00  0.00000000000E+00 -0.63173144663E+03  0.11754448589E+04  0.99125475820E+03 0.  0.
        5    1    3    3  502    0 -0.37425349951E+03  0.54250257831E+02  0.63994437315E+02  0.38357026784E+03  0.46999998093E+01 0. -1.
       -5    1    3    3    0  502  0.37425349951E+03 -0.54250257831E+02 -0.69572588394E+03  0.79187459105E+03  0.46999998093E+01 0.  1.
</event>
<event>
 5   0  0.1598986E-02  0.1003490E+04  0.7818609E-02  0.9304726E-01
       -2   -1    0    0    0  501  0.00000000000E+00  0.00000000000E+00  0.56596250575E+03  0.56596250576E+03  0.25500000920E-02 0.  1.
        2   -1    0    0  501    0  0.00000000000E+00  0.00000000000E+00 -0.44481358564E+03  0.44481358565E+03  0.25500000920E-02 0. -1.
    10030    2    1    2    0    0  0.00000000000E+00  0.00000000000E+00  0.12114892011E+03  0.10107760914E+04  0.10034895346E+04 0.  0.
        3    1    3    3  502    0 -0.35609590591E+03  0.24073277146E+03  0.32128051687E+03  0.53663557670E+03  0.10100000352E+00 0. -1.
       -3    1    3    3    0  502  0.35609590591E+03 -0.24073277146E+03 -0.20013159676E+03  0.47414051470E+03  0.10100000352E+00 0.  1.
</event>
<event>
 5   0  0.9759443E-03  0.1023632E+04  0.7818609E-02  0.9282998E-01
       -1   -1    0    0    0  501  0.00000000000E+00  0.00000000000E+00  0.56217069940E+03  0.56217069943E+03  0.50400001928E-02 0.  1.
        1   -1    0    0  501    0  0.00000000000E+00  0.00000000000E+00 -0.46597210344E+03  0.46597210347E+03  0.50400001928E-02 0. -1.
    10030    2    1    2    0    0  0.00000000000E+00  0.00000000000E+00  0.96198595961E+02  0.10281428029E+04  0.10236324796E+04 0.  0.
        2    1    3    3  502    0  0.62372486059E+02 -0.43699105821E+02  0.55644784278E+03  0.56163523804E+03  0.25500000920E-02 0.  1.
       -2    1    3    3    0  502 -0.62372486059E+02  0.43699105821E+02 -0.46024924682E+03  0.46650756486E+03  0.25500000920E-02 0. -1.
</event>
<event>
 5   0  0.9759443E-03  0.6710238E+03  0.7818609E-02  0.9768110E-01
        1   -1    0    0  501    0  0.00000000000E+00  0.00000000000E+00  0.65376861040E+03  0.65376861042E+03  0.50400001928E-02 0.  1.
       -1   -1    0    0    0  501  0.00000000000E+00  0.00000000000E+00 -0.17218361586E+03  0.17218361593E+03  0.50400001928E-02 0. -1.
    10030    2    1    2    0    0  0.00000000000E+00  0.00000000000E+00  0.48158499455E+03  0.82595222636E+03  0.67102382465E+03 0.  0.
        2    1    3    3  502    0 -0.20963915647E+03  0.26132004805E+03  0.26320336474E+03  0.42604313708E+03  0.25500000920E-02 0. -1.
       -2    1    3    3    0  502  0.20963915647E+03 -0.26132004805E+03  0.21838162981E+03  0.39990908927E+03  0.25500000920E-02 0.  1.
</event>
<event>
 5   0  0.9396660E-03  0.9833622E+03  0.7818609E-02  0.9326983E-01
       -1   -1    0    0    0  501  0.00000000000E+00  0.00000000000E+00  0.10608180798E+03  0.10608180810E+03  0.50400001928E-02 0. -1.
        1   -1    0    0  501    0  0.00000000000E+00  0.00000000000E+00 -0.22789044603E+04  0.22789044603E+04  0.50400001928E-02 0.  1.
    10030    2    1    2    0    0  0.00000000000E+00  0.00000000000E+00 -0.21728226523E+04  0.23849862684E+04  0.98336220289E+03 0.  0.
        5    1    3    3  502    0  0.64112871305E+02 -0.12121976504E+03  0.58706884343E+02  0.14924235314E+03  0.46999998093E+01 0. -1.
       -5    1    3    3    0  502 -0.64112871305E+02  0.12121976504E+03 -0.22315295366E+04  0.22357439152E+04  0.46999998093E+01 0.  1.
</event>
<event>
 5   0  0.1571895E-02  0.9964248E+03  0.7818609E-02  0.9312475E-01
        2   -1    0    0  501    0  0.00000000000E+00  0.00000000000E+00  0.67685561508E+03  0.67685561508E+03  0.25500000920E-02 0.  1.
       -2   -1    0    0    0  501  0.00000000000E+00  0.00000000000E+00 -0.36671868454E+03  0.36671868454E+03  0.25500000920E-02 0. -1.
    10030    2    1    2    0    0  0.00000000000E+00  0.00000000000E+00  0.31013693054E+03  0.10435742996E+04  0.99642481059E+03 0.  0.
        2    1    3    3  502    0  0.18057726398E+03  0.35577538808E+03 -0.15743170804E+03  0.42891609638E+03  0.25500000920E-02 0. -1.
       -2    1    3    3    0  502 -0.18057726398E+03 -0.35577538808E+03  0.46756863859E+03  0.61465820325E+03  0.25500000920E-02 0.  1.
</event>
<event>
 5   0  0.1571895E-02  0.1116359E+04  0.7818609E-02  0.9189393E-01
        2   -1    0    0  501    0  0.00000000000E+00  0.00000000000E+00  0.30959474119E+03  0.30959474120E+03  0.25500000920E-02 0. -1.
       -2   -1    0    0    0  501  0.00000000000E+00  0.00000000000E+00 -0.10063613551E+04  0.10063613551E+04  0.25500000920E-02 0.  1.
    10030    2    1    2    0    0  0.00000000000E+00  0.00000000000E+00 -0.69676661392E+03  0.13159560963E+04  0.11163586938E+04 0.  0.
        2    1    3    3  502    0  0.74852446345E+02  0.37027773626E+03  0.13600705662E+03  0.40150518072E+03  0.25500000920E-02 0. -1.
       -2    1    3    3    0  502 -0.74852446345E+02 -0.37027773626E+03 -0.83277367054E+03  0.91445091560E+03  0.25500000920E-02 0.  1.
</event>
<event>
 5   0  0.1000773E-02  0.8308291E+03  0.7818609E-02  0.9516435E-01
       -1   -1    0    0    0  501  0.00000000000E+00  0.00000000000E+00  0.19816576824E+03  0.19816576830E+03  0.50400001928E-02 0.  1.
        1   -1    0    0  501    0  0.00000000000E+00  0.00000000000E+00 -0.87083278100E+03  0.87083278101E+03  0.50400001928E-02 0. -1.
    10030    2    1    2    0    0  0.00000000000E+00  0.00000000000E+00 -0.67266701276E+03  0.10689985493E+04  0.83082909698E+03 0.  0.
        3    1    3    3  502    0  0.19775565586E+03 -0.16930400641E+03 -0.75285949476E+03  0.79659812645E+03  0.10100000352E+00 0. -1.
       -3    1    3    3    0  502 -0.19775565586E+03  0.16930400641E+03  0.80192481995E+02  0.27240042287E+03  0.10100000352E+00 0.  1.
</event>
<event>
 5   0  0.1656859E-02  0.9856007E+03  0.7818609E-02  0.9324480E-01
       -2   -1    0    0    0  501  0.00000000000E+00  0.00000000000E+00  0.16072333746E+03  0.16072333748E+03  0.25500000920E-02 0.  1.
        2   -1    0    0  501    0  0.00000000000E+00  0.00000000000E+00 -0.15109952935E+04  0.15109952935E+04  0.25500000920E-02 0. -1.
    10030    2    1    2    0    0  0.00000000000E+00  0.00000000000E+00 -0.13502719560E+04  0.16717186309E+04  0.98560074364E+03 0.  0.
        4    1    3    3  502    0 -0.94843171571E+02 -0.30221758136E+03 -0.13154601763E+04  0.13530586765E+04  0.12699999809E+01 0. -1.
       -4    1    3    3    0  502  0.94843171571E+02  0.30221758136E+03 -0.34811779716E+02  0.31865995447E+03  0.12699999809E+01 0.  1.
</event>
<event>
 5   0  0.9507815E-03  0.9616972E+03  0.7818609E-02  0.9351582E-01
       -1   -1    0    0    0  501  0.00000000000E+00  0.00000000000E+00  0.76419810835E+03  0.76419810837E+03  0.50400001928E-02 0.  1.
        1   -1    0    0  501    0  0.00000000000E+00  0.00000000000E+00 -0.30255947500E+03  0.30255947504E+03  0.50400001928E-02 0. -1.
    10030    2    1    2    0    0  0.00000000000E+00  0.00000000000E+00  0.46163863335E+03  0.10667575834E+04  0.96169720493E+03 0.  0.
        1    1    3    3  502    0 -0.23990031171E+03 -0.11201448287E+03  0.67606189225E+03  0.72605721958E+03  0.50400001928E-02 0.  1.
       -1    1    3    3    0  502  0.23990031171E+03  0.11201448287E+03 -0.21442325890E+03  0.34070036383E+03  0.50400001928E-02 0. -1.
</event>
<event>
 5   0  0.1571895E-02  0.9686405E+03  0.7818609E-02  0.9343624E-01
        2   -1    0    0  501    0  0.00000000000E+00  0.00000000000E+00  0.54253729045E+03  0.54253729046E+03  0.25500000920E-02 0.  1.
       -2   -1    0    0    0  501  0.00000000000E+00  0.00000000000E+00 -0.43235024158E+03  0.43235024159E+03  0.25500000920E-02 0. -1.
    10030    2    1    2    0    0  0.00000000000E+00  0.00000000000E+00  0.11018704887E+03  0.97488753205E+03  0.96864054964E+03 0.  0.
        2    1    3    3  502    0 -0.11015925902E+01 -0.21846319840E+03  0.49012967001E+03  0.53661389843E+03  0.25500000920E-02 0.  1.
       -2    1    3    3    0  502  0.11015925902E+01  0.21846319840E+03 -0.37994262114E+03  0.43827363361E+03  0.25500000920E-02 0. -1.
</event>
<event>
 5   0  0.1000773E-02  0.1004161E+04  0.7818609E-02  0.9303992E-01
        1   -1    0    0  501    0  0.00000000000E+00  0.00000000000E+00  0.41495914143E+03  0.41495914146E+03  0.50400001928E-02 0.  1.
       -1   -1    0    0    0  501  0.00000000000E+00  0.00000000000E+00 -0.60749368041E+03  0.60749368043E+03  0.50400001928E-02 0. -1.
    10030    2    1    2    0    0  0.00000000000E+00  0.00000000000E+00 -0.19253453898E+03  0.10224528219E+04  0.10041614533E+04 0.  0.
        3    1    3    3  502    0  0.34643431474E+03 -0.36250679233E+03 -0.12236890241E+03  0.51614151876E+03  0.10100000352E+00 0.  1.
       -3    1    3    3    0  502 -0.34643431474E+03  0.36250679233E+03 -0.70165636577E+02  0.50631130313E+03  0.10100000352E+00 0. -1.
</event>
<event>
 5   0  0.1663497E-02  0.1026127E+04  0.7818609E-02  0.9280344E-01
        2   -1    0    0  501    0  0.00000000000E+00  0.00000000000E+00  0.26829436328E+03  0.26829436329E+03  0.25500000920E-02 0.  1.
       -2   -1    0    0    0  501  0.00000000000E+00  0.00000000000E+00 -0.98114008813E+03  0.98114008814E+03  0.25500000920E-02 0. -1.
    10030    2    1    2    0    0  0.00000000000E+00  0.00000000000E+00 -0.71284572486E+03  0.12494344514E+04  0.10261273902E+04 0.  0.
        1    1    3    3  502    0  0.27780552410E+03  0.42868994038E+03 -0.29823915526E+03  0.59152140110E+03  0.50400001928E-02 0. -1.
       -1    1    3    3    0  502 -0.27780552410E+03 -0.42868994038E+03 -0.41460656960E+03  0.65791305032E+03  0.50400001928E-02 0.  1.
</event>
<event>
 5   0  0.1617721E-02  0.9877147E+03  0.7818609E-02  0.9322123E-01
        2   -1    0    0  501    0  0.00000000000E+00  0.00000000000E+00  0.63480214615E+03  0.63480214615E+03  0.25500000920E-02 0. -1.
       -2   -1    0    0    0  501  0.00000000000E+00  0.00000000000E+00 -0.38420642425E+03  0.38420642425E+03  0.25500000920E-02 0.  1.
    10030    2    1    2    0    0  0.00000000000E+00  0.00000000000E+00  0.25059572190E+03  0.10190085704E+04  0.98771466058E+03 0.  0.
        5    1    3    3  502    0 -0.30908566140E+03  0.11727208334E+03 -0.25318545455E+03  0.41642724696E+03  0.46999998093E+01 0.  1.
       -5    1    3    3    0  502  0.30908566140E+03 -0.11727208334E+03  0.50378117646E+03  0.60258132345E+03  0.46999998093E+01 0. -1.
</event>
<event>
 5   0  0.9507815E-03  0.9983427E+03  0.7818609E-02  0.9310364E-01
       -1   -1    0    0    0  501  0.00000000000E+00  0.00000000000E+00  0.29184478203E+03  0.29184478207E+03  0.50400001928E-02 0.  1.
        1   -1    0    0  501    0  0.00000000000E+00  0.00000000000E+00 -0.85378271962E+03  0.85378271964E+03  0.50400001928E-02 0. -1.
    10030    2    1    2    0    0  0.00000000000E+00  0.00000000000E+00 -0.56193793759E+03  0.11456275017E+04  0.99834269015E+03 0.  0.
        1    1    3    3  502    0  0.23648626488E+03  0.32004883624E+03 -0.62678301655E+03  0.74243784987E+03  0.50400001928E-02 0. -1.
       -1    1    3    3    0  502 -0.23648626488E+03 -0.32004883624E+03  0.64845078963E+02  0.40318965184E+03  0.50400001928E-02 0.  1.
</event>
<event>
 5   0  0.9471140E-03  0.1142064E+04  0.7818609E-02  0.9165136E-01
       -1   -1    0    0    0  501  0.00000000000E+00  0.00000000000E+00  0.47810916049E+03  0.47810916052E+03  0.50400001928E-02 0. -1.
        1   -1    0    0  501    0  0.00000000000E+00  0.00000000000E+00 -0.68201522833E+03  0.68201522835E+03  0.50400001928E-02 0.  1.
    10030    2    1    2    0    0  0.00000000000E+00  0.00000000000E+00 -0.20390606784E+03  0.11601243889E+04  0.11420643209E+04 0.  0.
        4    1    3    3  502    0  0.83834082861E+02  0.11371648761E+02 -0.67561221648E+03  0.68088982060E+03  0.12699999809E+01 0.  1.
       -4    1    3    3    0  502 -0.83834082861E+02 -0.11371648761E+02  0.47170614864E+03  0.47923456826E+03  0.12699999809E+01 0. -1.
</event>
<event>
 5   0  0.9471140E-03  0.9470938E+03  0.7818609E-02  0.9368554E-01
        1   -1    0    0  501    0  0.00000000000E+00  0.00000000000E+00  0.91622713534E+03  0.91622713536E+03  0.50400001928E-02 0. -1.
       -1   -1    0    0    0  501  0.00000000000E+00  0.00000000000E+00 -0.24475007901E+03  0.24475007906E+03  0.50400001928E-02 0.  1.
    10030    2    1    2    0    0  0.00000000000E+00  0.00000000000E+00  0.67147705634E+03  0.11609772144E+04  0.94709379430E+03 0.  0.
        4    1    3    3  502    0 -0.20229811058E+02  0.17122590429E+03 -0.20490379388E+03  0.26779606644E+03  0.12699999809E+01 0.  1.
       -4    1    3    3    0  502  0.20229811058E+02 -0.17122590429E+03  0.87638085022E+03  0.89318114797E+03  0.12699999809E+01 0. -1.
</event>
<event>
 5   0  0.1571895E-02  0.9957292E+03  0.7818609E-02  0.9313241E-01
       -2   -1    0    0    0  501  0.00000000000E+00  0.00000000000E+00  0.27862748722E+03  0.27862748723E+03  0.25500000920E-02 0.  1.
        2   -1    0    0  501    0  0.00000000000E+00  0.00000000000E+00 -0.88960767425E+03  0.88960767426E+03  0.25500000920E-02 0. -1.
    10030    2    1    2    0    0  0.00000000000E+00  0.00000000000E+00 -0.61098018703E+03  0.11682351615E+04  0.99572918186E+03 0.  0.
        2    1    3    3  502    0  0.23615326249E+03  0.24757179462E+03 -0.72982410319E+03  0.80604179699E+03  0.25500000920E-02 0. -1.
       -2    1    3    3    0  502 -0.23615326249E+03 -0.24757179462E+03  0.11884391616E+03  0.36219336451E+03  0.25500000920E-02 0.  1.
</event>
<event>
 5   0  0.1571895E-02  0.1195908E+04  0.7818609E-02  0.9116446E-01
       -2   -1    0    0    0  501  0.00000000000E+00  0.00000000000E+00  0.23553777292E+03  0.23553777294E+03  0.25500000920E-02 0. -1.
        2   -1    0    0  501    0  0.00000000000E+00  0.00000000000E+00 -0.15180116061E+04  0.15180116061E+04  0.25500000920E-02 0.  1.
    10030    2    1    2    0    0  0.00000000000E+00  0.00000000000E+00 -0.12824738332E+04  0.17535493790E+04  0.11959081453E+04 0.  0.
        2    1    3    3  502    0  0.45576085691E+03 -0.30081745682E+03 -0.28405139677E+03  0.61554390342E+03  0.25500000920E-02 0. -1.
       -2    1    3    3    0  502 -0.45576085691E+03  0.30081745682E+03 -0.99842243638E+03  0.11380054756E+04  0.25500000920E-02 0.  1.
</event>
<event>
 5   0  0.1656859E-02  0.9433814E+03  0.7818609E-02  0.9372920E-01
       -2   -1    0    0    0  501  0.00000000000E+00  0.00000000000E+00  0.19963553925E+03  0.19963553927E+03  0.25500000920E-02 0.  1.
        2   -1    0    0  501    0  0.00000000000E+00  0.00000000000E+00 -0.11144916240E+04  0.11144916240E+04  0.25500000920E-02 0. -1.
    10030    2    1    2    0    0  0.00000000000E+00  0.00000000000E+00 -0.91485608471E+03  0.13141271632E+04  0.94338144217E+03 0.  0.
        4    1    3    3  502    0  0.47318401360E+02  0.42008451867E+03 -0.16596038511E+03  0.45415250331E+03  0.12699999809E+01 0.  1.
       -4    1    3    3    0  502 -0.47318401360E+02 -0.42008451867E+03 -0.74889569960E+03  0.85997465993E+03  0.12699999809E+01 0. -1.
</event>
<event>
 5   0  0.1617721E-02  0.1012934E+04  0.7818609E-02  0.9294472E-01
        2   -1    0    0  501    0  0.00000000000E+00  0.00000000000E+00  0.93922007025E+03  0.93922007026E+03  0.25500000920E-02 0.  1.
       -2   -1    0    0    0  501  0.00000000000E+00  0.00000000000E+00 -0.27310837568E+03  0.27310837569E+03  0.25500000920E-02 0. -1.
    10030    2    1    2    0    0  0.00000000000E+00  0.00000000000E+00  0.66611169458E+03  0.12123284459E+04  0.10129340903E+04 0.  0.
        5    1    3    3  502    0  0.81390884208E+02 -0.38025212085E+03 -0.55266792659E+02  0.39280104355E+03  0.46999998093E+01 0.  1.
       -5    1    3    3    0  502 -0.81390884208E+02  0.38025212085E+03  0.72137848724E+03  0.81952740240E+03  0.46999998093E+01 0. -1.
</event>
<event>
 5   0  0.1571895E-02  0.9796126E+03  0.7818609E-02  0.9331192E-01
        2   -1    0    0  501    0  0.00000000000E+00  0.00000000000E+00  0.14229308111E+04  0.14229308111E+04  0.25500000920E-02 0.  1.
       -2   -1    0    0    0  501  0.00000000000E+00  0.00000000000E+00 -0.16860285059E+03  0.16860285061E+03  0.25500000920E-02 0. -1.
    10030    2    1    2    0    0  0.00000000000E+00  0.00000000000E+00  0.12543279605E+04  0.15915336617E+04  0.97961255802E+03 0.  0.
        2    1    3    3  502    0  0.10940252494E+03  0.47282828214E+03  0.51970682739E+03  0.71107712894E+03  0.25500000920E-02 0.  1.
       -2    1    3    3    0  502 -0.10940252494E+03 -0.47282828214E+03  0.73462113312E+03  0.88045653277E+03  0.25500000920E-02 0. -1.
</event>
<event>
 5   0  0.1663497E-02  0.9886760E+03  0.7818609E-02  0.9321053E-01
       -2   -1    0    0    0  501  0.00000000000E+00  0.00000000000E+00  0.26024897101E+03  0.26024897102E+03  0.25500000920E-02 0.  1.
        2   -1    0    0  501    0  0.00000000000E+00  0.00000000000E+00 -0.93898571719E+03  0.93898571719E+03  0.25500000920E-02 0. -1.
    10030    2    1    2    0    0  0.00000000000E+00  0.00000000000E+00 -0.67873674618E+03  0.11992346882E+04  0.98867601710E+03 0.  0.
        1    1    3    3  502    0 -0.47347823962E+02  0.10162877146E+03 -0.92336017639E+03  0.93014205312E+03  0.50400001928E-02 0. -1.
       -1    1    3    3    0  502  0.47347823962E+02 -0.10162877146E+03  0.24462343021E+03  0.26909263509E+03  0.50400001928E-02 0.  1.
</event>
<event>
 5   0  0.1656859E-02  0.9935628E+03  0.7818609E-02  0.9315633E-01
       -2   -1    0    0    0  501  0.00000000000E+00  0.00000000000E+00  0.21062888950E+03  0.21062888951E+03  0.25500000920E-02 0.  1.
        2   -1    0    0  501    0  0.00000000000E+00  0.00000000000E+00 -0.11716900427E+04  0.11716900427E+04  0.25500000920E-02 0. -1.
    10030    2    1    2    0    0  0.00000000000E+00  0.00000000000E+00 -0.96106115322E+03  0.13823189322E+04  0.99356282648E+03 0.  0.
        4    1    3    3  502    0  0.71822257178E+02 -0.41780005372E+03 -0.12020695123E+03  0.44064344491E+03  0.12699999809E+01 0.  1.
       -4    1    3    3    0  502 -0.71822257178E+02  0.41780005372E+03 -0.84085420198E+03  0.94167548731E+03  0.12699999809E+01 0. -1.
</event>
<event>
 5   0  0.1656859E-02  0.9768655E+03  0.7818609E-02  0.9334289E-01
       -2   -1    0    0    0  501  0.00000000000E+00  0.00000000000E+00  0.14650997006E+03  0.14650997008E+03  0.25500000920E-02 0.  1.
        2   -1    0    0  501    0  0.00000000000E+00  0.00000000000E+00 -0.16283296885E+04  0.16283296885E+04  0.25500000920E-02 0. -1.
    10030    2    1    2    0    0  0.00000000000E+00  0.00000000000E+00 -0.14818197184E+04  0.17748396586E+04  0.97686546449E+03 0.  0.
        4    1    3    3  502    0  0.16828757498E+03  0.45627040010E+03 -0.82340336075E+03  0.95629393666E+03  0.12699999809E+01 0.  1.
       -4    1    3    3    0  502 -0.16828757498E+03 -0.45627040010E+03 -0.65841635769E+03  0.81854572192E+03  0.12699999809E+01 0. -1.
</event>
<event>
 5   0  0.1617721E-02  0.9952225E+03  0.7818609E-02  0.9313800E-01
       -2   -1    0    0    0  501  0.00000000000E+00  0.00000000000E+00  0.35727217324E+03  0.35727217325E+03  0.25500000920E-02 0.  1.
        2   -1    0    0  501    0  0.00000000000E+00  0.00000000000E+00 -0.69307651107E+03  0.69307651108E+03  0.25500000920E-02 0. -1.
    10030    2    1    2    0    0  0.00000000000E+00  0.00000000000E+00 -0.33580433783E+03  0.10503486843E+04  0.99522249038E+03 0.  0.
        5    1    3    3  502    0  0.46736475501E+03 -0.16748139270E+03 -0.13266048670E+03  0.51390731252E+03  0.46999998093E+01 0. -1.
       -5    1    3    3    0  502 -0.46736475501E+03  0.16748139270E+03 -0.20314385113E+03  0.53644137180E+03  0.46999998093E+01 0.  1.
</event>
<event>
 5   0  0.9759443E-03  0.9648371E+03  0.7818609E-02  0.9347974E-01
       -1   -1    0    0    0  501  0.00000000000E+00  0.00000000000E+00  0.11036112318E+03  0.11036112329E+03  0.50400001928E-02 0. -1.
        1   -1    0    0  501    0  0.00000000000E+00  0.00000000000E+00 -0.21087830073E+04  0.21087830073E+04  0.50400001928E-02 0.  1.
    10030    2    1    2    0    0  0.00000000000E+00  0.00000000000E+00 -0.19984218841E+04  0.22191441306E+04  0.96483710822E+03 0.  0.
        2    1    3    3  502    0 -0.54636247628E+02  0.26503918293E+03 -0.19177708001E+04  0.19367694054E+04  0.25500000920E-02 0.  1.
       -2    1    3    3    0  502  0.54636247628E+02 -0.26503918293E+03 -0.80651083994E+02  0.28237472515E+03  0.25500000920E-02 0. -1.
</event>
<event>
 5   0  0.1617721E-02  0.9229957E+03  0.7818609E-02  0.9397284E-01
        2   -1    0    0  501    0  0.00000000000E+00  0.00000000000E+00  0.68600578790E+03  0.68600578791E+03  0.25500000920E-02 0.  1.
       -2   -1    0    0    0  501  0.00000000000E+00  0.00000000000E+00 -0.31046425166E+03  0.31046425168E+03  0.25500000920E-02 0. -1.
    10030    2    1    2    0    0  0.00000000000E+00  0.00000000000E+00  0.37554153624E+03  0.99647003958E+03  0.92299571740E+03 0.  0.
        5    1    3    3  502    0 -0.19887627663E+02  0.41766574811E+03 -0.23009303670E+02  0.41879793807E+03  0.46999998093E+01 0. -1.
       -5    1    3    3    0  502  0.19887627663E+02 -0.41766574811E+03  0.39855083991E+03  0.57767210151E+03  0.46999998093E+01 0.  1.
</event>
<event>
 5   0  0.1598986E-02  0.1013003E+04  0.7818609E-02  0.9294398E-01
        2   -1    0    0  501    0  0.00000000000E+00  0.00000000000E+00  0.25267903695E+04  0.25267903695E+04  0.25500000920E-02 0.  1.
       -2   -1    0    0    0  501  0.00000000000E+00  0.00000000000E+00 -0.10152944720E+03  0.10152944723E+03  0.25500000920E-02 0. -1.
    10030    2    1    2    0    0  0.00000000000E+00  0.00000000000E+00  0.24252609223E+04  0.26283198167E+04  0.10130027235E+04 0.  0.
        3    1    3    3  502    0  0.27871144006E+03  0.15873244057E+03  0.19554206169E+03  0.37564978717E+03  0.10100000352E+00 0. -1.
       -3    1    3    3    0  502 -0.27871144006E+03 -0.15873244057E+03  0.22297188606E+04  0.22526700296E+04  0.10100000352E+00 0.  1.
</event>
<event>
 5   0  0.6314750E-03  0.1020768E+04  0.7818609E-02  0.9286055E-01
       -4   -1    0    0    0  501  0.00000000000E+00  0.00000000000E+00  0.62651953927E+03  0.62652082646E+03  0.12699999809E+01 0. -1.
        4   -1    0    0  501    0  0.00000000000E+00  0.00000000000E+00 -0.41577363849E+03  0.41577557812E+03  0.12699999809E+01 0.  1.
    10030    2    1    2    0    0  0.00000000000E+00  0.00000000000E+00  0.21074590079E+03  0.10422964046E+04  0.10207683186E+04 0.  0.
        2    1    3    3  502    0 -0.10190886369E+03 -0.38951928073E+03 -0.21490006109E+03  0.45639097584E+03  0.25500000920E-02 0.  1.
       -2    1    3    3    0  502  0.10190886369E+03  0.38951928073E+03  0.42564596188E+03  0.58590542875E+03  0.25500000920E-02 0. -1.
</event>
<event>
 5   0  0.9507815E-03  0.9839830E+03  0.7818609E-02  0.9326289E-01
       -1   -1    0    0    0  501  0.00000000000E+00  0.00000000000E+00  0.49272577290E+03  0.49272577292E+03  0.50400001928E-02 0. -1.
        1   -1    0    0  501    0  0.00000000000E+00  0.00000000000E+00 -0.49125828649E+03  0.49125828652E+03  0.50400001928E-02 0.  1.
    10030    2    1    2    0    0  0.00000000000E+00  0.00000000000E+00  0.14674864028E+01  0.98398405944E+03  0.98398296516E+03 0.  0.
        1    1    3    3  502    0  0.35858654544E+03 -0.31051045216E+02  0.33615495774E+03  0.49249226757E+03  0.50400001928E-02 0. -1.
       -1    1    3    3    0  502 -0.35858654544E+03  0.31051045216E+02 -0.33468747134E+03  0.49149179187E+03  0.50400001928E-02 0.  1.
</event>
<event>
 5   0  0.9396660E-03  0.9700696E+03  0.7818609E-02  0.9341995E-01
       -1   -1    0    0    0  501  0.00000000000E+00  0.00000000000E+00  0.16948524561E+03  0.16948524569E+03  0.50400001928E-02 0. -1.
        1   -1    0    0  501    0  0.00000000000E+00  0.00000000000E+00 -0.13880780163E+04  0.13880780163E+04  0.50400001928E-02 0.  1.
    10030    2    1    2    0    0  0.00000000000E+00  0.00000000000E+00 -0.12185927707E+04  0.15575632620E+04  0.97006957192E+03 0.  0.
        5    1    3    3  502    0 -0.32097740790E+03 -0.23625812037E+03 -0.16551663087E+03  0.43158109425E+03  0.46999998093E+01 0. -1.
       -5    1    3    3    0  502  0.32097740790E+03  0.23625812037E+03 -0.10530761399E+04  0.11259821678E+04  0.46999998093E+01 0.  1.
</event>
<event>
 5   0  0.9396660E-03  0.1021728E+04  0.7818609E-02  0.9285030E-01
        1   -1    0    0  501    0  0.00000000000E+00  0.00000000000E+00  0.13302411815E+04  0.13302411816E+04  0.50400001928E-02 0. -1.
       -1   -1    0    0    0  501  0.00000000000E+00  0.00000000000E+00 -0.19619134274E+03  0.19619134280E+03  0.50400001928E-02 0.  1.
    10030    2    1    2    0    0  0.00000000000E+00  0.00000000000E+00  0.11340498388E+04  0.15264325244E+04  0.10217275637E+04 0.  0.
        5    1    3    3  502    0 -0.84610130057E+02  0.14813885011E+03 -0.15234356810E+03  0.22876766764E+03  0.46999998093E+01 0.  1.
       -5    1    3    3    0  502  0.84610130057E+02 -0.14813885011E+03  0.12863934069E+04  0.12976648567E+04  0.46999998093E+01 0. -1.
</event>
<event>
 5   0  0.6314750E-03  0.9968109E+03  0.7818609E-02  0.9312049E-01
        3   -1    0    0  501    0  0.00000000000E+00  0.00000000000E+00  0.12963023593E+04  0.12963023633E+04  0.10100000352E+00 0.  1.
       -3   -1    0    0    0  501  0.00000000000E+00  0.00000000000E+00 -0.19162812256E+03  0.19162814918E+03  0.10100000352E+00 0. -1.
    10030    2    1    2    0    0  0.00000000000E+00  0.00000000000E+00  0.11046742368E+04  0.14879305125E+04  0.99681093518E+03 0.  0.
        5    1    3    3  502    0  0.14850819746E+03  0.41179937153E+03  0.90793765253E+03  0.10079713676E+04  0.46999998093E+01 0.  1.
       -5    1    3    3    0  502 -0.14850819746E+03 -0.41179937153E+03  0.19673658424E+03  0.47995914481E+03  0.46999998093E+01 0. -1.
</event>
<event>
 5   0  0.1663497E-02  0.1038336E+04  0.7818609E-02  0.9267470E-01
        2   -1    0    0  501    0  0.00000000000E+00  0.00000000000E+00  0.65735552591E+03  0.65735552591E+03  0.25500000920E-02 0.  1.
       -2   -1    0    0    0  501  0.00000000000E+00  0.00000000000E+00 -0.41002987399E+03  0.41002987399E+03  0.25500000920E-02 0. -1.
    10030    2    1    2    0    0  0.00000000000E+00  0.00000000000E+00  0.24732565192E+03  0.10673853999E+04  0.10383359831E+04 0.  0.
        1    1    3    3  502    0  0.36476687814E+03  0.31208699621E+03 -0.79560263101E+02  0.48660353891E+03  0.50400001928E-02 0. -1.
       -1    1    3    3    0  502 -0.36476687814E+03 -0.31208699621E+03  0.32688591502E+03  0.58078186099E+03  0.50400001928E-02 0.  1.
</event>
<event>
 5   0  0.1663497E-02  0.1019121E+04  0.7818609E-02  0.9287818E-01
       -2   -1    0    0    0  501  0.00000000000E+00  0.00000000000E+00  0.37277289455E+03  0.37277289456E+03  0.25500000920E-02 0. -1.
        2   -1    0    0  501    0  0.00000000000E+00  0.00000000000E+00 -0.69654215097E+03  0.69654215097E+03  0.25500000920E-02 0.  1.
    10030    2    1    2    0    0  0.00000000000E+00  0.00000000000E+00 -0.32376925642E+03  0.10693150455E+04  0.10191212564E+04 0.  0.
        1    1    3    3  502    0 -0.17375057779E+03 -0.45507892891E+03 -0.49664038665E+01  0.48714552242E+03  0.50400001928E-02 0. -1.
       -1    1    3    3    0  502  0.17375057779E+03  0.45507892891E+03 -0.31880285255E+03  0.58216952311E+03  0.50400001928E-02 0.  1.
</event>
<event>
 5   0  0.9471140E-03  0.9879600E+03  0.7818609E-02  0.9321850E-01
       -1   -1    0    0    0  501  0.00000000000E+00  0.00000000000E+00  0.27847996021E+03  0.27847996026E+03  0.50400001928E-02 0.  1.
        1   -1    0    0  501    0  0.00000000000E+00  0.00000000000E+00 -0.87624337778E+03  0.87624337780E+03  0.50400001928E-02 0. -1.
    10030    2    1    2    0    0  0.00000000000E+00  0.00000000000E+00 -0.59776341757E+03  0.11547233381E+04  0.98795996076E+03 0.  0.
        4    1    3    3  502    0  0.85301858703E+01  0.39211633961E+03  0.52120343055E+02  0.39565910949E+03  0.12699999809E+01 0.  1.
       -4    1    3    3    0  502 -0.85301858703E+01 -0.39211633961E+03 -0.64988376063E+03  0.75906422857E+03  0.12699999809E+01 0. -1.
</event>
<event>
 5   0  0.1571895E-02  0.1051999E+04  0.7818609E-02  0.9253282E-01
       -2   -1    0    0    0  501  0.00000000000E+00  0.00000000000E+00  0.66817623962E+03  0.66817623963E+03  0.25500000920E-02 0. -1.
        2   -1    0    0  501    0  0.00000000000E+00  0.00000000000E+00 -0.41407571892E+03  0.41407571892E+03  0.25500000920E-02 0.  1.
    10030    2    1    2    0    0  0.00000000000E+00  0.00000000000E+00  0.25410052071E+03  0.10822519586E+04  0.10519991574E+04 0.  0.
        2    1    3    3  502    0  0.37216903415E+03 -0.81076237022E+02 -0.24613837501E+03  0.45350550807E+03  0.25500000920E-02 0.  1.
       -2    1    3    3    0  502 -0.37216903415E+03  0.81076237022E+02  0.50023889572E+03  0.62874645048E+03  0.25500000920E-02 0. -1.
</event>
<event>
 5   0  0.6314750E-03  0.1067983E+04  0.7818609E-02  0.9236972E-01
       -3   -1    0    0    0  501  0.00000000000E+00  0.00000000000E+00  0.19397530277E+03  0.19397532906E+03  0.10100000352E+00 0. -1.
        3   -1    0    0  501    0  0.00000000000E+00  0.00000000000E+00 -0.14700159352E+04  0.14700159386E+04  0.10100000352E+00 0.  1.
    10030    2    1    2    0    0  0.00000000000E+00  0.00000000000E+00 -0.12760406324E+04  0.16639912677E+04  0.10679827917E+04 0.  0.
        4    1    3    3  502    0  0.28584028565E+03 -0.39993244718E+03 -0.31307948099E+03  0.58281301078E+03  0.12699999809E+01 0. -1.
       -4    1    3    3    0  502 -0.28584028565E+03  0.39993244718E+03 -0.96296115141E+03  0.10811782569E+04  0.12699999809E+01 0.  1.
</event>
<event>
 5   0  0.1617721E-02  0.9962861E+03  0.7818609E-02  0.9312628E-01
       -2   -1    0    0    0  501  0.00000000000E+00  0.00000000000E+00  0.17320216533E+03  0.17320216535E+03  0.25500000920E-02 0. -1.
        2   -1    0    0  501    0  0.00000000000E+00  0.00000000000E+00 -0.14326985976E+04  0.14326985976E+04  0.25500000920E-02 0.  1.
    10030    2    1    2    0    0  0.00000000000E+00  0.00000000000E+00 -0.12594964323E+04  0.16059007630E+04  0.99628610227E+03 0.  0.
        5    1    3    3  502    0 -0.47588012201E+03  0.31444736375E+02 -0.86151128632E+03  0.98472049254E+03  0.46999998093E+01 0. -1.
       -5    1    3    3    0  502  0.47588012201E+03 -0.31444736375E+02 -0.39798514596E+03  0.62118027043E+03  0.46999998093E+01 0.  1.
</event>
<event>
 5   0  0.1617721E-02  0.1003449E+04  0.7818609E-02  0.9304770E-01
       -2   -1    0    0    0  501  0.00000000000E+00  0.00000000000E+00  0.86118913118E+02  0.86118913156E+02  0.25500000920E-02 0. -1.
        2   -1    0    0  501    0  0.00000000000E+00  0.00000000000E+00 -0.29230206067E+04  0.29230206067E+04  0.25500000920E-02 0.  1.
    10030    2    1    2    0    0  0.00000000000E+00  0.00000000000E+00 -0.28369016936E+04  0.30091395199E+04  0.10034487685E+04 0.  0.
        5    1    3    3  502    0  0.22887552419E+03  0.42298390507E+03 -0.99007520777E+03  0.11007135852E+04  0.46999998093E+01 0. -1.
       -5    1    3    3    0  502 -0.22887552419E+03 -0.42298390507E+03 -0.18468264858E+04  0.19084259347E+04  0.46999998093E+01 0.  1.
</event>
<event>
 5   0  0.9507815E-03  0.1005037E+04  0.7818609E-02  0.9303038E-01
        1   -1    0    0  501    0  0.00000000000E+00  0.00000000000E+00  0.75775310018E+03  0.75775310020E+03  0.50400001928E-02 0.  1.
       -1   -1    0    0    0  501  0.00000000000E+00  0.00000000000E+00 -0.33325472697E+03  0.33325472701E+03  0.50400001928E-02 0. -1.
    10030    2    1    2    0    0  0.00000000000E+00  0.00000000000E+00  0.42449837321E+03  0.10910078272E+04  0.10050369198E+04 0.  0.
        1    1    3    3  502    0 -0.27570499598E+03  0.75539625940E+02 -0.23638932444E+03  0.37094392114E+03  0.50400001928E-02 0. -1.
       -1    1    3    3    0  502  0.27570499598E+03 -0.75539625940E+02  0.66088769765E+03  0.72006390607E+03  0.50400001928E-02 0.  1.
</event>
<event>
 5   0  0.9471140E-03  0.9995091E+03  0.7818609E-02  0.9309083E-01
        1   -1    0    0  501    0  0.00000000000E+00  0.00000000000E+00  0.65792149108E+03  0.65792149110E+03  0.50400001928E-02 0.  1.
       -1   -1    0    0    0  501  0.00000000000E+00  0.00000000000E+00 -0.37961159492E+03  0.37961159496E+03  0.50400001928E-02 0. -1.
    10030    2    1    2    0    0  0.00000000000E+00  0.00000000000E+00  0.27830989615E+03  0.10375330861E+04  0.99950913270E+03 0.  0.
        4    1    3    3  502    0 -0.17899733757E+03 -0.37021758153E+03  0.43395157793E+03  0.59784336529E+03  0.12699999809E+01 0. -1.
       -4    1    3    3    0  502  0.17899733757E+03  0.37021758153E+03 -0.15564168178E+03  0.43968972076E+03  0.12699999809E+01 0.  1.
</event>
<event>
 5   0  0.1598986E-02  0.1012112E+04  0.7818609E-02  0.9295360E-01
        2   -1    0    0  501    0  0.00000000000E+00  0.00000000000E+00  0.21776593992E+03  0.21776593993E+03  0.25500000920E-02 0. -1.
       -2   -1    0    0    0  501  0.00000000000E+00  0.00000000000E+00 -0.11759988191E+04  0.11759988191E+04  0.25500000920E-02 0.  1.
    10030    2    1    2    0    0  0.00000000000E+00  0.00000000000E+00 -0.95823287913E+03  0.13937647590E+04  0.10121116306E+04 0.  0.
        3    1    3    3  502    0 -0.41373742331E+03 -0.17747239627E+03 -0.16084159178E+03  0.47806394419E+03  0.10100000352E+00 0. -1.
       -3    1    3    3    0  502  0.41373742331E+03  0.17747239627E+03 -0.79739128735E+03  0.91570081480E+03  0.10100000352E+00 0.  1.
</event>
<event>
 5   0  0.1663497E-02  0.1005064E+04  0.7818609E-02  0.9303008E-01
       -2   -1    0    0    0  501  0.00000000000E+00  0.00000000000E+00  0.33615282838E+03  0.33615282839E+03  0.25500000920E-02 0.  1.
        2   -1    0    0  501    0  0.00000000000E+00  0.00000000000E+00 -0.75126058445E+03  0.75126058446E+03  0.25500000920E-02 0. -1.
    10030    2    1    2    0    0  0.00000000000E+00  0.00000000000E+00 -0.41510775608E+03  0.10874134128E+04  0.10050639190E+04 0.  0.
        1    1    3    3  502    0 -0.39671914466E+03 -0.30759481897E+03 -0.18246517280E+03  0.53412937731E+03  0.50400001928E-02 0.  1.
       -1    1    3    3    0  502  0.39671914466E+03  0.30759481897E+03 -0.23264258327E+03  0.55328403553E+03  0.50400001928E-02 0. -1.
</event>
<event>
 5   0  0.1617721E-02  0.9265857E+03  0.7818609E-02  0.9392945E-01
        2   -1    0    0  501    0  0.00000000000E+00  0.00000000000E+00  0.17793548035E+04  0.17793548035E+04  0.25500000920E-02 0.  1.
       -2   -1    0    0    0  501  0.00000000000E+00  0.00000000000E+00 -0.12062814316E+03  0.12062814319E+03  0.25500000920E-02 0. -1.
    10030    2    1    2    0    0  0.00000000000E+00  0.00000000000E+00  0.16587266603E+04  0.18999829467E+04  0.92658570246E+03 0.  0.
        5    1    3    3  502    0  0.25779704271E+03  0.32833240656E+03  0.41743478673E+03  0.59036884708E+03  0.46999998093E+01 0. -1.
       -5    1    3    3    0  502 -0.25779704271E+03 -0.32833240656E+03  0.12412918736E+04  0.13096140996E+04  0.46999998093E+01 0.  1.
</event>
<event>
 5   0  0.6314750E-03  0.9829463E+03  0.7818609E-02  0.9327449E-01
       -4   -1    0    0    0  501  0.00000000000E+00  0.00000000000E+00  0.16558066589E+03  0.16558553626E+03  0.12699999809E+01 0.  1.
        4   -1    0    0  501    0  0.00000000000E+00  0.00000000000E+00 -0.14587540942E+04  0.14587546470E+04  0.12699999809E+01 0. -1.
    10030    2    1    2    0    0  0.00000000000E+00  0.00000000000E+00 -0.12931734283E+04  0.16243401833E+04  0.98294634410E+03 0.  0.
        4    1    3    3  502    0  0.46544397877E+03  0.73682426802E+02 -0.41596033913E+03  0.62856329357E+03  0.12699999809E+01 0.  1.
       -4    1    3    3    0  502 -0.46544397877E+03 -0.73682426802E+02 -0.87721308919E+03  0.99577688974E+03  0.12699999809E+01 0. -1.
</event>
<event>
 5   0  0.1598986E-02  0.1000934E+04  0.7818609E-02  0.9307521E-01
       -2   -1    0    0    0  501  0.00000000000E+00  0.00000000000E+00  0.16420779600E+04  0.16420779600E+04  0.25500000920E-02 0.  1.
        2   -1    0    0  501    0  0.00000000000E+00  0.00000000000E+00 -0.15253075058E+03  0.15253075061E+03  0.25500000920E-02 0. -1.
    10030    2    1    2    0    0  0.00000000000E+00  0.00000000000E+00  0.14895472094E+04  0.17946087106E+04  0.10009343311E+04 0.  0.
        3    1    3    3  502    0 -0.49912123545E+03  0.25222128016E+01  0.81038136014E+03  0.95175959585E+03  0.10100000352E+00 0.  1.
       -3    1    3    3    0  502  0.49912123545E+03 -0.25222128016E+01  0.67916584930E+03  0.84284911478E+03  0.10100000352E+00 0. -1.
</event>
<event>
 5   0  0.1656859E-02  0.1014277E+04  0.7818609E-02  0.9293023E-01
       -2   -1    0    0    0  501  0.00000000000E+00  0.00000000000E+00  0.27295033118E+03  0.27295033119E+03  0.25500000920E-02 0. -1.
        2   -1    0    0  501    0  0.00000000000E+00  0.00000000000E+00 -0.94225728744E+03  0.94225728745E+03  0.25500000920E-02 0.  1.
    10030    2    1    2    0    0  0.00000000000E+00  0.00000000000E+00 -0.66930695627E+03  0.12152076186E+04  0.10142769615E+04 0.  0.
        4    1    3    3  502    0 -0.28902581075E+03 -0.31298531836E+03 -0.50292003504E+01  0.42605473187E+03  0.12699999809E+01 0. -1.
       -4    1    3    3    0  502  0.28902581075E+03  0.31298531836E+03 -0.66427775592E+03  0.78915288677E+03  0.12699999809E+01 0.  1.
</event>
<event>
 5   0  0.9396660E-03  0.9957511E+03  0.7818609E-02  0.9313217E-01
       -1   -1    0    0    0  501  0.00000000000E+00  0.00000000000E+00  0.38434625687E+03  0.38434625691E+03  0.50400001928E-02 0. -1.
        1   -1    0    0  501    0  0.00000000000E+00  0.00000000000E+00 -0.64493947431E+03  0.64493947433E+03  0.50400001928E-02 0.  1.
    10030    2    1    2    0    0  0.00000000000E+00  0.00000000000E+00 -0.26059321744E+03  0.10292857312E+04  0.99575111928E+03 0.  0.
        5    1    3    3  502    0  0.38803264585E+03 -0.26918872128E+03 -0.29316590988E+03  0.55587790262E+03  0.46999998093E+01 0. -1.
       -5    1    3    3    0  502 -0.38803264585E+03  0.26918872128E+03  0.32572692436E+02  0.47340782862E+03  0.46999998093E+01 0.  1.
</event>
<event>
 5   0  0.1598986E-02  0.1049040E+04  0.7818609E-02  0.9256335E-01
        2   -1    0    0  501    0  0.00000000000E+00  0.00000000000E+00  0.65904190178E+03  0.65904190178E+03  0.25500000920E-02 0. -1.
       -2   -1    0    0    0  501  0.00000000000E+00  0.00000000000E+00 -0.41745667140E+03  0.41745667141E+03  0.25500000920E-02 0.  1.
    10030    2    1    2    0    0  0.00000000000E+00  0.00000000000E+00  0.24158523037E+03  0.10764985732E+04  0.10490403970E+04 0.  0.
        3    1    3    3  502    0  0.41573469102E+02 -0.45800268448E+03 -0.13805290867E+03  0.48015979436E+03  0.10100000352E+00 0.  1.
       -3    1    3    3    0  502 -0.41573469102E+02  0.45800268448E+03  0.37963813904E+03  0.59633877883E+03  0.10100000352E+00 0. -1.
</event>
<event>
 5   0  0.1656859E-02  0.9898823E+03  0.7818609E-02  0.9319712E-01
        2   -1    0    0  501    0  0.00000000000E+00  0.00000000000E+00  0.11645646963E+04  0.11645646963E+04  0.25500000920E-02 0.  1.
       -2   -1    0    0    0  501  0.00000000000E+00  0.00000000000E+00 -0.21035047507E+03  0.21035047508E+03  0.25500000920E-02 0. -1.
    10030    2    1    2    0    0  0.00000000000E+00  0.00000000000E+00  0.95421422124E+03  0.13749151714E+04  0.98988229022E+03 0.  0.
        4    1    3    3  502    0  0.27070240504E+03  0.44432918235E+02 -0.95092301499E+02  0.29034158335E+03  0.12699999809E+01 0. -1.
       -4    1    3    3    0  502 -0.27070240504E+03 -0.44432918235E+02  0.10493065227E+04  0.10845735880E+04  0.12699999809E+01 0.  1.
</event>
<event>
 5   0  0.1663497E-02  0.9590610E+03  0.7818609E-02  0.9354622E-01
        2   -1    0    0  501    0  0.00000000000E+00  0.00000000000E+00  0.90027267843E+03  0.90027267843E+03  0.25500000920E-02 0.  1.
       -2   -1    0    0    0  501  0.00000000000E+00  0.00000000000E+00 -0.25542203898E+03  0.25542203899E+03  0.25500000920E-02 0. -1.
    10030    2    1    2    0    0  0.00000000000E+00  0.00000000000E+00  0.64485063945E+03  0.11556947174E+04  0.95906096401E+03 0.  0.
        1    1    3    3  502    0 -0.36954971388E+03  0.14013534620E+02  0.69027680325E+03  0.78309988847E+03  0.50400001928E-02 0.  1.
       -1    1    3    3    0  502  0.36954971388E+03 -0.14013534620E+02 -0.45426163806E+02  0.37259482896E+03  0.50400001928E-02 0. -1.
</event>
<event>
 5   0  0.9471140E-03  0.9962728E+03  0.7818609E-02  0.9312642E-01
        1   -1    0    0  501    0  0.00000000000E+00  0.00000000000E+00  0.28096645428E+03  0.28096645433E+03  0.50400001928E-02 0.  1.
       -1   -1    0    0    0  501  0.00000000000E+00  0.00000000000E+00 -0.88316541314E+03  0.88316541315E+03  0.50400001928E-02 0. -1.
    10030    2    1    2    0    0  0.00000000000E+00  0.00000000000E+00 -0.60219895886E+03  0.11641318675E+04  0.99627276327E+03 0.  0.
        4    1    3    3  502    0 -0.11808182033E+03  0.32144826904E+03  0.12160536794E+03  0.36340306049E+03  0.12699999809E+01 0.  1.
       -4    1    3    3    0  502  0.11808182033E+03 -0.32144826904E+03 -0.72380432679E+03  0.80072880699E+03  0.12699999809E+01 0. -1.
</event>
<event>
 5   0  0.1598986E-02  0.9964988E+03  0.7818609E-02  0.9312393E-01
       -2   -1    0    0    0  501  0.00000000000E+00  0.00000000000E+00  0.44152519991E+03  0.44152519992E+03  0.25500000920E-02 0. -1.
        2   -1    0    0  501    0  0.00000000000E+00  0.00000000000E+00 -0.56226118782E+03  0.56226118783E+03  0.25500000920E-02 0.  1.
    10030    2    1    2    0    0  0.00000000000E+00  0.00000000000E+00 -0.12073598791E+03  0.10037863877E+04  0.99649883766E+03 0.  0.
        3    1    3    3  502    0 -0.39898931682E+01 -0.12766588734E+03  0.42475340966E+03  0.44354252023E+03  0.10100000352E+00 0. -1.
       -3    1    3    3    0  502  0.39898931682E+01  0.12766588734E+03 -0.54548939756E+03  0.56024386752E+03  0.10100000352E+00 0.  1.
</event>
<event>
 5   0  0.1617721E-02  0.1008852E+04  0.7818609E-02  0.9298889E-01
       -2   -1    0    0    0  501  0.00000000000E+00  0.00000000000E+00  0.23132882976E+03  0.23132882977E+03  0.25500000920E-02 0. -1.
        2   -1    0    0  501    0  0.00000000000E+00  0.00000000000E+00 -0.10999302494E+04  0.10999302494E+04  0.25500000920E-02 0.  1.
    10030    2    1    2    0    0  0.00000000000E+00  0.00000000000E+00 -0.86860141969E+03  0.13312590792E+04  0.10088519761E+04 0.  0.
        5    1    3    3  502    0 -0.35374751735E+03 -0.99792286996E+02  0.21532259780E+02  0.36821397961E+03  0.46999998093E+01 0. -1.
       -5    1    3    3    0  502  0.35374751735E+03  0.99792286996E+02 -0.89013367947E+03  0.96304509961E+03  0.46999998093E+01 0.  1.
</event>
<event>
 5   0  0.1000773E-02  0.1123213E+04  0.7818609E-02  0.9182857E-01
       -1   -1    0    0    0  501  0.00000000000E+00  0.00000000000E+00  0.81871936271E+03  0.81871936273E+03  0.50400001928E-02 0.  1.
        1   -1    0    0  501    0  0.00000000000E+00  0.00000000000E+00 -0.38523826231E+03  0.38523826235E+03  0.50400001928E-02 0. -1.
    10030    2    1    2    0    0  0.00000000000E+00  0.00000000000E+00  0.43348110040E+03  0.12039576251E+04  0.11232132917E+04 0.  0.
        3    1    3    3  502    0  0.26274458334E+03  0.47804158919E+02  0.74630265322E+03  0.79264595760E+03  0.10100000352E+00 0.  1.
       -3    1    3    3    0  502 -0.26274458334E+03 -0.47804158919E+02 -0.31282155283E+03  0.41131166748E+03  0.10100000352E+00 0. -1.
</event>
<event>
 5   0  0.6314750E-03  0.1006678E+04  0.7818609E-02  0.9301251E-01
        3   -1    0    0  501    0  0.00000000000E+00  0.00000000000E+00  0.36616715064E+03  0.36616716457E+03  0.10100000352E+00 0. -1.
       -3   -1    0    0    0  501  0.00000000000E+00  0.00000000000E+00 -0.69189770815E+03  0.69189771552E+03  0.10100000352E+00 0.  1.
    10030    2    1    2    0    0  0.00000000000E+00  0.00000000000E+00 -0.32573055751E+03  0.10580648801E+04  0.10066781484E+04 0.  0.
        3    1    3    3  502    0 -0.41822105623E+03  0.11856773039E+03 -0.42955571833E+03  0.61113442377E+03  0.10100000352E+00 0.  1.
       -3    1    3    3    0  502  0.41822105623E+03 -0.11856773039E+03  0.10382516083E+03  0.44693045632E+03  0.10100000352E+00 0. -1.
</event>
<event>
 5   0  0.9471140E-03  0.1007605E+04  0.7818609E-02  0.9300243E-01
        1   -1    0    0  501    0  0.00000000000E+00  0.00000000000E+00  0.62149802260E+03  0.62149802262E+03  0.50400001928E-02 0. -1.
       -1   -1    0    0    0  501  0.00000000000E+00  0.00000000000E+00 -0.40839540667E+03  0.40839540670E+03  0.50400001928E-02 0.  1.
    10030    2    1    2    0    0  0.00000000000E+00  0.00000000000E+00  0.21310261593E+03  0.10298934293E+04  0.10076049577E+04 0.  0.
        4    1    3    3  502    0 -0.43158474153E+03  0.62430229300E+02  0.36442639685E+03  0.56830549379E+03  0.12699999809E+01 0. -1.
       -4    1    3    3    0  502  0.43158474153E+03 -0.62430229300E+02 -0.15132378092E+03  0.46158793553E+03  0.12699999809E+01 0.  1.
</event>
<event>
 5   0  0.1656859E-02  0.9897640E+03  0.7818609E-02  0.9319843E-01
        2   -1    0    0  501    0  0.00000000000E+00  0.00000000000E+00  0.10892486335E+04  0.10892486335E+04  0.25500000920E-02 0. -1.
       -2   -1    0    0    0  501  0.00000000000E+00  0.00000000000E+00 -0.22484140957E+03  0.22484140958E+03  0.25500000920E-02 0.  1.
    10030    2    1    2    0    0  0.00000000000E+00  0.00000000000E+00  0.86440722396E+03  0.13140900431E+04  0.98976400853E+03 0.  0.
        4    1    3    3  502    0 -0.45633558677E+03  0.18841886937E+03  0.47747628238E+03  0.68682534259E+03  0.12699999809E+01 0. -1.
       -4    1    3    3    0  502  0.45633558677E+03 -0.18841886937E+03  0.38693094158E+03  0.62726470053E+03  0.12699999809E+01 0.  1.
</event>
<event>
 5   0  0.1000773E-02  0.9833891E+03  0.7818609E-02  0.9326953E-01
       -1   -1    0    0    0  501  0.00000000000E+00  0.00000000000E+00  0.40389444187E+03  0.40389444191E+03  0.50400001928E-02 0. -1.
        1   -1    0    0  501    0  0.00000000000E+00  0.00000000000E+00 -0.59858099994E+03  0.59858099996E+03  0.50400001928E-02 0.  1.
    10030    2    1    2    0    0  0.00000000000E+00  0.00000000000E+00 -0.19468655807E+03  0.10024754419E+04  0.98338911711E+03 0.  0.
        3    1    3    3  502    0  0.22669281930E+02  0.37855374844E+03  0.22169532092E+03  0.43927857029E+03  0.10100000352E+00 0.  1.
       -3    1    3    3    0  502 -0.22669281930E+02 -0.37855374844E+03 -0.41638187899E+03  0.56319687157E+03  0.10100000352E+00 0. -1.
</event>
<event>
 5   0  0.1617721E-02  0.9965887E+03  0.7818609E-02  0.9312294E-01
        2   -1    0    0  501    0  0.00000000000E+00  0.00000000000E+00  0.18744225018E+04  0.18744225018E+04  0.25500000920E-02 0.  1.
       -2   -1    0    0    0  501  0.00000000000E+00  0.00000000000E+00 -0.13246600189E+03  0.13246600192E+03  0.25500000920E-02 0. -1.
    10030    2    1    2    0    0  0.00000000000E+00  0.00000000000E+00  0.17419564999E+04  0.20068885037E+04  0.99658869087E+03 0.  0.
        5    1    3    3  502    0  0.37117405279E+03 -0.31043055613E+03  0.11104195620E+04  0.12112765999E+04  0.46999998093E+01 0. -1.
       -5    1    3    3    0  502 -0.37117405279E+03  0.31043055613E+03  0.63153693788E+03  0.79561190385E+03  0.46999998093E+01 0.  1.
</event>
<event>
 5   0  0.1571895E-02  0.1000528E+04  0.7818609E-02  0.9307965E-01
       -2   -1    0    0    0  501  0.00000000000E+00  0.00000000000E+00  0.31251170955E+03  0.31251170956E+03  0.25500000920E-02 0.  1.
        2   -1    0    0  501    0  0.00000000000E+00  0.00000000000E+00 -0.80081577582E+03  0.80081577582E+03  0.25500000920E-02 0. -1.
    10030    2    1    2    0    0  0.00000000000E+00  0.00000000000E+00 -0.48830406627E+03  0.11133274854E+04  0.10005284746E+04 0.  0.
        2    1    3    3  502    0  0.41991074187E+02  0.29509513778E+03  0.20291437309E+03  0.36058096658E+03  0.25500000920E-02 0.  1.
       -2    1    3    3    0  502 -0.41991074187E+02 -0.29509513778E+03 -0.69121843935E+03  0.75274651880E+03  0.25500000920E-02 0. -1.
</event>
<event>
 5   0  0.1617721E-02  0.9787160E+03  0.7818609E-02  0.9332202E-01
        2   -1    0    0  501    0  0.00000000000E+00  0.00000000000E+00  0.20751848348E+04  0.20751848348E+04  0.25500000920E-02 0. -1.
       -2   -1    0    0    0  501  0.00000000000E+00  0.00000000000E+00 -0.11539754235E+03  0.11539754238E+03  0.25500000920E-02 0.  1.
    10030    2    1    2    0    0  0.00000000000E+00  0.00000000000E+00  0.19597872925E+04  0.21905823772E+04  0.97871595450E+03 0.  0.
        5    1    3    3  502    0 -0.60550617960E+02  0.38506717231E+03  0.16419911117E+04  0.16876314780E+04  0.46999998093E+01 0. -1.
       -5    1    3    3    0  502  0.60550617960E+02 -0.38506717231E+03  0.31779618075E+03  0.50295089922E+03  0.46999998093E+01 0.  1.
</event>
<event>
 5   0  0.9396660E-03  0.9766627E+03  0.7818609E-02  0.9334518E-01
       -1   -1    0    0    0  501  0.00000000000E+00  0.00000000000E+00  0.26421226851E+03  0.26421226856E+03  0.50400001928E-02 0. -1.
        1   -1    0    0  501    0  0.00000000000E+00  0.00000000000E+00 -0.90256026982E+03  0.90256026984E+03  0.50400001928E-02 0.  1.
    10030    2    1    2    0    0  0.00000000000E+00  0.00000000000E+00 -0.63834800131E+03  0.11667725384E+04  0.97666267748E+03 0.  0.
        5    1    3    3  502    0 -0.16893162187E+03  0.84950442148E+02  0.21867302477E+03  0.28912705209E+03  0.46999998093E+01 0. -1.
       -5    1    3    3    0  502  0.16893162187E+03 -0.84950442148E+02 -0.85702102608E+03  0.87764548631E+03  0.46999998093E+01 0.  1.
</event>
<event>
 5   0  0.9471140E-03  0.9890613E+03  0.7818609E-02  0.9320624E-01
        1   -1    0    0  501    0  0.00000000000E+00  0.00000000000E+00  0.11160619920E+04  0.11160619920E+04  0.50400001928E-02 0.  1.
       -1   -1    0    0    0  501  0.00000000000E+00  0.00000000000E+00 -0.21912813294E+03  0.21912813300E+03  0.50400001928E-02 0. -1.
    10030    2    1    2    0    0  0.00000000000E+00  0.00000000000E+00  0.89693385906E+03  0.13351901250E+04  0.98906133400E+03 0.  0.
        4    1    3    3  502    0 -0.35012842105E+03 -0.12961438133E+03  0.88625518646E+03  0.96168584657E+03  0.12699999809E+01 0.  1.
       -4    1    3    3    0  502  0.35012842105E+03  0.12961438133E+03  0.10678672604E+02  0.37350427845E+03  0.12699999809E+01 0. -1.
</event>
<event>
 5   0  0.1598986E-02  0.9917496E+03  0.7818609E-02  0.9317640E-01
        2   -1    0    0  501    0  0.00000000000E+00  0.00000000000E+00  0.29299684679E+03  0.29299684680E+03  0.25500000920E-02 0.  1.
       -2   -1    0    0    0  501  0.00000000000E+00  0.00000000000E+00 -0.83923026080E+03  0.83923026081E+03  0.25500000920E-02 0. -1.
    10030    2    1    2    0    0  0.00000000000E+00  0.00000000000E+00 -0.54623341401E+03  0.11322271076E+04  0.99174960581E+03 0.  0.
        3    1    3    3  502    0 -0.19837491115E+03 -0.18713888629E+03 -0.74592672519E+03  0.79421675737E+03  0.10100000352E+00 0. -1.
       -3    1    3    3    0  502  0.19837491115E+03  0.18713888629E+03  0.19969331118E+03  0.33801035024E+03  0.10100000352E+00 0.  1.
</event>
<event>
 5   0  0.9759443E-03  0.9598443E+03  0.7818609E-02  0.9353718E-01
       -1   -1    0    0    0  501  0.00000000000E+00  0.00000000000E+00  0.38896177837E+03  0.38896177841E+03  0.50400001928E-02 0. -1.
        1   -1    0    0  501    0  0.00000000000E+00  0.00000000000E+00 -0.59215401974E+03  0.59215401976E+03  0.50400001928E-02 0.  1.
    10030    2    1    2    0    0  0.00000000000E+00  0.00000000000E+00 -0.20319224136E+03  0.98111579816E+03  0.95984432199E+03 0.  0.
        2    1    3    3  502    0  0.30106346949E+03 -0.30615624339E+03 -0.32071667883E+03  0.53593847233E+03  0.25500000920E-02 0.  1.
       -2    1    3    3    0  502 -0.30106346949E+03  0.30615624339E+03  0.11752443747E+03  0.44517732584E+03  0.25500000920E-02 0. -1.
</event>
<event>
 5   0  0.1656859E-02  0.1021163E+04  0.7818609E-02  0.9285633E-01
        2   -1    0    0  501    0  0.00000000000E+00  0.00000000000E+00  0.51436593603E+03  0.51436593603E+03  0.25500000920E-02 0.  1.
       -2   -1    0    0    0  501  0.00000000000E+00  0.00000000000E+00 -0.50682480442E+03  0.50682480443E+03  0.25500000920E-02 0. -1.
    10030    2    1    2    0    0  0.00000000000E+00  0.00000000000E+00  0.75411316084E+01  0.10211907405E+04  0.10211628958E+04 0.  0.
        4    1    3    3  502    0  0.20714858441E+03 -0.11697710198E+03 -0.44801340279E+03  0.50725910578E+03  0.12699999809E+01 0. -1.
       -4    1    3    3    0  502 -0.20714858441E+03  0.11697710198E+03  0.45555453440E+03  0.51393163468E+03  0.12699999809E+01 0.  1.
</event>
<event>
 5   0  0.9471140E-03  0.1032343E+04  0.7818609E-02  0.9273766E-01
        1   -1    0    0  501    0  0.00000000000E+00  0.00000000000E+00  0.53772433726E+03  0.53772433728E+03  0.50400001928E-02 0. -1.
       -1   -1    0    0    0  501  0.00000000000E+00  0.00000000000E+00 -0.49548295792E+03  0.49548295795E+03  0.50400001928E-02 0.  1.
    10030    2    1    2    0    0  0.00000000000E+00  0.00000000000E+00  0.42241379338E+02  0.10332072952E+04  0.10323434413E+04 0.  0.
        4    1    3    3  502    0 -0.23282026915E+02  0.20861134866E+03 -0.45083608334E+03  0.49730828920E+03  0.12699999809E+01 0.  1.
       -4    1    3    3    0  502  0.23282026915E+02 -0.20861134866E+03  0.49307746267E+03  0.53589900603E+03  0.12699999809E+01 0. -1.
</event>
<event>
 5   0  0.9507815E-03  0.9986559E+03  0.7818609E-02  0.9310020E-01
       -1   -1    0    0    0  501  0.00000000000E+00  0.00000000000E+00  0.36177604499E+03  0.36177604502E+03  0.50400001928E-02 0.  1.
        1   -1    0    0  501    0  0.00000000000E+00  0.00000000000E+00 -0.68917885817E+03  0.68917885819E+03  0.50400001928E-02 0. -1.
    10030    2    1    2    0    0  0.00000000000E+00  0.00000000000E+00 -0.32740281318E+03  0.10509549032E+04  0.99865589995E+03 0.  0.
        1    1    3    3  502    0 -0.81895744533E+02  0.25602501059E+03  0.27913568721E+03  0.38752090385E+03  0.50400001928E-02 0.  1.
       -1    1    3    3    0  502  0.81895744533E+02 -0.25602501059E+03 -0.60653850040E+03  0.66343399936E+03  0.50400001928E-02 0. -1.
</event>
<event>
 5   0  0.9396660E-03  0.1000847E+04  0.7818609E-02  0.9307616E-01
       -1   -1    0    0    0  501  0.00000000000E+00  0.00000000000E+00  0.12386274123E+04  0.12386274123E+04  0.50400001928E-02 0. -1.
        1   -1    0    0  501    0  0.00000000000E+00  0.00000000000E+00 -0.20217841065E+03  0.20217841072E+03  0.50400001928E-02 0.  1.
    10030    2    1    2    0    0  0.00000000000E+00  0.00000000000E+00  0.10364490016E+04  0.14408058230E+04  0.10008470845E+04 0.  0.
        5    1    3    3  502    0  0.25412382528E+03  0.29020747276E+03  0.59354598521E+02  0.39031314888E+03  0.46999998093E+01 0.  1.
       -5    1    3    3    0  502 -0.25412382528E+03 -0.29020747276E+03  0.97709440309E+03  0.10504926741E+04  0.46999998093E+01 0. -1.
</event>
<event>
 5   0  0.1000773E-02  0.1011768E+04  0.7818609E-02  0.9295731E-01
       -1   -1    0    0    0  501  0.00000000000E+00  0.00000000000E+00  0.93054377080E+03  0.93054377081E+03  0.50400001928E-02 0.  1.
        1   -1    0    0  501    0  0.00000000000E+00  0.00000000000E+00 -0.27502068794E+03  0.27502068799E+03  0.50400001928E-02 0. -1.
    10030    2    1    2    0    0  0.00000000000E+00  0.00000000000E+00  0.65552308286E+03  0.12055644588E+04  0.10117683293E+04 0.  0.
        3    1    3    3  502    0 -0.17883716646E+03 -0.93624603252E+02  0.88047583891E+03  0.90331944048E+03  0.10100000352E+00 0.  1.
       -3    1    3    3    0  502  0.17883716646E+03  0.93624603252E+02 -0.22495275605E+03  0.30224501832E+03  0.10100000352E+00 0. -1.
</event>
<event>
 5   0  0.1571895E-02  0.1011832E+04  0.7818609E-02  0.9295662E-01
       -2   -1    0    0    0  501  0.00000000000E+00  0.00000000000E+00  0.58563648948E+03  0.58563648949E+03  0.25500000920E-02 0.  1.
        2   -1    0    0  501    0  0.00000000000E+00  0.00000000000E+00 -0.43704724533E+03  0.43704724534E+03  0.25500000920E-02 0. -1.
    10030    2    1    2    0    0  0.00000000000E+00  0.00000000000E+00  0.14858924415E+03  0.10226837348E+04  0.10118316352E+04 0.  0.
        2    1    3    3  502    0  0.63559887512E+02 -0.35069941039E+03 -0.28861185856E+03  0.45861393421E+03  0.25500000920E-02 0. -1.
       -2    1    3    3    0  502 -0.63559887512E+02  0.35069941039E+03  0.43720110271E+03  0.56406980061E+03  0.25500000920E-02 0.  1.
</event>
<event>
 5   0  0.9471140E-03  0.9978817E+03  0.7818609E-02  0.9310871E-01
       -1   -1    0    0    0  501  0.00000000000E+00  0.00000000000E+00  0.22927067570E+03  0.22927067575E+03  0.50400001928E-02 0.  1.
        1   -1    0    0  501    0  0.00000000000E+00  0.00000000000E+00 -0.10857994092E+04  0.10857994092E+04  0.50400001928E-02 0. -1.
    10030    2    1    2    0    0  0.00000000000E+00  0.00000000000E+00 -0.85652873353E+03  0.13150700850E+04  0.99788168491E+03 0.  0.
        4    1    3    3  502    0  0.58886973872E+02 -0.24664256584E+03 -0.99454653241E+03  0.10263647739E+04  0.12699999809E+01 0. -1.
       -4    1    3    3    0  502 -0.58886973872E+02  0.24664256584E+03  0.13801779887E+03  0.28870531114E+03  0.12699999809E+01 0.  1.
</event>
<event>
 5   0  0.1617721E-02  0.1032049E+04  0.7818609E-02  0.9274076E-01
        2   -1    0    0  501    0  0.00000000000E+00  0.00000000000E+00  0.22889547346E+03  0.22889547348E+03  0.25500000920E-02 0. -1.
       -2   -1    0    0    0  501  0.00000000000E+00  0.00000000000E+00 -0.11633319208E+04  0.11633319208E+04  0.25500000920E-02 0.  1.
    10030    2    1    2    0    0  0.00000000000E+00  0.00000000000E+00 -0.93443644735E+03  0.13922273943E+04  0.10320492446E+04 0.  0.
        5    1    3    3  502    0  0.14759990179E+03 -0.20225673274E+03 -0.10758605725E+04  0.11046228218E+04  0.46999998093E+01 0.  1.
       -5    1    3    3    0  502 -0.14759990179E+03  0.20225673274E+03  0.14142412516E+03  0.28760457250E+03  0.46999998093E+01 0. -1.
</event>
<event>
 5   0  0.6314750E-03  0.9596030E+03  0.7818609E-02  0.9353996E-01
        3   -1    0    0  501    0  0.00000000000E+00  0.00000000000E+00  0.47515389954E+03  0.47515391028E+03  0.10100000352E+00 0. -1.
       -3   -1    0    0    0  501  0.00000000000E+00  0.00000000000E+00 -0.48449450287E+03  0.48449451339E+03  0.10100000352E+00 0.  1.
    10030    2    1    2    0    0  0.00000000000E+00  0.00000000000E+00 -0.93406033215E+01  0.95964842367E+03  0.95960296487E+03 0.  0.
        3    1    3    3  502    0  0.23457442991E+03 -0.39456202445E+03 -0.14433757089E+03  0.48118364361E+03  0.10100000352E+00 0.  1.
       -3    1    3    3    0  502 -0.23457442991E+03  0.39456202445E+03  0.13499696757E+03  0.47846478006E+03  0.10100000352E+00 0. -1.
</event>
<event>
 5   0  0.1656859E-02  0.9881669E+03  0.7818609E-02  0.9321619E-01
       -2   -1    0    0    0  501  0.00000000000E+00  0.00000000000E+00  0.54854572029E+03  0.54854572030E+03  0.25500000920E-02 0.  1.
        2   -1    0    0  501    0  0.00000000000E+00  0.00000000000E+00 -0.44502846254E+03  0.44502846255E+03  0.25500000920E-02 0. -1.
    10030    2    1    2    0    0  0.00000000000E+00  0.00000000000E+00  0.10351725775E+03  0.99357418285E+03  0.98816690603E+03 0.  0.
        4    1    3    3  502    0  0.48935313948E+03  0.65195183274E+02  0.31650731627E+02  0.49469211511E+03  0.12699999809E+01 0. -1.
       -4    1    3    3    0  502 -0.48935313948E+03 -0.65195183274E+02  0.71866526125E+02  0.49888206774E+03  0.12699999809E+01 0.  1.
</event>
<event>
 5   0  0.9507815E-03  0.1005681E+04  0.7818609E-02  0.9302336E-01
        1   -1    0    0  501    0  0.00000000000E+00  0.00000000000E+00  0.11291027521E+04  0.11291027521E+04  0.50400001928E-02 0. -1.
       -1   -1    0    0    0  501  0.00000000000E+00  0.00000000000E+00 -0.22393751774E+03  0.22393751780E+03  0.50400001928E-02 0.  1.
    10030    2    1    2    0    0  0.00000000000E+00  0.00000000000E+00  0.90516523435E+03  0.13530402699E+04  0.10056807995E+04 0.  0.
        1    1    3    3  502    0 -0.81314014656E+02  0.50768054182E+02 -0.21153023453E+03  0.23223781873E+03  0.50400001928E-02 0.  1.
       -1    1    3    3    0  502  0.81314014656E+02 -0.50768054182E+02  0.11166954689E+04  0.11208024512E+04  0.50400001928E-02 0. -1.
</event>
<event>
 5   0  0.1617721E-02  0.7914605E+03  0.7818609E-02  0.9572461E-01
        2   -1    0    0  501    0  0.00000000000E+00  0.00000000000E+00  0.10986221676E+04  0.10986221676E+04  0.25500000920E-02 0. -1.
       -2   -1    0    0    0  501  0.00000000000E+00  0.00000000000E+00 -0.14254438678E+03  0.14254438680E+03  0.25500000920E-02 0.  1.
    10030    2    1    2    0    0  0.00000000000E+00  0.00000000000E+00  0.95607778084E+03  0.12411665544E+04  0.79146048089E+03 0.  0.
        5    1    3    3  502    0 -0.15885584932E+03  0.11220054984E+03  0.10184558324E+04  0.10368695756E+04  0.46999998093E+01 0. -1.
       -5    1    3    3    0  502  0.15885584932E+03 -0.11220054984E+03 -0.62378051556E+02  0.20429697884E+03  0.46999998093E+01 0.  1.
</event>
<event>
 5   0  0.6314750E-03  0.9886965E+03  0.7818609E-02  0.9321030E-01
        3   -1    0    0  501    0  0.00000000000E+00  0.00000000000E+00  0.23208411618E+03  0.23208413815E+03  0.10100000352E+00 0.  1.
       -3   -1    0    0    0  501  0.00000000000E+00  0.00000000000E+00 -0.10529811397E+04  0.10529811446E+04  0.10100000352E+00 0. -1.
    10030    2    1    2    0    0  0.00000000000E+00  0.00000000000E+00 -0.82089702353E+03  0.12850652827E+04  0.98869654474E+03 0.  0.
        1    1    3    3  502    0  0.47837609171E+03  0.82859763390E+02 -0.28941894470E+03  0.56521920623E+03  0.50400001928E-02 0.  1.
       -1    1    3    3    0  502 -0.47837609171E+03 -0.82859763390E+02 -0.53147807884E+03  0.71984607648E+03  0.50400001928E-02 0. -1.
</event>
<event>
 5   0  0.1663497E-02  0.9276123E+03  0.7818609E-02  0.9391708E-01
        2   -1    0    0  501    0  0.00000000000E+00  0.00000000000E+00  0.86266339098E+03  0.86266339098E+03  0.25500000920E-02 0. -1.
       -2   -1    0    0    0  501  0.00000000000E+00  0.00000000000E+00 -0.24936276614E+03  0.24936276615E+03  0.25500000920E-02 0.  1.
    10030    2    1    2    0    0  0.00000000000E+00  0.00000000000E+00  0.61330062484E+03  0.11120261571E+04  0.92761226690E+03 0.  0.
        1    1    3    3  502    0 -0.24980175847E+03 -0.81078851419E+01 -0.16172734960E+03  0.29769513259E+03  0.50400001928E-02 0.  1.
       -1    1    3    3    0  502  0.24980175847E+03  0.81078851419E+01  0.77502797444E+03  0.81433102454E+03  0.50400001928E-02 0. -1.
</event>
<event>
 5   0  0.1598986E-02  0.9841087E+03  0.7818609E-02  0.9326148E-01
        2   -1    0    0  501    0  0.00000000000E+00  0.00000000000E+00  0.96213273140E+03  0.96213273140E+03  0.25500000920E-02 0. -1.
       -2   -1    0    0    0  501  0.00000000000E+00  0.00000000000E+00 -0.25164666253E+03  0.25164666254E+03  0.25500000920E-02 0.  1.
    10030    2    1    2    0    0  0.00000000000E+00  0.00000000000E+00  0.71048606887E+03  0.12137793939E+04  0.98410871508E+03 0.  0.
        3    1    3    3  502    0 -0.36424794874E+03 -0.19945742462E+03  0.29720479013E+02  0.41634498853E+03  0.10100000352E+00 0.  1.
       -3    1    3    3    0  502  0.36424794874E+03  0.19945742462E+03  0.68076558986E+03  0.79743440541E+03  0.10100000352E+00 0. -1.
</event>
<event>
 5   0  0.9507815E-03  0.8416558E+03  0.7818609E-02  0.9501605E-01
       -1   -1    0    0    0  501  0.00000000000E+00  0.00000000000E+00  0.47248590309E+03  0.47248590311E+03  0.50400001928E-02 0.  1.
        1   -1    0    0  501    0  0.00000000000E+00  0.00000000000E+00 -0.37481775976E+03  0.37481775979E+03  0.50400001928E-02 0. -1.
    10030    2    1    2    0    0  0.00000000000E+00  0.00000000000E+00  0.97668143327E+02  0.84730366291E+03  0.84165576750E+03 0.  0.
        1    1    3    3  502    0 -0.38887615287E+03 -0.14736250291E+03  0.11373167657E+03  0.43113253625E+03  0.50400001928E-02 0.  1.
       -1    1    3    3    0  502  0.38887615287E+03  0.14736250291E+03 -0.16063533239E+02  0.41617112666E+03  0.50400001928E-02 0. -1.
</event>
<event>
 5   0  0.6314750E-03  0.1023188E+04  0.7818609E-02  0.9283472E-01
       -4   -1    0    0    0  501  0.00000000000E+00  0.00000000000E+00  0.43897000875E+03  0.43897184589E+03  0.12699999809E+01 0.  1.
        4   -1    0    0  501    0  0.00000000000E+00  0.00000000000E+00 -0.59622978141E+03  0.59623113399E+03  0.12699999809E+01 0. -1.
    10030    2    1    2    0    0  0.00000000000E+00  0.00000000000E+00 -0.15725977266E+03  0.10352029799E+04  0.10231884350E+04 0.  0.
        5    1    3    3  502    0 -0.46271083483E+03  0.21713961161E+03 -0.57033851121E+02  0.51432079267E+03  0.46999998093E+01 0. -1.
       -5    1    3    3    0  502  0.46271083483E+03 -0.21713961161E+03 -0.10022592154E+03  0.52088218720E+03  0.46999998093E+01 0.  1.
</event>
<event>
 5   0  0.1663497E-02  0.6944455E+03  0.7818609E-02  0.9726779E-01
        2   -1    0    0  501    0  0.00000000000E+00  0.00000000000E+00  0.21191400727E+03  0.21191400728E+03  0.25500000920E-02 0.  1.
       -2   -1    0    0    0  501  0.00000000000E+00  0.00000000000E+00 -0.56892715280E+03  0.56892715281E+03  0.25500000920E-02 0. -1.
    10030    2    1    2    0    0  0.00000000000E+00  0.00000000000E+00 -0.35701314554E+03  0.78084116009E+03  0.69444548469E+03 0.  0.
        1    1    3    3  502    0 -0.19114122269E+02 -0.31344849626E+02 -0.56673865235E+03  0.56792653518E+03  0.50400001928E-02 0. -1.
       -1    1    3    3    0  502  0.19114122269E+02  0.31344849626E+02  0.20972550681E+03  0.21291462491E+03  0.50400001928E-02 0.  1.
</event>
<event>
 5   0  0.1598986E-02  0.1011978E+04  0.7818609E-02  0.9295504E-01
       -2   -1    0    0    0  501  0.00000000000E+00  0.00000000000E+00  0.28441322473E+03  0.28441322474E+03  0.25500000920E-02 0.  1.
        2   -1    0    0  501    0  0.00000000000E+00  0.00000000000E+00 -0.90018671540E+03  0.90018671541E+03  0.25500000920E-02 0. -1.
    10030    2    1    2    0    0  0.00000000000E+00  0.00000000000E+00 -0.61577349067E+03  0.11845999402E+04  0.10119782737E+04 0.  0.
        3    1    3    3  502    0  0.31083412740E+03  0.39216747888E+03 -0.22019635512E+03  0.54671714008E+03  0.10100000352E+00 0.  1.
       -3    1    3    3    0  502 -0.31083412740E+03 -0.39216747888E+03 -0.39557713555E+03  0.63788280007E+03  0.10100000352E+00 0. -1.
</event>
<event>
 5   0  0.9396660E-03  0.9932291E+03  0.7818609E-02  0.9316002E-01
       -1   -1    0    0    0  501  0.00000000000E+00  0.00000000000E+00  0.27113324950E+03  0.27113324955E+03  0.50400001928E-02 0.  1.
        1   -1    0    0  501    0  0.00000000000E+00  0.00000000000E+00 -0.90961186183E+03  0.90961186185E+03  0.50400001928E-02 0. -1.
    10030    2    1    2    0    0  0.00000000000E+00  0.00000000000E+00 -0.63847861233E+03  0.11807451114E+04  0.99322911742E+03 0.  0.
        5    1    3    3  502    0 -0.89206240879E+02  0.36988091843E+03 -0.69860121132E+03  0.79550951577E+03  0.46999998093E+01 0.  1.
       -5    1    3    3    0  502  0.89206240879E+02 -0.36988091843E+03  0.60122598990E+02  0.38523559562E+03  0.46999998093E+01 0. -1.
</event>
<event>
 5   0  0.1598986E-02  0.9925781E+03  0.7818609E-02  0.9316723E-01
       -2   -1    0    0    0  501  0.00000000000E+00  0.00000000000E+00  0.25735055777E+03  0.25735055779E+03  0.25500000920E-02 0. -1.
        2   -1    0    0  501    0  0.00000000000E+00  0.00000000000E+00 -0.95707133388E+03  0.95707133389E+03  0.25500000920E-02 0.  1.
    10030    2    1    2    0    0  0.00000000000E+00  0.00000000000E+00 -0.69972077611E+03  0.12144218917E+04  0.99257814123E+03 0.  0.
        3    1    3    3  502    0 -0.16996190365E+03 -0.33890756826E+03  0.41961301049E+02  0.38145268318E+03  0.10100000352E+00 0. -1.
       -3    1    3    3    0  502  0.16996190365E+03  0.33890756826E+03 -0.74168207716E+03  0.83296920849E+03  0.10100000352E+00 0.  1.
</event>
<event>
 5   0  0.9759443E-03  0.9894954E+03  0.7818609E-02  0.9320142E-01
       -1   -1    0    0    0  501  0.00000000000E+00  0.00000000000E+00  0.16037117537E+03  0.16037117545E+03  0.50400001928E-02 0.  1.
        1   -1    0    0  501    0  0.00000000000E+00  0.00000000000E+00 -0.15263048748E+04  0.15263048748E+04  0.50400001928E-02 0. -1.
    10030    2    1    2    0    0  0.00000000000E+00  0.00000000000E+00 -0.13659336994E+04  0.16866760502E+04  0.98949544074E+03 0.  0.
        2    1    3    3  502    0 -0.22827408913E+03  0.38249233026E+02  0.62392164455E+02  0.23971826336E+03  0.25500000920E-02 0.  1.
       -2    1    3    3    0  502  0.22827408913E+03 -0.38249233026E+02 -0.14283258639E+04  0.14469577869E+04  0.25500000920E-02 0. -1.
</event>
<event>
 5   0  0.9471140E-03  0.8354435E+03  0.7818609E-02  0.9510085E-01
        1   -1    0    0  501    0  0.00000000000E+00  0.00000000000E+00  0.59912230759E+03  0.59912230761E+03  0.50400001928E-02 0. -1.
       -1   -1    0    0    0  501  0.00000000000E+00  0.00000000000E+00 -0.29124513341E+03  0.29124513345E+03  0.50400001928E-02 0.  1.
    10030    2    1    2    0    0  0.00000000000E+00  0.00000000000E+00  0.30787717418E+03  0.89036744107E+03  0.83544349045E+03 0.  0.
        4    1    3    3  502    0 -0.36416603730E+03 -0.16612504546E+03  0.26603969812E+02  0.40115310987E+03  0.12699999809E+01 0.  1.
       -4    1    3    3    0  502  0.36416603730E+03  0.16612504546E+03  0.28127320437E+03  0.48921433119E+03  0.12699999809E+01 0. -1.
</event>
<event>
 5   0  0.1598986E-02  0.1011244E+04  0.7818609E-02  0.9296298E-01
        2   -1    0    0  501    0  0.00000000000E+00  0.00000000000E+00  0.14170224549E+04  0.14170224549E+04  0.25500000920E-02 0. -1.
       -2   -1    0    0    0  501  0.00000000000E+00  0.00000000000E+00 -0.18041610375E+03  0.18041610377E+03  0.25500000920E-02 0.  1.
    10030    2    1    2    0    0  0.00000000000E+00  0.00000000000E+00  0.12366063512E+04  0.15974385587E+04  0.10112441253E+04 0.  0.
        3    1    3    3  502    0  0.69200757997E+02 -0.41176168070E+02  0.14068283045E+04  0.14091309770E+04  0.10100000352E+00 0. -1.
       -3    1    3    3    0  502 -0.69200757997E+02  0.41176168070E+02 -0.17022195334E+03  0.18830758170E+03  0.10100000352E+00 0.  1.
</event>
<event>
 5   0  0.1000773E-02  0.1009421E+04  0.7818609E-02  0.9298271E-01
        1   -1    0    0  501    0  0.00000000000E+00  0.00000000000E+00  0.41475437604E+03  0.41475437607E+03  0.50400001928E-02 0. -1.
       -1   -1    0    0    0  501  0.00000000000E+00  0.00000000000E+00 -0.61417781897E+03  0.61417781899E+03  0.50400001928E-02 0.  1.
    10030    2    1    2    0    0  0.00000000000E+00  0.00000000000E+00 -0.19942344292E+03  0.10289321951E+04  0.10094214939E+04 0.  0.
        3    1    3    3  502    0  0.25104168141E+02  0.73451140811E+02  0.40863352910E+03  0.41594069367E+03  0.10100000352E+00 0. -1.
       -3    1    3    3    0  502 -0.25104168141E+02 -0.73451140811E+02 -0.60805697203E+03  0.61299150139E+03  0.10100000352E+00 0.  1.
</event>
<event>
 5   0  0.9507815E-03  0.9383897E+03  0.7818609E-02  0.9378825E-01
       -1   -1    0    0    0  501  0.00000000000E+00  0.00000000000E+00  0.17461540944E+03  0.17461540952E+03  0.50400001928E-02 0. -1.
        1   -1    0    0  501    0  0.00000000000E+00  0.00000000000E+00 -0.12607353103E+04  0.12607353103E+04  0.50400001928E-02 0.  1.
    10030    2    1    2    0    0  0.00000000000E+00  0.00000000000E+00 -0.10861199008E+04  0.14353507198E+04  0.93838971107E+03 0.  0.
        1    1    3    3  502    0  0.27381127598E+03  0.30048275960E+03 -0.90139313055E+03  0.98882358361E+03  0.50400001928E-02 0.  1.
       -1    1    3    3    0  502 -0.27381127598E+03 -0.30048275960E+03 -0.18472677028E+03  0.44652713619E+03  0.50400001928E-02 0. -1.
</event>
<event>
 5   0  0.9471140E-03  0.9944901E+03  0.7818609E-02  0.9314609E-01
       -1   -1    0    0    0  501  0.00000000000E+00  0.00000000000E+00  0.28340953964E+03  0.28340953969E+03  0.50400001928E-02 0.  1.
        1   -1    0    0  501    0  0.00000000000E+00  0.00000000000E+00 -0.87242166198E+03  0.87242166200E+03  0.50400001928E-02 0. -1.
    10030    2    1    2    0    0  0.00000000000E+00  0.00000000000E+00 -0.58901212234E+03  0.11558312017E+04  0.99449006356E+03 0.  0.
        4    1    3    3  502    0  0.15081725956E+03 -0.42520358947E+03 -0.53748566233E+03  0.70173811952E+03  0.12699999809E+01 0. -1.
       -4    1    3    3    0  502 -0.15081725956E+03  0.42520358947E+03 -0.51526460013E+02  0.45409308216E+03  0.12699999809E+01 0.  1.
</event>
<event>
 5   0  0.1571895E-02  0.1002981E+04  0.7818609E-02  0.9305281E-01
       -2   -1    0    0    0  501  0.00000000000E+00  0.00000000000E+00  0.27848369494E+03  0.27848369496E+03  0.25500000920E-02 0.  1.
        2   -1    0    0  501    0  0.00000000000E+00  0.00000000000E+00 -0.90307944118E+03  0.90307944119E+03  0.25500000920E-02 0. -1.
    10030    2    1    2    0    0  0.00000000000E+00  0.00000000000E+00 -0.62459574624E+03  0.11815631361E+04  0.10029813550E+04 0.  0.
        2    1    3    3  502    0 -0.38383362601E+03 -0.26392980859E+03 -0.53112921068E+03  0.70645978992E+03  0.25500000920E-02 0. -1.
       -2    1    3    3    0  502  0.38383362601E+03  0.26392980859E+03 -0.93466535557E+02  0.47510334623E+03  0.25500000920E-02 0.  1.
</event>
<event>
 5   0  0.1571895E-02  0.1007027E+04  0.7818609E-02  0.9300871E-01
       -2   -1    0    0    0  501  0.00000000000E+00  0.00000000000E+00  0.20334585241E+03  0.20334585243E+03  0.25500000920E-02 0.  1.
        2   -1    0    0  501    0  0.00000000000E+00  0.00000000000E+00 -0.12467717158E+04  0.12467717158E+04  0.25500000920E-02 0. -1.
    10030    2    1    2    0    0  0.00000000000E+00  0.00000000000E+00 -0.10434258634E+04  0.14501175682E+04  0.10070270251E+04 0.  0.
        2    1    3    3  502    0  0.47983227685E+03 -0.10149910871E+03 -0.35762399845E+03  0.60698929747E+03  0.25500000920E-02 0.  1.
       -2    1    3    3    0  502 -0.47983227685E+03  0.10149910871E+03 -0.68580186492E+03  0.84312827074E+03  0.25500000920E-02 0. -1.
</event>
<event>
 5   0  0.1571895E-02  0.9920154E+03  0.7818609E-02  0.9317346E-01
       -2   -1    0    0    0  501  0.00000000000E+00  0.00000000000E+00  0.28891841777E+03  0.28891841778E+03  0.25500000920E-02 0.  1.
        2   -1    0    0  501    0  0.00000000000E+00  0.00000000000E+00 -0.85153316429E+03  0.85153316429E+03  0.25500000920E-02 0. -1.
    10030    2    1    2    0    0  0.00000000000E+00  0.00000000000E+00 -0.56261474652E+03  0.11404515821E+04  0.99201535173E+03 0.  0.
        2    1    3    3  502    0  0.44042247196E+03 -0.22709393881E+03 -0.25612012448E+03  0.55780025907E+03  0.25500000920E-02 0. -1.
       -2    1    3    3    0  502 -0.44042247196E+03  0.22709393881E+03 -0.30649462204E+03  0.58265132300E+03  0.25500000920E-02 0.  1.
</event>
<event>
 5   0  0.9759443E-03  0.9926992E+03  0.7818609E-02  0.9316589E-01
        1   -1    0    0  501    0  0.00000000000E+00  0.00000000000E+00  0.14116665142E+03  0.14116665151E+03  0.50400001928E-02 0.  1.
       -1   -1    0    0    0  501  0.00000000000E+00  0.00000000000E+00 -0.17451922330E+04  0.17451922330E+04  0.50400001928E-02 0. -1.
    10030    2    1    2    0    0  0.00000000000E+00  0.00000000000E+00 -0.16040255815E+04  0.18863588845E+04  0.99269923683E+03 0.  0.
        2    1    3    3  502    0 -0.25968756065E+03 -0.32570229959E+03 -0.13148759689E+04  0.13792818532E+04  0.25500000920E-02 0. -1.
       -2    1    3    3    0  502  0.25968756065E+03  0.32570229959E+03 -0.28914961268E+03  0.50707703126E+03  0.25500000920E-02 0.  1.
</event>
<event>
 5   0  0.9471140E-03  0.1063564E+04  0.7818609E-02  0.9241451E-01
       -1   -1    0    0    0  501  0.00000000000E+00  0.00000000000E+00  0.36155843596E+03  0.36155843600E+03  0.50400001928E-02 0. -1.
        1   -1    0    0  501    0  0.00000000000E+00  0.00000000000E+00 -0.78214791400E+03  0.78214791402E+03  0.50400001928E-02 0.  1.
    10030    2    1    2    0    0  0.00000000000E+00  0.00000000000E+00 -0.42058947804E+03  0.11437063500E+04  0.10635641523E+04 0.  0.
        4    1    3    3  502    0  0.39723022068E+03  0.95131330119E+02 -0.57646567353E+03  0.70650980450E+03  0.12699999809E+01 0.  1.
       -4    1    3    3    0  502 -0.39723022068E+03 -0.95131330119E+02  0.15587619549E+03  0.43719654552E+03  0.12699999809E+01 0. -1.
</event>
<event>
 5   0  0.1000773E-02  0.1001975E+04  0.7818609E-02  0.9306381E-01
        1   -1    0    0  501    0  0.00000000000E+00  0.00000000000E+00  0.66452587214E+03  0.66452587216E+03  0.50400001928E-02 0. -1.
       -1   -1    0    0    0  501  0.00000000000E+00  0.00000000000E+00 -0.37769585043E+03  0.37769585046E+03  0.50400001928E-02 0.  1.
    10030    2    1    2    0    0  0.00000000000E+00  0.00000000000E+00  0.28683002171E+03  0.10422217226E+04  0.10019753778E+04 0.  0.
        3    1    3    3  502    0  0.30126195230E+03 -0.36142337315E+03 -0.35551262799E+02  0.47185752198E+03  0.10100000352E+00 0.  1.
       -3    1    3    3    0  502 -0.30126195230E+03  0.36142337315E+03  0.32238128451E+03  0.57036420064E+03  0.10100000352E+00 0. -1.
</event>
<event>
 5   0  0.1617721E-02  0.9995382E+03  0.7818609E-02  0.9309051E-01
        2   -1    0    0  501    0  0.00000000000E+00  0.00000000000E+00  0.36493132722E+03  0.36493132723E+03  0.25500000920E-02 0. -1.
       -2   -1    0    0    0  501  0.00000000000E+00  0.00000000000E+00 -0.68442775840E+03  0.68442775841E+03  0.25500000920E-02 0.  1.
    10030    2    1    2    0    0  0.00000000000E+00  0.00000000000E+00 -0.31949643118E+03  0.10493590856E+04  0.99953815389E+03 0.  0.
        5    1    3    3  502    0  0.20132190502E+03  0.16604494681E+03  0.28769425015E+03  0.38844755806E+03  0.46999998093E+01 0. -1.
       -5    1    3    3    0  502 -0.20132190502E+03 -0.16604494681E+03 -0.60719068133E+03  0.66091152758E+03  0.46999998093E+01 0.  1.
</event>
<event>
 5   0  0.9471140E-03  0.9754916E+03  0.7818609E-02  0.9335841E-01
        1   -1    0    0  501    0  0.00000000000E+00  0.00000000000E+00  0.13647510144E+04  0.13647510144E+04  0.50400001928E-02 0. -1.
       -1   -1    0    0    0  501  0.00000000000E+00  0.00000000000E+00 -0.17431456008E+03  0.17431456016E+03  0.50400001928E-02 0.  1.
    10030    2    1    2    0    0  0.00000000000E+00  0.00000000000E+00  0.11904364543E+04  0.15390655745E+04  0.97549161504E+03 0.  0.
        4    1    3    3  502    0  0.18261137221E+03  0.18033682907E+03 -0.59162836313E+02  0.26338211648E+03  0.12699999809E+01 0.  1.
       -4    1    3    3    0  502 -0.18261137221E+03 -0.18033682907E+03  0.12495992906E+04  0.12756834581E+04  0.12699999809E+01 0. -1.
</event>
<event>
 5   0  0.1617721E-02  0.1000239E+04  0.7818609E-02  0.9308282E-01
       -2   -1    0    0    0  501  0.00000000000E+00  0.00000000000E+00  0.27350664477E+03  0.27350664479E+03  0.25500000920E-02 0. -1.
        2   -1    0    0  501    0  0.00000000000E+00  0.00000000000E+00 -0.91449233192E+03  0.91449233192E+03  0.25500000920E-02 0.  1.
    10030    2    1    2    0    0  0.00000000000E+00  0.00000000000E+00 -0.64098568714E+03  0.11879989767E+04  0.10002394301E+04 0.  0.
        5    1    3    3  502    0  0.29473690925E+03 -0.34262285275E+03 -0.57477855810E+03  0.73119952527E+03  0.46999998093E+01 0.  1.
       -5    1    3    3    0  502 -0.29473690925E+03  0.34262285275E+03 -0.66207129039E+02  0.45679945144E+03  0.46999998093E+01 0. -1.
</event>
<event>
 5   0  0.9471140E-03  0.9983477E+03  0.7818609E-02  0.9310359E-01
       -1   -1    0    0    0  501  0.00000000000E+00  0.00000000000E+00  0.67868402926E+03  0.67868402928E+03  0.50400001928E-02 0. -1.
        1   -1    0    0  501    0  0.00000000000E+00  0.00000000000E+00 -0.36714368159E+03  0.36714368163E+03  0.50400001928E-02 0.  1.
    10030    2    1    2    0    0  0.00000000000E+00  0.00000000000E+00  0.31154034767E+03  0.10458277109E+04  0.99834774136E+03 0.  0.
        4    1    3    3  502    0  0.46788083517E+03 -0.17394739144E+03  0.15751345620E+03  0.52343315972E+03  0.12699999809E+01 0. -1.
       -4    1    3    3    0  502 -0.46788083517E+03  0.17394739144E+03  0.15402689146E+03  0.52239455118E+03  0.12699999809E+01 0.  1.
</event>
<event>
 5   0  0.9396660E-03  0.1003717E+04  0.7818609E-02  0.9304477E-01
        1   -1    0    0  501    0  0.00000000000E+00  0.00000000000E+00  0.98852943621E+03  0.98852943622E+03  0.50400001928E-02 0.  1.
       -1   -1    0    0    0  501  0.00000000000E+00  0.00000000000E+00 -0.25478471657E+03  0.25478471662E+03  0.50400001928E-02 0. -1.
    10030    2    1    2    0    0  0.00000000000E+00  0.00000000000E+00  0.73374471964E+03  0.12433141528E+04  0.10037174747E+04 0.  0.
        5    1    3    3  502    0 -0.44584959365E+03  0.14559811412E+03  0.58797218617E+03  0.75213964973E+03  0.46999998093E+01 0.  1.
       -5    1    3    3    0  502  0.44584959365E+03 -0.14559811412E+03  0.14577253347E+03  0.49117450311E+03  0.46999998093E+01 0. -1.
</event>
<event>
 5   0  0.1000773E-02  0.1079604E+04  0.7818609E-02  0.9225302E-01
        1   -1    0    0  501    0  0.00000000000E+00  0.00000000000E+00  0.13829256333E+04  0.13829256333E+04  0.50400001928E-02 0. -1.
       -1   -1    0    0    0  501  0.00000000000E+00  0.00000000000E+00 -0.21070285455E+03  0.21070285461E+03  0.50400001928E-02 0.  1.
    10030    2    1    2    0    0  0.00000000000E+00  0.00000000000E+00  0.11722227787E+04  0.15936284879E+04  0.10796043324E+04 0.  0.
        3    1    3    3  502    0 -0.71593563804E+02  0.40419288173E+03  0.11035736674E+04  0.11774431509E+04  0.10100000352E+00 0. -1.
       -3    1    3    3    0  502  0.71593563804E+02 -0.40419288173E+03  0.68649111286E+02  0.41618533696E+03  0.10100000352E+00 0.  1.
</event>
<event>
 5   0  0.9507815E-03  0.9978809E+03  0.7818609E-02  0.9310872E-01
       -1   -1    0    0    0  501  0.00000000000E+00  0.00000000000E+00  0.75368069808E+03  0.75368069810E+03  0.50400001928E-02 0. -1.
        1   -1    0    0  501    0  0.00000000000E+00  0.00000000000E+00 -0.33030109045E+03  0.33030109048E+03  0.50400001928E-02 0.  1.
    10030    2    1    2    0    0  0.00000000000E+00  0.00000000000E+00  0.42337960764E+03  0.10839817886E+04  0.99788086755E+03 0.  0.
        1    1    3    3  502    0  0.25816991604E+03  0.20230496503E+03  0.62011307405E+03  0.70151210186E+03  0.50400001928E-02 0. -1.
       -1    1    3    3    0  502 -0.25816991604E+03 -0.20230496503E+03 -0.19673346641E+03  0.38246968672E+03  0.50400001928E-02 0.  1.
</event>
<event>
 5   0  0.1656859E-02  0.9515761E+03  0.7818609E-02  0.9363310E-01
       -2   -1    0    0    0  501  0.00000000000E+00  0.00000000000E+00  0.88958743775E+02  0.88958743812E+02  0.25500000920E-02 0.  1.
        2   -1    0    0  501    0  0.00000000000E+00  0.00000000000E+00 -0.25447109476E+04  0.25447109476E+04  0.25500000920E-02 0. -1.
    10030    2    1    2    0    0  0.00000000000E+00  0.00000000000E+00 -0.24557522038E+04  0.26336696914E+04  0.95157614350E+03 0.  0.
        4    1    3    3  502    0  0.10920734110E+03  0.24060466072E+03 -0.23229725823E+04  0.23379521118E+04  0.12699999809E+01 0. -1.
       -4    1    3    3    0  502 -0.10920734110E+03 -0.24060466072E+03 -0.13277962157E+03  0.29571757965E+03  0.12699999809E+01 0.  1.
</event>
<event>
 5   0  0.1571895E-02  0.1063342E+04  0.7818609E-02  0.9241676E-01
        2   -1    0    0  501    0  0.00000000000E+00  0.00000000000E+00  0.59879787385E+03  0.59879787386E+03  0.25500000920E-02 0.  1.
       -2   -1    0    0    0  501  0.00000000000E+00  0.00000000000E+00 -0.47206953214E+03  0.47206953215E+03  0.25500000920E-02 0. -1.
    10030    2    1    2    0    0  0.00000000000E+00  0.00000000000E+00  0.12672834171E+03  0.10708674060E+04  0.10633423384E+04 0.  0.
        2    1    3    3  502    0  0.88329381692E+01  0.18092270029E+03 -0.44003643305E+03  0.47586038572E+03  0.25500000920E-02 0. -1.
       -2    1    3    3    0  502 -0.88329381692E+01 -0.18092270029E+03  0.56676477476E+03  0.59500702029E+03  0.25500000920E-02 0.  1.
</event>
<event>
 5   0  0.1000773E-02  0.1025320E+04  0.7818609E-02  0.9281202E-01
        1   -1    0    0  501    0  0.00000000000E+00  0.00000000000E+00  0.54070263335E+03  0.54070263337E+03  0.50400001928E-02 0.  1.
       -1   -1    0    0    0  501  0.00000000000E+00  0.00000000000E+00 -0.48607195555E+03  0.48607195558E+03  0.50400001928E-02 0. -1.
    10030    2    1    2    0    0  0.00000000000E+00  0.00000000000E+00  0.54630677800E+02  0.10267745889E+04  0.10253202161E+04 0.  0.
        3    1    3    3  502    0  0.11182570397E+02 -0.84050651464E+02 -0.47900129263E+03  0.48644815802E+03  0.10100000352E+00 0. -1.
       -3    1    3    3    0  502 -0.11182570397E+02  0.84050651464E+02  0.53363197043E+03  0.54032643093E+03  0.10100000352E+00 0.  1.
</event>
<event>
 5   0  0.1598986E-02  0.9884396E+03  0.7818609E-02  0.9321316E-01
       -2   -1    0    0    0  501  0.00000000000E+00  0.00000000000E+00  0.52145841458E+03  0.52145841459E+03  0.25500000920E-02 0. -1.
        2   -1    0    0  501    0  0.00000000000E+00  0.00000000000E+00 -0.46840405174E+03  0.46840405174E+03  0.25500000920E-02 0.  1.
    10030    2    1    2    0    0  0.00000000000E+00  0.00000000000E+00  0.53054362848E+02  0.98986246634E+03  0.98843964755E+03 0.  0.
        3    1    3    3  502    0 -0.41222790457E+03 -0.24552330096E+03 -0.92132565768E+02  0.48857134228E+03  0.10100000352E+00 0.  1.
       -3    1    3    3    0  502  0.41222790457E+03  0.24552330096E+03  0.14518692862E+03  0.50129112406E+03  0.10100000352E+00 0. -1.
</event>
<event>
 5   0  0.9507815E-03  0.1005250E+04  0.7818609E-02  0.9302805E-01
        1   -1    0    0  501    0  0.00000000000E+00  0.00000000000E+00  0.10253972920E+04  0.10253972920E+04  0.50400001928E-02 0.  1.
       -1   -1    0    0    0  501  0.00000000000E+00  0.00000000000E+00 -0.24637464130E+03  0.24637464135E+03  0.50400001928E-02 0. -1.
    10030    2    1    2    0    0  0.00000000000E+00  0.00000000000E+00  0.77902265070E+03  0.12717719334E+04  0.10052499988E+04 0.  0.
        1    1    3    3  502    0 -0.28979150313E+03 -0.40909451459E+03  0.34399383843E+03  0.60800427470E+03  0.50400001928E-02 0. -1.
       -1    1    3    3    0  502  0.28979150313E+03  0.40909451459E+03  0.43502881227E+03  0.66376765866E+03  0.50400001928E-02 0.  1.
</event>
<event>
 5   0  0.9471140E-03  0.1297990E+04  0.7818609E-02  0.9031160E-01
        1   -1    0    0  501    0  0.00000000000E+00  0.00000000000E+00  0.10062399951E+04  0.10062399951E+04  0.50400001928E-02 0.  1.
       -1   -1    0    0    0  501  0.00000000000E+00  0.00000000000E+00 -0.41858271803E+03  0.41858271806E+03  0.50400001928E-02 0. -1.
    10030    2    1    2    0    0  0.00000000000E+00  0.00000000000E+00  0.58765727703E+03  0.14248227131E+04  0.12979902498E+04 0.  0.
        4    1    3    3  502    0  0.36795456667E+03  0.49016410927E+03  0.52808626704E+03  0.80902913142E+03  0.12699999809E+01 0.  1.
       -4    1    3    3    0  502 -0.36795456667E+03 -0.49016410927E+03  0.59571009991E+02  0.61579358171E+03  0.12699999809E+01 0. -1.
</event>
<event>
 5   0  0.9396660E-03  0.9932451E+03  0.7818609E-02  0.9315985E-01
        1   -1    0    0  501    0  0.00000000000E+00  0.00000000000E+00  0.10893633795E+04  0.10893633795E+04  0.50400001928E-02 0. -1.
       -1   -1    0    0    0  501  0.00000000000E+00  0.00000000000E+00 -0.22640190955E+03  0.22640190960E+03  0.50400001928E-02 0.  1.
    10030    2    1    2    0    0  0.00000000000E+00  0.00000000000E+00  0.86296146996E+03  0.13157652891E+04  0.99324508427E+03 0.  0.
        5    1    3    3  502    0 -0.42480180528E+03 -0.25217658453E+03  0.36442541435E+03  0.61390355609E+03  0.46999998093E+01 0. -1.
       -5    1    3    3    0  502  0.42480180528E+03  0.25217658453E+03  0.49853605561E+03  0.70186173304E+03  0.46999998093E+01 0.  1.
</event>
<event>
 5   0  0.1598986E-02  0.1008373E+04  0.7818609E-02  0.9299408E-01
       -2   -1    0    0    0  501  0.00000000000E+00  0.00000000000E+00  0.46245627348E+03  0.46245627349E+03  0.25500000920E-02 0. -1.
        2   -1    0    0  501    0  0.00000000000E+00  0.00000000000E+00 -0.54968280455E+03  0.54968280455E+03  0.25500000920E-02 0.  1.
    10030    2    1    2    0    0  0.00000000000E+00  0.00000000000E+00 -0.87226531064E+02  0.10121390780E+04  0.10083734653E+04 0.  0.
        3    1    3    3  502    0 -0.31552875804E+03  0.27662857231E+03 -0.32416103124E+03  0.53024725227E+03  0.10100000352E+00 0. -1.
       -3    1    3    3    0  502  0.31552875804E+03 -0.27662857231E+03  0.23693450017E+03  0.48189182577E+03  0.10100000352E+00 0.  1.
</event>
<event>
 5   0  0.9507815E-03  0.1018344E+04  0.7818609E-02  0.9288651E-01
        1   -1    0    0  501    0  0.00000000000E+00  0.00000000000E+00  0.73305821300E+03  0.73305821302E+03  0.50400001928E-02 0. -1.
       -1   -1    0    0    0  501  0.00000000000E+00  0.00000000000E+00 -0.35366355662E+03  0.35366355666E+03  0.50400001928E-02 0.  1.
    10030    2    1    2    0    0  0.00000000000E+00  0.00000000000E+00  0.37939465638E+03  0.10867217697E+04  0.10183437040E+04 0.  0.
        1    1    3    3  502    0 -0.34047066909E+03  0.16235089844E+03  0.55468304158E+03  0.67078414365E+03  0.50400001928E-02 0. -1.
       -1    1    3    3    0  502  0.34047066909E+03 -0.16235089844E+03 -0.17528838520E+03  0.41593762603E+03  0.50400001928E-02 0.  1.
</event>
<event>
 5   0  0.1663497E-02  0.9805441E+03  0.7818609E-02  0.9330145E-01
        2   -1    0    0  501    0  0.00000000000E+00  0.00000000000E+00  0.13293241926E+03  0.13293241928E+03  0.25500000920E-02 0. -1.
       -2   -1    0    0    0  501  0.00000000000E+00  0.00000000000E+00 -0.18081872406E+04  0.18081872406E+04  0.25500000920E-02 0.  1.
    10030    2    1    2    0    0  0.00000000000E+00  0.00000000000E+00 -0.16752548213E+04  0.19411196599E+04  0.98054414361E+03 0.  0.
        1    1    3    3  502    0 -0.26193146833E+03 -0.36936054327E+03 -0.12097324720E+04  0.12916996395E+04  0.50400001928E-02 0.  1.
       -1    1    3    3    0  502  0.26193146833E+03  0.36936054327E+03 -0.46552234935E+03  0.64942002032E+03  0.50400001928E-02 0. -1.
</event>
<event>
 5   0  0.9471140E-03  0.9779390E+03  0.7818609E-02  0.9333077E-01
       -1   -1    0    0    0  501  0.00000000000E+00  0.00000000000E+00  0.19557479057E+03  0.19557479063E+03  0.50400001928E-02 0.  1.
        1   -1    0    0  501    0  0.00000000000E+00  0.00000000000E+00 -0.12225050504E+04  0.12225050504E+04  0.50400001928E-02 0. -1.
    10030    2    1    2    0    0  0.00000000000E+00  0.00000000000E+00 -0.10269302598E+04  0.14180798411E+04  0.97793899453E+03 0.  0.
        4    1    3    3  502    0  0.23030493779E+03  0.42957244640E+03 -0.45699230426E+03  0.66814401901E+03  0.12699999809E+01 0. -1.
       -4    1    3    3    0  502 -0.23030493779E+03 -0.42957244640E+03 -0.56993795558E+03  0.74993582205E+03  0.12699999809E+01 0.  1.
</event>
<event>
 5   0  0.9396660E-03  0.8045177E+03  0.7818609E-02  0.9553501E-01
        1   -1    0    0  501    0  0.00000000000E+00  0.00000000000E+00  0.74087481073E+03  0.74087481075E+03  0.50400001928E-02 0.  1.
       -1   -1    0    0    0  501  0.00000000000E+00  0.00000000000E+00 -0.21840689763E+03  0.21840689769E+03  0.50400001928E-02 0. -1.
    10030    2    1    2    0    0  0.00000000000E+00  0.00000000000E+00  0.52246791310E+03  0.95928170843E+03  0.80451766663E+03 0.  0.
        5    1    3    3  502    0 -0.13932679362E+03  0.12344420526E+03  0.68639267261E+03  0.71120139078E+03  0.46999998093E+01 0.  1.
       -5    1    3    3    0  502  0.13932679362E+03 -0.12344420526E+03 -0.16392475950E+03  0.24808031766E+03  0.46999998093E+01 0. -1.
</event>
<event>
 5   0  0.9759443E-03  0.7949203E+03  0.7818609E-02  0.9567399E-01
        1   -1    0    0  501    0  0.00000000000E+00  0.00000000000E+00  0.89063266917E+03  0.89063266918E+03  0.50400001928E-02 0. -1.
       -1   -1    0    0    0  501  0.00000000000E+00  0.00000000000E+00 -0.17737343909E+03  0.17737343916E+03  0.50400001928E-02 0.  1.
    10030    2    1    2    0    0  0.00000000000E+00  0.00000000000E+00  0.71325923008E+03  0.10680061083E+04  0.79492032190E+03 0.  0.
        2    1    3    3  502    0 -0.17550449022E+03 -0.18324714576E+03 -0.54399296422E+02  0.25950072442E+03  0.25500000920E-02 0.  1.
       -2    1    3    3    0  502  0.17550449022E+03  0.18324714576E+03  0.76765852650E+03  0.80850538392E+03  0.25500000920E-02 0. -1.
</event>
<event>
 5   0  0.9759443E-03  0.9895614E+03  0.7818609E-02  0.9320068E-01
        1   -1    0    0  501    0  0.00000000000E+00  0.00000000000E+00  0.54725130005E+03  0.54725130007E+03  0.50400001928E-02 0. -1.
       -1   -1    0    0    0  501  0.00000000000E+00  0.00000000000E+00 -0.44734102688E+03  0.44734102691E+03  0.50400001928E-02 0.  1.
    10030    2    1    2    0    0  0.00000000000E+00  0.00000000000E+00  0.99910273171E+02  0.99459232698E+03  0.98956143529E+03 0.  0.
        2    1    3    3  502    0 -0.26124493848E+03  0.40481243390E+03 -0.63249331099E+02  0.48592437931E+03  0.25500000920E-02 0. -1.
       -2    1    3    3    0  502  0.26124493848E+03 -0.40481243390E+03  0.16315960427E+03  0.50866794767E+03  0.25500000920E-02 0.  1.
</event>
<event>
 5   0  0.9396660E-03  0.1054680E+04  0.7818609E-02  0.9250526E-01
       -1   -1    0    0    0  501  0.00000000000E+00  0.00000000000E+00  0.11469243149E+04  0.11469243149E+04  0.50400001928E-02 0.  1.
        1   -1    0    0  501    0  0.00000000000E+00  0.00000000000E+00 -0.24246363677E+03  0.24246363682E+03  0.50400001928E-02 0. -1.
    10030    2    1    2    0    0  0.00000000000E+00  0.00000000000E+00  0.90446067816E+03  0.13893879518E+04  0.10546799335E+04 0.  0.
        5    1    3    3  502    0  0.48858158297E+03  0.57684150169E+02  0.70227087587E+03  0.85746480831E+03  0.46999998093E+01 0.  1.
       -5    1    3    3    0  502 -0.48858158297E+03 -0.57684150169E+02  0.20218980229E+03  0.53192314345E+03  0.46999998093E+01 0. -1.
</event>
<event>
 5   0  0.1571895E-02  0.1001886E+04  0.7818609E-02  0.9306479E-01
       -2   -1    0    0    0  501  0.00000000000E+00  0.00000000000E+00  0.17376259418E+03  0.17376259420E+03  0.25500000920E-02 0.  1.
        2   -1    0    0  501    0  0.00000000000E+00  0.00000000000E+00 -0.14441770908E+04  0.14441770908E+04  0.25500000920E-02 0. -1.
    10030    2    1    2    0    0  0.00000000000E+00  0.00000000000E+00 -0.12704144966E+04  0.16179396850E+04  0.10018861368E+04 0.  0.
        2    1    3    3  502    0  0.25107739603E+03  0.29811981909E+02  0.63157937671E+02  0.26060993488E+03  0.25500000920E-02 0.  1.
       -2    1    3    3    0  502 -0.25107739603E+03 -0.29811981909E+02 -0.13335724343E+04  0.13573297501E+04  0.25500000920E-02 0. -1.
</event>
<event>
 5   0  0.9471140E-03  0.9741335E+03  0.7818609E-02  0.9337379E-01
       -1   -1    0    0    0  501  0.00000000000E+00  0.00000000000E+00  0.44270238849E+03  0.44270238852E+03  0.50400001928E-02 0. -1.
        1   -1    0    0  501    0  0.00000000000E+00  0.00000000000E+00 -0.53587694834E+03  0.53587694836E+03  0.50400001928E-02 0.  1.
    10030    2    1    2    0    0  0.00000000000E+00  0.00000000000E+00 -0.93174559846E+02  0.97857933688E+03  0.97413347134E+03 0.  0.
        4    1    3    3  502    0  0.29449416242E+03  0.23001115295E+03 -0.36042380396E+03  0.51917133351E+03  0.12699999809E+01 0.  1.
       -4    1    3    3    0  502 -0.29449416242E+03 -0.23001115295E+03  0.26724924412E+03  0.45940800337E+03  0.12699999809E+01 0. -1.
</event>
<event>
 5   0  0.9507815E-03  0.9938423E+03  0.7818609E-02  0.9315324E-01
        1   -1    0    0  501    0  0.00000000000E+00  0.00000000000E+00  0.27974721317E+03  0.27974721322E+03  0.50400001928E-02 0.  1.
       -1   -1    0    0    0  501  0.00000000000E+00  0.00000000000E+00 -0.88269197266E+03  0.88269197268E+03  0.50400001928E-02 0. -1.
    10030    2    1    2    0    0  0.00000000000E+00  0.00000000000E+00 -0.60294475949E+03  0.11624391859E+04  0.99384228020E+03 0.  0.
        1    1    3    3  502    0 -0.24045686826E+03  0.11147552248E+02 -0.80994615816E+03  0.84495949759E+03  0.50400001928E-02 0. -1.
       -1    1    3    3    0  502  0.24045686826E+03 -0.11147552248E+02  0.20700139867E+03  0.31747968831E+03  0.50400001928E-02 0.  1.
</event>
<event>
 5   0  0.9507815E-03  0.1023722E+04  0.7818609E-02  0.9282903E-01
       -1   -1    0    0    0  501  0.00000000000E+00  0.00000000000E+00  0.97698022302E+02  0.97698022432E+02  0.50400001928E-02 0.  1.
        1   -1    0    0  501    0  0.00000000000E+00  0.00000000000E+00 -0.26817481256E+04  0.26817481256E+04  0.50400001928E-02 0. -1.
    10030    2    1    2    0    0  0.00000000000E+00  0.00000000000E+00 -0.25840501033E+04  0.27794461480E+04  0.10237216191E+04 0.  0.
        1    1    3    3  502    0  0.25479191596E+03  0.32422757062E+03 -0.46869564371E+03  0.62427401391E+03  0.50400001928E-02 0.  1.
       -1    1    3    3    0  502 -0.25479191596E+03 -0.32422757062E+03 -0.21153544596E+04  0.21551721341E+04  0.50400001928E-02 0. -1.
</event>
<event>
 5   0  0.6314750E-03  0.1024644E+04  0.7818609E-02  0.9281921E-01
       -3   -1    0    0    0  501  0.00000000000E+00  0.00000000000E+00  0.22238721045E+03  0.22238723339E+03  0.10100000352E+00 0. -1.
        3   -1    0    0  501    0  0.00000000000E+00  0.00000000000E+00 -0.11802570040E+04  0.11802570083E+04  0.10100000352E+00 0.  1.
    10030    2    1    2    0    0  0.00000000000E+00  0.00000000000E+00 -0.95786979357E+03  0.14026442417E+04  0.10246444883E+04 0.  0.
        3    1    3    3  502    0 -0.18637741871E+02  0.37750965484E+03 -0.95237366631E+03  0.10246348205E+04  0.10100000352E+00 0.  1.
       -3    1    3    3    0  502  0.18637741871E+02 -0.37750965484E+03 -0.54961272664E+01  0.37800942123E+03  0.10100000352E+00 0. -1.
</event>
<event>
 5   0  0.1656859E-02  0.1001389E+04  0.7818609E-02  0.9307023E-01
        2   -1    0    0  501    0  0.00000000000E+00  0.00000000000E+00  0.23241054341E+03  0.23241054342E+03  0.25500000920E-02 0.  1.
       -2   -1    0    0    0  501  0.00000000000E+00  0.00000000000E+00 -0.10786726227E+04  0.10786726227E+04  0.25500000920E-02 0. -1.
    10030    2    1    2    0    0  0.00000000000E+00  0.00000000000E+00 -0.84626207929E+03  0.13110831661E+04  0.10013888164E+04 0.  0.
        4    1    3    3  502    0  0.11493019550E+03 -0.47969610385E+03 -0.53557528676E+03  0.72812073351E+03  0.12699999809E+01 0.  1.
       -4    1    3    3    0  502 -0.11493019550E+03  0.47969610385E+03 -0.31068679254E+03  0.58296243262E+03  0.12699999809E+01 0. -1.
</event>
<event>
 5   0  0.9507815E-03  0.9869679E+03  0.7818609E-02  0.9322955E-01
       -1   -1    0    0    0  501  0.00000000000E+00  0.00000000000E+00  0.24245304447E+03  0.24245304452E+03  0.50400001928E-02 0.  1.
        1   -1    0    0  501    0  0.00000000000E+00  0.00000000000E+00 -0.10044271034E+04  0.10044271034E+04  0.50400001928E-02 0. -1.
    10030    2    1    2    0    0  0.00000000000E+00  0.00000000000E+00 -0.76197405889E+03  0.12468801479E+04  0.98696790059E+03 0.  0.
        1    1    3    3  502    0 -0.39409899951E+03  0.21062085202E+03 -0.64554000069E+03  0.78510958295E+03  0.50400001928E-02 0. -1.
       -1    1    3    3    0  502  0.39409899951E+03 -0.21062085202E+03 -0.11643405821E+03  0.46177056495E+03  0.50400001928E-02 0.  1.
</event>
<event>
 5   0  0.1656859E-02  0.9932864E+03  0.7818609E-02  0.9315939E-01
       -2   -1    0    0    0  501  0.00000000000E+00  0.00000000000E+00  0.16453011999E+03  0.16453012001E+03  0.25500000920E-02 0.  1.
        2   -1    0    0  501    0  0.00000000000E+00  0.00000000000E+00 -0.14991446203E+04  0.14991446203E+04  0.25500000920E-02 0. -1.
    10030    2    1    2    0    0  0.00000000000E+00  0.00000000000E+00 -0.13346145003E+04  0.16636747404E+04  0.99328635204E+03 0.  0.
        4    1    3    3  502    0  0.21882607933E+03 -0.32258115909E+03 -0.15185262843E+03  0.41833514178E+03  0.12699999809E+01 0.  1.
       -4    1    3    3    0  502 -0.21882607933E+03  0.32258115909E+03 -0.11827618719E+04  0.12453395986E+04  0.12699999809E+01 0. -1.
</event>
<event>
 5   0  0.1598986E-02  0.1013007E+04  0.7818609E-02  0.9294393E-01
       -2   -1    0    0    0  501  0.00000000000E+00  0.00000000000E+00  0.24378328590E+03  0.24378328591E+03  0.25500000920E-02 0. -1.
        2   -1    0    0  501    0  0.00000000000E+00  0.00000000000E+00 -0.10523518474E+04  0.10523518474E+04  0.25500000920E-02 0.  1.
    10030    2    1    2    0    0  0.00000000000E+00  0.00000000000E+00 -0.80856856153E+03  0.12961351333E+04  0.10130069917E+04 0.  0.
        3    1    3    3  502    0 -0.15333243565E+03 -0.42488879163E+03 -0.11110320220E+03  0.46517228294E+03  0.10100000352E+00 0.  1.
       -3    1    3    3    0  502  0.15333243565E+03  0.42488879163E+03 -0.69746535933E+03  0.83096285040E+03  0.10100000352E+00 0. -1.
</event>
<event>
 5   0  0.1663497E-02  0.9879602E+03  0.7818609E-02  0.9321849E-01
       -2   -1    0    0    0  501  0.00000000000E+00  0.00000000000E+00  0.11654796602E+04  0.11654796602E+04  0.25500000920E-02 0. -1.
        2   -1    0    0  501    0  0.00000000000E+00  0.00000000000E+00 -0.20936987594E+03  0.20936987596E+03  0.25500000920E-02 0.  1.
    10030    2    1    2    0    0  0.00000000000E+00  0.00000000000E+00  0.95610978426E+03  0.13748495362E+04  0.98796018519E+03 0.  0.
        1    1    3    3  502    0 -0.20479904948E+03  0.17585268305E+02  0.11031384009E+04  0.11221257612E+04  0.50400001928E-02 0. -1.
       -1    1    3    3    0  502  0.20479904948E+03 -0.17585268305E+02 -0.14702861661E+03  0.25272377501E+03  0.50400001928E-02 0.  1.
</event>
<event>
 5   0  0.1656859E-02  0.1001114E+04  0.7818609E-02  0.9307323E-01
       -2   -1    0    0    0  501  0.00000000000E+00  0.00000000000E+00  0.44917316282E+03  0.44917316283E+03  0.25500000920E-02 0. -1.
        2   -1    0    0  501    0  0.00000000000E+00  0.00000000000E+00 -0.55781932611E+03  0.55781932612E+03  0.25500000920E-02 0.  1.
    10030    2    1    2    0    0  0.00000000000E+00  0.00000000000E+00 -0.10864616329E+03  0.10069924889E+04  0.10011143211E+04 0.  0.
        4    1    3    3  502    0 -0.19888326633E+02 -0.35509886178E+03 -0.40862001332E+03  0.54172195392E+03  0.12699999809E+01 0.  1.
       -4    1    3    3    0  502  0.19888326633E+02  0.35509886178E+03  0.29997385003E+03  0.46527053503E+03  0.12699999809E+01 0. -1.
</event>
<event>
 5   0  0.9507815E-03  0.9709955E+03  0.7818609E-02  0.9340941E-01
        1   -1    0    0  501    0  0.00000000000E+00  0.00000000000E+00  0.10403804157E+04  0.10403804157E+04  0.50400001928E-02 0. -1.
       -1   -1    0    0    0  501  0.00000000000E+00  0.00000000000E+00 -0.22655951105E+03  0.22655951110E+03  0.50400001928E-02 0.  1.
    10030    2    1    2    0    0  0.00000000000E+00  0.00000000000E+00  0.81382090465E+03  0.12669399268E+04  0.97099552693E+03 0.  0.
        1    1    3    3  502    0 -0.65088266120E+02 -0.31053150160E+03  0.88639307750E+03  0.94146640074E+03  0.50400001928E-02 0. -1.
       -1    1    3    3    0  502  0.65088266120E+02  0.31053150160E+03 -0.72572172847E+02  0.32547352607E+03  0.50400001928E-02 0.  1.
</event>
<event>
 5   0  0.1598986E-02  0.8912813E+03  0.7818609E-02  0.9436546E-01
       -2   -1    0    0    0  501  0.00000000000E+00  0.00000000000E+00  0.69123498596E+03  0.69123498596E+03  0.25500000920E-02 0. -1.
        2   -1    0    0  501    0  0.00000000000E+00  0.00000000000E+00 -0.28730549028E+03  0.28730549029E+03  0.25500000920E-02 0.  1.
    10030    2    1    2    0    0  0.00000000000E+00  0.00000000000E+00  0.40392949568E+03  0.97854047625E+03  0.89128133952E+03 0.  0.
        3    1    3    3  502    0  0.32113758455E+03 -0.30211090501E+01  0.54117435704E+03  0.62929180055E+03  0.10100000352E+00 0. -1.
       -3    1    3    3    0  502 -0.32113758455E+03  0.30211090501E+01 -0.13724486136E+03  0.34924867571E+03  0.10100000352E+00 0.  1.
</event>
<event>
 5   0  0.9507815E-03  0.9999177E+03  0.7818609E-02  0.9308635E-01
        1   -1    0    0  501    0  0.00000000000E+00  0.00000000000E+00  0.13526983427E+04  0.13526983427E+04  0.50400001928E-02 0. -1.
       -1   -1    0    0    0  501  0.00000000000E+00  0.00000000000E+00 -0.18478536183E+03  0.18478536190E+03  0.50400001928E-02 0.  1.
    10030    2    1    2    0    0  0.00000000000E+00  0.00000000000E+00  0.11679129808E+04  0.15374837046E+04  0.99991770214E+03 0.  0.
        1    1    3    3  502    0 -0.42932537944E+03 -0.19548840928E+03  0.32933058667E+03  0.57532133189E+03  0.50400001928E-02 0.  1.
       -1    1    3    3    0  502  0.42932537944E+03  0.19548840928E+03  0.83858239418E+03  0.96216237270E+03  0.50400001928E-02 0. -1.
</event>
<event>
 5   0  0.1656859E-02  0.9760526E+03  0.7818609E-02  0.9335207E-01
        2   -1    0    0  501    0  0.00000000000E+00  0.00000000000E+00  0.47586328399E+03  0.47586328399E+03  0.25500000920E-02 0. -1.
       -2   -1    0    0    0  501  0.00000000000E+00  0.00000000000E+00 -0.50050019272E+03  0.50050019273E+03  0.25500000920E-02 0.  1.
    10030    2    1    2    0    0  0.00000000000E+00  0.00000000000E+00 -0.24636908737E+02  0.97636347672E+03  0.97605259152E+03 0.  0.
        4    1    3    3  502    0  0.13649203391E+02  0.41805042616E+03 -0.26382564958E+03  0.49452810420E+03  0.12699999809E+01 0.  1.
       -4    1    3    3    0  502 -0.13649203391E+02 -0.41805042616E+03  0.23918874085E+03  0.48183537252E+03  0.12699999809E+01 0. -1.
</event>
<event>
 5   0  0.1571895E-02  0.9961902E+03  0.7818609E-02  0.9312733E-01
       -2   -1    0    0    0  501  0.00000000000E+00  0.00000000000E+00  0.29157090638E+03  0.29157090639E+03  0.25500000920E-02 0.  1.
        2   -1    0    0  501    0  0.00000000000E+00  0.00000000000E+00 -0.85090353153E+03  0.85090353153E+03  0.25500000920E-02 0. -1.
    10030    2    1    2    0    0  0.00000000000E+00  0.00000000000E+00 -0.55933262515E+03  0.11424744379E+04  0.99619017048E+03 0.  0.
        2    1    3    3  502    0  0.37584178040E+03 -0.20209276553E+03 -0.57429620915E+03  0.71548212110E+03  0.25500000920E-02 0. -1.
       -2    1    3    3    0  502 -0.37584178040E+03  0.20209276553E+03  0.14963584003E+02  0.42699231682E+03  0.25500000920E-02 0.  1.
</event>
<event>
 5   0  0.1663497E-02  0.9536071E+03  0.7818609E-02  0.9360944E-01
        2   -1    0    0  501    0  0.00000000000E+00  0.00000000000E+00  0.54692822101E+03  0.54692822102E+03  0.25500000920E-02 0. -1.
       -2   -1    0    0    0  501  0.00000000000E+00  0.00000000000E+00 -0.41566992411E+03  0.41566992412E+03  0.25500000920E-02 0.  1.
    10030    2    1    2    0    0  0.00000000000E+00  0.00000000000E+00  0.13125829690E+03  0.96259814514E+03  0.95360707239E+03 0.  0.
        1    1    3    3  502    0  0.30475051956E+02 -0.37668732895E+03  0.35909266563E+03  0.52131527420E+03  0.50400001928E-02 0. -1.
       -1    1    3    3    0  502 -0.30475051956E+02  0.37668732895E+03 -0.22783436872E+03  0.44128287094E+03  0.50400001928E-02 0.  1.
</event>
<event>
 5   0  0.1598986E-02  0.9874487E+03  0.7818609E-02  0.9322419E-01
        2   -1    0    0  501    0  0.00000000000E+00  0.00000000000E+00  0.60824624392E+03  0.60824624392E+03  0.25500000920E-02 0.  1.
       -2   -1    0    0    0  501  0.00000000000E+00  0.00000000000E+00 -0.40076486140E+03  0.40076486140E+03  0.25500000920E-02 0. -1.
    10030    2    1    2    0    0  0.00000000000E+00  0.00000000000E+00  0.20748138252E+03  0.10090111053E+04  0.98744867542E+03 0.  0.
        3    1    3    3  502    0  0.71329975720E+02  0.81741781697E+02 -0.38843461079E+03  0.40330031164E+03  0.10100000352E+00 0. -1.
       -3    1    3    3    0  502 -0.71329975720E+02 -0.81741781697E+02  0.59591599330E+03  0.60571079369E+03  0.10100000352E+00 0.  1.
</event>
<event>
 5   0  0.6314750E-03  0.9973281E+03  0.7818609E-02  0.9311480E-01
        3   -1    0    0  501    0  0.00000000000E+00  0.00000000000E+00  0.12436742040E+04  0.12436742081E+04  0.10100000352E+00 0. -1.
       -3   -1    0    0    0  501  0.00000000000E+00  0.00000000000E+00 -0.19994447920E+03  0.19994450471E+03  0.10100000352E+00 0.  1.
    10030    2    1    2    0    0  0.00000000000E+00  0.00000000000E+00  0.10437297248E+04  0.14436187128E+04  0.99732805513E+03 0.  0.
        3    1    3    3  502    0 -0.14999294299E+03  0.78546351540E+02 -0.15706391625E+03  0.23094695554E+03  0.10100000352E+00 0.  1.
       -3    1    3    3    0  502  0.14999294299E+03 -0.78546351540E+02  0.12007936411E+04  0.12126717573E+04  0.10100000352E+00 0. -1.
</event>
<event>
 5   0  0.1571895E-02  0.1008683E+04  0.7818609E-02  0.9299072E-01
       -2   -1    0    0    0  501  0.00000000000E+00  0.00000000000E+00  0.63081001680E+03  0.63081001681E+03  0.25500000920E-02 0. -1.
        2   -1    0    0  501    0  0.00000000000E+00  0.00000000000E+00 -0.40322820532E+03  0.40322820533E+03  0.25500000920E-02 0.  1.
    10030    2    1    2    0    0  0.00000000000E+00  0.00000000000E+00  0.22758181148E+03  0.10340382221E+04  0.10086830840E+04 0.  0.
        2    1    3    3  502    0 -0.10439402887E+03  0.49339602421E+03  0.10891304140E+03  0.51594554030E+03  0.25500000920E-02 0.  1.
       -2    1    3    3    0  502  0.10439402887E+03 -0.49339602421E+03  0.11866877008E+03  0.51809268183E+03  0.25500000920E-02 0. -1.
</event>
<event>
 5   0  0.9759443E-03  0.1013736E+04  0.7818609E-02  0.9293607E-01
        1   -1    0    0  501    0  0.00000000000E+00  0.00000000000E+00  0.14450914213E+04  0.14450914213E+04  0.50400001928E-02 0. -1.
       -1   -1    0    0    0  501  0.00000000000E+00  0.00000000000E+00 -0.17778467866E+03  0.17778467873E+03  0.50400001928E-02 0.  1.
    10030    2    1    2    0    0  0.00000000000E+00  0.00000000000E+00  0.12673067426E+04  0.16228761000E+04  0.10137358907E+04 0.  0.
        2    1    3    3  502    0 -0.21043161619E+03 -0.77380545193E+02  0.13613895038E+04  0.13797284497E+04  0.25500000920E-02 0. -1.
       -2    1    3    3    0  502  0.21043161619E+03  0.77380545193E+02 -0.94082761215E+02  0.24314765027E+03  0.25500000920E-02 0.  1.
</event>
<event>
 5   0  0.9759443E-03  0.7055304E+03  0.7818609E-02  0.9707821E-01
        1   -1    0    0  501    0  0.00000000000E+00  0.00000000000E+00  0.18595918120E+04  0.18595918120E+04  0.50400001928E-02 0. -1.
       -1   -1    0    0    0  501  0.00000000000E+00  0.00000000000E+00 -0.66919685089E+02  0.66919685279E+02  0.50400001928E-02 0.  1.
    10030    2    1    2    0    0  0.00000000000E+00  0.00000000000E+00  0.17926721269E+04  0.19265114973E+04  0.70553043491E+03 0.  0.
        2    1    3    3  502    0 -0.16590334335E+03  0.28417509711E+03  0.12434953940E+04  0.12862970886E+04  0.25500000920E-02 0. -1.
       -2    1    3    3    0  502  0.16590334335E+03 -0.28417509711E+03  0.54917673289E+03  0.64021440870E+03  0.25500000920E-02 0.  1.
</event>
<event>
 5   0  0.9471140E-03  0.1005449E+04  0.7818609E-02  0.9302588E-01
       -1   -1    0    0    0  501  0.00000000000E+00  0.00000000000E+00  0.11895753117E+03  0.11895753127E+03  0.50400001928E-02 0. -1.
        1   -1    0    0  501    0  0.00000000000E+00  0.00000000000E+00 -0.21245570594E+04  0.21245570594E+04  0.50400001928E-02 0.  1.
    10030    2    1    2    0    0  0.00000000000E+00  0.00000000000E+00 -0.20055995282E+04  0.22435145906E+04  0.10054492781E+04 0.  0.
        4    1    3    3  502    0  0.16955061262E+03  0.26146689930E+03 -0.18830350744E+04  0.19086474410E+04  0.12699999809E+01 0.  1.
       -4    1    3    3    0  502 -0.16955061262E+03 -0.26146689930E+03 -0.12256445376E+03  0.33486714962E+03  0.12699999809E+01 0. -1.
</event>
<event>
 5   0  0.9396660E-03  0.9953526E+03  0.7818609E-02  0.9313657E-01
        1   -1    0    0  501    0  0.00000000000E+00  0.00000000000E+00  0.78486459454E+03  0.78486459456E+03  0.50400001928E-02 0. -1.
       -1   -1    0    0    0  501  0.00000000000E+00  0.00000000000E+00 -0.31557253497E+03  0.31557253501E+03  0.50400001928E-02 0.  1.
    10030    2    1    2    0    0  0.00000000000E+00  0.00000000000E+00  0.46929205956E+03  0.11004371296E+04  0.99535262041E+03 0.  0.
        5    1    3    3  502    0  0.22425830022E+03 -0.41147263064E+02  0.72369871852E+03  0.75877981501E+03  0.46999998093E+01 0. -1.
       -5    1    3    3    0  502 -0.22425830022E+03  0.41147263064E+02 -0.25440665896E+03  0.34165731456E+03  0.46999998093E+01 0.  1.
</event>
<event>
 5   0  0.9396660E-03  0.1301284E+04  0.7818609E-02  0.9028548E-01
       -1   -1    0    0    0  501  0.00000000000E+00  0.00000000000E+00  0.34748858423E+03  0.34748858427E+03  0.50400001928E-02 0.  1.
        1   -1    0    0  501    0  0.00000000000E+00  0.00000000000E+00 -0.12182699095E+04  0.12182699095E+04  0.50400001928E-02 0. -1.
    10030    2    1    2    0    0  0.00000000000E+00  0.00000000000E+00 -0.87078132526E+03  0.15657584938E+04  0.13012838062E+04 0.  0.
        5    1    3    3  502    0  0.61065094159E+03  0.64559351705E+02 -0.69415837863E+03  0.92679038999E+03  0.46999998093E+01 0. -1.
       -5    1    3    3    0  502 -0.61065094159E+03 -0.64559351705E+02 -0.17662294662E+03  0.63896810377E+03  0.46999998093E+01 0.  1.
</event>
<event>
 5   0  0.1598986E-02  0.9349954E+03  0.7818609E-02  0.9382863E-01
       -2   -1    0    0    0  501  0.00000000000E+00  0.00000000000E+00  0.64147210167E+03  0.64147210167E+03  0.25500000920E-02 0. -1.
        2   -1    0    0  501    0  0.00000000000E+00  0.00000000000E+00 -0.34070708475E+03  0.34070708475E+03  0.25500000920E-02 0.  1.
    10030    2    1    2    0    0  0.00000000000E+00  0.00000000000E+00  0.30076501692E+03  0.98217918643E+03  0.93499537905E+03 0.  0.
        3    1    3    3  502    0 -0.22779709306E+03 -0.24227323115E+03  0.49554632426E+03  0.59678639715E+03  0.10100000352E+00 0. -1.
       -3    1    3    3    0  502  0.22779709306E+03  0.24227323115E+03 -0.19478130733E+03  0.38539278928E+03  0.10100000352E+00 0.  1.
</event>
<event>
 5   0  0.1598986E-02  0.9534534E+03  0.7818609E-02  0.9361123E-01
        2   -1    0    0  501    0  0.00000000000E+00  0.00000000000E+00  0.28427068061E+03  0.28427068062E+03  0.25500000920E-02 0. -1.
       -2   -1    0    0    0  501  0.00000000000E+00  0.00000000000E+00 -0.79947862919E+03  0.79947862919E+03  0.25500000920E-02 0.  1.
    10030    2    1    2    0    0  0.00000000000E+00  0.00000000000E+00 -0.51520794858E+03  0.10837493098E+04  0.95345337392E+03 0.  0.
        3    1    3    3  502    0  0.14644796524E+03 -0.44294286402E+03 -0.36910610979E+03  0.59488210411E+03  0.10100000352E+00 0. -1.
       -3    1    3    3    0  502 -0.14644796524E+03  0.44294286402E+03 -0.14610183879E+03  0.48886720570E+03  0.10100000352E+00 0.  1.
</event>
<event>
 5   0  0.9396660E-03  0.9887346E+03  0.7818609E-02  0.9320988E-01
        1   -1    0    0  501    0  0.00000000000E+00  0.00000000000E+00  0.45173719517E+03  0.45173719520E+03  0.50400001928E-02 0. -1.
       -1   -1    0    0    0  501  0.00000000000E+00  0.00000000000E+00 -0.54102036404E+03  0.54102036406E+03  0.50400001928E-02 0.  1.
    10030    2    1    2    0    0  0.00000000000E+00  0.00000000000E+00 -0.89283168866E+02  0.99275755926E+03  0.98873458887E+03 0.  0.
        5    1    3    3  502    0 -0.23498018417E+03  0.64069089735E+02  0.38729056051E+03  0.45753317199E+03  0.46999998093E+01 0. -1.
       -5    1    3    3    0  502  0.23498018417E+03 -0.64069089735E+02 -0.47657372937E+03  0.53522438728E+03  0.46999998093E+01 0.  1.
</event>
<event>
 5   0  0.1663497E-02  0.7869503E+03  0.7818609E-02  0.9579100E-01
       -2   -1    0    0    0  501  0.00000000000E+00  0.00000000000E+00  0.70981053692E+02  0.70981053738E+02  0.25500000920E-02 0. -1.
        2   -1    0    0  501    0  0.00000000000E+00  0.00000000000E+00 -0.21811835733E+04  0.21811835733E+04  0.25500000920E-02 0.  1.
    10030    2    1    2    0    0  0.00000000000E+00  0.00000000000E+00 -0.21102025196E+04  0.22521646270E+04  0.78695033739E+03 0.  0.
        1    1    3    3  502    0  0.13710891739E+03 -0.16726577730E+03 -0.11438818614E+03  0.24466579785E+03  0.50400001928E-02 0. -1.
       -1    1    3    3    0  502 -0.13710891739E+03  0.16726577730E+03 -0.19958143334E+04  0.20074988292E+04  0.50400001928E-02 0.  1.
</event>
<event>
 5   0  0.9759443E-03  0.1010096E+04  0.7818609E-02  0.9297541E-01
       -1   -1    0    0    0  501  0.00000000000E+00  0.00000000000E+00  0.15788450269E+04  0.15788450269E+04  0.50400001928E-02 0.  1.
        1   -1    0    0  501    0  0.00000000000E+00  0.00000000000E+00 -0.16155686632E+03  0.16155686639E+03  0.50400001928E-02 0. -1.
    10030    2    1    2    0    0  0.00000000000E+00  0.00000000000E+00  0.14172881606E+04  0.17404018933E+04  0.10100955500E+04 0.  0.
        2    1    3    3  502    0 -0.89665720301E+02  0.42707325270E+03  0.11467142121E+04  0.12269413143E+04  0.25500000920E-02 0.  1.
       -2    1    3    3    0  502  0.89665720301E+02 -0.42707325270E+03  0.27057394852E+03  0.51346057900E+03  0.25500000920E-02 0. -1.
</event>
<event>
 5   0  0.1598986E-02  0.1002854E+04  0.7818609E-02  0.9305421E-01
       -2   -1    0    0    0  501  0.00000000000E+00  0.00000000000E+00  0.18688367393E+03  0.18688367395E+03  0.25500000920E-02 0. -1.
        2   -1    0    0  501    0  0.00000000000E+00  0.00000000000E+00 -0.13453760271E+04  0.13453760271E+04  0.25500000920E-02 0.  1.
    10030    2    1    2    0    0  0.00000000000E+00  0.00000000000E+00 -0.11584923532E+04  0.15322597011E+04  0.10028535582E+04 0.  0.
        3    1    3    3  502    0 -0.42478083600E+03 -0.15639161305E+03 -0.90883263760E+03  0.10153195894E+04  0.10100000352E+00 0.  1.
       -3    1    3    3    0  502  0.42478083600E+03  0.15639161305E+03 -0.24965971560E+03  0.51694011168E+03  0.10100000352E+00 0. -1.
</event>
<event>
 5   0  0.1656859E-02  0.9331318E+03  0.7818609E-02  0.9385087E-01
        2   -1    0    0  501    0  0.00000000000E+00  0.00000000000E+00  0.14412459232E+04  0.14412459232E+04  0.25500000920E-02 0.  1.
       -2   -1    0    0    0  501  0.00000000000E+00  0.00000000000E+00 -0.15103859280E+03  0.15103859282E+03  0.25500000920E-02 0. -1.
    10030    2    1    2    0    0  0.00000000000E+00  0.00000000000E+00  0.12902073304E+04  0.15922845160E+04  0.93313183661E+03 0.  0.
        4    1    3    3  502    0 -0.32700155659E+03 -0.23394635713E+03  0.10489851777E+04  0.11234021684E+04  0.12699999809E+01 0.  1.
       -4    1    3    3    0  502  0.32700155659E+03  0.23394635713E+03  0.24122215263E+03  0.46888234755E+03  0.12699999809E+01 0. -1.
</event>
<event>
 5   0  0.1617721E-02  0.9767227E+03  0.7818609E-02  0.9334450E-01
       -2   -1    0    0    0  501  0.00000000000E+00  0.00000000000E+00  0.12733924987E+03  0.12733924989E+03  0.25500000920E-02 0.  1.
        2   -1    0    0  501    0  0.00000000000E+00  0.00000000000E+00 -0.18729245510E+04  0.18729245510E+04  0.25500000920E-02 0. -1.
    10030    2    1    2    0    0  0.00000000000E+00  0.00000000000E+00 -0.17455853012E+04  0.20002638009E+04  0.97672269845E+03 0.  0.
        5    1    3    3  502    0  0.10589345908E+03  0.47482940956E+03 -0.95963869295E+03  0.10759204914E+04  0.46999998093E+01 0. -1.
       -5    1    3    3    0  502 -0.10589345908E+03 -0.47482940956E+03 -0.78594660823E+03  0.92434330952E+03  0.46999998093E+01 0.  1.
</event>
<event>
 5   0  0.9507815E-03  0.9538378E+03  0.7818609E-02  0.9360676E-01
        1   -1    0    0  501    0  0.00000000000E+00  0.00000000000E+00  0.31766098241E+03  0.31766098245E+03  0.50400001928E-02 0. -1.
       -1   -1    0    0    0  501  0.00000000000E+00  0.00000000000E+00 -0.71602009266E+03  0.71602009268E+03  0.50400001928E-02 0.  1.
    10030    2    1    2    0    0  0.00000000000E+00  0.00000000000E+00 -0.39835911025E+03  0.10336810751E+04  0.95383781869E+03 0.  0.
        1    1    3    3  502    0  0.19211913394E+03  0.41112070929E+03 -0.35816222193E+03  0.57810913890E+03  0.50400001928E-02 0.  1.
       -1    1    3    3    0  502 -0.19211913394E+03 -0.41112070929E+03 -0.40196888324E+02  0.45557193624E+03  0.50400001928E-02 0. -1.
</event>
<event>
 5   0  0.1000773E-02  0.9853734E+03  0.7818609E-02  0.9324734E-01
        1   -1    0    0  501    0  0.00000000000E+00  0.00000000000E+00  0.52667191907E+03  0.52667191910E+03  0.50400001928E-02 0.  1.
       -1   -1    0    0    0  501  0.00000000000E+00  0.00000000000E+00 -0.46089450315E+03  0.46089450318E+03  0.50400001928E-02 0. -1.
    10030    2    1    2    0    0  0.00000000000E+00  0.00000000000E+00  0.65777415921E+02  0.98756642228E+03  0.98537341651E+03 0.  0.
        3    1    3    3  502    0  0.20113820104E+03  0.35239701604E+03 -0.24719693652E+03  0.47512794956E+03  0.10100000352E+00 0. -1.
       -3    1    3    3    0  502 -0.20113820104E+03 -0.35239701604E+03  0.31297435244E+03  0.51243847271E+03  0.10100000352E+00 0.  1.
</event>
<event>
 5   0  0.9471140E-03  0.1002981E+04  0.7818609E-02  0.9305282E-01
        1   -1    0    0  501    0  0.00000000000E+00  0.00000000000E+00  0.35059477536E+03  0.35059477540E+03  0.50400001928E-02 0. -1.
       -1   -1    0    0    0  501  0.00000000000E+00  0.00000000000E+00 -0.71733101272E+03  0.71733101273E+03  0.50400001928E-02 0.  1.
    10030    2    1    2    0    0  0.00000000000E+00  0.00000000000E+00 -0.36673623735E+03  0.10679257881E+04  0.10029805687E+04 0.  0.
        4    1    3    3  502    0 -0.13260514491E+02  0.69481500698E+02 -0.71199092032E+03  0.71549717239E+03  0.12699999809E+01 0.  1.
       -4    1    3    3    0  502  0.13260514491E+02 -0.69481500698E+02  0.34525468297E+03  0.35242861574E+03  0.12699999809E+01 0. -1.
</event>
<event>
 5   0  0.9396660E-03  0.9876854E+03  0.7818609E-02  0.9322155E-01
       -1   -1    0    0    0  501  0.00000000000E+00  0.00000000000E+00  0.33422846087E+03  0.33422846091E+03  0.50400001928E-02 0. -1.
        1   -1    0    0  501    0  0.00000000000E+00  0.00000000000E+00 -0.72968235265E+03  0.72968235267E+03  0.50400001928E-02 0.  1.
    10030    2    1    2    0    0  0.00000000000E+00  0.00000000000E+00 -0.39545389178E+03  0.10639108136E+04  0.98768539461E+03 0.  0.
        5    1    3    3  502    0 -0.93243231524E+02 -0.72441037577E+02  0.31877465965E+03  0.33997261329E+03  0.46999998093E+01 0. -1.
       -5    1    3    3    0  502  0.93243231524E+02  0.72441037577E+02 -0.71422855144E+03  0.72393820029E+03  0.46999998093E+01 0.  1.
</event>
<event>
 5   0  0.1598986E-02  0.9950436E+03  0.7818609E-02  0.9313998E-01
        2   -1    0    0  501    0  0.00000000000E+00  0.00000000000E+00  0.92822639271E+03  0.92822639271E+03  0.25500000920E-02 0.  1.
       -2   -1    0    0    0  501  0.00000000000E+00  0.00000000000E+00 -0.26666766462E+03  0.26666766463E+03  0.25500000920E-02 0. -1.
    10030    2    1    2    0    0  0.00000000000E+00  0.00000000000E+00  0.66155872809E+03  0.11948940573E+04  0.99504364605E+03 0.  0.
        3    1    3    3  502    0  0.20262759910E+03 -0.15957090925E+03  0.84167844074E+03  0.88030871108E+03  0.10100000352E+00 0.  1.
       -3    1    3    3    0  502 -0.20262759910E+03  0.15957090925E+03 -0.18011971265E+03  0.31458534626E+03  0.10100000352E+00 0. -1.
</event>
<event>
 5   0  0.9759443E-03  0.9926853E+03  0.7818609E-02  0.9316604E-01
        1   -1    0    0  501    0  0.00000000000E+00  0.00000000000E+00  0.75764746577E+03  0.75764746579E+03  0.50400001928E-02 0. -1.
       -1   -1    0    0    0  501  0.00000000000E+00  0.00000000000E+00 -0.32515917760E+03  0.32515917764E+03  0.50400001928E-02 0.  1.
    10030    2    1    2    0    0  0.00000000000E+00  0.00000000000E+00  0.43248828817E+03  0.10828066434E+04  0.99268530142E+03 0.  0.
        2    1    3    3  502    0  0.20837152196E+02  0.40343624837E+03  0.53080107532E+03  0.66704180902E+03  0.25500000920E-02 0.  1.
       -2    1    3    3    0  502 -0.20837152196E+02 -0.40343624837E+03 -0.98312787148E+02  0.41576483441E+03  0.25500000920E-02 0. -1.
</event>
<event>
 5   0  0.9471140E-03  0.6337719E+03  0.7818609E-02  0.9837716E-01
       -1   -1    0    0    0  501  0.00000000000E+00  0.00000000000E+00  0.17682624617E+03  0.17682624624E+03  0.50400001928E-02 0. -1.
        1   -1    0    0  501    0  0.00000000000E+00  0.00000000000E+00 -0.56788344851E+03  0.56788344853E+03  0.50400001928E-02 0.  1.
    10030    2    1    2    0    0  0.00000000000E+00  0.00000000000E+00 -0.39105720234E+03  0.74470969477E+03  0.63377187851E+03 0.  0.
        4    1    3    3  502    0 -0.89836144690E+00  0.31396383394E+03 -0.14511128763E+03  0.34588002945E+03  0.12699999809E+01 0. -1.
       -4    1    3    3    0  502  0.89836144690E+00 -0.31396383394E+03 -0.24594591472E+03  0.39882966532E+03  0.12699999809E+01 0.  1.
</event>
<event>
 5   0  0.1000773E-02  0.1002577E+04  0.7818609E-02  0.9305722E-01
       -1   -1    0    0    0  501  0.00000000000E+00  0.00000000000E+00  0.30965112965E+03  0.30965112970E+03  0.50400001928E-02 0.  1.
        1   -1    0    0  501    0  0.00000000000E+00  0.00000000000E+00 -0.81152745236E+03  0.81152745238E+03  0.50400001928E-02 0. -1.
    10030    2    1    2    0    0  0.00000000000E+00  0.00000000000E+00 -0.50187632271E+03  0.11211785821E+04  0.10025774631E+04 0.  0.
        3    1    3    3  502    0 -0.46816033649E+02 -0.28185789094E+03  0.20967876492E+03  0.35440204056E+03  0.10100000352E+00 0.  1.
       -3    1    3    3    0  502  0.46816033649E+02  0.28185789094E+03 -0.71155508763E+03  0.76677654152E+03  0.10100000352E+00 0. -1.
</event>
<event>
 5   0  0.9471140E-03  0.1016489E+04  0.7818609E-02  0.9290643E-01
       -1   -1    0    0    0  501  0.00000000000E+00  0.00000000000E+00  0.33638143159E+03  0.33638143163E+03  0.50400001928E-02 0.  1.
        1   -1    0    0  501    0  0.00000000000E+00  0.00000000000E+00 -0.76791513790E+03  0.76791513791E+03  0.50400001928E-02 0. -1.
    10030    2    1    2    0    0  0.00000000000E+00  0.00000000000E+00 -0.43153370631E+03  0.11042965695E+04  0.10164888459E+04 0.  0.
        4    1    3    3  502    0 -0.30364463586E+03  0.50832193892E+02  0.22354971237E+03  0.38047347296E+03  0.12699999809E+01 0.  1.
       -4    1    3    3    0  502  0.30364463586E+03 -0.50832193892E+02 -0.65508341867E+03  0.72382309658E+03  0.12699999809E+01 0. -1.
</event>
<event>
 5   0  0.1571895E-02  0.1001257E+04  0.7818609E-02  0.9307167E-01
        2   -1    0    0  501    0  0.00000000000E+00  0.00000000000E+00  0.18527812258E+04  0.18527812258E+04  0.25500000920E-02 0.  1.
       -2   -1    0    0    0  501  0.00000000000E+00  0.00000000000E+00 -0.13527167500E+03  0.13527167502E+03  0.25500000920E-02 0. -1.
    10030    2    1    2    0    0  0.00000000000E+00  0.00000000000E+00  0.17175095508E+04  0.19880529008E+04  0.10012568498E+04 0.  0.
        2    1    3    3  502    0  0.42692239932E+03 -0.91905730796E+02  0.13447883177E+04  0.14139183208E+04  0.25500000920E-02 0.  1.
       -2    1    3    3    0  502 -0.42692239932E+03  0.91905730796E+02  0.37272123312E+03  0.57413458006E+03  0.25500000920E-02 0. -1.
</event>
<event>
 5   0  0.1617721E-02  0.1009628E+04  0.7818609E-02  0.9298047E-01
       -2   -1    0    0    0  501  0.00000000000E+00  0.00000000000E+00  0.11895107972E+04  0.11895107972E+04  0.25500000920E-02 0.  1.
        2   -1    0    0  501    0  0.00000000000E+00  0.00000000000E+00 -0.21423712815E+03  0.21423712817E+03  0.25500000920E-02 0. -1.
    10030    2    1    2    0    0  0.00000000000E+00  0.00000000000E+00  0.97527366903E+03  0.14037479253E+04  0.10096284012E+04 0.  0.
        5    1    3    3  502    0 -0.16330105705E+03  0.16769298514E+03 -0.13419364232E+03  0.26984846885E+03  0.46999998093E+01 0. -1.
       -5    1    3    3    0  502  0.16330105705E+03 -0.16769298514E+03  0.11094673113E+04  0.11338994565E+04  0.46999998093E+01 0.  1.
</event>
<event>
 5   0  0.1598986E-02  0.9640162E+03  0.7818609E-02  0.9348916E-01
        2   -1    0    0  501    0  0.00000000000E+00  0.00000000000E+00  0.60852150026E+03  0.60852150026E+03  0.25500000920E-02 0. -1.
       -2   -1    0    0    0  501  0.00000000000E+00  0.00000000000E+00 -0.38179723876E+03  0.38179723877E+03  0.25500000920E-02 0.  1.
    10030    2    1    2    0    0  0.00000000000E+00  0.00000000000E+00  0.22672426150E+03  0.99031873903E+03  0.96401624163E+03 0.  0.
        3    1    3    3  502    0 -0.40697236819E+02  0.46330304335E+03 -0.16685094878E+02  0.46538626715E+03  0.10100000352E+00 0. -1.
       -3    1    3    3    0  502  0.40697236819E+02 -0.46330304335E+03  0.24340935637E+03  0.52493247188E+03  0.10100000352E+00 0.  1.
</event>
<event>
 5   0  0.1617721E-02  0.1011527E+04  0.7818609E-02  0.9295991E-01
        2   -1    0    0  501    0  0.00000000000E+00  0.00000000000E+00  0.41956032457E+03  0.41956032458E+03  0.25500000920E-02 0. -1.
       -2   -1    0    0    0  501  0.00000000000E+00  0.00000000000E+00 -0.60967860943E+03  0.60967860944E+03  0.25500000920E-02 0.  1.
    10030    2    1    2    0    0  0.00000000000E+00  0.00000000000E+00 -0.19011828487E+03  0.10292389340E+04  0.10115274693E+04 0.  0.
        5    1    3    3  502    0  0.46850693187E+03 -0.18716732734E+03 -0.59163807832E+02  0.50798897605E+03  0.46999998093E+01 0. -1.
       -5    1    3    3    0  502 -0.46850693187E+03  0.18716732734E+03 -0.13095447704E+03  0.52124995797E+03  0.46999998093E+01 0.  1.
</event>
<event>
 5   0  0.9471140E-03  0.1034224E+04  0.7818609E-02  0.9271785E-01
       -1   -1    0    0    0  501  0.00000000000E+00  0.00000000000E+00  0.35076132677E+03  0.35076132680E+03  0.50400001928E-02 0. -1.
        1   -1    0    0  501    0  0.00000000000E+00  0.00000000000E+00 -0.76235506633E+03  0.76235506635E+03  0.50400001928E-02 0.  1.
    10030    2    1    2    0    0  0.00000000000E+00  0.00000000000E+00 -0.41159373957E+03  0.11131163932E+04  0.10342237177E+04 0.  0.
        4    1    3    3  502    0  0.26735443033E+03  0.30215649668E+03 -0.55393063667E+03  0.68528658461E+03  0.12699999809E+01 0.  1.
       -4    1    3    3    0  502 -0.26735443033E+03 -0.30215649668E+03  0.14233689710E+03  0.42782980854E+03  0.12699999809E+01 0. -1.
</event>
<event>
 5   0  0.1000773E-02  0.1030198E+04  0.7818609E-02  0.9276030E-01
        1   -1    0    0  501    0  0.00000000000E+00  0.00000000000E+00  0.13282831526E+04  0.13282831526E+04  0.50400001928E-02 0. -1.
       -1   -1    0    0    0  501  0.00000000000E+00  0.00000000000E+00 -0.19975194241E+03  0.19975194248E+03  0.50400001928E-02 0.  1.
    10030    2    1    2    0    0  0.00000000000E+00  0.00000000000E+00  0.11285312102E+04  0.15280350951E+04  0.10301983107E+04 0.  0.
        3    1    3    3  502    0  0.17825283858E+03 -0.42638841000E+03  0.22686116017E+03  0.51482729807E+03  0.10100000352E+00 0. -1.
       -3    1    3    3    0  502 -0.17825283858E+03  0.42638841000E+03  0.90167005005E+03  0.10132077971E+04  0.10100000352E+00 0.  1.
</event>
<event>
 5   0  0.1000773E-02  0.9449094E+03  0.7818609E-02  0.9371121E-01
       -1   -1    0    0    0  501  0.00000000000E+00  0.00000000000E+00  0.11872894825E+03  0.11872894836E+03  0.50400001928E-02 0.  1.
        1   -1    0    0  501    0  0.00000000000E+00  0.00000000000E+00 -0.18800255231E+04  0.18800255231E+04  0.50400001928E-02 0. -1.
    10030    2    1    2    0    0  0.00000000000E+00  0.00000000000E+00 -0.17612965748E+04  0.19987544715E+04  0.94490942034E+03 0.  0.
        3    1    3    3  502    0  0.25823989365E+03 -0.92262644881E+01 -0.17172983240E+04  0.17366307928E+04  0.10100000352E+00 0. -1.
       -3    1    3    3    0  502 -0.25823989365E+03  0.92262644881E+01 -0.43998250807E+02  0.26212367864E+03  0.10100000352E+00 0.  1.
</event>
<event>
 5   0  0.9396660E-03  0.9775746E+03  0.7818609E-02  0.9333488E-01
       -1   -1    0    0    0  501  0.00000000000E+00  0.00000000000E+00  0.26181541237E+03  0.26181541242E+03  0.50400001928E-02 0.  1.
        1   -1    0    0  501    0  0.00000000000E+00  0.00000000000E+00 -0.91252468712E+03  0.91252468713E+03  0.50400001928E-02 0. -1.
    10030    2    1    2    0    0  0.00000000000E+00  0.00000000000E+00 -0.65070927475E+03  0.11743400996E+04  0.97757460543E+03 0.  0.
        5    1    3    3  502    0 -0.98210538352E+02  0.67527036493E+02 -0.89477333247E+03  0.90268854927E+03  0.46999998093E+01 0. -1.
       -5    1    3    3    0  502  0.98210538352E+02 -0.67527036493E+02  0.24406405772E+03  0.27165155028E+03  0.46999998093E+01 0.  1.
</event>
<event>
 5   0  0.1571895E-02  0.9891894E+03  0.7818609E-02  0.9320482E-01
        2   -1    0    0  501    0  0.00000000000E+00  0.00000000000E+00  0.44590992589E+03  0.44590992589E+03  0.25500000920E-02 0. -1.
       -2   -1    0    0    0  501  0.00000000000E+00  0.00000000000E+00 -0.54859490555E+03  0.54859490556E+03  0.25500000920E-02 0.  1.
    10030    2    1    2    0    0  0.00000000000E+00  0.00000000000E+00 -0.10268497966E+03  0.99450483145E+03  0.98918939275E+03 0.  0.
        2    1    3    3  502    0  0.24938218571E+03  0.12649737864E+03 -0.46149404753E+03  0.53960153564E+03  0.25500000920E-02 0.  1.
       -2    1    3    3    0  502 -0.24938218571E+03 -0.12649737864E+03  0.35880906787E+03  0.45490329581E+03  0.25500000920E-02 0. -1.
</event>
<event>
 5   0  0.1598986E-02  0.1040941E+04  0.7818609E-02  0.9264747E-01
       -2   -1    0    0    0  501  0.00000000000E+00  0.00000000000E+00  0.27267180007E+03  0.27267180009E+03  0.25500000920E-02 0. -1.
        2   -1    0    0  501    0  0.00000000000E+00  0.00000000000E+00 -0.99346345269E+03  0.99346345270E+03  0.25500000920E-02 0.  1.
    10030    2    1    2    0    0  0.00000000000E+00  0.00000000000E+00 -0.72079165262E+03  0.12661352528E+04  0.10409408590E+04 0.  0.
        3    1    3    3  502    0  0.10288437830E+02  0.41118917285E+03  0.27512959985E+02  0.41223702040E+03  0.10100000352E+00 0.  1.
       -3    1    3    3    0  502 -0.10288437830E+02 -0.41118917285E+03 -0.74830461260E+03  0.85389823238E+03  0.10100000352E+00 0. -1.
</event>
<event>
 5   0  0.1598986E-02  0.1045718E+04  0.7818609E-02  0.9259776E-01
        2   -1    0    0  501    0  0.00000000000E+00  0.00000000000E+00  0.41728591706E+03  0.41728591707E+03  0.25500000920E-02 0. -1.
       -2   -1    0    0    0  501  0.00000000000E+00  0.00000000000E+00 -0.65514211304E+03  0.65514211304E+03  0.25500000920E-02 0.  1.
    10030    2    1    2    0    0  0.00000000000E+00  0.00000000000E+00 -0.23785619598E+03  0.10724280301E+04  0.10457180833E+04 0.  0.
        3    1    3    3  502    0  0.24349644367E+03 -0.34352339722E+03  0.19896140959E+03  0.46570859475E+03  0.10100000352E+00 0. -1.
       -3    1    3    3    0  502 -0.24349644367E+03  0.34352339722E+03 -0.43681760557E+03  0.60671943537E+03  0.10100000352E+00 0.  1.
</event>
<event>
 5   0  0.9759443E-03  0.9131561E+03  0.7818609E-02  0.9409284E-01
        1   -1    0    0  501    0  0.00000000000E+00  0.00000000000E+00  0.55924293989E+03  0.55924293991E+03  0.50400001928E-02 0.  1.
       -1   -1    0    0    0  501  0.00000000000E+00  0.00000000000E+00 -0.37276017117E+03  0.37276017120E+03  0.50400001928E-02 0. -1.
    10030    2    1    2    0    0  0.00000000000E+00  0.00000000000E+00  0.18648276872E+03  0.93200311111E+03  0.91315605243E+03 0.  0.
        2    1    3    3  502    0  0.30176065404E+03  0.27182590469E+03 -0.11966576899E+03  0.42340135931E+03  0.25500000920E-02 0. -1.
       -2    1    3    3    0  502 -0.30176065404E+03 -0.27182590469E+03  0.30614853771E+03  0.50860175180E+03  0.25500000920E-02 0.  1.
</event>
<event>
 5   0  0.1656859E-02  0.6119728E+03  0.7818609E-02  0.9880873E-01
        2   -1    0    0  501    0  0.00000000000E+00  0.00000000000E+00  0.75133522958E+03  0.75133522958E+03  0.25500000920E-02 0.  1.
       -2   -1    0    0    0  501  0.00000000000E+00  0.00000000000E+00 -0.12461504041E+03  0.12461504043E+03  0.25500000920E-02 0. -1.
    10030    2    1    2    0    0  0.00000000000E+00  0.00000000000E+00  0.62672018917E+03  0.87595027002E+03  0.61197277720E+03 0.  0.
        4    1    3    3  502    0 -0.49659409706E+02  0.22969301910E+03  0.32868871297E+02  0.23729078278E+03  0.12699999809E+01 0. -1.
       -4    1    3    3    0  502  0.49659409706E+02 -0.22969301910E+03  0.59385131787E+03  0.63865948723E+03  0.12699999809E+01 0.  1.
</event>
<event>
 5   0  0.1598986E-02  0.7575824E+03  0.7818609E-02  0.9623529E-01
        2   -1    0    0  501    0  0.00000000000E+00  0.00000000000E+00  0.14246033058E+03  0.14246033060E+03  0.25500000920E-02 0.  1.
       -2   -1    0    0    0  501  0.00000000000E+00  0.00000000000E+00 -0.10071771541E+04  0.10071771541E+04  0.25500000920E-02 0. -1.
    10030    2    1    2    0    0  0.00000000000E+00  0.00000000000E+00 -0.86471682356E+03  0.11496374847E+04  0.75758244527E+03 0.  0.
        3    1    3    3  502    0  0.88054307742E+02  0.21256164828E+03  0.24274785848E+02  0.23135533463E+03  0.10100000352E+00 0.  1.
       -3    1    3    3    0  502 -0.88054307742E+02 -0.21256164828E+03 -0.88899160941E+03  0.91828215012E+03  0.10100000352E+00 0. -1.
</event>
<event>
 5   0  0.1598986E-02  0.6435178E+03  0.7818609E-02  0.9819019E-01
        2   -1    0    0  501    0  0.00000000000E+00  0.00000000000E+00  0.97667578307E+03  0.97667578307E+03  0.25500000920E-02 0. -1.
       -2   -1    0    0    0  501  0.00000000000E+00  0.00000000000E+00 -0.10600118202E+03  0.10600118205E+03  0.25500000920E-02 0.  1.
    10030    2    1    2    0    0  0.00000000000E+00  0.00000000000E+00  0.87067460105E+03  0.10826769651E+04  0.64351779298E+03 0.  0.
        3    1    3    3  502    0  0.23046446872E+03 -0.11095728526E+03  0.76375013945E+03  0.80544377594E+03  0.10100000352E+00 0. -1.
       -3    1    3    3    0  502 -0.23046446872E+03  0.11095728526E+03  0.10692446160E+03  0.27723318918E+03  0.10100000352E+00 0.  1.
</event>
<event>
 5   0  0.6314750E-03  0.1044549E+04  0.7818609E-02  0.9260990E-01
        3   -1    0    0  501    0  0.00000000000E+00  0.00000000000E+00  0.52808407270E+03  0.52808408236E+03  0.10100000352E+00 0. -1.
       -3   -1    0    0    0  501  0.00000000000E+00  0.00000000000E+00 -0.51652860998E+03  0.51652861986E+03  0.10100000352E+00 0.  1.
    10030    2    1    2    0    0  0.00000000000E+00  0.00000000000E+00  0.11555462714E+02  0.10446127022E+04  0.10445487872E+04 0.  0.
        5    1    3    3  502    0 -0.66197360678E+02 -0.34480996207E+03  0.39241806093E+03  0.52658335052E+03  0.46999998093E+01 0. -1.
       -5    1    3    3    0  502  0.66197360678E+02  0.34480996207E+03 -0.38086259821E+03  0.51802935170E+03  0.46999998093E+01 0.  1.
</event>
<event>
 5   0  0.1598986E-02  0.1003110E+04  0.7818609E-02  0.9305141E-01
       -2   -1    0    0    0  501  0.00000000000E+00  0.00000000000E+00  0.24585556908E+03  0.24585556909E+03  0.25500000920E-02 0.  1.
        2   -1    0    0  501    0  0.00000000000E+00  0.00000000000E+00 -0.10231916210E+04  0.10231916210E+04  0.25500000920E-02 0. -1.
    10030    2    1    2    0    0  0.00000000000E+00  0.00000000000E+00 -0.77733605195E+03  0.12690471901E+04  0.10031098809E+04 0.  0.
        3    1    3    3  502    0  0.32934853166E+03 -0.37756912728E+03 -0.35958564635E+03  0.61670961436E+03  0.10100000352E+00 0. -1.
       -3    1    3    3    0  502 -0.32934853166E+03  0.37756912728E+03 -0.41775040560E+03  0.65233757577E+03  0.10100000352E+00 0.  1.
</event>
<event>
 5   0  0.1617721E-02  0.6151123E+03  0.7818609E-02  0.9874539E-01
       -2   -1    0    0    0  501  0.00000000000E+00  0.00000000000E+00  0.68422986995E+03  0.68422986996E+03  0.25500000920E-02 0. -1.
        2   -1    0    0  501    0  0.00000000000E+00  0.00000000000E+00 -0.13824417672E+03  0.13824417674E+03  0.25500000920E-02 0.  1.
    10030    2    1    2    0    0  0.00000000000E+00  0.00000000000E+00  0.54598569323E+03  0.82247404670E+03  0.61511233143E+03 0.  0.
        5    1    3    3  502    0  0.18931851256E+03 -0.10491300475E+03  0.56508514964E+03  0.60513763236E+03  0.46999998093E+01 0. -1.
       -5    1    3    3    0  502 -0.18931851256E+03  0.10491300475E+03 -0.19099456404E+02  0.21733641434E+03  0.46999998093E+01 0.  1.
</event>
<event>
 5   0  0.1000773E-02  0.9001206E+03  0.7818609E-02  0.9425431E-01
       -1   -1    0    0    0  501  0.00000000000E+00  0.00000000000E+00  0.51749781684E+03  0.51749781687E+03  0.50400001928E-02 0. -1.
        1   -1    0    0  501    0  0.00000000000E+00  0.00000000000E+00 -0.39141086743E+03  0.39141086746E+03  0.50400001928E-02 0.  1.
    10030    2    1    2    0    0  0.00000000000E+00  0.00000000000E+00  0.12608694941E+03  0.90890868433E+03  0.90012059061E+03 0.  0.
        3    1    3    3  502    0  0.41128361591E+03 -0.17049773360E+03 -0.34060768412E+01  0.44523623105E+03  0.10100000352E+00 0.  1.
       -3    1    3    3    0  502 -0.41128361591E+03  0.17049773360E+03  0.12949302625E+03  0.46367245328E+03  0.10100000352E+00 0. -1.
</event>
<event>
 5   0  0.6314750E-03  0.9951388E+03  0.7818609E-02  0.9313893E-01
       -3   -1    0    0    0  501  0.00000000000E+00  0.00000000000E+00  0.13743659940E+04  0.13743659977E+04  0.10100000352E+00 0.  1.
        3   -1    0    0  501    0  0.00000000000E+00  0.00000000000E+00 -0.18013782474E+03  0.18013785305E+03  0.10100000352E+00 0. -1.
    10030    2    1    2    0    0  0.00000000000E+00  0.00000000000E+00  0.11942281693E+04  0.15545038508E+04  0.99513883544E+03 0.  0.
        3    1    3    3  502    0 -0.41139317389E+02  0.25195790927E+02  0.13707041848E+04  0.13715528585E+04  0.10100000352E+00 0.  1.
       -3    1    3    3    0  502  0.41139317389E+02 -0.25195790927E+02 -0.17647601552E+03  0.18295099226E+03  0.10100000352E+00 0. -1.
</event>
<event>
 5   0  0.9759443E-03  0.9387646E+03  0.7818609E-02  0.9378380E-01
       -1   -1    0    0    0  501  0.00000000000E+00  0.00000000000E+00  0.54658340317E+03  0.54658340319E+03  0.50400001928E-02 0. -1.
        1   -1    0    0  501    0  0.00000000000E+00  0.00000000000E+00 -0.40308527659E+03  0.40308527662E+03  0.50400001928E-02 0.  1.
    10030    2    1    2    0    0  0.00000000000E+00  0.00000000000E+00  0.14349812657E+03  0.94966867981E+03  0.93876455466E+03 0.  0.
        2    1    3    3  502    0 -0.32503409697E+03  0.33570292851E+03  0.11671877421E+03  0.48162941424E+03  0.25500000920E-02 0.  1.
       -2    1    3    3    0  502  0.32503409697E+03 -0.33570292851E+03  0.26779352363E+02  0.46803926558E+03  0.25500000920E-02 0. -1.
</event>
<event>
 5   0  0.9471140E-03  0.1000172E+04  0.7818609E-02  0.9308357E-01
       -1   -1    0    0    0  501  0.00000000000E+00  0.00000000000E+00  0.38220684869E+03  0.38220684872E+03  0.50400001928E-02 0.  1.
        1   -1    0    0  501    0  0.00000000000E+00  0.00000000000E+00 -0.65432059878E+03  0.65432059880E+03  0.50400001928E-02 0. -1.
    10030    2    1    2    0    0  0.00000000000E+00  0.00000000000E+00 -0.27211375009E+03  0.10365274475E+04  0.10001716135E+04 0.  0.
        4    1    3    3  502    0  0.91466040348E+02 -0.71398127997E+02  0.36806139887E+03  0.38592037450E+03  0.12699999809E+01 0.  1.
       -4    1    3    3    0  502 -0.91466040348E+02  0.71398127997E+02 -0.64017514896E+03  0.65060707302E+03  0.12699999809E+01 0. -1.
</event>
<event>
 5   0  0.1598986E-02  0.9182791E+03  0.7818609E-02  0.9403016E-01
       -2   -1    0    0    0  501  0.00000000000E+00  0.00000000000E+00  0.68570553427E+03  0.68570553428E+03  0.25500000920E-02 0. -1.
        2   -1    0    0  501    0  0.00000000000E+00  0.00000000000E+00 -0.30743392094E+03  0.30743392095E+03  0.25500000920E-02 0.  1.
    10030    2    1    2    0    0  0.00000000000E+00  0.00000000000E+00  0.37827161334E+03  0.99313945523E+03  0.91827913189E+03 0.  0.
        3    1    3    3  502    0 -0.20642163473E+03  0.41012096216E+03  0.18934081628E+03  0.49664781263E+03  0.10100000352E+00 0.  1.
       -3    1    3    3    0  502  0.20642163473E+03 -0.41012096216E+03  0.18893079706E+03  0.49649164259E+03  0.10100000352E+00 0. -1.
</event>
<event>
 5   0  0.1598986E-02  0.7786518E+03  0.7818609E-02  0.9591442E-01
        2   -1    0    0  501    0  0.00000000000E+00  0.00000000000E+00  0.28951639096E+03  0.28951639097E+03  0.25500000920E-02 0. -1.
       -2   -1    0    0    0  501  0.00000000000E+00  0.00000000000E+00 -0.52354429133E+03  0.52354429133E+03  0.25500000920E-02 0.  1.
    10030    2    1    2    0    0  0.00000000000E+00  0.00000000000E+00 -0.23402790037E+03  0.81306068231E+03  0.77865179314E+03 0.  0.
        3    1    3    3  502    0  0.17478790738E+03  0.22933543186E+03 -0.39016322790E+03  0.48515245798E+03  0.10100000352E+00 0.  1.
       -3    1    3    3    0  502 -0.17478790738E+03 -0.22933543186E+03  0.15613532753E+03  0.32790822433E+03  0.10100000352E+00 0. -1.
</event>
<event>
 5   0  0.1663497E-02  0.9594478E+03  0.7818609E-02  0.9354175E-01
       -2   -1    0    0    0  501  0.00000000000E+00  0.00000000000E+00  0.17828363963E+03  0.17828363964E+03  0.25500000920E-02 0.  1.
        2   -1    0    0  501    0  0.00000000000E+00  0.00000000000E+00 -0.12908365044E+04  0.12908365044E+04  0.25500000920E-02 0. -1.
    10030    2    1    2    0    0  0.00000000000E+00  0.00000000000E+00 -0.11125528648E+04  0.14691201440E+04  0.95944782074E+03 0.  0.
        1    1    3    3  502    0 -0.32183987560E+03  0.20707484530E+03 -0.99920282939E+03  0.10699846688E+04  0.50400001928E-02 0. -1.
       -1    1    3    3    0  502  0.32183987560E+03 -0.20707484530E+03 -0.11335003538E+03  0.39913547529E+03  0.50400001928E-02 0.  1.
</event>
<event>
 5   0  0.9507815E-03  0.1029593E+04  0.7818609E-02  0.9276670E-01
       -1   -1    0    0    0  501  0.00000000000E+00  0.00000000000E+00  0.49280298388E+03  0.49280298391E+03  0.50400001928E-02 0. -1.
        1   -1    0    0  501    0  0.00000000000E+00  0.00000000000E+00 -0.53777179404E+03  0.53777179407E+03  0.50400001928E-02 0.  1.
    10030    2    1    2    0    0  0.00000000000E+00  0.00000000000E+00 -0.44968810162E+02  0.10305747780E+04  0.10295932105E+04 0.  0.
        1    1    3    3  502    0  0.10276183791E+01 -0.84596410975E+02 -0.53076565645E+03  0.53746608343E+03  0.50400001928E-02 0.  1.
       -1    1    3    3    0  502 -0.10276183791E+01  0.84596410975E+02  0.48579684629E+03  0.49310869455E+03  0.50400001928E-02 0. -1.
</event>
<event>
 5   0  0.1571895E-02  0.9134138E+03  0.7818609E-02  0.9408967E-01
        2   -1    0    0  501    0  0.00000000000E+00  0.00000000000E+00  0.13036935706E+03  0.13036935709E+03  0.25500000920E-02 0. -1.
       -2   -1    0    0    0  501  0.00000000000E+00  0.00000000000E+00 -0.15999251102E+04  0.15999251102E+04  0.25500000920E-02 0.  1.
    10030    2    1    2    0    0  0.00000000000E+00  0.00000000000E+00 -0.14695557531E+04  0.17302944673E+04  0.91341383389E+03 0.  0.
        2    1    3    3  502    0  0.52742533116E+02 -0.55029016195E+02 -0.15877908048E+04  0.15896193278E+04  0.25500000920E-02 0.  1.
       -2    1    3    3    0  502 -0.52742533116E+02  0.55029016195E+02  0.11823505167E+03  0.14067513950E+03  0.25500000920E-02 0. -1.
</event>
<event>
 5   0  0.1598986E-02  0.9905102E+03  0.7818609E-02  0.9319015E-01
        2   -1    0    0  501    0  0.00000000000E+00  0.00000000000E+00  0.77127462979E+03  0.77127462979E+03  0.25500000920E-02 0.  1.
       -2   -1    0    0    0  501  0.00000000000E+00  0.00000000000E+00 -0.31801592193E+03  0.31801592194E+03  0.25500000920E-02 0. -1.
    10030    2    1    2    0    0  0.00000000000E+00  0.00000000000E+00  0.45325870786E+03  0.10892905517E+04  0.99051019674E+03 0.  0.
        3    1    3    3  502    0 -0.13299126814E+03  0.23559968584E+03  0.68282871206E+03  0.73447188481E+03  0.10100000352E+00 0.  1.
       -3    1    3    3    0  502  0.13299126814E+03 -0.23559968584E+03 -0.22957000420E+03  0.35481866692E+03  0.10100000352E+00 0. -1.
</event>
<event>
 5   0  0.9507815E-03  0.9214463E+03  0.7818609E-02  0.9399163E-01
       -1   -1    0    0    0  501  0.00000000000E+00  0.00000000000E+00  0.10143708089E+03  0.10143708102E+03  0.50400001928E-02 0. -1.
        1   -1    0    0  501    0  0.00000000000E+00  0.00000000000E+00 -0.20925858528E+04  0.20925858528E+04  0.50400001928E-02 0.  1.
    10030    2    1    2    0    0  0.00000000000E+00  0.00000000000E+00 -0.19911487719E+04  0.21940229338E+04  0.92144625578E+03 0.  0.
        1    1    3    3  502    0 -0.33451021770E+02  0.56486540666E+02  0.90243486208E+02  0.11159564043E+03  0.50400001928E-02 0. -1.
       -1    1    3    3    0  502  0.33451021770E+02 -0.56486540666E+02 -0.20813922581E+04  0.20824272934E+04  0.50400001928E-02 0.  1.
</event>
<event>
 5   0  0.1656859E-02  0.9928945E+03  0.7818609E-02  0.9316372E-01
       -2   -1    0    0    0  501  0.00000000000E+00  0.00000000000E+00  0.19586420823E+04  0.19586420823E+04  0.25500000920E-02 0.  1.
        2   -1    0    0  501    0  0.00000000000E+00  0.00000000000E+00 -0.12583201674E+03  0.12583201676E+03  0.25500000920E-02 0. -1.
    10030    2    1    2    0    0  0.00000000000E+00  0.00000000000E+00  0.18328100655E+04  0.20844740990E+04  0.99289452272E+03 0.  0.
        4    1    3    3  502    0 -0.37150406792E+03  0.32421126780E+03  0.10375537668E+04  0.11487591787E+04  0.12699999809E+01 0.  1.
       -4    1    3    3    0  502  0.37150406792E+03 -0.32421126780E+03  0.79525629873E+03  0.93571492038E+03  0.12699999809E+01 0. -1.
</event>
<event>
 5   0  0.9396660E-03  0.1013848E+04  0.7818609E-02  0.9293486E-01
        1   -1    0    0  501    0  0.00000000000E+00  0.00000000000E+00  0.10835834591E+04  0.10835834591E+04  0.50400001928E-02 0.  1.
       -1   -1    0    0    0  501  0.00000000000E+00  0.00000000000E+00 -0.23714999955E+03  0.23714999961E+03  0.50400001928E-02 0. -1.
    10030    2    1    2    0    0  0.00000000000E+00  0.00000000000E+00  0.84643345956E+03  0.13207334587E+04  0.10138477536E+04 0.  0.
        5    1    3    3  502    0  0.20325798169E+03  0.74003239046E+02 -0.17397926802E+03  0.27763494415E+03  0.46999998093E+01 0. -1.
       -5    1    3    3    0  502 -0.20325798169E+03 -0.74003239046E+02  0.10204127276E+04  0.10430985146E+04  0.46999998093E+01 0.  1.
</event>
<event>
 5   0  0.1617721E-02  0.1023445E+04  0.7818609E-02  0.9283198E-01
       -2   -1    0    0    0  501  0.00000000000E+00  0.00000000000E+00  0.24155956585E+03  0.24155956586E+03  0.25500000920E-02 0.  1.
        2   -1    0    0  501    0  0.00000000000E+00  0.00000000000E+00 -0.10840396993E+04  0.10840396993E+04  0.25500000920E-02 0. -1.
    10030    2    1    2    0    0  0.00000000000E+00  0.00000000000E+00 -0.84248013348E+03  0.13255992652E+04  0.10234454732E+04 0.  0.
        5    1    3    3  502    0 -0.62859896471E+02 -0.21901135329E+03  0.17219773731E+03  0.28564224160E+03  0.46999998093E+01 0.  1.
       -5    1    3    3    0  502  0.62859896471E+02  0.21901135329E+03 -0.10146778708E+04  0.10399570236E+04  0.46999998093E+01 0. -1.
</event>
<event>
 5   0  0.1656859E-02  0.9749519E+03  0.7818609E-02  0.9336452E-01
       -2   -1    0    0    0  501  0.00000000000E+00  0.00000000000E+00  0.91374533110E+03  0.91374533111E+03  0.25500000920E-02 0.  1.
        2   -1    0    0  501    0  0.00000000000E+00  0.00000000000E+00 -0.26006458620E+03  0.26006458622E+03  0.25500000920E-02 0. -1.
    10030    2    1    2    0    0  0.00000000000E+00  0.00000000000E+00  0.65368074490E+03  0.11738099173E+04  0.97495189920E+03 0.  0.
        4    1    3    3  502    0 -0.34446902797E+03 -0.61704431104E+02  0.73541796024E+03  0.81443694488E+03  0.12699999809E+01 0. -1.
       -4    1    3    3    0  502  0.34446902797E+03  0.61704431104E+02 -0.81737215338E+02  0.35937297244E+03  0.12699999809E+01 0.  1.
</event>
<event>
 5   0  0.1598986E-02  0.1011760E+04  0.7818609E-02  0.9295740E-01
       -2   -1    0    0    0  501  0.00000000000E+00  0.00000000000E+00  0.87792157541E+03  0.87792157541E+03  0.25500000920E-02 0.  1.
        2   -1    0    0  501    0  0.00000000000E+00  0.00000000000E+00 -0.29150028201E+03  0.29150028202E+03  0.25500000920E-02 0. -1.
    10030    2    1    2    0    0  0.00000000000E+00  0.00000000000E+00  0.58642129340E+03  0.11694218574E+04  0.10117596292E+04 0.  0.
        3    1    3    3  502    0  0.31837272101E+02 -0.49178639045E+03  0.42523307262E+03  0.65091523410E+03  0.10100000352E+00 0. -1.
       -3    1    3    3    0  502 -0.31837272101E+02  0.49178639045E+03  0.16118822078E+03  0.51850662334E+03  0.10100000352E+00 0.  1.
</event>
<event>
 5   0  0.1598986E-02  0.1020166E+04  0.7818609E-02  0.9286699E-01
        2   -1    0    0  501    0  0.00000000000E+00  0.00000000000E+00  0.50437634904E+03  0.50437634905E+03  0.25500000920E-02 0.  1.
       -2   -1    0    0    0  501  0.00000000000E+00  0.00000000000E+00 -0.51585449477E+03  0.51585449477E+03  0.25500000920E-02 0. -1.
    10030    2    1    2    0    0  0.00000000000E+00  0.00000000000E+00 -0.11478145728E+02  0.10202308438E+04  0.10201662741E+04 0.  0.
        3    1    3    3  502    0 -0.50635232269E+03 -0.53958010767E+02  0.23938635598E+02  0.50978153173E+03  0.10100000352E+00 0. -1.
       -3    1    3    3    0  502  0.50635232269E+03  0.53958010767E+02 -0.35416781325E+02  0.51044931209E+03  0.10100000352E+00 0.  1.
</event>
<event>
 5   0  0.1571895E-02  0.1064673E+04  0.7818609E-02  0.9240325E-01
        2   -1    0    0  501    0  0.00000000000E+00  0.00000000000E+00  0.13655033091E+04  0.13655033091E+04  0.25500000920E-02 0. -1.
       -2   -1    0    0    0  501  0.00000000000E+00  0.00000000000E+00 -0.20752932077E+03  0.20752932079E+03  0.25500000920E-02 0.  1.
    10030    2    1    2    0    0  0.00000000000E+00  0.00000000000E+00  0.11579739883E+04  0.15730326299E+04  0.10646726713E+04 0.  0.
        2    1    3    3  502    0 -0.25053323883E+03  0.27752935732E+03  0.19116547841E+02  0.37437266238E+03  0.25500000920E-02 0.  1.
       -2    1    3    3    0  502  0.25053323883E+03 -0.27752935732E+03  0.11388574405E+04  0.11986599675E+04  0.25500000920E-02 0. -1.
</event>
<event>
 5   0  0.1598986E-02  0.1002190E+04  0.7818609E-02  0.9306146E-01
        2   -1    0    0  501    0  0.00000000000E+00  0.00000000000E+00  0.87865218689E+03  0.87865218690E+03  0.25500000920E-02 0.  1.
       -2   -1    0    0    0  501  0.00000000000E+00  0.00000000000E+00 -0.28577430936E+03  0.28577430937E+03  0.25500000920E-02 0. -1.
    10030    2    1    2    0    0  0.00000000000E+00  0.00000000000E+00  0.59287787753E+03  0.11644264963E+04  0.10021900456E+04 0.  0.
        3    1    3    3  502    0 -0.15208049646E+03 -0.47300355046E+03  0.22082393879E+03  0.54371321328E+03  0.10100000352E+00 0. -1.
       -3    1    3    3    0  502  0.15208049646E+03  0.47300355046E+03  0.37205393874E+03  0.62071328299E+03  0.10100000352E+00 0.  1.
</event>
<event>
 5   0  0.6314750E-03  0.9919082E+03  0.7818609E-02  0.9317465E-01
        3   -1    0    0  501    0  0.00000000000E+00  0.00000000000E+00  0.44323056254E+03  0.44323057405E+03  0.10100000352E+00 0. -1.
       -3   -1    0    0    0  501  0.00000000000E+00  0.00000000000E+00 -0.55494920796E+03  0.55494921715E+03  0.10100000352E+00 0.  1.
    10030    2    1    2    0    0  0.00000000000E+00  0.00000000000E+00 -0.11171864542E+03  0.99817979120E+03  0.99190818115E+03 0.  0.
        3    1    3    3  502    0  0.41904303654E+03 -0.26169527235E+03 -0.99596380879E+02  0.50398505070E+03  0.10100000352E+00 0.  1.
       -3    1    3    3    0  502 -0.41904303654E+03  0.26169527235E+03 -0.12122264546E+02  0.49419474050E+03  0.10100000352E+00 0. -1.
</event>
<event>
 5   0  0.9396660E-03  0.9633028E+03  0.7818609E-02  0.9349735E-01
        1   -1    0    0  501    0  0.00000000000E+00  0.00000000000E+00  0.98955064366E+03  0.98955064368E+03  0.50400001928E-02 0.  1.
       -1   -1    0    0    0  501  0.00000000000E+00  0.00000000000E+00 -0.23443778072E+03  0.23443778077E+03  0.50400001928E-02 0. -1.
    10030    2    1    2    0    0  0.00000000000E+00  0.00000000000E+00  0.75511286295E+03  0.12239884244E+04  0.96330277037E+03 0.  0.
        5    1    3    3  502    0 -0.30687347312E+03  0.32099937112E+03  0.61443030537E+03  0.75812836309E+03  0.46999998093E+01 0. -1.
       -5    1    3    3    0  502  0.30687347312E+03 -0.32099937112E+03  0.14068255757E+03  0.46586006136E+03  0.46999998093E+01 0.  1.
</event>
<event>
 5   0  0.1663497E-02  0.9665267E+03  0.7818609E-02  0.9346039E-01
        2   -1    0    0  501    0  0.00000000000E+00  0.00000000000E+00  0.70202927826E+03  0.70202927826E+03  0.25500000920E-02 0. -1.
       -2   -1    0    0    0  501  0.00000000000E+00  0.00000000000E+00 -0.33266914841E+03  0.33266914842E+03  0.25500000920E-02 0.  1.
    10030    2    1    2    0    0  0.00000000000E+00  0.00000000000E+00  0.36936012985E+03  0.10346984267E+04  0.96652673457E+03 0.  0.
        1    1    3    3  502    0  0.30366253474E+03  0.21768300141E+03  0.51280602023E+03  0.63448155097E+03  0.50400001928E-02 0. -1.
       -1    1    3    3    0  502 -0.30366253474E+03 -0.21768300141E+03 -0.14344589038E+03  0.40021687571E+03  0.50400001928E-02 0.  1.
</event>
<event>
 5   0  0.9507815E-03  0.9335301E+03  0.7818609E-02  0.9384611E-01
        1   -1    0    0  501    0  0.00000000000E+00  0.00000000000E+00  0.61001457062E+03  0.61001457064E+03  0.50400001928E-02 0. -1.
       -1   -1    0    0    0  501  0.00000000000E+00  0.00000000000E+00 -0.35715473100E+03  0.35715473104E+03  0.50400001928E-02 0.  1.
    10030    2    1    2    0    0  0.00000000000E+00  0.00000000000E+00  0.25285983962E+03  0.96716930167E+03  0.93353005287E+03 0.  0.
        1    1    3    3  502    0  0.88956954692E+02 -0.30499351216E+03 -0.22785025095E+03  0.39096050840E+03  0.50400001928E-02 0.  1.
       -1    1    3    3    0  502 -0.88956954692E+02  0.30499351216E+03  0.48071009057E+03  0.57620879327E+03  0.50400001928E-02 0. -1.
</event>
<event>
 5   0  0.1656859E-02  0.9706460E+03  0.7818609E-02  0.9341339E-01
        2   -1    0    0  501    0  0.00000000000E+00  0.00000000000E+00  0.92983449855E+03  0.92983449856E+03  0.25500000920E-02 0.  1.
       -2   -1    0    0    0  501  0.00000000000E+00  0.00000000000E+00 -0.25331219480E+03  0.25331219482E+03  0.25500000920E-02 0. -1.
    10030    2    1    2    0    0  0.00000000000E+00  0.00000000000E+00  0.67652230375E+03  0.11831466934E+04  0.97064600683E+03 0.  0.
        4    1    3    3  502    0 -0.24403144892E+03  0.91841278006E+02  0.83720395527E+03  0.87686843028E+03  0.12699999809E+01 0.  1.
       -4    1    3    3    0  502  0.24403144892E+03 -0.91841278006E+02 -0.16068165152E+03  0.30627826309E+03  0.12699999809E+01 0. -1.
</event>
<event>
 5   0  0.1656859E-02  0.9748185E+03  0.7818609E-02  0.9336603E-01
       -2   -1    0    0    0  501  0.00000000000E+00  0.00000000000E+00  0.16396812574E+03  0.16396812576E+03  0.25500000920E-02 0. -1.
        2   -1    0    0  501    0  0.00000000000E+00  0.00000000000E+00 -0.14488655471E+04  0.14488655471E+04  0.25500000920E-02 0.  1.
    10030    2    1    2    0    0  0.00000000000E+00  0.00000000000E+00 -0.12848974214E+04  0.16128336729E+04  0.97481848204E+03 0.  0.
        4    1    3    3  502    0  0.41342191709E+03 -0.57277091266E+02 -0.10589344848E+04  0.11382188730E+04  0.12699999809E+01 0. -1.
       -4    1    3    3    0  502 -0.41342191709E+03  0.57277091266E+02 -0.22596293657E+03  0.47461479994E+03  0.12699999809E+01 0.  1.
</event>
<event>
 5   0  0.6314750E-03  0.9382725E+03  0.7818609E-02  0.9378964E-01
        3   -1    0    0  501    0  0.00000000000E+00  0.00000000000E+00  0.35425872511E+03  0.35425873951E+03  0.10100000352E+00 0.  1.
       -3   -1    0    0    0  501  0.00000000000E+00  0.00000000000E+00 -0.62126576337E+03  0.62126577158E+03  0.10100000352E+00 0. -1.
    10030    2    1    2    0    0  0.00000000000E+00  0.00000000000E+00 -0.26700703826E+03  0.97552451109E+03  0.93827251546E+03 0.  0.
        4    1    3    3  502    0  0.28113122979E+03  0.35410560274E+03 -0.26361877315E+03  0.52337559813E+03  0.12699999809E+01 0. -1.
       -4    1    3    3    0  502 -0.28113122979E+03 -0.35410560274E+03 -0.33882651110E+01  0.45214891297E+03  0.12699999809E+01 0.  1.
</event>
<event>
 5   0  0.1656859E-02  0.1005011E+04  0.7818609E-02  0.9303066E-01
        2   -1    0    0  501    0  0.00000000000E+00  0.00000000000E+00  0.71193109897E+03  0.71193109898E+03  0.25500000920E-02 0. -1.
       -2   -1    0    0    0  501  0.00000000000E+00  0.00000000000E+00 -0.35468571735E+03  0.35468571736E+03  0.25500000920E-02 0.  1.
    10030    2    1    2    0    0  0.00000000000E+00  0.00000000000E+00  0.35724538162E+03  0.10666168163E+04  0.10050110299E+04 0.  0.
        4    1    3    3  502    0 -0.16907744757E+03 -0.34535427694E+03  0.52195471231E+03  0.64830170020E+03  0.12699999809E+01 0. -1.
       -4    1    3    3    0  502  0.16907744757E+03  0.34535427694E+03 -0.16470933069E+03  0.41831511614E+03  0.12699999809E+01 0.  1.
</event>
<event>
 5   0  0.1663497E-02  0.9923486E+03  0.7818609E-02  0.9316977E-01
        2   -1    0    0  501    0  0.00000000000E+00  0.00000000000E+00  0.11053824633E+04  0.11053824633E+04  0.25500000920E-02 0. -1.
       -2   -1    0    0    0  501  0.00000000000E+00  0.00000000000E+00 -0.22271833972E+03  0.22271833973E+03  0.25500000920E-02 0.  1.
    10030    2    1    2    0    0  0.00000000000E+00  0.00000000000E+00  0.88266412354E+03  0.13281008030E+04  0.99234862217E+03 0.  0.
        1    1    3    3  502    0 -0.21669854767E+03  0.66623111715E+02  0.10320122157E+04  0.10566201366E+04  0.50400001928E-02 0. -1.
       -1    1    3    3    0  502  0.21669854767E+03 -0.66623111715E+02 -0.14934809218E+03  0.27148066642E+03  0.50400001928E-02 0.  1.
</event>
<event>
 5   0  0.9471140E-03  0.1184569E+04  0.7818609E-02  0.9126472E-01
       -1   -1    0    0    0  501  0.00000000000E+00  0.00000000000E+00  0.41910490413E+03  0.41910490416E+03  0.50400001928E-02 0. -1.
        1   -1    0    0  501    0  0.00000000000E+00  0.00000000000E+00 -0.83702401733E+03  0.83702401735E+03  0.50400001928E-02 0.  1.
    10030    2    1    2    0    0  0.00000000000E+00  0.00000000000E+00 -0.41791911320E+03  0.12561289215E+04  0.11845689014E+04 0.  0.
        4    1    3    3  502    0  0.58993227927E+03  0.36094783745E+02 -0.24970374096E+03  0.64162021375E+03  0.12699999809E+01 0. -1.
       -4    1    3    3    0  502 -0.58993227927E+03 -0.36094783745E+02 -0.16821537224E+03  0.61450870775E+03  0.12699999809E+01 0.  1.
</event>
<event>
 5   0  0.6314750E-03  0.1004453E+04  0.7818609E-02  0.9303674E-01
        3   -1    0    0  501    0  0.00000000000E+00  0.00000000000E+00  0.52823786938E+03  0.52823787903E+03  0.10100000352E+00 0.  1.
       -3   -1    0    0    0  501  0.00000000000E+00  0.00000000000E+00 -0.47749608522E+03  0.47749609590E+03  0.10100000352E+00 0. -1.
    10030    2    1    2    0    0  0.00000000000E+00  0.00000000000E+00  0.50741784158E+02  0.10057339749E+04  0.10044531346E+04 0.  0.
        1    1    3    3  502    0  0.20043792113E+03  0.40690745516E+03 -0.19050200703E+03  0.49197566200E+03  0.50400001928E-02 0. -1.
       -1    1    3    3    0  502 -0.20043792113E+03 -0.40690745516E+03  0.24124379119E+03  0.51375831293E+03  0.50400001928E-02 0.  1.
</event>
<event>
 5   0  0.9396660E-03  0.1059930E+04  0.7818609E-02  0.9245151E-01
        1   -1    0    0  501    0  0.00000000000E+00  0.00000000000E+00  0.27089514942E+03  0.27089514947E+03  0.50400001928E-02 0.  1.
       -1   -1    0    0    0  501  0.00000000000E+00  0.00000000000E+00 -0.10367960143E+04  0.10367960143E+04  0.50400001928E-02 0. -1.
    10030    2    1    2    0    0  0.00000000000E+00  0.00000000000E+00 -0.76590086491E+03  0.13076911638E+04  0.10599302076E+04 0.  0.
        5    1    3    3  502    0  0.42279763315E+03 -0.29066803650E+03 -0.54660371385E+03  0.74969557557E+03  0.46999998093E+01 0. -1.
       -5    1    3    3    0  502 -0.42279763315E+03  0.29066803650E+03 -0.21929715106E+03  0.55799558824E+03  0.46999998093E+01 0.  1.
</event>
<event>
 5   0  0.1656859E-02  0.6051056E+03  0.7818609E-02  0.9894870E-01
       -2   -1    0    0    0  501  0.00000000000E+00  0.00000000000E+00  0.97855634369E+02  0.97855634402E+02  0.25500000920E-02 0.  1.
        2   -1    0    0  501    0  0.00000000000E+00  0.00000000000E+00 -0.93544124630E+03  0.93544124630E+03  0.25500000920E-02 0. -1.
    10030    2    1    2    0    0  0.00000000000E+00  0.00000000000E+00 -0.83758561193E+03  0.10332968807E+04  0.60510559935E+03 0.  0.
        4    1    3    3  502    0 -0.87822007829E+02  0.13846631534E+03  0.15398806297E+02  0.16469475304E+03  0.12699999809E+01 0.  1.
       -4    1    3    3    0  502  0.87822007829E+02 -0.13846631534E+03 -0.85298441823E+03  0.86860212766E+03  0.12699999809E+01 0. -1.
</event>
<event>
 5   0  0.1663497E-02  0.1005155E+04  0.7818609E-02  0.9302909E-01
       -2   -1    0    0    0  501  0.00000000000E+00  0.00000000000E+00  0.14306276166E+03  0.14306276169E+03  0.25500000920E-02 0.  1.
        2   -1    0    0  501    0  0.00000000000E+00  0.00000000000E+00 -0.17655464988E+04  0.17655464988E+04  0.25500000920E-02 0. -1.
    10030    2    1    2    0    0  0.00000000000E+00  0.00000000000E+00 -0.16224837371E+04  0.19086092605E+04  0.10051546309E+04 0.  0.
        1    1    3    3  502    0  0.27490639025E+03 -0.13603598016E+03 -0.15672128899E+04  0.15969456953E+04  0.50400001928E-02 0. -1.
       -1    1    3    3    0  502 -0.27490639025E+03  0.13603598016E+03 -0.55270847205E+02  0.31166356520E+03  0.50400001928E-02 0.  1.
</event>
<event>
 5   0  0.1571895E-02  0.9418744E+03  0.7818609E-02  0.9374699E-01
       -2   -1    0    0    0  501  0.00000000000E+00  0.00000000000E+00  0.25610993646E+03  0.25610993648E+03  0.25500000920E-02 0. -1.
        2   -1    0    0  501    0  0.00000000000E+00  0.00000000000E+00 -0.86596354492E+03  0.86596354492E+03  0.25500000920E-02 0.  1.
    10030    2    1    2    0    0  0.00000000000E+00  0.00000000000E+00 -0.60985360845E+03  0.11220734814E+04  0.94187444700E+03 0.  0.
        2    1    3    3  502    0 -0.18516479669E+03 -0.24914759082E+03  0.11697755239E+03  0.33172921444E+03  0.25500000920E-02 0. -1.
       -2    1    3    3    0  502  0.18516479669E+03  0.24914759082E+03 -0.72683116084E+03  0.79034426696E+03  0.25500000920E-02 0.  1.
</event>
<event>
 5   0  0.1617721E-02  0.1001599E+04  0.7818609E-02  0.9306793E-01
        2   -1    0    0  501    0  0.00000000000E+00  0.00000000000E+00  0.68709380757E+03  0.68709380758E+03  0.25500000920E-02 0. -1.
       -2   -1    0    0    0  501  0.00000000000E+00  0.00000000000E+00 -0.36501583986E+03  0.36501583987E+03  0.25500000920E-02 0.  1.
    10030    2    1    2    0    0  0.00000000000E+00  0.00000000000E+00  0.32207796771E+03  0.10521096474E+04  0.10015989681E+04 0.  0.
        5    1    3    3  502    0 -0.30277537528E+03 -0.38200615037E+03  0.40461664107E+02  0.48914298835E+03  0.46999998093E+01 0.  1.
       -5    1    3    3    0  502  0.30277537528E+03  0.38200615037E+03  0.28161630361E+03  0.56296665909E+03  0.46999998093E+01 0. -1.
</event>
<event>
 5   0  0.1571895E-02  0.5504706E+03  0.7818609E-02  0.1001385E+00
       -2   -1    0    0    0  501  0.00000000000E+00  0.00000000000E+00  0.28179018459E+03  0.28179018460E+03  0.25500000920E-02 0. -1.
        2   -1    0    0  501    0  0.00000000000E+00  0.00000000000E+00 -0.26883291090E+03  0.26883291091E+03  0.25500000920E-02 0.  1.
    10030    2    1    2    0    0  0.00000000000E+00  0.00000000000E+00  0.12957273697E+02  0.55062309551E+03  0.55047061899E+03 0.  0.
        2    1    3    3  502    0  0.14703994300E+03 -0.22654920018E+03  0.59495116524E+02  0.27655913262E+03  0.25500000920E-02 0. -1.
       -2    1    3    3    0  502 -0.14703994300E+03  0.22654920018E+03 -0.46537842828E+02  0.27406396290E+03  0.25500000920E-02 0.  1.
</event>
<event>
 5   0  0.1000773E-02  0.9443498E+03  0.7818609E-02  0.9371779E-01
        1   -1    0    0  501    0  0.00000000000E+00  0.00000000000E+00  0.55323018532E+03  0.55323018535E+03  0.50400001928E-02 0.  1.
       -1   -1    0    0    0  501  0.00000000000E+00  0.00000000000E+00 -0.40299525167E+03  0.40299525170E+03  0.50400001928E-02 0. -1.
    10030    2    1    2    0    0  0.00000000000E+00  0.00000000000E+00  0.15023493366E+03  0.95622543704E+03  0.94434980339E+03 0.  0.
        3    1    3    3  502    0  0.24185917042E+03  0.10561261007E+03  0.47157566913E+03  0.54040124319E+03  0.10100000352E+00 0.  1.
       -3    1    3    3    0  502 -0.24185917042E+03 -0.10561261007E+03 -0.32134073547E+03  0.41582419386E+03  0.10100000352E+00 0. -1.
</event>
<event>
 5   0  0.1663497E-02  0.9271346E+03  0.7818609E-02  0.9392283E-01
       -2   -1    0    0    0  501  0.00000000000E+00  0.00000000000E+00  0.31666497515E+03  0.31666497516E+03  0.25500000920E-02 0. -1.
        2   -1    0    0  501    0  0.00000000000E+00  0.00000000000E+00 -0.67861825503E+03  0.67861825504E+03  0.25500000920E-02 0.  1.
    10030    2    1    2    0    0  0.00000000000E+00  0.00000000000E+00 -0.36195327988E+03  0.99528323020E+03  0.92713458111E+03 0.  0.
        1    1    3    3  502    0  0.38365448817E+03  0.80540444535E+02  0.84630835808E+02  0.40104851065E+03  0.50400001928E-02 0. -1.
       -1    1    3    3    0  502 -0.38365448817E+03 -0.80540444535E+02 -0.44658411569E+03  0.59423471955E+03  0.50400001928E-02 0.  1.
</event>
<event>
 5   0  0.9759443E-03  0.9887793E+03  0.7818609E-02  0.9320938E-01
        1   -1    0    0  501    0  0.00000000000E+00  0.00000000000E+00  0.36485902637E+03  0.36485902640E+03  0.50400001928E-02 0. -1.
       -1   -1    0    0    0  501  0.00000000000E+00  0.00000000000E+00 -0.66990562020E+03  0.66990562022E+03  0.50400001928E-02 0.  1.
    10030    2    1    2    0    0  0.00000000000E+00  0.00000000000E+00 -0.30504659384E+03  0.10347646466E+04  0.98877927238E+03 0.  0.
        2    1    3    3  502    0  0.14437474835E+03  0.10055159392E+03  0.33098843170E+03  0.37484401146E+03  0.25500000920E-02 0. -1.
       -2    1    3    3    0  502 -0.14437474835E+03 -0.10055159392E+03 -0.63603502554E+03  0.65992063517E+03  0.25500000920E-02 0.  1.
</event>
<event>
 5   0  0.9471140E-03  0.1046388E+04  0.7818609E-02  0.9259081E-01
        1   -1    0    0  501    0  0.00000000000E+00  0.00000000000E+00  0.30584612156E+03  0.30584612160E+03  0.50400001928E-02 0. -1.
       -1   -1    0    0    0  501  0.00000000000E+00  0.00000000000E+00 -0.89499969109E+03  0.89499969110E+03  0.50400001928E-02 0.  1.
    10030    2    1    2    0    0  0.00000000000E+00  0.00000000000E+00 -0.58915356953E+03  0.12008458127E+04  0.10463884257E+04 0.  0.
        4    1    3    3  502    0 -0.19322314741E+03  0.30327495468E+03  0.14154474121E+03  0.38645492557E+03  0.12699999809E+01 0. -1.
       -4    1    3    3    0  502  0.19322314741E+03 -0.30327495468E+03 -0.73069831074E+03  0.81439088714E+03  0.12699999809E+01 0.  1.
</event>
<event>
 5   0  0.1598986E-02  0.9945439E+03  0.7818609E-02  0.9314549E-01
       -2   -1    0    0    0  501  0.00000000000E+00  0.00000000000E+00  0.23878844463E+03  0.23878844464E+03  0.25500000920E-02 0. -1.
        2   -1    0    0  501    0  0.00000000000E+00  0.00000000000E+00 -0.10355585479E+04  0.10355585479E+04  0.25500000920E-02 0.  1.
    10030    2    1    2    0    0  0.00000000000E+00  0.00000000000E+00 -0.79677010325E+03  0.12743469925E+04  0.99454394569E+03 0.  0.
        3    1    3    3  502    0  0.25716225755E+03  0.26388917964E+03 -0.82626271316E+03  0.90469884890E+03  0.10100000352E+00 0.  1.
       -3    1    3    3    0  502 -0.25716225755E+03 -0.26388917964E+03  0.29492609918E+02  0.36964814362E+03  0.10100000352E+00 0. -1.
</event>
<event>
 5   0  0.1617721E-02  0.9704907E+03  0.7818609E-02  0.9341516E-01
       -2   -1    0    0    0  501  0.00000000000E+00  0.00000000000E+00  0.41125401737E+03  0.41125401738E+03  0.25500000920E-02 0. -1.
        2   -1    0    0  501    0  0.00000000000E+00  0.00000000000E+00 -0.57254897031E+03  0.57254897031E+03  0.25500000920E-02 0.  1.
    10030    2    1    2    0    0  0.00000000000E+00  0.00000000000E+00 -0.16129495294E+03  0.98380298769E+03  0.97049072986E+03 0.  0.
        5    1    3    3  502    0 -0.15315195870E+03  0.44476271985E+03 -0.20132483680E+03  0.51168660265E+03  0.46999998093E+01 0.  1.
       -5    1    3    3    0  502  0.15315195870E+03 -0.44476271985E+03  0.40029883865E+02  0.47211638504E+03  0.46999998093E+01 0. -1.
</event>
<event>
 5   0  0.6314750E-03  0.1006662E+04  0.7818609E-02  0.9301268E-01
        3   -1    0    0  501    0  0.00000000000E+00  0.00000000000E+00  0.52049460536E+03  0.52049461516E+03  0.10100000352E+00 0.  1.
       -3   -1    0    0    0  501  0.00000000000E+00  0.00000000000E+00 -0.48673317392E+03  0.48673318440E+03  0.10100000352E+00 0. -1.
    10030    2    1    2    0    0  0.00000000000E+00  0.00000000000E+00  0.33761431438E+02  0.10072277996E+04  0.10066618131E+04 0.  0.
        5    1    3    3  502    0  0.47371638713E+03 -0.13862288426E+03 -0.81644907804E+02  0.50031140347E+03  0.46999998093E+01 0. -1.
       -5    1    3    3    0  502 -0.47371638713E+03  0.13862288426E+03  0.11540633924E+03  0.50691639608E+03  0.46999998093E+01 0.  1.
</event>
<event>
 5   0  0.6314750E-03  0.9846847E+03  0.7818609E-02  0.9325504E-01
       -3   -1    0    0    0  501  0.00000000000E+00  0.00000000000E+00  0.11213017850E+03  0.11213022399E+03  0.10100000352E+00 0.  1.
        3   -1    0    0  501    0  0.00000000000E+00  0.00000000000E+00 -0.21617815533E+04  0.21617815556E+04  0.10100000352E+00 0. -1.
    10030    2    1    2    0    0  0.00000000000E+00  0.00000000000E+00 -0.20496513748E+04  0.22739117796E+04  0.98468473301E+03 0.  0.
        4    1    3    3  502    0 -0.68725858265E+02 -0.23123985107E+03 -0.33705627533E+02  0.24358323946E+03  0.12699999809E+01 0.  1.
       -4    1    3    3    0  502  0.68725858265E+02  0.23123985107E+03 -0.20159457473E+04  0.20303285402E+04  0.12699999809E+01 0. -1.
</event>
<event>
 5   0  0.1617721E-02  0.1001488E+04  0.7818609E-02  0.9306915E-01
       -2   -1    0    0    0  501  0.00000000000E+00  0.00000000000E+00  0.17105455919E+03  0.17105455921E+03  0.25500000920E-02 0. -1.
        2   -1    0    0  501    0  0.00000000000E+00  0.00000000000E+00 -0.14658735037E+04  0.14658735037E+04  0.25500000920E-02 0.  1.
    10030    2    1    2    0    0  0.00000000000E+00  0.00000000000E+00 -0.12948189445E+04  0.16369280629E+04  0.10014875856E+04 0.  0.
        5    1    3    3  502    0  0.26084545793E+03  0.15446320527E+03 -0.12987989677E+04  0.13337166428E+04  0.46999998093E+01 0.  1.
       -5    1    3    3    0  502 -0.26084545793E+03 -0.15446320527E+03  0.39800232214E+01  0.30321142012E+03  0.46999998093E+01 0. -1.
</event>
<event>
 5   0  0.1663497E-02  0.1012935E+04  0.7818609E-02  0.9294471E-01
       -2   -1    0    0    0  501  0.00000000000E+00  0.00000000000E+00  0.31904450314E+03  0.31904450315E+03  0.25500000920E-02 0. -1.
        2   -1    0    0  501    0  0.00000000000E+00  0.00000000000E+00 -0.80399242692E+03  0.80399242693E+03  0.25500000920E-02 0.  1.
    10030    2    1    2    0    0  0.00000000000E+00  0.00000000000E+00 -0.48494792379E+03  0.11230369301E+04  0.10129350707E+04 0.  0.
        1    1    3    3  502    0 -0.46379657156E+03  0.91933505181E-01 -0.46806590999E+03  0.65893320174E+03  0.50400001928E-02 0. -1.
       -1    1    3    3    0  502  0.46379657156E+03 -0.91933505181E-01 -0.16882013799E+02  0.46410372833E+03  0.50400001928E-02 0.  1.
</event>
<event>
 5   0  0.9471140E-03  0.1067809E+04  0.7818609E-02  0.9237148E-01
       -1   -1    0    0    0  501  0.00000000000E+00  0.00000000000E+00  0.16721970095E+03  0.16721970103E+03  0.50400001928E-02 0.  1.
        1   -1    0    0  501    0  0.00000000000E+00  0.00000000000E+00 -0.17046665775E+04  0.17046665775E+04  0.50400001928E-02 0. -1.
    10030    2    1    2    0    0  0.00000000000E+00  0.00000000000E+00 -0.15374468766E+04  0.18718862786E+04  0.10678086634E+04 0.  0.
        4    1    3    3  502    0 -0.40284774542E+03 -0.34412056397E+03 -0.65314454247E+03  0.84101407527E+03  0.12699999809E+01 0. -1.
       -4    1    3    3    0  502  0.40284774542E+03  0.34412056397E+03 -0.88430233409E+03  0.10308722033E+04  0.12699999809E+01 0.  1.
</event>
<event>
 5   0  0.9396660E-03  0.9885743E+03  0.7818609E-02  0.9321166E-01
        1   -1    0    0  501    0  0.00000000000E+00  0.00000000000E+00  0.24090933024E+03  0.24090933029E+03  0.50400001928E-02 0. -1.
       -1   -1    0    0    0  501  0.00000000000E+00  0.00000000000E+00 -0.10141566460E+04  0.10141566460E+04  0.50400001928E-02 0.  1.
    10030    2    1    2    0    0  0.00000000000E+00  0.00000000000E+00 -0.77324731574E+03  0.12550659763E+04  0.98857432372E+03 0.  0.
        5    1    3    3  502    0 -0.35065751791E+03 -0.63480532542E+02 -0.82145378870E+03  0.89543223633E+03  0.46999998093E+01 0.  1.
       -5    1    3    3    0  502  0.35065751791E+03  0.63480532542E+02  0.48206472966E+02  0.35963373995E+03  0.46999998093E+01 0. -1.
</event>
<event>
 5   0  0.1617721E-02  0.1011466E+04  0.7818609E-02  0.9296058E-01
        2   -1    0    0  501    0  0.00000000000E+00  0.00000000000E+00  0.51751639903E+03  0.51751639904E+03  0.25500000920E-02 0. -1.
       -2   -1    0    0    0  501  0.00000000000E+00  0.00000000000E+00 -0.49421795436E+03  0.49421795436E+03  0.25500000920E-02 0.  1.
    10030    2    1    2    0    0  0.00000000000E+00  0.00000000000E+00  0.23298444676E+02  0.10117343534E+04  0.10114660569E+04 0.  0.
        5    1    3    3  502    0  0.19887027282E+03 -0.41682582374E+03  0.21773943759E+03  0.51061306821E+03  0.46999998093E+01 0. -1.
       -5    1    3    3    0  502 -0.19887027282E+03  0.41682582374E+03 -0.19444099291E+03  0.50112128519E+03  0.46999998093E+01 0.  1.
</event>
<event>
 5   0  0.1571895E-02  0.1001962E+04  0.7818609E-02  0.9306396E-01
        2   -1    0    0  501    0  0.00000000000E+00  0.00000000000E+00  0.70474946302E+03  0.70474946302E+03  0.25500000920E-02 0. -1.
       -2   -1    0    0    0  501  0.00000000000E+00  0.00000000000E+00 -0.35612928345E+03  0.35612928345E+03  0.25500000920E-02 0.  1.
    10030    2    1    2    0    0  0.00000000000E+00  0.00000000000E+00  0.34862017957E+03  0.10608787465E+04  0.10019619180E+04 0.  0.
        2    1    3    3  502    0 -0.27162634269E+03  0.22813286568E+03  0.54888712339E+03  0.65353083223E+03  0.25500000920E-02 0. -1.
       -2    1    3    3    0  502  0.27162634269E+03 -0.22813286568E+03 -0.20026694382E+03  0.40734791425E+03  0.25500000920E-02 0.  1.
</event>
<event>
 5   0  0.1598986E-02  0.1004769E+04  0.7818609E-02  0.9303330E-01
       -2   -1    0    0    0  501  0.00000000000E+00  0.00000000000E+00  0.39976422826E+03  0.39976422827E+03  0.25500000920E-02 0.  1.
        2   -1    0    0  501    0  0.00000000000E+00  0.00000000000E+00 -0.63134762424E+03  0.63134762425E+03  0.25500000920E-02 0. -1.
    10030    2    1    2    0    0  0.00000000000E+00  0.00000000000E+00 -0.23158339598E+03  0.10311118525E+04  0.10047690198E+04 0.  0.
        3    1    3    3  502    0 -0.14327157963E+02 -0.13146751504E+03  0.38158126173E+03  0.40384804626E+03  0.10100000352E+00 0.  1.
       -3    1    3    3    0  502  0.14327157963E+02  0.13146751504E+03 -0.61316465771E+03  0.62726380625E+03  0.10100000352E+00 0. -1.
</event>
<event>
 5   0  0.9507815E-03  0.8157291E+03  0.7818609E-02  0.9537525E-01
        1   -1    0    0  501    0  0.00000000000E+00  0.00000000000E+00  0.29198335685E+03  0.29198335689E+03  0.50400001928E-02 0.  1.
       -1   -1    0    0    0  501  0.00000000000E+00  0.00000000000E+00 -0.56973621988E+03  0.56973621991E+03  0.50400001928E-02 0. -1.
    10030    2    1    2    0    0  0.00000000000E+00  0.00000000000E+00 -0.27775286303E+03  0.86171957680E+03  0.81572910707E+03 0.  0.
        1    1    3    3  502    0  0.32991069935E+03  0.23043013653E+03 -0.68689752693E+02  0.40823694042E+03  0.50400001928E-02 0. -1.
       -1    1    3    3    0  502 -0.32991069935E+03 -0.23043013653E+03 -0.20906311034E+03  0.45348263638E+03  0.50400001928E-02 0.  1.
</event>
<event>
 5   0  0.1598986E-02  0.9774249E+03  0.7818609E-02  0.9333657E-01
        2   -1    0    0  501    0  0.00000000000E+00  0.00000000000E+00  0.21669186380E+04  0.21669186380E+04  0.25500000920E-02 0. -1.
       -2   -1    0    0    0  501  0.00000000000E+00  0.00000000000E+00 -0.11022097236E+03  0.11022097239E+03  0.25500000920E-02 0.  1.
    10030    2    1    2    0    0  0.00000000000E+00  0.00000000000E+00  0.20566976657E+04  0.22771396104E+04  0.97742494209E+03 0.  0.
        3    1    3    3  502    0 -0.33198013619E+03  0.32551466532E+03  0.13791208351E+04  0.14553847932E+04  0.10100000352E+00 0. -1.
       -3    1    3    3    0  502  0.33198013619E+03 -0.32551466532E+03  0.67757683052E+03  0.82175481722E+03  0.10100000352E+00 0.  1.
</event>
<event>
 5   0  0.1617721E-02  0.9579123E+03  0.7818609E-02  0.9355950E-01
       -2   -1    0    0    0  501  0.00000000000E+00  0.00000000000E+00  0.50008385077E+03  0.50008385078E+03  0.25500000920E-02 0.  1.
        2   -1    0    0  501    0  0.00000000000E+00  0.00000000000E+00 -0.45872103492E+03  0.45872103493E+03  0.25500000920E-02 0. -1.
    10030    2    1    2    0    0  0.00000000000E+00  0.00000000000E+00  0.41362815854E+02  0.95880488571E+03  0.95791227486E+03 0.  0.
        5    1    3    3  502    0  0.45287954796E+03 -0.68895018940E+02  0.16056313690E+03  0.48543693672E+03  0.46999998093E+01 0.  1.
       -5    1    3    3    0  502 -0.45287954796E+03  0.68895018940E+02 -0.11920032105E+03  0.47336794899E+03  0.46999998093E+01 0. -1.
</event>
<event>
 5   0  0.9507815E-03  0.1109670E+04  0.7818609E-02  0.9195818E-01
        1   -1    0    0  501    0  0.00000000000E+00  0.00000000000E+00  0.66457329486E+03  0.66457329488E+03  0.50400001928E-02 0. -1.
       -1   -1    0    0    0  501  0.00000000000E+00  0.00000000000E+00 -0.46321729909E+03  0.46321729912E+03  0.50400001928E-02 0.  1.
    10030    2    1    2    0    0  0.00000000000E+00  0.00000000000E+00  0.20135599577E+03  0.11277905940E+04  0.11096699450E+04 0.  0.
        1    1    3    3  502    0  0.16364606789E+03  0.94296187721E+02 -0.42954041249E+03  0.46922997831E+03  0.50400001928E-02 0.  1.
       -1    1    3    3    0  502 -0.16364606789E+03 -0.94296187721E+02  0.63089640826E+03  0.65856061569E+03  0.50400001928E-02 0. -1.
</event>
<event>
 5   0  0.9759443E-03  0.1000819E+04  0.7818609E-02  0.9307646E-01
       -1   -1    0    0    0  501  0.00000000000E+00  0.00000000000E+00  0.33281220668E+03  0.33281220671E+03  0.50400001928E-02 0.  1.
        1   -1    0    0  501    0  0.00000000000E+00  0.00000000000E+00 -0.75240597761E+03  0.75240597762E+03  0.50400001928E-02 0. -1.
    10030    2    1    2    0    0  0.00000000000E+00  0.00000000000E+00 -0.41959377093E+03  0.10852181843E+04  0.10008194518E+04 0.  0.
        2    1    3    3  502    0 -0.76953826580E+02 -0.24175633186E+03 -0.67749614521E+03  0.72344249405E+03  0.25500000920E-02 0. -1.
       -2    1    3    3    0  502  0.76953826580E+02  0.24175633186E+03  0.25790237428E+03  0.36177569029E+03  0.25500000920E-02 0.  1.
</event>
<event>
 5   0  0.1656859E-02  0.9719002E+03  0.7818609E-02  0.9339913E-01
        2   -1    0    0  501    0  0.00000000000E+00  0.00000000000E+00  0.61276141949E+03  0.61276141950E+03  0.25500000920E-02 0.  1.
       -2   -1    0    0    0  501  0.00000000000E+00  0.00000000000E+00 -0.38538242701E+03  0.38538242702E+03  0.25500000920E-02 0. -1.
    10030    2    1    2    0    0  0.00000000000E+00  0.00000000000E+00  0.22737899249E+03  0.99814384652E+03  0.97190016571E+03 0.  0.
        4    1    3    3  502    0 -0.28040824457E+03 -0.20665537298E+03  0.46167612187E+03  0.57834391257E+03  0.12699999809E+01 0.  1.
       -4    1    3    3    0  502  0.28040824457E+03  0.20665537298E+03 -0.23429712938E+03  0.41979993394E+03  0.12699999809E+01 0. -1.
</event>
<event>
 5   0  0.1656859E-02  0.9846883E+03  0.7818609E-02  0.9325500E-01
       -2   -1    0    0    0  501  0.00000000000E+00  0.00000000000E+00  0.13189232597E+03  0.13189232599E+03  0.25500000920E-02 0. -1.
        2   -1    0    0  501    0  0.00000000000E+00  0.00000000000E+00 -0.18378838180E+04  0.18378838180E+04  0.25500000920E-02 0.  1.
    10030    2    1    2    0    0  0.00000000000E+00  0.00000000000E+00 -0.17059914921E+04  0.19697761440E+04  0.98468831950E+03 0.  0.
        4    1    3    3  502    0 -0.74078614897E+02 -0.40360192979E+03 -0.30875670424E+03  0.51353137609E+03  0.12699999809E+01 0. -1.
       -4    1    3    3    0  502  0.74078614897E+02  0.40360192979E+03 -0.13972347878E+04  0.14562447679E+04  0.12699999809E+01 0.  1.
</event>
<event>
 5   0  0.1571895E-02  0.7844063E+03  0.7818609E-02  0.9582867E-01
        2   -1    0    0  501    0  0.00000000000E+00  0.00000000000E+00  0.42115517776E+03  0.42115517777E+03  0.25500000920E-02 0. -1.
       -2   -1    0    0    0  501  0.00000000000E+00  0.00000000000E+00 -0.36524144478E+03  0.36524144479E+03  0.25500000920E-02 0.  1.
    10030    2    1    2    0    0  0.00000000000E+00  0.00000000000E+00  0.55913732975E+02  0.78639662256E+03  0.78440633758E+03 0.  0.
        2    1    3    3  502    0  0.26313662015E+03 -0.27431936149E+03  0.12480079127E+03  0.40008402924E+03  0.25500000920E-02 0. -1.
       -2    1    3    3    0  502 -0.26313662015E+03  0.27431936149E+03 -0.68887058292E+02  0.38631259332E+03  0.25500000920E-02 0.  1.
</event>
<event>
 5   0  0.1663497E-02  0.9965113E+03  0.7818609E-02  0.9312379E-01
       -2   -1    0    0    0  501  0.00000000000E+00  0.00000000000E+00  0.64621011028E+03  0.64621011029E+03  0.25500000920E-02 0.  1.
        2   -1    0    0  501    0  0.00000000000E+00  0.00000000000E+00 -0.38417645518E+03  0.38417645519E+03  0.25500000920E-02 0. -1.
    10030    2    1    2    0    0  0.00000000000E+00  0.00000000000E+00  0.26203365510E+03  0.10303865655E+04  0.99651133356E+03 0.  0.
        1    1    3    3  502    0  0.45519780498E+03  0.29116969850E+02  0.33834708000E+03  0.56791864396E+03  0.50400001928E-02 0.  1.
       -1    1    3    3    0  502 -0.45519780498E+03 -0.29116969850E+02 -0.76313424900E+02  0.46246792152E+03  0.50400001928E-02 0. -1.
</event>
<event>
 5   0  0.1656859E-02  0.9890988E+03  0.7818609E-02  0.9320583E-01
       -2   -1    0    0    0  501  0.00000000000E+00  0.00000000000E+00  0.10656765108E+03  0.10656765112E+03  0.25500000920E-02 0. -1.
        2   -1    0    0  501    0  0.00000000000E+00  0.00000000000E+00 -0.22950595112E+04  0.22950595112E+04  0.25500000920E-02 0.  1.
    10030    2    1    2    0    0  0.00000000000E+00  0.00000000000E+00 -0.21884918602E+04  0.24016271624E+04  0.98909878425E+03 0.  0.
        4    1    3    3  502    0  0.29606909191E+02 -0.25150211387E+03 -0.62811840429E+02  0.26091535515E+03  0.12699999809E+01 0. -1.
       -4    1    3    3    0  502 -0.29606909191E+02  0.25150211387E+03 -0.21256800197E+04  0.21407118072E+04  0.12699999809E+01 0.  1.
</event>
<event>
 5   0  0.1598986E-02  0.9985338E+03  0.7818609E-02  0.9310154E-01
       -2   -1    0    0    0  501  0.00000000000E+00  0.00000000000E+00  0.28647079925E+03  0.28647079927E+03  0.25500000920E-02 0.  1.
        2   -1    0    0  501    0  0.00000000000E+00  0.00000000000E+00 -0.87013205930E+03  0.87013205931E+03  0.25500000920E-02 0. -1.
    10030    2    1    2    0    0  0.00000000000E+00  0.00000000000E+00 -0.58366126005E+03  0.11566028586E+04  0.99853377809E+03 0.  0.
        3    1    3    3  502    0 -0.94446298434E+02 -0.31256755995E+03  0.14564676050E+03  0.35753541345E+03  0.10100000352E+00 0.  1.
       -3    1    3    3    0  502  0.94446298434E+02  0.31256755995E+03 -0.72930802055E+03  0.79906744513E+03  0.10100000352E+00 0. -1.
</event>
<event>
 5   0  0.9507815E-03  0.9951853E+03  0.7818609E-02  0.9313841E-01
        1   -1    0    0  501    0  0.00000000000E+00  0.00000000000E+00  0.14392425504E+04  0.14392425504E+04  0.50400001928E-02 0.  1.
       -1   -1    0    0    0  501  0.00000000000E+00  0.00000000000E+00 -0.17203386024E+03  0.17203386031E+03  0.50400001928E-02 0. -1.
    10030    2    1    2    0    0  0.00000000000E+00  0.00000000000E+00  0.12672086902E+04  0.16112764107E+04  0.99518531306E+03 0.  0.
        1    1    3    3  502    0  0.20399657956E+03 -0.45199884798E+03  0.69998408969E+03  0.85784339416E+03  0.50400001928E-02 0.  1.
       -1    1    3    3    0  502 -0.20399657956E+03  0.45199884798E+03  0.56722460050E+03  0.75343301659E+03  0.50400001928E-02 0. -1.
</event>
<event>
 5   0  0.1000773E-02  0.1003307E+04  0.7818609E-02  0.9304926E-01
       -1   -1    0    0    0  501  0.00000000000E+00  0.00000000000E+00  0.37406817155E+03  0.37406817158E+03  0.50400001928E-02 0. -1.
        1   -1    0    0  501    0  0.00000000000E+00  0.00000000000E+00 -0.67275451493E+03  0.67275451494E+03  0.50400001928E-02 0.  1.
    10030    2    1    2    0    0  0.00000000000E+00  0.00000000000E+00 -0.29868634338E+03  0.10468226865E+04  0.10033066357E+04 0.  0.
        3    1    3    3  502    0  0.41062534075E+03  0.17208600987E+03 -0.39051639370E+03  0.59222447535E+03  0.10100000352E+00 0.  1.
       -3    1    3    3    0  502 -0.41062534075E+03 -0.17208600987E+03  0.91830050323E+02  0.45459821117E+03  0.10100000352E+00 0. -1.
</event>
<event>
 5   0  0.9471140E-03  0.1028170E+04  0.7818609E-02  0.9278177E-01
       -1   -1    0    0    0  501  0.00000000000E+00  0.00000000000E+00  0.53892640678E+03  0.53892640680E+03  0.50400001928E-02 0.  1.
        1   -1    0    0  501    0  0.00000000000E+00  0.00000000000E+00 -0.49038893748E+03  0.49038893750E+03  0.50400001928E-02 0. -1.
    10030    2    1    2    0    0  0.00000000000E+00  0.00000000000E+00  0.48537469301E+02  0.10293153443E+04  0.10281703128E+04 0.  0.
        4    1    3    3  502    0  0.36090458798E+03 -0.35363692340E+03 -0.70550734492E+02  0.51018645048E+03  0.12699999809E+01 0. -1.
       -4    1    3    3    0  502 -0.36090458798E+03  0.35363692340E+03  0.11908820379E+03  0.51912889382E+03  0.12699999809E+01 0.  1.
</event>
<event>
 5   0  0.9507815E-03  0.1009510E+04  0.7818609E-02  0.9298175E-01
       -1   -1    0    0    0  501  0.00000000000E+00  0.00000000000E+00  0.44667256449E+03  0.44667256452E+03  0.50400001928E-02 0. -1.
        1   -1    0    0  501    0  0.00000000000E+00  0.00000000000E+00 -0.57039052239E+03  0.57039052241E+03  0.50400001928E-02 0.  1.
    10030    2    1    2    0    0  0.00000000000E+00  0.00000000000E+00 -0.12371795790E+03  0.10170630869E+04  0.10095103713E+04 0.  0.
        1    1    3    3  502    0 -0.26160683510E+03  0.40934351830E+03 -0.19991536991E+03  0.52532504918E+03  0.50400001928E-02 0.  1.
       -1    1    3    3    0  502  0.26160683510E+03 -0.40934351830E+03  0.76197412015E+02  0.49173803775E+03  0.50400001928E-02 0. -1.
</event>
<event>
 5   0  0.1663497E-02  0.9960805E+03  0.7818609E-02  0.9312854E-01
        2   -1    0    0  501    0  0.00000000000E+00  0.00000000000E+00  0.19133991930E+04  0.19133991930E+04  0.25500000920E-02 0. -1.
       -2   -1    0    0    0  501  0.00000000000E+00  0.00000000000E+00 -0.12963529869E+03  0.12963529871E+03  0.25500000920E-02 0.  1.
    10030    2    1    2    0    0  0.00000000000E+00  0.00000000000E+00  0.17837638943E+04  0.20430344917E+04  0.99608047048E+03 0.  0.
        1    1    3    3  502    0  0.78906382891E+02 -0.41075693029E+03  0.14464181066E+04  0.15056801825E+04  0.50400001928E-02 0.  1.
       -1    1    3    3    0  502 -0.78906382891E+02  0.41075693029E+03  0.33734578769E+03  0.53735430913E+03  0.50400001928E-02 0. -1.
</event>
<event>
 5   0  0.1656859E-02  0.1003198E+04  0.7818609E-02  0.9305044E-01
       -2   -1    0    0    0  501  0.00000000000E+00  0.00000000000E+00  0.11564791970E+03  0.11564791973E+03  0.25500000920E-02 0. -1.
        2   -1    0    0  501    0  0.00000000000E+00  0.00000000000E+00 -0.21755831975E+04  0.21755831975E+04  0.25500000920E-02 0.  1.
    10030    2    1    2    0    0  0.00000000000E+00  0.00000000000E+00 -0.20599352778E+04  0.22912311172E+04  0.10031982276E+04 0.  0.
        4    1    3    3  502    0 -0.13191493176E+03  0.34171330657E+03 -0.24730853054E+03  0.44196454076E+03  0.12699999809E+01 0. -1.
       -4    1    3    3    0  502  0.13191493176E+03 -0.34171330657E+03 -0.18126267472E+04  0.18492665764E+04  0.12699999809E+01 0.  1.
</event>
<event>
 5   0  0.1571895E-02  0.9735424E+03  0.7818609E-02  0.9338049E-01
       -2   -1    0    0    0  501  0.00000000000E+00  0.00000000000E+00  0.27130943800E+03  0.27130943802E+03  0.25500000920E-02 0. -1.
        2   -1    0    0  501    0  0.00000000000E+00  0.00000000000E+00 -0.87334303929E+03  0.87334303930E+03  0.25500000920E-02 0.  1.
    10030    2    1    2    0    0  0.00000000000E+00  0.00000000000E+00 -0.60203360129E+03  0.11446524773E+04  0.97354241651E+03 0.  0.
        2    1    3    3  502    0  0.36143816103E+03 -0.30946442228E+03 -0.18030546152E+03  0.50883772695E+03  0.25500000920E-02 0. -1.
       -2    1    3    3    0  502 -0.36143816103E+03  0.30946442228E+03 -0.42172813977E+03  0.63581475037E+03  0.25500000920E-02 0.  1.
</event>
<event>
 5   0  0.9396660E-03  0.7762469E+03  0.7818609E-02  0.9595050E-01
        1   -1    0    0  501    0  0.00000000000E+00  0.00000000000E+00  0.19605154104E+04  0.19605154104E+04  0.50400001928E-02 0.  1.
       -1   -1    0    0    0  501  0.00000000000E+00  0.00000000000E+00 -0.76836835218E+02  0.76836835383E+02  0.50400001928E-02 0. -1.
    10030    2    1    2    0    0  0.00000000000E+00  0.00000000000E+00  0.18836785752E+04  0.20373522458E+04  0.77624686719E+03 0.  0.
        5    1    3    3  502    0 -0.23627484553E+03  0.30034431665E+03  0.11195629827E+04  0.11829944520E+04  0.46999998093E+01 0. -1.
       -5    1    3    3    0  502  0.23627484553E+03 -0.30034431665E+03  0.76411559247E+03  0.85435779380E+03  0.46999998093E+01 0.  1.
</event>
<event>
 5   0  0.1000773E-02  0.1007319E+04  0.7818609E-02  0.9300554E-01
        1   -1    0    0  501    0  0.00000000000E+00  0.00000000000E+00  0.10684332637E+04  0.10684332637E+04  0.50400001928E-02 0. -1.
       -1   -1    0    0    0  501  0.00000000000E+00  0.00000000000E+00 -0.23742497640E+03  0.23742497646E+03  0.50400001928E-02 0.  1.
    10030    2    1    2    0    0  0.00000000000E+00  0.00000000000E+00  0.83100828730E+03  0.13058582402E+04  0.10073187032E+04 0.  0.
        3    1    3    3  502    0 -0.49083850601E+03  0.95482350731E+02  0.33736177391E+03  0.60320170340E+03  0.10100000352E+00 0. -1.
       -3    1    3    3    0  502  0.49083850601E+03 -0.95482350731E+02  0.49364651339E+03  0.70265653677E+03  0.10100000352E+00 0.  1.
</event>
<event>
 5   0  0.1663497E-02  0.5419542E+03  0.7818609E-02  0.1003374E+00
        2   -1    0    0  501    0  0.00000000000E+00  0.00000000000E+00  0.12481892621E+03  0.12481892623E+03  0.25500000920E-02 0. -1.
       -2   -1    0    0    0  501  0.00000000000E+00  0.00000000000E+00 -0.58828089544E+03  0.58828089545E+03  0.25500000920E-02 0.  1.
    10030    2    1    2    0    0  0.00000000000E+00  0.00000000000E+00 -0.46346196923E+03  0.71309982168E+03  0.54195420356E+03 0.  0.
        1    1    3    3  502    0 -0.48514858581E+02 -0.81664237488E+02  0.10219514086E+03  0.13952270793E+03  0.50400001928E-02 0. -1.
       -1    1    3    3    0  502  0.48514858581E+02  0.81664237488E+02 -0.56565711010E+03  0.57357711375E+03  0.50400001928E-02 0.  1.
</event>
<event>
 5   0  0.9471140E-03  0.9960109E+03  0.7818609E-02  0.9312931E-01
        1   -1    0    0  501    0  0.00000000000E+00  0.00000000000E+00  0.19477608667E+04  0.19477608667E+04  0.50400001928E-02 0.  1.
       -1   -1    0    0    0  501  0.00000000000E+00  0.00000000000E+00 -0.12733054151E+03  0.12733054161E+03  0.50400001928E-02 0. -1.
    10030    2    1    2    0    0  0.00000000000E+00  0.00000000000E+00  0.18204303252E+04  0.20750914083E+04  0.99601093567E+03 0.  0.
        4    1    3    3  502    0 -0.37854129261E+02  0.16553565945E+03 -0.65148330804E+02  0.18188157565E+03  0.12699999809E+01 0. -1.
       -4    1    3    3    0  502  0.37854129261E+02 -0.16553565945E+03  0.18855786560E+04  0.18932098327E+04  0.12699999809E+01 0.  1.
</event>
<event>
 5   0  0.1000773E-02  0.1017297E+04  0.7818609E-02  0.9289775E-01
       -1   -1    0    0    0  501  0.00000000000E+00  0.00000000000E+00  0.31474522378E+03  0.31474522382E+03  0.50400001928E-02 0.  1.
        1   -1    0    0  501    0  0.00000000000E+00  0.00000000000E+00 -0.82200826233E+03  0.82200826235E+03  0.50400001928E-02 0. -1.
    10030    2    1    2    0    0  0.00000000000E+00  0.00000000000E+00 -0.50726303855E+03  0.11367534862E+04  0.10172967601E+04 0.  0.
        3    1    3    3  502    0  0.15634030801E+03  0.40240132140E+03  0.46941540971E+02  0.43424950644E+03  0.10100000352E+00 0.  1.
       -3    1    3    3    0  502 -0.15634030801E+03 -0.40240132140E+03 -0.55420457952E+03  0.70250397973E+03  0.10100000352E+00 0. -1.
</event>
<event>
 5   0  0.9507815E-03  0.9898551E+03  0.7818609E-02  0.9319742E-01
        1   -1    0    0  501    0  0.00000000000E+00  0.00000000000E+00  0.24314477391E+03  0.24314477396E+03  0.50400001928E-02 0.  1.
       -1   -1    0    0    0  501  0.00000000000E+00  0.00000000000E+00 -0.10074379719E+04  0.10074379720E+04  0.50400001928E-02 0. -1.
    10030    2    1    2    0    0  0.00000000000E+00  0.00000000000E+00 -0.76429319803E+03  0.12505827459E+04  0.98985509637E+03 0.  0.
        1    1    3    3  502    0  0.73922476456E+02  0.13603662508E+02  0.23589186270E+03  0.24757738805E+03  0.50400001928E-02 0.  1.
       -1    1    3    3    0  502 -0.73922476456E+02 -0.13603662508E+02 -0.10001850607E+04  0.10030053579E+04  0.50400001928E-02 0. -1.
</event>
<event>
 5   0  0.6314750E-03  0.1001071E+04  0.7818609E-02  0.9307371E-01
       -3   -1    0    0    0  501  0.00000000000E+00  0.00000000000E+00  0.13636841826E+03  0.13636845566E+03  0.10100000352E+00 0. -1.
        3   -1    0    0  501    0  0.00000000000E+00  0.00000000000E+00 -0.18371965821E+04  0.18371965849E+04  0.10100000352E+00 0.  1.
    10030    2    1    2    0    0  0.00000000000E+00  0.00000000000E+00 -0.17008281638E+04  0.19735650405E+04  0.10010706900E+04 0.  0.
        5    1    3    3  502    0  0.32176657869E+03  0.29013515270E+02 -0.16040616748E+04  0.16362797627E+04  0.46999998093E+01 0.  1.
       -5    1    3    3    0  502 -0.32176657869E+03 -0.29013515270E+02 -0.96766489006E+02  0.33728527781E+03  0.46999998093E+01 0. -1.
</event>
<event>
 5   0  0.9396660E-03  0.9788902E+03  0.7818609E-02  0.9332005E-01
        1   -1    0    0  501    0  0.00000000000E+00  0.00000000000E+00  0.32444096560E+03  0.32444096564E+03  0.50400001928E-02 0. -1.
       -1   -1    0    0    0  501  0.00000000000E+00  0.00000000000E+00 -0.73836708551E+03  0.73836708553E+03  0.50400001928E-02 0.  1.
    10030    2    1    2    0    0  0.00000000000E+00  0.00000000000E+00 -0.41392611992E+03  0.10628080512E+04  0.97889024966E+03 0.  0.
        5    1    3    3  502    0  0.45938675135E+03 -0.13727184612E+03 -0.31364479517E+03  0.57295278566E+03  0.46999998093E+01 0. -1.
       -5    1    3    3    0  502 -0.45938675135E+03  0.13727184612E+03 -0.10028132475E+03  0.48985526551E+03  0.46999998093E+01 0.  1.
</event>
<event>
 5   0  0.1000773E-02  0.1010120E+04  0.7818609E-02  0.9297515E-01
       -1   -1    0    0    0  501  0.00000000000E+00  0.00000000000E+00  0.33455436555E+03  0.33455436559E+03  0.50400001928E-02 0. -1.
        1   -1    0    0  501    0  0.00000000000E+00  0.00000000000E+00 -0.76246319828E+03  0.76246319829E+03  0.50400001928E-02 0.  1.
    10030    2    1    2    0    0  0.00000000000E+00  0.00000000000E+00 -0.42790883273E+03  0.10970175639E+04  0.10101195802E+04 0.  0.
        3    1    3    3  502    0  0.20255674553E+03 -0.21722443369E+03  0.22968438481E+03  0.37546053931E+03  0.10100000352E+00 0. -1.
       -3    1    3    3    0  502 -0.20255674553E+03  0.21722443369E+03 -0.65759321754E+03  0.72155702457E+03  0.10100000352E+00 0.  1.
</event>
<event>
 5   0  0.1656859E-02  0.9905827E+03  0.7818609E-02  0.9318934E-01
       -2   -1    0    0    0  501  0.00000000000E+00  0.00000000000E+00  0.24398047666E+03  0.24398047667E+03  0.25500000920E-02 0.  1.
        2   -1    0    0  501    0  0.00000000000E+00  0.00000000000E+00 -0.10054636395E+04  0.10054636395E+04  0.25500000920E-02 0. -1.
    10030    2    1    2    0    0  0.00000000000E+00  0.00000000000E+00 -0.76148316288E+03  0.12494441162E+04  0.99058265288E+03 0.  0.
        4    1    3    3  502    0  0.10270929118E+01  0.31921916651E+03 -0.85839816289E+03  0.91583347293E+03  0.12699999809E+01 0. -1.
       -4    1    3    3    0  502 -0.10270929118E+01 -0.31921916651E+03  0.96915000013E+02  0.33361064328E+03  0.12699999809E+01 0.  1.
</event>
<event>
 5   0  0.1663497E-02  0.9761493E+03  0.7818609E-02  0.9335098E-01
       -2   -1    0    0    0  501  0.00000000000E+00  0.00000000000E+00  0.17831447124E+03  0.17831447125E+03  0.25500000920E-02 0.  1.
        2   -1    0    0  501    0  0.00000000000E+00  0.00000000000E+00 -0.13359369275E+04  0.13359369275E+04  0.25500000920E-02 0. -1.
    10030    2    1    2    0    0  0.00000000000E+00  0.00000000000E+00 -0.11576224563E+04  0.15142513988E+04  0.97614934688E+03 0.  0.
        1    1    3    3  502    0 -0.29568347138E+03  0.76024977234E+02 -0.11695265797E+04  0.12087187154E+04  0.50400001928E-02 0. -1.
       -1    1    3    3    0  502  0.29568347138E+03 -0.76024977234E+02  0.11904123402E+02  0.30553268335E+03  0.50400001928E-02 0.  1.
</event>
<event>
 5   0  0.9471140E-03  0.9946469E+03  0.7818609E-02  0.9314436E-01
       -1   -1    0    0    0  501  0.00000000000E+00  0.00000000000E+00  0.14780157056E+03  0.14780157065E+03  0.50400001928E-02 0.  1.
        1   -1    0    0  501    0  0.00000000000E+00  0.00000000000E+00 -0.16733963847E+04  0.16733963848E+04  0.50400001928E-02 0. -1.
    10030    2    1    2    0    0  0.00000000000E+00  0.00000000000E+00 -0.15255948142E+04  0.18211979554E+04  0.99464690001E+03 0.  0.
        4    1    3    3  502    0  0.38567978075E+03 -0.31384276718E+03 -0.74613377920E+03  0.89664006444E+03  0.12699999809E+01 0.  1.
       -4    1    3    3    0  502 -0.38567978075E+03  0.31384276718E+03 -0.77946103498E+03  0.92455789096E+03  0.12699999809E+01 0. -1.
</event>
<event>
 5   0  0.1617721E-02  0.1035945E+04  0.7818609E-02  0.9269977E-01
        2   -1    0    0  501    0  0.00000000000E+00  0.00000000000E+00  0.18614686440E+04  0.18614686440E+04  0.25500000920E-02 0.  1.
       -2   -1    0    0    0  501  0.00000000000E+00  0.00000000000E+00 -0.14413098646E+03  0.14413098648E+03  0.25500000920E-02 0. -1.
    10030    2    1    2    0    0  0.00000000000E+00  0.00000000000E+00  0.17173376575E+04  0.20055996304E+04  0.10359446162E+04 0.  0.
        5    1    3    3  502    0 -0.34702856071E+03 -0.58887925832E+01  0.16029879971E+04  0.16401390516E+04  0.46999998093E+01 0.  1.
       -5    1    3    3    0  502  0.34702856071E+03  0.58887925832E+01  0.11434966038E+03  0.36546057879E+03  0.46999998093E+01 0. -1.
</event>
<event>
 5   0  0.9471140E-03  0.1012694E+04  0.7818609E-02  0.9294730E-01
        1   -1    0    0  501    0  0.00000000000E+00  0.00000000000E+00  0.66373175774E+03  0.66373175776E+03  0.50400001928E-02 0. -1.
       -1   -1    0    0    0  501  0.00000000000E+00  0.00000000000E+00 -0.38628174500E+03  0.38628174503E+03  0.50400001928E-02 0.  1.
    10030    2    1    2    0    0  0.00000000000E+00  0.00000000000E+00  0.27745001274E+03  0.10500135028E+04  0.10126943500E+04 0.  0.
        4    1    3    3  502    0 -0.39273949756E+03 -0.27199012415E+03  0.31272740951E+03  0.57098422582E+03  0.12699999809E+01 0. -1.
       -4    1    3    3    0  502  0.39273949756E+03  0.27199012415E+03 -0.35277396763E+02  0.47902927698E+03  0.12699999809E+01 0.  1.
</event>
<event>
 5   0  0.9507815E-03  0.1006263E+04  0.7818609E-02  0.9301702E-01
        1   -1    0    0  501    0  0.00000000000E+00  0.00000000000E+00  0.13877225772E+04  0.13877225772E+04  0.50400001928E-02 0. -1.
       -1   -1    0    0    0  501  0.00000000000E+00  0.00000000000E+00 -0.18241500201E+03  0.18241500208E+03  0.50400001928E-02 0.  1.
    10030    2    1    2    0    0  0.00000000000E+00  0.00000000000E+00  0.12053075752E+04  0.15701375793E+04  0.10062632196E+04 0.  0.
        1    1    3    3  502    0  0.13112785991E+03  0.48022814335E+03  0.71654791920E+03  0.87249900048E+03  0.50400001928E-02 0. -1.
       -1    1    3    3    0  502 -0.13112785991E+03 -0.48022814335E+03  0.48875965601E+03  0.69763857883E+03  0.50400001928E-02 0.  1.
</event>
<event>
 5   0  0.9507815E-03  0.7987722E+03  0.7818609E-02  0.9561796E-01
        1   -1    0    0  501    0  0.00000000000E+00  0.00000000000E+00  0.26403691680E+03  0.26403691685E+03  0.50400001928E-02 0. -1.
       -1   -1    0    0    0  501  0.00000000000E+00  0.00000000000E+00 -0.60411728166E+03  0.60411728168E+03  0.50400001928E-02 0.  1.
    10030    2    1    2    0    0  0.00000000000E+00  0.00000000000E+00 -0.34008036487E+03  0.86815419853E+03  0.79877221901E+03 0.  0.
        1    1    3    3  502    0 -0.96608952148E+02 -0.10952405677E+03 -0.57405493951E+03  0.59234101854E+03  0.50400001928E-02 0.  1.
       -1    1    3    3    0  502  0.96608952148E+02  0.10952405677E+03  0.23397457465E+03  0.27581317999E+03  0.50400001928E-02 0. -1.
</event>
<event>
 5   0  0.1000773E-02  0.1002680E+04  0.7818609E-02  0.9305610E-01
       -1   -1    0    0    0  501  0.00000000000E+00  0.00000000000E+00  0.80629542158E+03  0.80629542160E+03  0.50400001928E-02 0. -1.
        1   -1    0    0  501    0  0.00000000000E+00  0.00000000000E+00 -0.31172444487E+03  0.31172444491E+03  0.50400001928E-02 0.  1.
    10030    2    1    2    0    0  0.00000000000E+00  0.00000000000E+00  0.49457097671E+03  0.11180198665E+04  0.10026803932E+04 0.  0.
        3    1    3    3  502    0  0.55322820067E+02  0.50775633789E+02  0.79998923326E+03  0.80350579521E+03  0.10100000352E+00 0. -1.
       -3    1    3    3    0  502 -0.55322820067E+02 -0.50775633789E+02 -0.30541825655E+03  0.31451407129E+03  0.10100000352E+00 0.  1.
</event>
<event>
 5   0  0.1617721E-02  0.8862634E+03  0.7818609E-02  0.9442918E-01
       -2   -1    0    0    0  501  0.00000000000E+00  0.00000000000E+00  0.15621775556E+03  0.15621775558E+03  0.25500000920E-02 0.  1.
        2   -1    0    0  501    0  0.00000000000E+00  0.00000000000E+00 -0.12569998512E+04  0.12569998512E+04  0.25500000920E-02 0. -1.
    10030    2    1    2    0    0  0.00000000000E+00  0.00000000000E+00 -0.11007820956E+04  0.14132176067E+04  0.88626338186E+03 0.  0.
        5    1    3    3  502    0  0.18565631281E+03  0.31975933825E+03 -0.16100883737E+03  0.40331158748E+03  0.46999998093E+01 0.  1.
       -5    1    3    3    0  502 -0.18565631281E+03 -0.31975933825E+03 -0.93977325821E+03  0.10099060193E+04  0.46999998093E+01 0. -1.
</event>
<event>
 5   0  0.1663497E-02  0.9950696E+03  0.7818609E-02  0.9313969E-01
       -2   -1    0    0    0  501  0.00000000000E+00  0.00000000000E+00  0.44107219754E+03  0.44107219755E+03  0.25500000920E-02 0. -1.
        2   -1    0    0  501    0  0.00000000000E+00  0.00000000000E+00 -0.56122527362E+03  0.56122527362E+03  0.25500000920E-02 0.  1.
    10030    2    1    2    0    0  0.00000000000E+00  0.00000000000E+00 -0.12015307608E+03  0.10022974712E+04  0.99506957497E+03 0.  0.
        1    1    3    3  502    0 -0.25593293316E+03 -0.62424369291E+02  0.36505843444E+03  0.45018454964E+03  0.50400001928E-02 0. -1.
       -1    1    3    3    0  502  0.25593293316E+03  0.62424369291E+02 -0.48521151052E+03  0.55211292153E+03  0.50400001928E-02 0.  1.
</event>
<event>
 5   0  0.9471140E-03  0.1017671E+04  0.7818609E-02  0.9289374E-01
       -1   -1    0    0    0  501  0.00000000000E+00  0.00000000000E+00  0.21215325831E+03  0.21215325837E+03  0.50400001928E-02 0.  1.
        1   -1    0    0  501    0  0.00000000000E+00  0.00000000000E+00 -0.12204070482E+04  0.12204070482E+04  0.50400001928E-02 0. -1.
    10030    2    1    2    0    0  0.00000000000E+00  0.00000000000E+00 -0.10082537899E+04  0.14325603066E+04  0.10176705396E+04 0.  0.
        4    1    3    3  502    0  0.39907129818E+03 -0.52997903676E+02 -0.94219779267E+03  0.10245999084E+04  0.12699999809E+01 0. -1.
       -4    1    3    3    0  502 -0.39907129818E+03  0.52997903676E+02 -0.66055997195E+02  0.40796039819E+03  0.12699999809E+01 0.  1.
</event>
<event>
 5   0  0.1000773E-02  0.9022518E+03  0.7818609E-02  0.9422771E-01
        1   -1    0    0  501    0  0.00000000000E+00  0.00000000000E+00  0.15855612050E+03  0.15855612058E+03  0.50400001928E-02 0. -1.
       -1   -1    0    0    0  501  0.00000000000E+00  0.00000000000E+00 -0.12835492237E+04  0.12835492237E+04  0.50400001928E-02 0.  1.
    10030    2    1    2    0    0  0.00000000000E+00  0.00000000000E+00 -0.11249931032E+04  0.14421053443E+04  0.90225181727E+03 0.  0.
        3    1    3    3  502    0  0.39395589433E+03 -0.17791425611E+03 -0.35619394630E+03  0.56011504782E+03  0.10100000352E+00 0. -1.
       -3    1    3    3    0  502 -0.39395589433E+03  0.17791425611E+03 -0.76879915691E+03  0.88199029648E+03  0.10100000352E+00 0.  1.
</event>
<event>
 5   0  0.1617721E-02  0.1000343E+04  0.7818609E-02  0.9308169E-01
       -2   -1    0    0    0  501  0.00000000000E+00  0.00000000000E+00  0.41261041557E+03  0.41261041558E+03  0.25500000920E-02 0. -1.
        2   -1    0    0  501    0  0.00000000000E+00  0.00000000000E+00 -0.60631404022E+03  0.60631404023E+03  0.25500000920E-02 0.  1.
    10030    2    1    2    0    0  0.00000000000E+00  0.00000000000E+00 -0.19370362465E+03  0.10189244558E+04  0.10003429174E+04 0.  0.
        5    1    3    3  502    0  0.26770067609E+03  0.36264886846E+03 -0.31760678954E+03  0.55142906755E+03  0.46999998093E+01 0. -1.
       -5    1    3    3    0  502 -0.26770067609E+03 -0.36264886846E+03  0.12390316490E+03  0.46749538826E+03  0.46999998093E+01 0.  1.
</event>
<event>
 5   0  0.1000773E-02  0.1010813E+04  0.7818609E-02  0.9296764E-01
       -1   -1    0    0    0  501  0.00000000000E+00  0.00000000000E+00  0.27067573093E+03  0.27067573098E+03  0.50400001928E-02 0. -1.
        1   -1    0    0  501    0  0.00000000000E+00  0.00000000000E+00 -0.94369681552E+03  0.94369681553E+03  0.50400001928E-02 0.  1.
    10030    2    1    2    0    0  0.00000000000E+00  0.00000000000E+00 -0.67302108458E+03  0.12143725465E+04  0.10108131882E+04 0.  0.
        3    1    3    3  502    0  0.36285563695E+03  0.15308209090E+03  0.44040245684E+02  0.39628006922E+03  0.10100000352E+00 0. -1.
       -3    1    3    3    0  502 -0.36285563695E+03 -0.15308209090E+03 -0.71706133027E+03  0.81809247728E+03  0.10100000352E+00 0.  1.
</event>
<event>
 5   0  0.9507815E-03  0.9934548E+03  0.7818609E-02  0.9315753E-01
       -1   -1    0    0    0  501  0.00000000000E+00  0.00000000000E+00  0.25731999251E+03  0.25731999256E+03  0.50400001928E-02 0. -1.
        1   -1    0    0  501    0  0.00000000000E+00  0.00000000000E+00 -0.95887650659E+03  0.95887650660E+03  0.50400001928E-02 0.  1.
    10030    2    1    2    0    0  0.00000000000E+00  0.00000000000E+00 -0.70155651408E+03  0.12161964992E+04  0.99345477105E+03 0.  0.
        1    1    3    3  502    0 -0.64716719040E+02  0.25248680079E+03  0.16687591523E+03  0.30949217988E+03  0.50400001928E-02 0. -1.
       -1    1    3    3    0  502  0.64716719040E+02 -0.25248680079E+03 -0.86843242931E+03  0.90670431928E+03  0.50400001928E-02 0.  1.
</event>
<event>
 5   0  0.1656859E-02  0.1006149E+04  0.7818609E-02  0.9301826E-01
       -2   -1    0    0    0  501  0.00000000000E+00  0.00000000000E+00  0.31347012815E+03  0.31347012816E+03  0.25500000920E-02 0.  1.
        2   -1    0    0  501    0  0.00000000000E+00  0.00000000000E+00 -0.80736236318E+03  0.80736236319E+03  0.25500000920E-02 0. -1.
    10030    2    1    2    0    0  0.00000000000E+00  0.00000000000E+00 -0.49389223503E+03  0.11208324913E+04  0.10061490614E+04 0.  0.
        4    1    3    3  502    0 -0.14998392552E+03  0.30818988361E+03 -0.65716735461E+03  0.74117928137E+03  0.12699999809E+01 0. -1.
       -4    1    3    3    0  502  0.14998392552E+03 -0.30818988361E+03  0.16327511957E+03  0.37965320998E+03  0.12699999809E+01 0.  1.
</event>
<event>
 5   0  0.1571895E-02  0.7686414E+03  0.7818609E-02  0.9606551E-01
       -2   -1    0    0    0  501  0.00000000000E+00  0.00000000000E+00  0.11368015084E+03  0.11368015087E+03  0.25500000920E-02 0. -1.
        2   -1    0    0  501    0  0.00000000000E+00  0.00000000000E+00 -0.12992803281E+04  0.12992803281E+04  0.25500000920E-02 0.  1.
    10030    2    1    2    0    0  0.00000000000E+00  0.00000000000E+00 -0.11856001773E+04  0.14129604790E+04  0.76864135644E+03 0.  0.
        2    1    3    3  502    0  0.17776344696E+03 -0.23991875493E+03 -0.10375729779E+04  0.10796844615E+04  0.25500000920E-02 0.  1.
       -2    1    3    3    0  502 -0.17776344696E+03  0.23991875493E+03 -0.14802719939E+03  0.33327601745E+03  0.25500000920E-02 0. -1.
</event>
<event>
 5   0  0.9759443E-03  0.9946874E+03  0.7818609E-02  0.9314391E-01
        1   -1    0    0  501    0  0.00000000000E+00  0.00000000000E+00  0.82154317685E+03  0.82154317687E+03  0.50400001928E-02 0.  1.
       -1   -1    0    0    0  501  0.00000000000E+00  0.00000000000E+00 -0.30108062437E+03  0.30108062441E+03  0.50400001928E-02 0. -1.
    10030    2    1    2    0    0  0.00000000000E+00  0.00000000000E+00  0.52046255249E+03  0.11226238013E+04  0.99468735322E+03 0.  0.
        2    1    3    3  502    0  0.47194535997E+03  0.15407359517E+03  0.29370464524E+03  0.57683057666E+03  0.25500000920E-02 0. -1.
       -2    1    3    3    0  502 -0.47194535997E+03 -0.15407359517E+03  0.22675790725E+03  0.54579322462E+03  0.25500000920E-02 0.  1.
</event>
<event>
 5   0  0.1571895E-02  0.1002632E+04  0.7818609E-02  0.9305662E-01
        2   -1    0    0  501    0  0.00000000000E+00  0.00000000000E+00  0.11305784732E+04  0.11305784732E+04  0.25500000920E-02 0.  1.
       -2   -1    0    0    0  501  0.00000000000E+00  0.00000000000E+00 -0.22229139012E+03  0.22229139014E+03  0.25500000920E-02 0. -1.
    10030    2    1    2    0    0  0.00000000000E+00  0.00000000000E+00  0.90828708307E+03  0.13528698633E+04  0.10026322565E+04 0.  0.
        2    1    3    3  502    0  0.41856804311E+03 -0.74563329931E+01  0.82007925217E+02  0.42659126037E+03  0.25500000920E-02 0. -1.
       -2    1    3    3    0  502 -0.41856804311E+03  0.74563329931E+01  0.82627915785E+03  0.92627860297E+03  0.25500000920E-02 0.  1.
</event>
<event>
 5   0  0.9759443E-03  0.1002536E+04  0.7818609E-02  0.9305768E-01
        1   -1    0    0  501    0  0.00000000000E+00  0.00000000000E+00  0.16421718828E+04  0.16421718828E+04  0.50400001928E-02 0.  1.
       -1   -1    0    0    0  501  0.00000000000E+00  0.00000000000E+00 -0.15301038860E+03  0.15301038868E+03  0.50400001928E-02 0. -1.
    10030    2    1    2    0    0  0.00000000000E+00  0.00000000000E+00  0.14891614942E+04  0.17951822714E+04  0.10025355016E+04 0.  0.
        2    1    3    3  502    0 -0.26686272906E+03  0.34620149597E+03  0.30524107642E+03  0.53314473336E+03  0.25500000920E-02 0.  1.
       -2    1    3    3    0  502  0.26686272906E+03 -0.34620149597E+03  0.11839204177E+04  0.12620375381E+04  0.25500000920E-02 0. -1.
</event>
<event>
 5   0  0.6314750E-03  0.1013974E+04  0.7818609E-02  0.9293350E-01
       -3   -1    0    0    0  501  0.00000000000E+00  0.00000000000E+00  0.40746879985E+03  0.40746881236E+03  0.10100000352E+00 0. -1.
        3   -1    0    0  501    0  0.00000000000E+00  0.00000000000E+00 -0.63081048258E+03  0.63081049066E+03  0.10100000352E+00 0.  1.
    10030    2    1    2    0    0  0.00000000000E+00  0.00000000000E+00 -0.22334168273E+03  0.10382793030E+04  0.10139735716E+04 0.  0.
        4    1    3    3  502    0  0.22176672556E+03 -0.91973548023E+02  0.34556894318E+03  0.42078393683E+03  0.12699999809E+01 0. -1.
       -4    1    3    3    0  502 -0.22176672556E+03  0.91973548023E+02 -0.56891062591E+03  0.61749536620E+03  0.12699999809E+01 0.  1.
</event>
<event>
 5   0  0.9507815E-03  0.9953548E+03  0.7818609E-02  0.9313654E-01
       -1   -1    0    0    0  501  0.00000000000E+00  0.00000000000E+00  0.29567935504E+03  0.29567935508E+03  0.50400001928E-02 0.  1.
        1   -1    0    0  501    0  0.00000000000E+00  0.00000000000E+00 -0.83767362139E+03  0.83767362141E+03  0.50400001928E-02 0. -1.
    10030    2    1    2    0    0  0.00000000000E+00  0.00000000000E+00 -0.54199426635E+03  0.11333529765E+04  0.99535480335E+03 0.  0.
        1    1    3    3  502    0  0.74569653487E+02  0.22302602442E+02  0.28870632199E+03  0.29901401252E+03  0.50400001928E-02 0.  1.
       -1    1    3    3    0  502 -0.74569653487E+02 -0.22302602442E+02 -0.83070058835E+03  0.83433896397E+03  0.50400001928E-02 0. -1.
</event>
<event>
 5   0  0.1571895E-02  0.9980548E+03  0.7818609E-02  0.9310681E-01
        2   -1    0    0  501    0  0.00000000000E+00  0.00000000000E+00  0.18500018381E+04  0.18500018382E+04  0.25500000920E-02 0.  1.
       -2   -1    0    0    0  501  0.00000000000E+00  0.00000000000E+00 -0.13460978936E+03  0.13460978939E+03  0.25500000920E-02 0. -1.
    10030    2    1    2    0    0  0.00000000000E+00  0.00000000000E+00  0.17153920488E+04  0.19846116275E+04  0.99805482371E+03 0.  0.
        2    1    3    3  502    0  0.14359557510E+03 -0.17616250465E+03 -0.25724916485E+02  0.22872404458E+03  0.25500000920E-02 0. -1.
       -2    1    3    3    0  502 -0.14359557510E+03  0.17616250465E+03  0.17411169653E+04  0.17558875830E+04  0.25500000920E-02 0.  1.
</event>
<event>
 5   0  0.1656859E-02  0.9941115E+03  0.7818609E-02  0.9315027E-01
       -2   -1    0    0    0  501  0.00000000000E+00  0.00000000000E+00  0.59450847650E+03  0.59450847651E+03  0.25500000920E-02 0.  1.
        2   -1    0    0  501    0  0.00000000000E+00  0.00000000000E+00 -0.41557758440E+03  0.41557758441E+03  0.25500000920E-02 0. -1.
    10030    2    1    2    0    0  0.00000000000E+00  0.00000000000E+00  0.17893089211E+03  0.10100860609E+04  0.99411145567E+03 0.  0.
        4    1    3    3  502    0 -0.14255675938E+03  0.47615571463E+03  0.85389823174E+02  0.50432105748E+03  0.12699999809E+01 0.  1.
       -4    1    3    3    0  502  0.14255675938E+03 -0.47615571463E+03  0.93541068931E+02  0.50576500343E+03  0.12699999809E+01 0. -1.
</event>
<event>
 5   0  0.1663497E-02  0.9933404E+03  0.7818609E-02  0.9315879E-01
       -2   -1    0    0    0  501  0.00000000000E+00  0.00000000000E+00  0.22971555489E+03  0.22971555490E+03  0.25500000920E-02 0.  1.
        2   -1    0    0  501    0  0.00000000000E+00  0.00000000000E+00 -0.10738554645E+04  0.10738554645E+04  0.25500000920E-02 0. -1.
    10030    2    1    2    0    0  0.00000000000E+00  0.00000000000E+00 -0.84413990957E+03  0.13035710194E+04  0.99334043288E+03 0.  0.
        1    1    3    3  502    0  0.18348459501E+03 -0.31560752342E+03  0.19862346288E+02  0.36560801177E+03  0.50400001928E-02 0.  1.
       -1    1    3    3    0  502 -0.18348459501E+03  0.31560752342E+03 -0.86400225586E+03  0.93796300759E+03  0.50400001928E-02 0. -1.
</event>
<event>
 5   0  0.1663497E-02  0.1009791E+04  0.7818609E-02  0.9297870E-01
        2   -1    0    0  501    0  0.00000000000E+00  0.00000000000E+00  0.34599273370E+03  0.34599273371E+03  0.25500000920E-02 0. -1.
       -2   -1    0    0    0  501  0.00000000000E+00  0.00000000000E+00 -0.73677758669E+03  0.73677758670E+03  0.25500000920E-02 0.  1.
    10030    2    1    2    0    0  0.00000000000E+00  0.00000000000E+00 -0.39078485299E+03  0.10827703204E+04  0.10097914465E+04 0.  0.
        1    1    3    3  502    0 -0.38348627610E+03  0.30144659456E+03 -0.55635052016E+02  0.49094504007E+03  0.50400001928E-02 0.  1.
       -1    1    3    3    0  502  0.38348627610E+03 -0.30144659456E+03 -0.33514980098E+03  0.59182528034E+03  0.50400001928E-02 0. -1.
</event>
<event>
 5   0  0.9759443E-03  0.9453192E+03  0.7818609E-02  0.9370638E-01
       -1   -1    0    0    0  501  0.00000000000E+00  0.00000000000E+00  0.10511974770E+03  0.10511974782E+03  0.50400001928E-02 0.  1.
        1   -1    0    0  501    0  0.00000000000E+00  0.00000000000E+00 -0.21252629071E+04  0.21252629071E+04  0.50400001928E-02 0. -1.
    10030    2    1    2    0    0  0.00000000000E+00  0.00000000000E+00 -0.20201431594E+04  0.22303826549E+04  0.94531920691E+03 0.  0.
        2    1    3    3  502    0  0.38812018282E+03  0.21859694720E+03 -0.13830144460E+04  0.14529799928E+04  0.25500000920E-02 0. -1.
       -2    1    3    3    0  502 -0.38812018282E+03 -0.21859694720E+03 -0.63712871341E+03  0.77740266214E+03  0.25500000920E-02 0.  1.
</event>
<event>
 5   0  0.6314750E-03  0.9398219E+03  0.7818609E-02  0.9377127E-01
       -4   -1    0    0    0  501  0.00000000000E+00  0.00000000000E+00  0.53354445023E+03  0.53354596172E+03  0.12699999809E+01 0.  1.
        4   -1    0    0  501    0  0.00000000000E+00  0.00000000000E+00 -0.41386370530E+03  0.41386565388E+03  0.12699999809E+01 0. -1.
    10030    2    1    2    0    0  0.00000000000E+00  0.00000000000E+00  0.11968074493E+03  0.94741161560E+03  0.93982194520E+03 0.  0.
        4    1    3    3  502    0  0.25352203214E+03  0.25480753394E+03  0.36496342167E+03  0.51225014610E+03  0.12699999809E+01 0.  1.
       -4    1    3    3    0  502 -0.25352203214E+03 -0.25480753394E+03 -0.24528267673E+03  0.43516146950E+03  0.12699999809E+01 0. -1.
</event>
<event>
 5   0  0.1663497E-02  0.1002774E+04  0.7818609E-02  0.9305508E-01
        2   -1    0    0  501    0  0.00000000000E+00  0.00000000000E+00  0.83634774798E+03  0.83634774799E+03  0.25500000920E-02 0.  1.
       -2   -1    0    0    0  501  0.00000000000E+00  0.00000000000E+00 -0.30057934306E+03  0.30057934308E+03  0.25500000920E-02 0. -1.
    10030    2    1    2    0    0  0.00000000000E+00  0.00000000000E+00  0.53576840492E+03  0.11369270911E+04  0.10027738662E+04 0.  0.
        1    1    3    3  502    0  0.25222100864E+03 -0.15355642377E+03 -0.19153383629E+03  0.35196622416E+03  0.50400001928E-02 0. -1.
       -1    1    3    3    0  502 -0.25222100864E+03  0.15355642377E+03  0.72730224120E+03  0.78496086690E+03  0.50400001928E-02 0.  1.
</event>
<event>
 5   0  0.1617721E-02  0.1011883E+04  0.7818609E-02  0.9295607E-01
        2   -1    0    0  501    0  0.00000000000E+00  0.00000000000E+00  0.12441431458E+04  0.12441431458E+04  0.25500000920E-02 0.  1.
       -2   -1    0    0    0  501  0.00000000000E+00  0.00000000000E+00 -0.20574540367E+03  0.20574540368E+03  0.25500000920E-02 0. -1.
    10030    2    1    2    0    0  0.00000000000E+00  0.00000000000E+00  0.10383977421E+04  0.14498885495E+04  0.10118828663E+04 0.  0.
        5    1    3    3  502    0 -0.38023302489E+03 -0.28815866670E+03  0.27797505327E+03  0.55218184564E+03  0.46999998093E+01 0.  1.
       -5    1    3    3    0  502  0.38023302489E+03  0.28815866670E+03  0.76042268887E+03  0.89770670386E+03  0.46999998093E+01 0. -1.
</event>
<event>
 5   0  0.1656859E-02  0.9754430E+03  0.7818609E-02  0.9335896E-01
       -2   -1    0    0    0  501  0.00000000000E+00  0.00000000000E+00  0.49043246770E+03  0.49043246770E+03  0.25500000920E-02 0.  1.
        2   -1    0    0  501    0  0.00000000000E+00  0.00000000000E+00 -0.48502548097E+03  0.48502548098E+03  0.25500000920E-02 0. -1.
    10030    2    1    2    0    0  0.00000000000E+00  0.00000000000E+00  0.54069867257E+01  0.97545794868E+03  0.97544296304E+03 0.  0.
        4    1    3    3  502    0 -0.17380287323E+03 -0.25023007347E+03 -0.37815416900E+03  0.48561787121E+03  0.12699999809E+01 0. -1.
       -4    1    3    3    0  502  0.17380287323E+03  0.25023007347E+03  0.38356115572E+03  0.48984007747E+03  0.12699999809E+01 0.  1.
</event>
<event>
 5   0  0.9507815E-03  0.9569340E+03  0.7818609E-02  0.9357082E-01
        1   -1    0    0  501    0  0.00000000000E+00  0.00000000000E+00  0.30892662543E+03  0.30892662547E+03  0.50400001928E-02 0.  1.
       -1   -1    0    0    0  501  0.00000000000E+00  0.00000000000E+00 -0.74105196633E+03  0.74105196635E+03  0.50400001928E-02 0. -1.
    10030    2    1    2    0    0  0.00000000000E+00  0.00000000000E+00 -0.43212534090E+03  0.10499785918E+04  0.95693402752E+03 0.  0.
        1    1    3    3  502    0 -0.30159455449E+03  0.29733364485E+03 -0.46033940700E+03  0.62552293429E+03  0.50400001928E-02 0. -1.
       -1    1    3    3    0  502  0.30159455449E+03 -0.29733364485E+03  0.28214066100E+02  0.42445565753E+03  0.50400001928E-02 0.  1.
</event>
<event>
 5   0  0.1598986E-02  0.9868510E+03  0.7818609E-02  0.9323085E-01
        2   -1    0    0  501    0  0.00000000000E+00  0.00000000000E+00  0.10222742753E+04  0.10222742753E+04  0.25500000920E-02 0. -1.
       -2   -1    0    0    0  501  0.00000000000E+00  0.00000000000E+00 -0.23816381582E+03  0.23816381584E+03  0.25500000920E-02 0.  1.
    10030    2    1    2    0    0  0.00000000000E+00  0.00000000000E+00  0.78411045946E+03  0.12604380911E+04  0.98685103685E+03 0.  0.
        3    1    3    3  502    0 -0.92682506432E+01  0.18708176027E+03  0.97509921234E+03  0.99292697093E+03  0.10100000352E+00 0. -1.
       -3    1    3    3    0  502  0.92682506432E+01 -0.18708176027E+03 -0.19098875288E+03  0.26751112019E+03  0.10100000352E+00 0.  1.
</event>
<event>
 5   0  0.1663497E-02  0.1022901E+04  0.7818609E-02  0.9283778E-01
        2   -1    0    0  501    0  0.00000000000E+00  0.00000000000E+00  0.66700685868E+03  0.66700685869E+03  0.25500000920E-02 0. -1.
       -2   -1    0    0    0  501  0.00000000000E+00  0.00000000000E+00 -0.39217233126E+03  0.39217233126E+03  0.25500000920E-02 0.  1.
    10030    2    1    2    0    0  0.00000000000E+00  0.00000000000E+00  0.27483452743E+03  0.10591791899E+04  0.10229010406E+04 0.  0.
        1    1    3    3  502    0  0.10730765114E+03 -0.40216926400E+03 -0.17032102951E+03  0.44973803710E+03  0.50400001928E-02 0.  1.
       -1    1    3    3    0  502 -0.10730765114E+03  0.40216926400E+03  0.44515555693E+03  0.60944115285E+03  0.50400001928E-02 0. -1.
</event>
<event>
 5   0  0.9471140E-03  0.7460020E+03  0.7818609E-02  0.9641644E-01
       -1   -1    0    0    0  501  0.00000000000E+00  0.00000000000E+00  0.31218724756E+03  0.31218724761E+03  0.50400001928E-02 0.  1.
        1   -1    0    0  501    0  0.00000000000E+00  0.00000000000E+00 -0.44566118400E+03  0.44566118403E+03  0.50400001928E-02 0. -1.
    10030    2    1    2    0    0  0.00000000000E+00  0.00000000000E+00 -0.13347393644E+03  0.75784843164E+03  0.74600197964E+03 0.  0.
        4    1    3    3  502    0  0.28903740850E+03 -0.22025407304E+02 -0.30519924530E+03  0.42092271774E+03  0.12699999809E+01 0. -1.
       -4    1    3    3    0  502 -0.28903740850E+03  0.22025407304E+02  0.17172530886E+03  0.33692571390E+03  0.12699999809E+01 0.  1.
</event>
<event>
 5   0  0.1598986E-02  0.9851946E+03  0.7818609E-02  0.9324934E-01
        2   -1    0    0  501    0  0.00000000000E+00  0.00000000000E+00  0.32603834720E+03  0.32603834721E+03  0.25500000920E-02 0.  1.
       -2   -1    0    0    0  501  0.00000000000E+00  0.00000000000E+00 -0.74424408271E+03  0.74424408271E+03  0.25500000920E-02 0. -1.
    10030    2    1    2    0    0  0.00000000000E+00  0.00000000000E+00 -0.41820573551E+03  0.10702824299E+04  0.98519462168E+03 0.  0.
        3    1    3    3  502    0 -0.40512439487E+03 -0.26452546721E+03 -0.30957034638E+03  0.57439821351E+03  0.10100000352E+00 0.  1.
       -3    1    3    3    0  502  0.40512439487E+03  0.26452546721E+03 -0.10863538912E+03  0.49588421641E+03  0.10100000352E+00 0. -1.
</event>
<event>
 5   0  0.1663497E-02  0.9880994E+03  0.7818609E-02  0.9321694E-01
        2   -1    0    0  501    0  0.00000000000E+00  0.00000000000E+00  0.12778609201E+04  0.12778609201E+04  0.25500000920E-02 0. -1.
       -2   -1    0    0    0  501  0.00000000000E+00  0.00000000000E+00 -0.19101071496E+03  0.19101071497E+03  0.25500000920E-02 0.  1.
    10030    2    1    2    0    0  0.00000000000E+00  0.00000000000E+00  0.10868502052E+04  0.14688716351E+04  0.98809944436E+03 0.  0.
        1    1    3    3  502    0  0.14267045086E+03  0.29421864293E+03  0.10939866666E+04  0.11418083438E+04  0.50400001928E-02 0. -1.
       -1    1    3    3    0  502 -0.14267045086E+03 -0.29421864293E+03 -0.71364613952E+01  0.32706329128E+03  0.50400001928E-02 0.  1.
</event>
<event>
 5   0  0.9759443E-03  0.1024110E+04  0.7818609E-02  0.9282489E-01
       -1   -1    0    0    0  501  0.00000000000E+00  0.00000000000E+00  0.91080567258E+03  0.91080567259E+03  0.50400001928E-02 0. -1.
        1   -1    0    0  501    0  0.00000000000E+00  0.00000000000E+00 -0.28787754211E+03  0.28787754215E+03  0.50400001928E-02 0.  1.
    10030    2    1    2    0    0  0.00000000000E+00  0.00000000000E+00  0.62292813047E+03  0.11986832147E+04  0.10241103425E+04 0.  0.
        2    1    3    3  502    0 -0.99548211722E+02  0.44664456349E+03  0.58041415647E+03  0.73910879145E+03  0.25500000920E-02 0. -1.
       -2    1    3    3    0  502  0.99548211722E+02 -0.44664456349E+03  0.42513973995E+02  0.45957442330E+03  0.25500000920E-02 0.  1.
</event>
<event>
 5   0  0.1617721E-02  0.7344825E+03  0.7818609E-02  0.9660014E-01
       -2   -1    0    0    0  501  0.00000000000E+00  0.00000000000E+00  0.14015053984E+03  0.14015053986E+03  0.25500000920E-02 0.  1.
        2   -1    0    0  501    0  0.00000000000E+00  0.00000000000E+00 -0.96229491999E+03  0.96229491999E+03  0.25500000920E-02 0. -1.
    10030    2    1    2    0    0  0.00000000000E+00  0.00000000000E+00 -0.82214438015E+03  0.11024454599E+04  0.73448254584E+03 0.  0.
        5    1    3    3  502    0  0.31768155034E+03 -0.56164982647E+01 -0.68739548909E+03  0.75728974699E+03  0.46999998093E+01 0. -1.
       -5    1    3    3    0  502 -0.31768155034E+03  0.56164982647E+01 -0.13474889107E+03  0.34515571286E+03  0.46999998093E+01 0.  1.
</event>
<event>
 5   0  0.9507815E-03  0.1014659E+04  0.7818609E-02  0.9292612E-01
        1   -1    0    0  501    0  0.00000000000E+00  0.00000000000E+00  0.10732288109E+04  0.10732288109E+04  0.50400001928E-02 0.  1.
       -1   -1    0    0    0  501  0.00000000000E+00  0.00000000000E+00 -0.23982120031E+03  0.23982120036E+03  0.50400001928E-02 0. -1.
    10030    2    1    2    0    0  0.00000000000E+00  0.00000000000E+00  0.83340761062E+03  0.13130500113E+04  0.10146586060E+04 0.  0.
        1    1    3    3  502    0  0.18142028648E+03 -0.35223896635E+03  0.82674036710E+03  0.91677982328E+03  0.50400001928E-02 0.  1.
       -1    1    3    3    0  502 -0.18142028648E+03  0.35223896635E+03  0.66672435297E+01  0.39627018803E+03  0.50400001928E-02 0. -1.
</event>
<event>
 5   0  0.1663497E-02  0.9788427E+03  0.7818609E-02  0.9332059E-01
       -2   -1    0    0    0  501  0.00000000000E+00  0.00000000000E+00  0.82034318234E+03  0.82034318234E+03  0.25500000920E-02 0. -1.
        2   -1    0    0  501    0  0.00000000000E+00  0.00000000000E+00 -0.29199155110E+03  0.29199155111E+03  0.25500000920E-02 0.  1.
    10030    2    1    2    0    0  0.00000000000E+00  0.00000000000E+00  0.52835163124E+03  0.11123347335E+04  0.97884274172E+03 0.  0.
        1    1    3    3  502    0 -0.31453168228E+03 -0.36846090901E+03  0.18512071560E+03  0.51861671781E+03  0.50400001928E-02 0. -1.
       -1    1    3    3    0  502  0.31453168228E+03  0.36846090901E+03  0.34323091563E+03  0.59371801564E+03  0.50400001928E-02 0.  1.
</event>
<event>
 5   0  0.1571895E-02  0.9977108E+03  0.7818609E-02  0.9311059E-01
        2   -1    0    0  501    0  0.00000000000E+00  0.00000000000E+00  0.15495439584E+03  0.15495439586E+03  0.25500000920E-02 0. -1.
       -2   -1    0    0    0  501  0.00000000000E+00  0.00000000000E+00 -0.16059995850E+04  0.16059995850E+04  0.25500000920E-02 0.  1.
    10030    2    1    2    0    0  0.00000000000E+00  0.00000000000E+00 -0.14510451892E+04  0.17609539809E+04  0.99771077057E+03 0.  0.
        2    1    3    3  502    0  0.49382866485E+03  0.70550825044E+02 -0.73176934870E+03  0.88562438361E+03  0.25500000920E-02 0.  1.
       -2    1    3    3    0  502 -0.49382866485E+03 -0.70550825044E+02 -0.71927584046E+03  0.87532959725E+03  0.25500000920E-02 0. -1.
</event>
<event>
 5   0  0.9396660E-03  0.9982406E+03  0.7818609E-02  0.9310477E-01
        1   -1    0    0  501    0  0.00000000000E+00  0.00000000000E+00  0.50615768218E+03  0.50615768221E+03  0.50400001928E-02 0. -1.
       -1   -1    0    0    0  501  0.00000000000E+00  0.00000000000E+00 -0.49218073930E+03  0.49218073932E+03  0.50400001928E-02 0.  1.
    10030    2    1    2    0    0  0.00000000000E+00  0.00000000000E+00  0.13976942885E+02  0.99833842153E+03  0.99824057670E+03 0.  0.
        5    1    3    3  502    0 -0.20773610155E+03 -0.21936096456E+03  0.40429992654E+03  0.50473165272E+03  0.46999998093E+01 0. -1.
       -5    1    3    3    0  502  0.20773610155E+03  0.21936096456E+03 -0.39032298365E+03  0.49360676882E+03  0.46999998093E+01 0.  1.
</event>
<event>
 5   0  0.1000773E-02  0.1041066E+04  0.7818609E-02  0.9264617E-01
        1   -1    0    0  501    0  0.00000000000E+00  0.00000000000E+00  0.81073134200E+03  0.81073134202E+03  0.50400001928E-02 0. -1.
       -1   -1    0    0    0  501  0.00000000000E+00  0.00000000000E+00 -0.33421021255E+03  0.33421021259E+03  0.50400001928E-02 0.  1.
    10030    2    1    2    0    0  0.00000000000E+00  0.00000000000E+00  0.47652112945E+03  0.11449415546E+04  0.10410661730E+04 0.  0.
        3    1    3    3  502    0  0.20097253620E+03 -0.98360391494E+02 -0.27862329137E+03  0.35734531705E+03  0.10100000352E+00 0.  1.
       -3    1    3    3    0  502 -0.20097253620E+03  0.98360391494E+02  0.75514442082E+03  0.78759623756E+03  0.10100000352E+00 0. -1.
</event>
<event>
 5   0  0.1598986E-02  0.9990175E+03  0.7818609E-02  0.9309623E-01
       -2   -1    0    0    0  501  0.00000000000E+00  0.00000000000E+00  0.61709127879E+03  0.61709127880E+03  0.25500000920E-02 0.  1.
        2   -1    0    0  501    0  0.00000000000E+00  0.00000000000E+00 -0.40433078971E+03  0.40433078972E+03  0.25500000920E-02 0. -1.
    10030    2    1    2    0    0  0.00000000000E+00  0.00000000000E+00  0.21276048908E+03  0.10214220685E+04  0.99901752554E+03 0.  0.
        3    1    3    3  502    0  0.28420266354E+03 -0.30019071626E+03  0.39306722321E+03  0.57042744697E+03  0.10100000352E+00 0.  1.
       -3    1    3    3    0  502 -0.28420266354E+03  0.30019071626E+03 -0.18030673413E+03  0.45099462155E+03  0.10100000352E+00 0. -1.
</event>
<event>
 5   0  0.1617721E-02  0.1018419E+04  0.7818609E-02  0.9288571E-01
        2   -1    0    0  501    0  0.00000000000E+00  0.00000000000E+00  0.18315552748E+04  0.18315552748E+04  0.25500000920E-02 0.  1.
       -2   -1    0    0    0  501  0.00000000000E+00  0.00000000000E+00 -0.14157059003E+03  0.14157059006E+03  0.25500000920E-02 0. -1.
    10030    2    1    2    0    0  0.00000000000E+00  0.00000000000E+00  0.16899846847E+04  0.19731258648E+04  0.10184190905E+04 0.  0.
        5    1    3    3  502    0 -0.38850184554E+03 -0.31498145397E+03  0.10300687811E+04  0.11450811256E+04  0.46999998093E+01 0. -1.
       -5    1    3    3    0  502  0.38850184554E+03  0.31498145397E+03  0.65991590362E+03  0.82804473924E+03  0.46999998093E+01 0.  1.
</event>
<event>
 5   0  0.9396660E-03  0.1001716E+04  0.7818609E-02  0.9306665E-01
        1   -1    0    0  501    0  0.00000000000E+00  0.00000000000E+00  0.33394193347E+03  0.33394193351E+03  0.50400001928E-02 0. -1.
       -1   -1    0    0    0  501  0.00000000000E+00  0.00000000000E+00 -0.75120431761E+03  0.75120431763E+03  0.50400001928E-02 0.  1.
    10030    2    1    2    0    0  0.00000000000E+00  0.00000000000E+00 -0.41726238414E+03  0.10851462511E+04  0.10017157726E+04 0.  0.
        5    1    3    3  502    0  0.34715924508E+03 -0.31611627169E+03 -0.19792404832E+02  0.46996049617E+03  0.46999998093E+01 0. -1.
       -5    1    3    3    0  502 -0.34715924508E+03  0.31611627169E+03 -0.39746997931E+03  0.61518575497E+03  0.46999998093E+01 0.  1.
</event>
<event>
 5   0  0.1663497E-02  0.9903927E+03  0.7818609E-02  0.9319145E-01
       -2   -1    0    0    0  501  0.00000000000E+00  0.00000000000E+00  0.24661991124E+03  0.24661991126E+03  0.25500000920E-02 0.  1.
        2   -1    0    0  501    0  0.00000000000E+00  0.00000000000E+00 -0.99432128874E+03  0.99432128874E+03  0.25500000920E-02 0. -1.
    10030    2    1    2    0    0  0.00000000000E+00  0.00000000000E+00 -0.74770137749E+03  0.12409412000E+04  0.99039270592E+03 0.  0.
        1    1    3    3  502    0  0.36557544282E+03  0.88923859868E+02 -0.77727599432E+03  0.86354549887E+03  0.50400001928E-02 0. -1.
       -1    1    3    3    0  502 -0.36557544282E+03 -0.88923859868E+02  0.29574616825E+02  0.37739570113E+03  0.50400001928E-02 0.  1.
</event>
<event>
 5   0  0.9507815E-03  0.9998782E+03  0.7818609E-02  0.9308678E-01
       -1   -1    0    0    0  501  0.00000000000E+00  0.00000000000E+00  0.19651693477E+03  0.19651693484E+03  0.50400001928E-02 0.  1.
        1   -1    0    0  501    0  0.00000000000E+00  0.00000000000E+00 -0.12718451529E+04  0.12718451529E+04  0.50400001928E-02 0. -1.
    10030    2    1    2    0    0  0.00000000000E+00  0.00000000000E+00 -0.10753282181E+04  0.14683620878E+04  0.99987821460E+03 0.  0.
        1    1    3    3  502    0  0.13971664101E+03 -0.39365077168E+03 -0.13426299470E+03  0.43875758864E+03  0.50400001928E-02 0.  1.
       -1    1    3    3    0  502 -0.13971664101E+03  0.39365077168E+03 -0.94106522343E+03  0.10296044991E+04  0.50400001928E-02 0. -1.
</event>
<event>
 5   0  0.1598986E-02  0.9999371E+03  0.7818609E-02  0.9308614E-01
       -2   -1    0    0    0  501  0.00000000000E+00  0.00000000000E+00  0.18125818717E+03  0.18125818718E+03  0.25500000920E-02 0.  1.
        2   -1    0    0  501    0  0.00000000000E+00  0.00000000000E+00 -0.13790746650E+04  0.13790746650E+04  0.25500000920E-02 0. -1.
    10030    2    1    2    0    0  0.00000000000E+00  0.00000000000E+00 -0.11978164778E+04  0.15603328522E+04  0.99993714555E+03 0.  0.
        3    1    3    3  502    0 -0.22929440626E+02 -0.15910354358E+03  0.13983487941E+03  0.21305750521E+03  0.10100000352E+00 0.  1.
       -3    1    3    3    0  502  0.22929440626E+02  0.15910354358E+03 -0.13376513572E+04  0.13472753470E+04  0.10100000352E+00 0. -1.
</event>
<event>
 5   0  0.1656859E-02  0.1007034E+04  0.7818609E-02  0.9300864E-01
       -2   -1    0    0    0  501  0.00000000000E+00  0.00000000000E+00  0.18044051562E+03  0.18044051564E+03  0.25500000920E-02 0.  1.
        2   -1    0    0  501    0  0.00000000000E+00  0.00000000000E+00 -0.14050565318E+04  0.14050565318E+04  0.25500000920E-02 0. -1.
    10030    2    1    2    0    0  0.00000000000E+00  0.00000000000E+00 -0.12246160162E+04  0.15854970475E+04  0.10070335150E+04 0.  0.
        4    1    3    3  502    0 -0.27909139812E+03  0.28422693252E+03 -0.10971960236E+04  0.11672693283E+04  0.12699999809E+01 0. -1.
       -4    1    3    3    0  502  0.27909139812E+03 -0.28422693252E+03 -0.12741999261E+03  0.41822771918E+03  0.12699999809E+01 0.  1.
</event>
<event>
 5   0  0.1571895E-02  0.1008919E+04  0.7818609E-02  0.9298817E-01
       -2   -1    0    0    0  501  0.00000000000E+00  0.00000000000E+00  0.25442487884E+03  0.25442487886E+03  0.25500000920E-02 0.  1.
        2   -1    0    0  501    0  0.00000000000E+00  0.00000000000E+00 -0.10002137371E+04  0.10002137371E+04  0.25500000920E-02 0. -1.
    10030    2    1    2    0    0  0.00000000000E+00  0.00000000000E+00 -0.74578885823E+03  0.12546386159E+04  0.10089187458E+04 0.  0.
        2    1    3    3  502    0 -0.18329496300E+02 -0.28206101325E+03  0.14670153010E+03  0.31845835610E+03  0.25500000920E-02 0.  1.
       -2    1    3    3    0  502  0.18329496300E+02  0.28206101325E+03 -0.89249038833E+03  0.93618025983E+03  0.25500000920E-02 0. -1.
</event>
<event>
 5   0  0.1571895E-02  0.9741555E+03  0.7818609E-02  0.9337354E-01
        2   -1    0    0  501    0  0.00000000000E+00  0.00000000000E+00  0.16442811728E+04  0.16442811728E+04  0.25500000920E-02 0.  1.
       -2   -1    0    0    0  501  0.00000000000E+00  0.00000000000E+00 -0.14428477548E+03  0.14428477551E+03  0.25500000920E-02 0. -1.
    10030    2    1    2    0    0  0.00000000000E+00  0.00000000000E+00  0.14999963973E+04  0.17885659483E+04  0.97415551093E+03 0.  0.
        2    1    3    3  502    0  0.53935742910E+02  0.15019784083E+03  0.15949176888E+04  0.16028820574E+04  0.25500000920E-02 0.  1.
       -2    1    3    3    0  502 -0.53935742910E+02 -0.15019784083E+03 -0.94921291524E+02  0.18568389091E+03  0.25500000920E-02 0. -1.
</event>
<event>
 5   0  0.1663497E-02  0.1001229E+04  0.7818609E-02  0.9307198E-01
       -2   -1    0    0    0  501  0.00000000000E+00  0.00000000000E+00  0.44642586569E+03  0.44642586570E+03  0.25500000920E-02 0. -1.
        2   -1    0    0  501    0  0.00000000000E+00  0.00000000000E+00 -0.56138071248E+03  0.56138071248E+03  0.25500000920E-02 0.  1.
    10030    2    1    2    0    0  0.00000000000E+00  0.00000000000E+00 -0.11495484679E+03  0.10078065782E+04  0.10012289859E+04 0.  0.
        1    1    3    3  502    0 -0.40716418774E+03 -0.96370512800E+02  0.21918259703E+03  0.47234623147E+03  0.50400001928E-02 0.  1.
       -1    1    3    3    0  502  0.40716418774E+03  0.96370512800E+02 -0.33413744381E+03  0.53546034671E+03  0.50400001928E-02 0. -1.
</event>
<event>
 5   0  0.9396660E-03  0.9878077E+03  0.7818609E-02  0.9322019E-01
       -1   -1    0    0    0  501  0.00000000000E+00  0.00000000000E+00  0.40935146742E+03  0.40935146745E+03  0.50400001928E-02 0.  1.
        1   -1    0    0  501    0  0.00000000000E+00  0.00000000000E+00 -0.59592073635E+03  0.59592073637E+03  0.50400001928E-02 0. -1.
    10030    2    1    2    0    0  0.00000000000E+00  0.00000000000E+00 -0.18656926893E+03  0.10052722038E+04  0.98780773011E+03 0.  0.
        5    1    3    3  502    0 -0.26438280414E+03  0.10437531990E+03 -0.50431458070E+03  0.57891947698E+03  0.46999998093E+01 0. -1.
       -5    1    3    3    0  502  0.26438280414E+03 -0.10437531990E+03  0.31774531177E+03  0.42635272683E+03  0.46999998093E+01 0.  1.
</event>
<event>
 5   0  0.9507815E-03  0.9594276E+03  0.7818609E-02  0.9354198E-01
        1   -1    0    0  501    0  0.00000000000E+00  0.00000000000E+00  0.60033463699E+03  0.60033463702E+03  0.50400001928E-02 0.  1.
       -1   -1    0    0    0  501  0.00000000000E+00  0.00000000000E+00 -0.38332845751E+03  0.38332845755E+03  0.50400001928E-02 0. -1.
    10030    2    1    2    0    0  0.00000000000E+00  0.00000000000E+00  0.21700617948E+03  0.98366309456E+03  0.95942764275E+03 0.  0.
        1    1    3    3  502    0 -0.15306665755E+02  0.52475646982E+02  0.59713119135E+03  0.59962792401E+03  0.50400001928E-02 0.  1.
       -1    1    3    3    0  502  0.15306665755E+02 -0.52475646982E+02 -0.38012501187E+03  0.38403517055E+03  0.50400001928E-02 0. -1.
</event>
<event>
 5   0  0.1663497E-02  0.1017533E+04  0.7818609E-02  0.9289521E-01
        2   -1    0    0  501    0  0.00000000000E+00  0.00000000000E+00  0.38405900715E+03  0.38405900716E+03  0.25500000920E-02 0. -1.
       -2   -1    0    0    0  501  0.00000000000E+00  0.00000000000E+00 -0.67396798912E+03  0.67396798913E+03  0.25500000920E-02 0.  1.
    10030    2    1    2    0    0  0.00000000000E+00  0.00000000000E+00 -0.28990898197E+03  0.10580269963E+04  0.10175332462E+04 0.  0.
        1    1    3    3  502    0  0.27580001083E+03 -0.15084242859E+03 -0.56090459265E+03  0.64298759422E+03  0.50400001928E-02 0.  1.
       -1    1    3    3    0  502 -0.27580001083E+03  0.15084242859E+03  0.27099561068E+03  0.41503940207E+03  0.50400001928E-02 0. -1.
</event>
<event>
 5   0  0.9759443E-03  0.1014810E+04  0.7818609E-02  0.9292449E-01
       -1   -1    0    0    0  501  0.00000000000E+00  0.00000000000E+00  0.13035965594E+03  0.13035965604E+03  0.50400001928E-02 0.  1.
        1   -1    0    0  501    0  0.00000000000E+00  0.00000000000E+00 -0.19749952439E+04  0.19749952439E+04  0.50400001928E-02 0. -1.
    10030    2    1    2    0    0  0.00000000000E+00  0.00000000000E+00 -0.18446355880E+04  0.21053549000E+04  0.10148097370E+04 0.  0.
        2    1    3    3  502    0 -0.19055466739E+03 -0.44811452864E+03 -0.62642295344E+03  0.79342512479E+03  0.25500000920E-02 0.  1.
       -2    1    3    3    0  502  0.19055466739E+03  0.44811452864E+03 -0.12182126346E+04  0.13119297752E+04  0.25500000920E-02 0. -1.
</event>
<event>
 5   0  0.1000773E-02  0.1003782E+04  0.7818609E-02  0.9304406E-01
       -1   -1    0    0    0  501  0.00000000000E+00  0.00000000000E+00  0.16099456482E+03  0.16099456490E+03  0.50400001928E-02 0.  1.
        1   -1    0    0  501    0  0.00000000000E+00  0.00000000000E+00 -0.15646160604E+04  0.15646160604E+04  0.50400001928E-02 0. -1.
    10030    2    1    2    0    0  0.00000000000E+00  0.00000000000E+00 -0.14036214955E+04  0.17256106253E+04  0.10037822111E+04 0.  0.
        3    1    3    3  502    0 -0.47859870314E+03 -0.14610589937E+03 -0.76819192055E+03  0.91680013607E+03  0.10100000352E+00 0. -1.
       -3    1    3    3    0  502  0.47859870314E+03  0.14610589937E+03 -0.63542957499E+03  0.80881048921E+03  0.10100000352E+00 0.  1.
</event>
<event>
 5   0  0.9471140E-03  0.9487674E+03  0.7818609E-02  0.9366592E-01
       -1   -1    0    0    0  501  0.00000000000E+00  0.00000000000E+00  0.76442798935E+03  0.76442798937E+03  0.50400001928E-02 0.  1.
        1   -1    0    0  501    0  0.00000000000E+00  0.00000000000E+00 -0.29438994709E+03  0.29438994714E+03  0.50400001928E-02 0. -1.
    10030    2    1    2    0    0  0.00000000000E+00  0.00000000000E+00  0.47003804226E+03  0.10588179365E+04  0.94876744332E+03 0.  0.
        4    1    3    3  502    0  0.43853182728E+03 -0.50024996264E+02  0.42904025377E+03  0.61554026354E+03  0.12699999809E+01 0.  1.
       -4    1    3    3    0  502 -0.43853182728E+03  0.50024996264E+02  0.40997788488E+02  0.44327767296E+03  0.12699999809E+01 0. -1.
</event>
<event>
 5   0  0.1663497E-02  0.9889003E+03  0.7818609E-02  0.9320803E-01
        2   -1    0    0  501    0  0.00000000000E+00  0.00000000000E+00  0.10130038121E+04  0.10130038121E+04  0.25500000920E-02 0.  1.
       -2   -1    0    0    0  501  0.00000000000E+00  0.00000000000E+00 -0.24134258451E+03  0.24134258452E+03  0.25500000920E-02 0. -1.
    10030    2    1    2    0    0  0.00000000000E+00  0.00000000000E+00  0.77166122762E+03  0.12543463967E+04  0.98890031479E+03 0.  0.
        1    1    3    3  502    0  0.29481201856E+03 -0.20741716075E+03  0.81512276779E+03  0.89126939331E+03  0.50400001928E-02 0.  1.
       -1    1    3    3    0  502 -0.29481201856E+03  0.20741716075E+03 -0.43461540167E+02  0.36307700334E+03  0.50400001928E-02 0. -1.
</event>
<event>
 5   0  0.9759443E-03  0.1028947E+04  0.7818609E-02  0.9277354E-01
        1   -1    0    0  501    0  0.00000000000E+00  0.00000000000E+00  0.69172425806E+03  0.69172425808E+03  0.50400001928E-02 0. -1.
       -1   -1    0    0    0  501  0.00000000000E+00  0.00000000000E+00 -0.38264205720E+03  0.38264205723E+03  0.50400001928E-02 0.  1.
    10030    2    1    2    0    0  0.00000000000E+00  0.00000000000E+00  0.30908220087E+03  0.10743663153E+04  0.10289466325E+04 0.  0.
        2    1    3    3  502    0  0.27107723043E+03 -0.23990734925E+03  0.53625230052E+03  0.64699685540E+03  0.25500000920E-02 0. -1.
       -2    1    3    3    0  502 -0.27107723043E+03  0.23990734925E+03 -0.22717009965E+03  0.42736945991E+03  0.25500000920E-02 0.  1.
</event>
<event>
 5   0  0.1000773E-02  0.1006408E+04  0.7818609E-02  0.9301544E-01
       -1   -1    0    0    0  501  0.00000000000E+00  0.00000000000E+00  0.30268371700E+03  0.30268371705E+03  0.50400001928E-02 0.  1.
        1   -1    0    0  501    0  0.00000000000E+00  0.00000000000E+00 -0.83656418215E+03  0.83656418216E+03  0.50400001928E-02 0. -1.
    10030    2    1    2    0    0  0.00000000000E+00  0.00000000000E+00 -0.53388046515E+03  0.11392478992E+04  0.10064081800E+04 0.  0.
        3    1    3    3  502    0 -0.34287556962E+03  0.26297166590E+03 -0.55884673855E+03  0.70641874317E+03  0.10100000352E+00 0. -1.
       -3    1    3    3    0  502  0.34287556962E+03 -0.26297166590E+03  0.24966273399E+02  0.43282915604E+03  0.10100000352E+00 0.  1.
</event>
<event>
 5   0  0.9396660E-03  0.1006511E+04  0.7818609E-02  0.9301433E-01
       -1   -1    0    0    0  501  0.00000000000E+00  0.00000000000E+00  0.11953286473E+04  0.11953286473E+04  0.50400001928E-02 0.  1.
        1   -1    0    0  501    0  0.00000000000E+00  0.00000000000E+00 -0.21187969718E+03  0.21187969724E+03  0.50400001928E-02 0. -1.
    10030    2    1    2    0    0  0.00000000000E+00  0.00000000000E+00  0.98344895011E+03  0.14072083445E+04  0.10065105501E+04 0.  0.
        5    1    3    3  502    0  0.19542227988E+03  0.46263874025E+03  0.53636130066E+03  0.73479929661E+03  0.46999998093E+01 0. -1.
       -5    1    3    3    0  502 -0.19542227988E+03 -0.46263874025E+03  0.44708764945E+03  0.67240904793E+03  0.46999998093E+01 0.  1.
</event>
<event>
 5   0  0.1663497E-02  0.1006765E+04  0.7818609E-02  0.9301157E-01
       -2   -1    0    0    0  501  0.00000000000E+00  0.00000000000E+00  0.88501688397E+03  0.88501688397E+03  0.25500000920E-02 0. -1.
        2   -1    0    0  501    0  0.00000000000E+00  0.00000000000E+00 -0.28631511941E+03  0.28631511942E+03  0.25500000920E-02 0.  1.
    10030    2    1    2    0    0  0.00000000000E+00  0.00000000000E+00  0.59870176456E+03  0.11713320034E+04  0.10067645501E+04 0.  0.
        1    1    3    3  502    0  0.21906294825E+03 -0.58231378809E+02 -0.22357855818E+03  0.31838159570E+03  0.50400001928E-02 0.  1.
       -1    1    3    3    0  502 -0.21906294825E+03  0.58231378809E+02  0.82228032275E+03  0.85295040769E+03  0.50400001928E-02 0. -1.
</event>
<event>
 5   0  0.6314750E-03  0.1009237E+04  0.7818609E-02  0.9298472E-01
       -3   -1    0    0    0  501  0.00000000000E+00  0.00000000000E+00  0.52503796493E+03  0.52503797464E+03  0.10100000352E+00 0. -1.
        3   -1    0    0  501    0  0.00000000000E+00  0.00000000000E+00 -0.48499294071E+03  0.48499295123E+03  0.10100000352E+00 0.  1.
    10030    2    1    2    0    0  0.00000000000E+00  0.00000000000E+00  0.40045024212E+02  0.10100309259E+04  0.10092367746E+04 0.  0.
        1    1    3    3  502    0 -0.37718975791E+03  0.36799283982E+02 -0.31342642534E+03  0.49179510460E+03  0.50400001928E-02 0.  1.
       -1    1    3    3    0  502  0.37718975791E+03 -0.36799283982E+02  0.35347144956E+03  0.51823582128E+03  0.50400001928E-02 0. -1.
</event>
<event>
 5   0  0.9396660E-03  0.9900013E+03  0.7818609E-02  0.9319580E-01
       -1   -1    0    0    0  501  0.00000000000E+00  0.00000000000E+00  0.44535879282E+03  0.44535879285E+03  0.50400001928E-02 0. -1.
        1   -1    0    0  501    0  0.00000000000E+00  0.00000000000E+00 -0.55017581732E+03  0.55017581735E+03  0.50400001928E-02 0.  1.
    10030    2    1    2    0    0  0.00000000000E+00  0.00000000000E+00 -0.10481702450E+03  0.99553461020E+03  0.99000128862E+03 0.  0.
        5    1    3    3  502    0  0.43596586613E+03 -0.20525865446E+03 -0.16620547715E+03  0.50974866580E+03  0.46999998093E+01 0. -1.
       -5    1    3    3    0  502 -0.43596586613E+03  0.20525865446E+03  0.61388452646E+02  0.48578594440E+03  0.46999998093E+01 0.  1.
</event>
<event>
 5   0  0.1571895E-02  0.8967689E+03  0.7818609E-02  0.9429629E-01
       -2   -1    0    0    0  501  0.00000000000E+00  0.00000000000E+00  0.24894014578E+03  0.24894014579E+03  0.25500000920E-02 0.  1.
        2   -1    0    0  501    0  0.00000000000E+00  0.00000000000E+00 -0.80761832762E+03  0.80761832763E+03  0.25500000920E-02 0. -1.
    10030    2    1    2    0    0  0.00000000000E+00  0.00000000000E+00 -0.55867818185E+03  0.10565584734E+04  0.89676892056E+03 0.  0.
        2    1    3    3  502    0 -0.44084580706E+03  0.80791412230E+02 -0.29498483389E+03  0.53655226225E+03  0.25500000920E-02 0.  1.
       -2    1    3    3    0  502  0.44084580706E+03 -0.80791412230E+02 -0.26369334795E+03  0.52000621117E+03  0.25500000920E-02 0. -1.
</event>
<event>
 5   0  0.9759443E-03  0.9979015E+03  0.7818609E-02  0.9310849E-01
        1   -1    0    0  501    0  0.00000000000E+00  0.00000000000E+00  0.13941056320E+04  0.13941056320E+04  0.50400001928E-02 0. -1.
       -1   -1    0    0    0  501  0.00000000000E+00  0.00000000000E+00 -0.17857458822E+03  0.17857458830E+03  0.50400001928E-02 0.  1.
    10030    2    1    2    0    0  0.00000000000E+00  0.00000000000E+00  0.12155310438E+04  0.15726802203E+04  0.99790147658E+03 0.  0.
        2    1    3    3  502    0 -0.81194776365E+02 -0.49226357912E+03  0.59833376710E+03  0.77905026788E+03  0.25500000920E-02 0.  1.
       -2    1    3    3    0  502  0.81194776365E+02  0.49226357912E+03  0.61719727670E+03  0.79362995244E+03  0.25500000920E-02 0. -1.
</event>
<event>
 5   0  0.1617721E-02  0.5596313E+03  0.7818609E-02  0.9992889E-01
        2   -1    0    0  501    0  0.00000000000E+00  0.00000000000E+00  0.14315611166E+04  0.14315611166E+04  0.25500000920E-02 0.  1.
       -2   -1    0    0    0  501  0.00000000000E+00  0.00000000000E+00 -0.54693293324E+02  0.54693293383E+02  0.25500000920E-02 0. -1.
    10030    2    1    2    0    0  0.00000000000E+00  0.00000000000E+00  0.13768678233E+04  0.14862544100E+04  0.55963127899E+03 0.  0.
        5    1    3    3  502    0  0.73951813127E+01  0.19887110030E+03  0.16618211776E+03  0.25931253248E+03  0.46999998093E+01 0. -1.
       -5    1    3    3    0  502 -0.73951813127E+01 -0.19887110030E+03  0.12106857055E+04  0.12269418775E+04  0.46999998093E+01 0.  1.
</event>
<event>
 5   0  0.1656859E-02  0.9769327E+03  0.7818609E-02  0.9334213E-01
       -2   -1    0    0    0  501  0.00000000000E+00  0.00000000000E+00  0.33709452765E+03  0.33709452766E+03  0.25500000920E-02 0.  1.
        2   -1    0    0  501    0  0.00000000000E+00  0.00000000000E+00 -0.70781151747E+03  0.70781151747E+03  0.25500000920E-02 0. -1.
    10030    2    1    2    0    0  0.00000000000E+00  0.00000000000E+00 -0.37071698982E+03  0.10449060451E+04  0.97693272881E+03 0.  0.
        4    1    3    3  502    0  0.42061806943E+03  0.10265257287E+03  0.56519170808E+02  0.43663845526E+03  0.12699999809E+01 0.  1.
       -4    1    3    3    0  502 -0.42061806943E+03 -0.10265257287E+03 -0.42723616063E+03  0.60826758987E+03  0.12699999809E+01 0. -1.
</event>
<event>
 5   0  0.1656859E-02  0.1011513E+04  0.7818609E-02  0.9296007E-01
        2   -1    0    0  501    0  0.00000000000E+00  0.00000000000E+00  0.52984415831E+03  0.52984415831E+03  0.25500000920E-02 0. -1.
       -2   -1    0    0    0  501  0.00000000000E+00  0.00000000000E+00 -0.48276416041E+03  0.48276416041E+03  0.25500000920E-02 0.  1.
    10030    2    1    2    0    0  0.00000000000E+00  0.00000000000E+00  0.47079997902E+02  0.10126083187E+04  0.10115132629E+04 0.  0.
        4    1    3    3  502    0  0.30631438645E+03 -0.39417229261E+03 -0.57713489397E+02  0.50252637679E+03  0.12699999809E+01 0.  1.
       -4    1    3    3    0  502 -0.30631438645E+03  0.39417229261E+03  0.10479348730E+03  0.51008194194E+03  0.12699999809E+01 0. -1.
</event>
<event>
 5   0  0.9396660E-03  0.9666511E+03  0.7818609E-02  0.9345897E-01
        1   -1    0    0  501    0  0.00000000000E+00  0.00000000000E+00  0.81703156597E+03  0.81703156599E+03  0.50400001928E-02 0. -1.
       -1   -1    0    0    0  501  0.00000000000E+00  0.00000000000E+00 -0.28591742868E+03  0.28591742873E+03  0.50400001928E-02 0.  1.
    10030    2    1    2    0    0  0.00000000000E+00  0.00000000000E+00  0.53111413729E+03  0.11029489947E+04  0.96665105292E+03 0.  0.
        5    1    3    3  502    0 -0.35062155077E+03 -0.22092239044E+03  0.54929538248E+03  0.68810586516E+03  0.46999998093E+01 0. -1.
       -5    1    3    3    0  502  0.35062155077E+03  0.22092239044E+03 -0.18181245186E+02  0.41484312955E+03  0.46999998093E+01 0.  1.
</event>
<event>
 5   0  0.9396660E-03  0.9910138E+03  0.7818609E-02  0.9318456E-01
       -1   -1    0    0    0  501  0.00000000000E+00  0.00000000000E+00  0.20369238663E+03  0.20369238669E+03  0.50400001928E-02 0.  1.
        1   -1    0    0  501    0  0.00000000000E+00  0.00000000000E+00 -0.12053817802E+04  0.12053817802E+04  0.50400001928E-02 0. -1.
    10030    2    1    2    0    0  0.00000000000E+00  0.00000000000E+00 -0.10016893935E+04  0.14090741669E+04  0.99101380748E+03 0.  0.
        5    1    3    3  502    0 -0.22511740465E+03  0.19408588573E+03 -0.10645111027E+04  0.11052389582E+04  0.46999998093E+01 0. -1.
       -5    1    3    3    0  502  0.22511740465E+03 -0.19408588573E+03  0.62821709138E+02  0.30383520871E+03  0.46999998093E+01 0.  1.
</event>
<event>
 5   0  0.9396660E-03  0.9750518E+03  0.7818609E-02  0.9336339E-01
        1   -1    0    0  501    0  0.00000000000E+00  0.00000000000E+00  0.13531330116E+03  0.13531330125E+03  0.50400001928E-02 0.  1.
       -1   -1    0    0    0  501  0.00000000000E+00  0.00000000000E+00 -0.17565272774E+04  0.17565272774E+04  0.50400001928E-02 0. -1.
    10030    2    1    2    0    0  0.00000000000E+00  0.00000000000E+00 -0.16212139762E+04  0.18918405787E+04  0.97505180288E+03 0.  0.
        5    1    3    3  502    0 -0.38915373234E+03 -0.29099338819E+03 -0.88678816134E+03  0.10112037937E+04  0.46999998093E+01 0. -1.
       -5    1    3    3    0  502  0.38915373234E+03  0.29099338819E+03 -0.73442581491E+03  0.88063678493E+03  0.46999998093E+01 0.  1.
</event>
<event>
 5   0  0.1656859E-02  0.9952447E+03  0.7818609E-02  0.9313776E-01
        2   -1    0    0  501    0  0.00000000000E+00  0.00000000000E+00  0.45028253667E+03  0.45028253668E+03  0.25500000920E-02 0.  1.
       -2   -1    0    0    0  501  0.00000000000E+00  0.00000000000E+00 -0.54993911531E+03  0.54993911531E+03  0.25500000920E-02 0. -1.
    10030    2    1    2    0    0  0.00000000000E+00  0.00000000000E+00 -0.99656578637E+02  0.10002216520E+04  0.99524465306E+03 0.  0.
        4    1    3    3  502    0  0.12600585464E+02  0.49641351991E+03 -0.17399147908E+02  0.49687976489E+03  0.12699999809E+01 0.  1.
       -4    1    3    3    0  502 -0.12600585464E+02 -0.49641351991E+03 -0.82257430729E+02  0.50334188711E+03  0.12699999809E+01 0. -1.
</event>
<event>
 5   0  0.1617721E-02  0.1024762E+04  0.7818609E-02  0.9281795E-01
        2   -1    0    0  501    0  0.00000000000E+00  0.00000000000E+00  0.58491773803E+03  0.58491773804E+03  0.25500000920E-02 0.  1.
       -2   -1    0    0    0  501  0.00000000000E+00  0.00000000000E+00 -0.44883985796E+03  0.44883985797E+03  0.25500000920E-02 0. -1.
    10030    2    1    2    0    0  0.00000000000E+00  0.00000000000E+00  0.13607788007E+03  0.10337575960E+04  0.10247622055E+04 0.  0.
        5    1    3    3  502    0  0.34962867020E+03 -0.26018149819E+03 -0.20372834205E+03  0.48110492243E+03  0.46999998093E+01 0. -1.
       -5    1    3    3    0  502 -0.34962867020E+03  0.26018149819E+03  0.33980622212E+03  0.55265267358E+03  0.46999998093E+01 0.  1.
</event>
<event>
 5   0  0.1000773E-02  0.1003931E+04  0.7818609E-02  0.9304244E-01
        1   -1    0    0  501    0  0.00000000000E+00  0.00000000000E+00  0.14425854290E+04  0.14425854290E+04  0.50400001928E-02 0.  1.
       -1   -1    0    0    0  501  0.00000000000E+00  0.00000000000E+00 -0.17466495344E+03  0.17466495351E+03  0.50400001928E-02 0. -1.
    10030    2    1    2    0    0  0.00000000000E+00  0.00000000000E+00  0.12679204756E+04  0.16172503825E+04  0.10039305093E+04 0.  0.
        3    1    3    3  502    0  0.11350795786E+03 -0.46823280053E+03  0.86088313101E+03  0.98653220294E+03  0.10100000352E+00 0.  1.
       -3    1    3    3    0  502 -0.11350795786E+03  0.46823280053E+03  0.40703734456E+03  0.63071817958E+03  0.10100000352E+00 0. -1.
</event>
<event>
 5   0  0.1656859E-02  0.9975351E+03  0.7818609E-02  0.9311252E-01
       -2   -1    0    0    0  501  0.00000000000E+00  0.00000000000E+00  0.29493729006E+03  0.29493729007E+03  0.25500000920E-02 0. -1.
        2   -1    0    0  501    0  0.00000000000E+00  0.00000000000E+00 -0.84346429940E+03  0.84346429940E+03  0.25500000920E-02 0.  1.
    10030    2    1    2    0    0  0.00000000000E+00  0.00000000000E+00 -0.54852700934E+03  0.11384015895E+04  0.99753511164E+03 0.  0.
        4    1    3    3  502    0 -0.55974191987E+02 -0.17110767354E+02 -0.83952951941E+03  0.84156836644E+03  0.12699999809E+01 0.  1.
       -4    1    3    3    0  502  0.55974191987E+02  0.17110767354E+02  0.29100251008E+03  0.29683322304E+03  0.12699999809E+01 0. -1.
</event>
<event>
 5   0  0.1663497E-02  0.6376446E+03  0.7818609E-02  0.9830244E-01
        2   -1    0    0  501    0  0.00000000000E+00  0.00000000000E+00  0.60879951257E+03  0.60879951257E+03  0.25500000920E-02 0. -1.
       -2   -1    0    0    0  501  0.00000000000E+00  0.00000000000E+00 -0.16696407627E+03  0.16696407629E+03  0.25500000920E-02 0.  1.
    10030    2    1    2    0    0  0.00000000000E+00  0.00000000000E+00  0.44183543630E+03  0.77576358886E+03  0.63764456637E+03 0.  0.
        1    1    3    3  502    0 -0.28639126713E+03  0.12581658426E+03  0.14594190183E+03  0.34517938742E+03  0.50400001928E-02 0.  1.
       -1    1    3    3    0  502  0.28639126713E+03 -0.12581658426E+03  0.29589353447E+03  0.43058420144E+03  0.50400001928E-02 0. -1.
</event>
<event>
 5   0  0.9507815E-03  0.1047674E+04  0.7818609E-02  0.9257749E-01
       -1   -1    0    0    0  501  0.00000000000E+00  0.00000000000E+00  0.17670204500E+03  0.17670204507E+03  0.50400001928E-02 0.  1.
        1   -1    0    0  501    0  0.00000000000E+00  0.00000000000E+00 -0.15529264146E+04  0.15529264146E+04  0.50400001928E-02 0. -1.
    10030    2    1    2    0    0  0.00000000000E+00  0.00000000000E+00 -0.13762243696E+04  0.17296284596E+04  0.10476741350E+04 0.  0.
        1    1    3    3  502    0 -0.29268918036E+03  0.42927223390E+03 -0.57781296193E+03  0.77705175252E+03  0.50400001928E-02 0.  1.
       -1    1    3    3    0  502  0.29268918036E+03 -0.42927223390E+03 -0.79841140763E+03  0.95257670712E+03  0.50400001928E-02 0. -1.
</event>
<event>
 5   0  0.1598986E-02  0.9960052E+03  0.7818609E-02  0.9312937E-01
        2   -1    0    0  501    0  0.00000000000E+00  0.00000000000E+00  0.20288854448E+04  0.20288854448E+04  0.25500000920E-02 0. -1.
       -2   -1    0    0    0  501  0.00000000000E+00  0.00000000000E+00 -0.12223784676E+03  0.12223784679E+03  0.25500000920E-02 0.  1.
    10030    2    1    2    0    0  0.00000000000E+00  0.00000000000E+00  0.19066475980E+04  0.21511232916E+04  0.99600519703E+03 0.  0.
        3    1    3    3  502    0 -0.18958429524E+03 -0.15195886571E+03  0.18921894158E+04  0.19077249532E+04  0.10100000352E+00 0. -1.
       -3    1    3    3    0  502  0.18958429524E+03  0.15195886571E+03  0.14458182244E+02  0.24339833833E+03  0.10100000352E+00 0.  1.
</event>
<event>
 5   0  0.1000773E-02  0.9805687E+03  0.7818609E-02  0.9330117E-01
        1   -1    0    0  501    0  0.00000000000E+00  0.00000000000E+00  0.92080524128E+03  0.92080524129E+03  0.50400001928E-02 0.  1.
       -1   -1    0    0    0  501  0.00000000000E+00  0.00000000000E+00 -0.26105273121E+03  0.26105273125E+03  0.50400001928E-02 0. -1.
    10030    2    1    2    0    0  0.00000000000E+00  0.00000000000E+00  0.65975251008E+03  0.11818579725E+04  0.98056865783E+03 0.  0.
        3    1    3    3  502    0 -0.21202095595E+03  0.21812646949E+03  0.79331576462E+03  0.84963636636E+03  0.10100000352E+00 0.  1.
       -3    1    3    3    0  502  0.21202095595E+03 -0.21812646949E+03 -0.13356325454E+03  0.33222160619E+03  0.10100000352E+00 0. -1.
</event>
<event>
 5   0  0.9396660E-03  0.1248816E+04  0.7818609E-02  0.9071169E-01
       -1   -1    0    0    0  501  0.00000000000E+00  0.00000000000E+00  0.17493953714E+03  0.17493953722E+03  0.50400001928E-02 0. -1.
        1   -1    0    0  501    0  0.00000000000E+00  0.00000000000E+00 -0.22286878356E+04  0.22286878356E+04  0.50400001928E-02 0.  1.
    10030    2    1    2    0    0  0.00000000000E+00  0.00000000000E+00 -0.20537482984E+04  0.24036273728E+04  0.12488164292E+04 0.  0.
        5    1    3    3  502    0  0.48915743154E+03  0.50757202680E+02 -0.17673610089E+04  0.18345130995E+04  0.46999998093E+01 0.  1.
       -5    1    3    3    0  502 -0.48915743154E+03 -0.50757202680E+02 -0.28638728950E+03  0.56911427327E+03  0.46999998093E+01 0. -1.
</event>
<event>
 5   0  0.9507815E-03  0.9919850E+03  0.7818609E-02  0.9317379E-01
        1   -1    0    0  501    0  0.00000000000E+00  0.00000000000E+00  0.13192369558E+04  0.13192369558E+04  0.50400001928E-02 0. -1.
       -1   -1    0    0    0  501  0.00000000000E+00  0.00000000000E+00 -0.18647791321E+03  0.18647791328E+03  0.50400001928E-02 0.  1.
    10030    2    1    2    0    0  0.00000000000E+00  0.00000000000E+00  0.11327590426E+04  0.15057148691E+04  0.99198498902E+03 0.  0.
        1    1    3    3  502    0  0.40324837989E+03  0.10094656666E+03  0.15568383509E+03  0.44388841136E+03  0.50400001928E-02 0.  1.
       -1    1    3    3    0  502 -0.40324837989E+03 -0.10094656666E+03  0.97707520753E+03  0.10618264578E+04  0.50400001928E-02 0. -1.
</event>
<event>
 5   0  0.9507815E-03  0.1002913E+04  0.7818609E-02  0.9305356E-01
        1   -1    0    0  501    0  0.00000000000E+00  0.00000000000E+00  0.11942980078E+04  0.11942980078E+04  0.50400001928E-02 0. -1.
       -1   -1    0    0    0  501  0.00000000000E+00  0.00000000000E+00 -0.21054910743E+03  0.21054910749E+03  0.50400001928E-02 0.  1.
    10030    2    1    2    0    0  0.00000000000E+00  0.00000000000E+00  0.98374890035E+03  0.14048471153E+04  0.10029125178E+04 0.  0.
        1    1    3    3  502    0  0.20907050023E+03 -0.80421487394E+01 -0.14648710803E+03  0.25540873726E+03  0.50400001928E-02 0.  1.
       -1    1    3    3    0  502 -0.20907050023E+03  0.80421487394E+01  0.11302360084E+04  0.11494383780E+04  0.50400001928E-02 0. -1.
</event>
<event>
 5   0  0.1598986E-02  0.1010009E+04  0.7818609E-02  0.9297635E-01
        2   -1    0    0  501    0  0.00000000000E+00  0.00000000000E+00  0.87514954002E+03  0.87514954002E+03  0.25500000920E-02 0. -1.
       -2   -1    0    0    0  501  0.00000000000E+00  0.00000000000E+00 -0.29141232895E+03  0.29141232896E+03  0.25500000920E-02 0.  1.
    10030    2    1    2    0    0  0.00000000000E+00  0.00000000000E+00  0.58373721107E+03  0.11665618690E+04  0.10100086448E+04 0.  0.
        3    1    3    3  502    0 -0.29534725947E+03 -0.17826497563E+03  0.71784505361E+03  0.79643577041E+03  0.10100000352E+00 0. -1.
       -3    1    3    3    0  502  0.29534725947E+03  0.17826497563E+03 -0.13410784254E+03  0.37012609856E+03  0.10100000352E+00 0.  1.
</event>
<event>
 5   0  0.9507815E-03  0.1014678E+04  0.7818609E-02  0.9292591E-01
        1   -1    0    0  501    0  0.00000000000E+00  0.00000000000E+00  0.10485389386E+04  0.10485389386E+04  0.50400001928E-02 0.  1.
       -1   -1    0    0    0  501  0.00000000000E+00  0.00000000000E+00 -0.24547781832E+03  0.24547781837E+03  0.50400001928E-02 0. -1.
    10030    2    1    2    0    0  0.00000000000E+00  0.00000000000E+00  0.80306112032E+03  0.12940167570E+04  0.10146783749E+04 0.  0.
        1    1    3    3  502    0 -0.18531643916E+02  0.40156523439E+03  0.79624489406E+03  0.89196636183E+03  0.50400001928E-02 0.  1.
       -1    1    3    3    0  502  0.18531643916E+02 -0.40156523439E+03  0.68162262594E+01  0.40205039518E+03  0.50400001928E-02 0. -1.
</event>
<event>
 5   0  0.9759443E-03  0.9881766E+03  0.7818609E-02  0.9321608E-01
       -1   -1    0    0    0  501  0.00000000000E+00  0.00000000000E+00  0.10043846039E+04  0.10043846039E+04  0.50400001928E-02 0.  1.
        1   -1    0    0  501    0  0.00000000000E+00  0.00000000000E+00 -0.24305755322E+03  0.24305755327E+03  0.50400001928E-02 0. -1.
    10030    2    1    2    0    0  0.00000000000E+00  0.00000000000E+00  0.76132705065E+03  0.12474421571E+04  0.98817663268E+03 0.  0.
        2    1    3    3  502    0  0.43404389006E+03  0.15145813131E+01  0.67866483290E+03  0.80559440656E+03  0.25500000920E-02 0.  1.
       -2    1    3    3    0  502 -0.43404389006E+03 -0.15145813131E+01  0.82662217751E+02  0.44184775059E+03  0.25500000920E-02 0. -1.
</event>
<event>
 5   0  0.9396660E-03  0.1009375E+04  0.7818609E-02  0.9298322E-01
        1   -1    0    0  501    0  0.00000000000E+00  0.00000000000E+00  0.51938278391E+03  0.51938278394E+03  0.50400001928E-02 0. -1.
       -1   -1    0    0    0  501  0.00000000000E+00  0.00000000000E+00 -0.49040787639E+03  0.49040787642E+03  0.50400001928E-02 0.  1.
    10030    2    1    2    0    0  0.00000000000E+00  0.00000000000E+00  0.28974907521E+02  0.10097906604E+04  0.10093748721E+04 0.  0.
        5    1    3    3  502    0 -0.22308211505E+03 -0.45215155189E+03 -0.74455866612E+01  0.50426598407E+03  0.46999998093E+01 0.  1.
       -5    1    3    3    0  502  0.22308211505E+03  0.45215155189E+03  0.36420494182E+02  0.50552467628E+03  0.46999998093E+01 0. -1.
</event>
<event>
 5   0  0.1656859E-02  0.1109416E+04  0.7818609E-02  0.9196063E-01
       -2   -1    0    0    0  501  0.00000000000E+00  0.00000000000E+00  0.39464603513E+03  0.39464603514E+03  0.25500000920E-02 0.  1.
        2   -1    0    0  501    0  0.00000000000E+00  0.00000000000E+00 -0.77968796450E+03  0.77968796450E+03  0.25500000920E-02 0. -1.
    10030    2    1    2    0    0  0.00000000000E+00  0.00000000000E+00 -0.38504192936E+03  0.11743339996E+04  0.11094156369E+04 0.  0.
        4    1    3    3  502    0  0.37322840879E+03  0.24615358615E+03  0.15503366983E+03  0.47321040223E+03  0.12699999809E+01 0.  1.
       -4    1    3    3    0  502 -0.37322840879E+03 -0.24615358615E+03 -0.54007559920E+03  0.70112359741E+03  0.12699999809E+01 0. -1.
</event>
<event>
 5   0  0.1598986E-02  0.9844111E+03  0.7818609E-02  0.9325810E-01
       -2   -1    0    0    0  501  0.00000000000E+00  0.00000000000E+00  0.99659339210E+02  0.99659339243E+02  0.25500000920E-02 0.  1.
        2   -1    0    0  501    0  0.00000000000E+00  0.00000000000E+00 -0.24309445203E+04  0.24309445203E+04  0.25500000920E-02 0. -1.
    10030    2    1    2    0    0  0.00000000000E+00  0.00000000000E+00 -0.23312851811E+04  0.25306038596E+04  0.98441114296E+03 0.  0.
        3    1    3    3  502    0 -0.35009080373E+03  0.22342474322E+02 -0.20531914151E+04  0.20829444914E+04  0.10100000352E+00 0. -1.
       -3    1    3    3    0  502  0.35009080373E+03 -0.22342474322E+02 -0.27809376601E+03  0.44765936817E+03  0.10100000352E+00 0.  1.
</event>
<event>
 5   0  0.9471140E-03  0.9980482E+03  0.7818609E-02  0.9310688E-01
       -1   -1    0    0    0  501  0.00000000000E+00  0.00000000000E+00  0.17771219131E+03  0.17771219138E+03  0.50400001928E-02 0. -1.
        1   -1    0    0  501    0  0.00000000000E+00  0.00000000000E+00 -0.14012828151E+04  0.14012828151E+04  0.50400001928E-02 0.  1.
    10030    2    1    2    0    0  0.00000000000E+00  0.00000000000E+00 -0.12235706238E+04  0.15789950065E+04  0.99804817477E+03 0.  0.
        4    1    3    3  502    0  0.45349962086E+03  0.52581899740E+02 -0.29301752404E+03  0.54248285189E+03  0.12699999809E+01 0. -1.
       -4    1    3    3    0  502 -0.45349962086E+03 -0.52581899740E+02 -0.93055309979E+03  0.10365121546E+04  0.12699999809E+01 0.  1.
</event>
<event>
 5   0  0.9759443E-03  0.1014975E+04  0.7818609E-02  0.9292271E-01
        1   -1    0    0  501    0  0.00000000000E+00  0.00000000000E+00  0.12172745782E+04  0.12172745783E+04  0.50400001928E-02 0.  1.
       -1   -1    0    0    0  501  0.00000000000E+00  0.00000000000E+00 -0.21157392760E+03  0.21157392766E+03  0.50400001928E-02 0. -1.
    10030    2    1    2    0    0  0.00000000000E+00  0.00000000000E+00  0.10057006506E+04  0.14288485059E+04  0.10149750017E+04 0.  0.
        2    1    3    3  502    0 -0.25226251943E+02  0.50561496872E+03  0.45286560595E+03  0.67924231128E+03  0.25500000920E-02 0.  1.
       -2    1    3    3    0  502  0.25226251943E+02 -0.50561496872E+03  0.55283504470E+03  0.74960619464E+03  0.25500000920E-02 0. -1.
</event>
<event>
 5   0  0.9471140E-03  0.1003674E+04  0.7818609E-02  0.9304524E-01
        1   -1    0    0  501    0  0.00000000000E+00  0.00000000000E+00  0.16961121382E+04  0.16961121382E+04  0.50400001928E-02 0. -1.
       -1   -1    0    0    0  501  0.00000000000E+00  0.00000000000E+00 -0.14848109677E+03  0.14848109686E+03  0.50400001928E-02 0.  1.
    10030    2    1    2    0    0  0.00000000000E+00  0.00000000000E+00  0.15476310414E+04  0.18445932350E+04  0.10036744305E+04 0.  0.
        4    1    3    3  502    0  0.36872688234E+03  0.16986526137E+03  0.23165185580E+03  0.46741621279E+03  0.12699999809E+01 0.  1.
       -4    1    3    3    0  502 -0.36872688234E+03 -0.16986526137E+03  0.13159791856E+04  0.13771770223E+04  0.12699999809E+01 0. -1.
</event>
<event>
 5   0  0.9507815E-03  0.1006571E+04  0.7818609E-02  0.9301367E-01
        1   -1    0    0  501    0  0.00000000000E+00  0.00000000000E+00  0.13000967149E+04  0.13000967149E+04  0.50400001928E-02 0. -1.
       -1   -1    0    0    0  501  0.00000000000E+00  0.00000000000E+00 -0.19482874316E+03  0.19482874323E+03  0.50400001928E-02 0.  1.
    10030    2    1    2    0    0  0.00000000000E+00  0.00000000000E+00  0.11052679717E+04  0.14949254581E+04  0.10065708301E+04 0.  0.
        1    1    3    3  502    0 -0.24029662033E+03 -0.40191228198E+03  0.27870119843E+03  0.54493146925E+03  0.50400001928E-02 0. -1.
       -1    1    3    3    0  502  0.24029662033E+03  0.40191228198E+03  0.82656677328E+03  0.94999398886E+03  0.50400001928E-02 0.  1.
</event>
<event>
 5   0  0.6314750E-03  0.9926396E+03  0.7818609E-02  0.9316655E-01
        3   -1    0    0  501    0  0.00000000000E+00  0.00000000000E+00  0.31813939413E+03  0.31813941016E+03  0.10100000352E+00 0. -1.
       -3   -1    0    0    0  501  0.00000000000E+00  0.00000000000E+00 -0.77429365083E+03  0.77429365741E+03  0.10100000352E+00 0.  1.
    10030    2    1    2    0    0  0.00000000000E+00  0.00000000000E+00 -0.45615425670E+03  0.10924330676E+04  0.99263956259E+03 0.  0.
        4    1    3    3  502    0 -0.33416576961E+03 -0.22592280323E+03 -0.54632704949E+03  0.67910436054E+03  0.12699999809E+01 0.  1.
       -4    1    3    3    0  502  0.33416576961E+03  0.22592280323E+03  0.90172792790E+02  0.41332870704E+03  0.12699999809E+01 0. -1.
</event>
<event>
 5   0  0.9471140E-03  0.1005524E+04  0.7818609E-02  0.9302507E-01
        1   -1    0    0  501    0  0.00000000000E+00  0.00000000000E+00  0.73151032409E+03  0.73151032411E+03  0.50400001928E-02 0. -1.
       -1   -1    0    0    0  501  0.00000000000E+00  0.00000000000E+00 -0.34554459747E+03  0.34554459751E+03  0.50400001928E-02 0.  1.
    10030    2    1    2    0    0  0.00000000000E+00  0.00000000000E+00  0.38596572662E+03  0.10770549216E+04  0.10055236258E+04 0.  0.
        4    1    3    3  502    0 -0.23285959967E+03  0.11207124065E+02 -0.28414721894E+03  0.36754652456E+03  0.12699999809E+01 0.  1.
       -4    1    3    3    0  502  0.23285959967E+03 -0.11207124065E+02  0.67011294556E+03  0.70950839706E+03  0.12699999809E+01 0. -1.
</event>
<event>
 5   0  0.1656859E-02  0.1003237E+04  0.7818609E-02  0.9305002E-01
        2   -1    0    0  501    0  0.00000000000E+00  0.00000000000E+00  0.87467232062E+03  0.87467232062E+03  0.25500000920E-02 0. -1.
       -2   -1    0    0    0  501  0.00000000000E+00  0.00000000000E+00 -0.28767458249E+03  0.28767458250E+03  0.25500000920E-02 0.  1.
    10030    2    1    2    0    0  0.00000000000E+00  0.00000000000E+00  0.58699773813E+03  0.11623469031E+04  0.10032367510E+04 0.  0.
        4    1    3    3  502    0  0.30321579503E+03  0.60162025605E+02  0.75119607579E+03  0.81231548358E+03  0.12699999809E+01 0. -1.
       -4    1    3    3    0  502 -0.30321579503E+03 -0.60162025605E+02 -0.16419833766E+03  0.35003141955E+03  0.12699999809E+01 0.  1.
</event>
<event>
 5   0  0.6314750E-03  0.1000713E+04  0.7818609E-02  0.9307763E-01
       -3   -1    0    0    0  501  0.00000000000E+00  0.00000000000E+00  0.69488441988E+03  0.69488442722E+03  0.10100000352E+00 0. -1.
        3   -1    0    0  501    0  0.00000000000E+00  0.00000000000E+00 -0.36028539660E+03  0.36028541076E+03  0.10100000352E+00 0.  1.
    10030    2    1    2    0    0  0.00000000000E+00  0.00000000000E+00  0.33459902327E+03  0.10551698380E+04  0.10007131860E+04 0.  0.
        3    1    3    3  502    0 -0.21867557691E+02  0.54777396776E+02 -0.35660712890E+03  0.36145180572E+03  0.10100000352E+00 0.  1.
       -3    1    3    3    0  502  0.21867557691E+02 -0.54777396776E+02  0.69120615217E+03  0.69371803226E+03  0.10100000352E+00 0. -1.
</event>
<event>
 5   0  0.1656859E-02  0.9827342E+03  0.7818609E-02  0.9327687E-01
       -2   -1    0    0    0  501  0.00000000000E+00  0.00000000000E+00  0.26498211151E+03  0.26498211152E+03  0.25500000920E-02 0.  1.
        2   -1    0    0  501    0  0.00000000000E+00  0.00000000000E+00 -0.91116202036E+03  0.91116202036E+03  0.25500000920E-02 0. -1.
    10030    2    1    2    0    0  0.00000000000E+00  0.00000000000E+00 -0.64617990885E+03  0.11761441319E+04  0.98273421858E+03 0.  0.
        4    1    3    3  502    0  0.36344330807E+03  0.23689025188E+03 -0.59921819983E+03  0.73977840840E+03  0.12699999809E+01 0. -1.
       -4    1    3    3    0  502 -0.36344330807E+03 -0.23689025188E+03 -0.46961709013E+02  0.43636572348E+03  0.12699999809E+01 0.  1.
</event>
<event>
 5   0  0.9507815E-03  0.9816910E+03  0.7818609E-02  0.9328857E-01
       -1   -1    0    0    0  501  0.00000000000E+00  0.00000000000E+00  0.12004822210E+04  0.12004822210E+04  0.50400001928E-02 0.  1.
        1   -1    0    0  501    0  0.00000000000E+00  0.00000000000E+00 -0.20069378195E+03  0.20069378202E+03  0.50400001928E-02 0. -1.
    10030    2    1    2    0    0  0.00000000000E+00  0.00000000000E+00  0.99978843908E+03  0.14011760031E+04  0.98169102503E+03 0.  0.
        1    1    3    3  502    0  0.41967590300E+03  0.50341898433E+02  0.85605603257E+03  0.95472200206E+03  0.50400001928E-02 0.  1.
       -1    1    3    3    0  502 -0.41967590300E+03 -0.50341898433E+02  0.14373240651E+03  0.44645400099E+03  0.50400001928E-02 0. -1.
</event>
<event>
 5   0  0.9471140E-03  0.1014290E+04  0.7818609E-02  0.9293009E-01
       -1   -1    0    0    0  501  0.00000000000E+00  0.00000000000E+00  0.44429565314E+03  0.44429565317E+03  0.50400001928E-02 0. -1.
        1   -1    0    0  501    0  0.00000000000E+00  0.00000000000E+00 -0.57888466345E+03  0.57888466347E+03  0.50400001928E-02 0.  1.
    10030    2    1    2    0    0  0.00000000000E+00  0.00000000000E+00 -0.13458901031E+03  0.10231803166E+04  0.10142897804E+04 0.  0.
        4    1    3    3  502    0  0.39698812014E+03  0.30775175657E+03  0.32009082272E+01  0.50231720050E+03  0.12699999809E+01 0. -1.
       -4    1    3    3    0  502 -0.39698812014E+03 -0.30775175657E+03 -0.13778991853E+03  0.52086311614E+03  0.12699999809E+01 0.  1.
</event>
<event>
 5   0  0.1656859E-02  0.1008252E+04  0.7818609E-02  0.9299540E-01
        2   -1    0    0  501    0  0.00000000000E+00  0.00000000000E+00  0.10148355040E+04  0.10148355040E+04  0.25500000920E-02 0. -1.
       -2   -1    0    0    0  501  0.00000000000E+00  0.00000000000E+00 -0.25042769829E+03  0.25042769830E+03  0.25500000920E-02 0.  1.
    10030    2    1    2    0    0  0.00000000000E+00  0.00000000000E+00  0.76440780572E+03  0.12652632023E+04  0.10082517928E+04 0.  0.
        4    1    3    3  502    0 -0.38622582476E+03  0.10248162597E+03  0.76790887323E+03  0.86565496698E+03  0.12699999809E+01 0. -1.
       -4    1    3    3    0  502  0.38622582476E+03 -0.10248162597E+03 -0.35010675120E+01  0.39960823533E+03  0.12699999809E+01 0.  1.
</event>
<event>
 5   0  0.1656859E-02  0.1016007E+04  0.7818609E-02  0.9291160E-01
       -2   -1    0    0    0  501  0.00000000000E+00  0.00000000000E+00  0.35271854104E+03  0.35271854105E+03  0.25500000920E-02 0. -1.
        2   -1    0    0  501    0  0.00000000000E+00  0.00000000000E+00 -0.73165363378E+03  0.73165363379E+03  0.25500000920E-02 0.  1.
    10030    2    1    2    0    0  0.00000000000E+00  0.00000000000E+00 -0.37893509274E+03  0.10843721748E+04  0.10160074847E+04 0.  0.
        4    1    3    3  502    0 -0.40304492905E+03  0.86326357738E+02 -0.50637960261E+03  0.65293136677E+03  0.12699999809E+01 0.  1.
       -4    1    3    3    0  502  0.40304492905E+03 -0.86326357738E+02  0.12744450987E+03  0.43144080807E+03  0.12699999809E+01 0. -1.
</event>
<event>
 5   0  0.1617721E-02  0.1023558E+04  0.7818609E-02  0.9283078E-01
        2   -1    0    0  501    0  0.00000000000E+00  0.00000000000E+00  0.16631591047E+04  0.16631591047E+04  0.25500000920E-02 0. -1.
       -2   -1    0    0    0  501  0.00000000000E+00  0.00000000000E+00 -0.15748207607E+03  0.15748207609E+03  0.25500000920E-02 0.  1.
    10030    2    1    2    0    0  0.00000000000E+00  0.00000000000E+00  0.15056770286E+04  0.18206411808E+04  0.10235580075E+04 0.  0.
        5    1    3    3  502    0  0.19233117465E+03 -0.43277403338E+03  0.40787797161E+03  0.62503693845E+03  0.46999998093E+01 0. -1.
       -5    1    3    3    0  502 -0.19233117465E+03  0.43277403338E+03  0.10977990570E+04  0.11956042423E+04  0.46999998093E+01 0.  1.
</event>
<event>
 5   0  0.1663497E-02  0.9893265E+03  0.7818609E-02  0.9320329E-01
       -2   -1    0    0    0  501  0.00000000000E+00  0.00000000000E+00  0.26862232667E+03  0.26862232668E+03  0.25500000920E-02 0.  1.
        2   -1    0    0  501    0  0.00000000000E+00  0.00000000000E+00 -0.91091360664E+03  0.91091360664E+03  0.25500000920E-02 0. -1.
    10030    2    1    2    0    0  0.00000000000E+00  0.00000000000E+00 -0.64229127997E+03  0.11795359333E+04  0.98932650307E+03 0.  0.
        1    1    3    3  502    0 -0.35276866513E+03 -0.33067359494E+03 -0.44562696492E+03  0.65755163248E+03  0.50400001928E-02 0. -1.
       -1    1    3    3    0  502  0.35276866513E+03  0.33067359494E+03 -0.19666431505E+03  0.52198430084E+03  0.50400001928E-02 0.  1.
</event>
<event>
 5   0  0.9396660E-03  0.9952151E+03  0.7818609E-02  0.9313808E-01
        1   -1    0    0  501    0  0.00000000000E+00  0.00000000000E+00  0.13305305123E+04  0.13305305123E+04  0.50400001928E-02 0.  1.
       -1   -1    0    0    0  501  0.00000000000E+00  0.00000000000E+00 -0.18610117085E+03  0.18610117091E+03  0.50400001928E-02 0. -1.
    10030    2    1    2    0    0  0.00000000000E+00  0.00000000000E+00  0.11444293415E+04  0.15166316832E+04  0.99521512498E+03 0.  0.
        5    1    3    3  502    0 -0.13278249050E+03  0.12947422229E+03  0.12758588882E+04  0.12892760592E+04  0.46999998093E+01 0.  1.
       -5    1    3    3    0  502  0.13278249050E+03 -0.12947422229E+03 -0.13142954679E+03  0.22735562406E+03  0.46999998093E+01 0. -1.
</event>
<event>
 5   0  0.1617721E-02  0.9913432E+03  0.7818609E-02  0.9318091E-01
        2   -1    0    0  501    0  0.00000000000E+00  0.00000000000E+00  0.10896753627E+04  0.10896753627E+04  0.25500000920E-02 0. -1.
       -2   -1    0    0    0  501  0.00000000000E+00  0.00000000000E+00 -0.22547115028E+03  0.22547115030E+03  0.25500000920E-02 0.  1.
    10030    2    1    2    0    0  0.00000000000E+00  0.00000000000E+00  0.86420421239E+03  0.13151465130E+04  0.99134324524E+03 0.  0.
        5    1    3    3  502    0 -0.18238463988E+03  0.45457365560E+03  0.53284661433E+03  0.72377411506E+03  0.46999998093E+01 0. -1.
       -5    1    3    3    0  502  0.18238463988E+03 -0.45457365560E+03  0.33135759806E+03  0.59137239792E+03  0.46999998093E+01 0.  1.
</event>
<event>
 5   0  0.6314750E-03  0.1014457E+04  0.7818609E-02  0.9292829E-01
        4   -1    0    0  501    0  0.00000000000E+00  0.00000000000E+00  0.26272749386E+03  0.26273056337E+03  0.12699999809E+01 0. -1.
       -4   -1    0    0    0  501  0.00000000000E+00  0.00000000000E+00 -0.97926008249E+03  0.97926090602E+03  0.12699999809E+01 0.  1.
    10030    2    1    2    0    0  0.00000000000E+00  0.00000000000E+00 -0.71653258863E+03  0.12419914694E+04  0.10144574212E+04 0.  0.
        5    1    3    3  502    0  0.43203350306E+03  0.15707325489E+03 -0.95873718565E+02  0.46961560353E+03  0.46999998093E+01 0. -1.
       -5    1    3    3    0  502 -0.43203350306E+03 -0.15707325489E+03 -0.62065887007E+03  0.77237586586E+03  0.46999998093E+01 0.  1.
</event>
<event>
 5   0  0.1617721E-02  0.9558625E+03  0.7818609E-02  0.9358324E-01
        2   -1    0    0  501    0  0.00000000000E+00  0.00000000000E+00  0.15624732833E+04  0.15624732833E+04  0.25500000920E-02 0.  1.
       -2   -1    0    0    0  501  0.00000000000E+00  0.00000000000E+00 -0.14619020279E+03  0.14619020282E+03  0.25500000920E-02 0. -1.
    10030    2    1    2    0    0  0.00000000000E+00  0.00000000000E+00  0.14162830805E+04  0.17086634862E+04  0.95586251348E+03 0.  0.
        5    1    3    3  502    0  0.22059063468E+03 -0.22446885298E+03  0.13510421315E+04  0.13872214766E+04  0.46999998093E+01 0.  1.
       -5    1    3    3    0  502 -0.22059063468E+03  0.22446885298E+03  0.65240949031E+02  0.32144200954E+03  0.46999998093E+01 0. -1.
</event>
<event>
 5   0  0.1000773E-02  0.9724895E+03  0.7818609E-02  0.9339243E-01
       -1   -1    0    0    0  501  0.00000000000E+00  0.00000000000E+00  0.46237202920E+03  0.46237202923E+03  0.50400001928E-02 0.  1.
        1   -1    0    0  501    0  0.00000000000E+00  0.00000000000E+00 -0.51135003333E+03  0.51135003336E+03  0.50400001928E-02 0. -1.
    10030    2    1    2    0    0  0.00000000000E+00  0.00000000000E+00 -0.48978004135E+02  0.97372206258E+03  0.97248949109E+03 0.  0.
        3    1    3    3  502    0 -0.29684864755E+03 -0.34517720759E+03  0.14651246329E+03  0.47825969545E+03  0.10100000352E+00 0.  1.
       -3    1    3    3    0  502  0.29684864755E+03  0.34517720759E+03 -0.19549046742E+03  0.49546236713E+03  0.10100000352E+00 0. -1.
</event>
<event>
 5   0  0.9471140E-03  0.1060099E+04  0.7818609E-02  0.9244979E-01
        1   -1    0    0  501    0  0.00000000000E+00  0.00000000000E+00  0.29711494501E+03  0.29711494505E+03  0.50400001928E-02 0.  1.
       -1   -1    0    0    0  501  0.00000000000E+00  0.00000000000E+00 -0.94560223154E+03  0.94560223155E+03  0.50400001928E-02 0. -1.
    10030    2    1    2    0    0  0.00000000000E+00  0.00000000000E+00 -0.64848728654E+03  0.12427171766E+04  0.10600991558E+04 0.  0.
        4    1    3    3  502    0  0.14609596806E+03 -0.19875166636E+03 -0.87421548725E+03  0.90835047631E+03  0.12699999809E+01 0. -1.
       -4    1    3    3    0  502 -0.14609596806E+03  0.19875166636E+03  0.22572820072E+03  0.33436670029E+03  0.12699999809E+01 0.  1.
</event>
<event>
 5   0  0.1000773E-02  0.9878538E+03  0.7818609E-02  0.9321968E-01
       -1   -1    0    0    0  501  0.00000000000E+00  0.00000000000E+00  0.22995617231E+03  0.22995617236E+03  0.50400001928E-02 0.  1.
        1   -1    0    0  501    0  0.00000000000E+00  0.00000000000E+00 -0.10609142728E+04  0.10609142729E+04  0.50400001928E-02 0. -1.
    10030    2    1    2    0    0  0.00000000000E+00  0.00000000000E+00 -0.83095810053E+03  0.12908704452E+04  0.98785380573E+03 0.  0.
        3    1    3    3  502    0 -0.28461615756E+03 -0.16617696285E+03  0.65257667699E+02  0.33597576330E+03  0.10100000352E+00 0. -1.
       -3    1    3    3    0  502  0.28461615756E+03  0.16617696285E+03 -0.89621576823E+03  0.95489468192E+03  0.10100000352E+00 0.  1.
</event>
<event>
 5   0  0.1000773E-02  0.1010256E+04  0.7818609E-02  0.9297368E-01
       -1   -1    0    0    0  501  0.00000000000E+00  0.00000000000E+00  0.23301428697E+03  0.23301428703E+03  0.50400001928E-02 0. -1.
        1   -1    0    0  501    0  0.00000000000E+00  0.00000000000E+00 -0.10950147871E+04  0.10950147871E+04  0.50400001928E-02 0.  1.
    10030    2    1    2    0    0  0.00000000000E+00  0.00000000000E+00 -0.86200050015E+03  0.13280290742E+04  0.10102555912E+04 0.  0.
        3    1    3    3  502    0 -0.28057919651E+03 -0.38635024726E+03 -0.64765301342E+03  0.80464006554E+03  0.10100000352E+00 0.  1.
       -3    1    3    3    0  502  0.28057919651E+03  0.38635024726E+03 -0.21434748673E+03  0.52338900862E+03  0.10100000352E+00 0. -1.
</event>
<event>
 5   0  0.1571895E-02  0.9044135E+03  0.7818609E-02  0.9420081E-01
        2   -1    0    0  501    0  0.00000000000E+00  0.00000000000E+00  0.19648331020E+04  0.19648331020E+04  0.25500000920E-02 0. -1.
       -2   -1    0    0    0  501  0.00000000000E+00  0.00000000000E+00 -0.10407548452E+03  0.10407548455E+03  0.25500000920E-02 0.  1.
    10030    2    1    2    0    0  0.00000000000E+00  0.00000000000E+00  0.18607576175E+04  0.20689085866E+04  0.90441352736E+03 0.  0.
        2    1    3    3  502    0 -0.33106357649E+03  0.28417310690E+03  0.65842241145E+03  0.78985917622E+03  0.25500000920E-02 0.  1.
       -2    1    3    3    0  502  0.33106357649E+03 -0.28417310690E+03  0.12023352060E+04  0.12790494103E+04  0.25500000920E-02 0. -1.
</event>
<event>
 5   0  0.9396660E-03  0.1008666E+04  0.7818609E-02  0.9299090E-01
       -1   -1    0    0    0  501  0.00000000000E+00  0.00000000000E+00  0.37092806839E+03  0.37092806843E+03  0.50400001928E-02 0. -1.
        1   -1    0    0  501    0  0.00000000000E+00  0.00000000000E+00 -0.68571771525E+03  0.68571771526E+03  0.50400001928E-02 0.  1.
    10030    2    1    2    0    0  0.00000000000E+00  0.00000000000E+00 -0.31478964685E+03  0.10566457837E+04  0.10086663425E+04 0.  0.
        5    1    3    3  502    0 -0.38752203729E+03  0.30138186865E+03 -0.27832191581E+03  0.56434877421E+03  0.46999998093E+01 0.  1.
       -5    1    3    3    0  502  0.38752203729E+03 -0.30138186865E+03 -0.36467731047E+02  0.49229700948E+03  0.46999998093E+01 0. -1.
</event>
<event>
 5   0  0.9759443E-03  0.9819199E+03  0.7818609E-02  0.9328600E-01
        1   -1    0    0  501    0  0.00000000000E+00  0.00000000000E+00  0.11162339804E+04  0.11162339804E+04  0.50400001928E-02 0. -1.
       -1   -1    0    0    0  501  0.00000000000E+00  0.00000000000E+00 -0.21594187053E+03  0.21594187059E+03  0.50400001928E-02 0.  1.
    10030    2    1    2    0    0  0.00000000000E+00  0.00000000000E+00  0.90029210986E+03  0.13321758510E+04  0.98191986175E+03 0.  0.
        2    1    3    3  502    0  0.36479202103E+03 -0.17494693295E+03  0.72791694698E+02  0.41106967630E+03  0.25500000920E-02 0.  1.
       -2    1    3    3    0  502 -0.36479202103E+03  0.17494693295E+03  0.82750041516E+03  0.92110617469E+03  0.25500000920E-02 0. -1.
</event>
<event>
 5   0  0.1000773E-02  0.5410094E+03  0.7818609E-02  0.1003597E+00
        1   -1    0    0  501    0  0.00000000000E+00  0.00000000000E+00  0.75576797770E+03  0.75576797772E+03  0.50400001928E-02 0. -1.
       -1   -1    0    0    0  501  0.00000000000E+00  0.00000000000E+00 -0.96819118844E+02  0.96819118975E+02  0.50400001928E-02 0.  1.
    10030    2    1    2    0    0  0.00000000000E+00  0.00000000000E+00  0.65894885886E+03  0.85258709669E+03  0.54100938888E+03 0.  0.
        3    1    3    3  502    0  0.10281708712E+03 -0.22684589944E+02  0.72214984854E+03  0.72978514507E+03  0.10100000352E+00 0. -1.
       -3    1    3    3    0  502 -0.10281708712E+03  0.22684589944E+02 -0.63200989680E+02  0.12280195162E+03  0.10100000352E+00 0.  1.
</event>
<event>
 5   0  0.1663497E-02  0.9064706E+03  0.7818609E-02  0.9417529E-01
       -2   -1    0    0    0  501  0.00000000000E+00  0.00000000000E+00  0.43227864391E+03  0.43227864391E+03  0.25500000920E-02 0. -1.
        2   -1    0    0  501    0  0.00000000000E+00  0.00000000000E+00 -0.47520788098E+03  0.47520788099E+03  0.25500000920E-02 0.  1.
    10030    2    1    2    0    0  0.00000000000E+00  0.00000000000E+00 -0.42929237072E+02  0.90748652490E+03  0.90647055853E+03 0.  0.
        1    1    3    3  502    0  0.31877758851E+02  0.94041184132E+02  0.42125526816E+03  0.43280011183E+03  0.50400001928E-02 0. -1.
       -1    1    3    3    0  502 -0.31877758851E+02 -0.94041184132E+02 -0.46418450524E+03  0.47468641307E+03  0.50400001928E-02 0.  1.
</event>
<event>
 5   0  0.1571895E-02  0.9875967E+03  0.7818609E-02  0.9322254E-01
       -2   -1    0    0    0  501  0.00000000000E+00  0.00000000000E+00  0.24596905900E+03  0.24596905901E+03  0.25500000920E-02 0. -1.
        2   -1    0    0  501    0  0.00000000000E+00  0.00000000000E+00 -0.99133128926E+03  0.99133128927E+03  0.25500000920E-02 0.  1.
    10030    2    1    2    0    0  0.00000000000E+00  0.00000000000E+00 -0.74536223026E+03  0.12373003483E+04  0.98759672819E+03 0.  0.
        2    1    3    3  502    0  0.16863004577E+02  0.24560491687E+03  0.16360258744E+03  0.29558745362E+03  0.25500000920E-02 0. -1.
       -2    1    3    3    0  502 -0.16863004577E+02 -0.24560491687E+03 -0.90896481771E+03  0.94171289465E+03  0.25500000920E-02 0.  1.
</event>
<event>
 5   0  0.1000773E-02  0.9481241E+03  0.7818609E-02  0.9367346E-01
       -1   -1    0    0    0  501  0.00000000000E+00  0.00000000000E+00  0.22835374867E+03  0.22835374873E+03  0.50400001928E-02 0. -1.
        1   -1    0    0  501    0  0.00000000000E+00  0.00000000000E+00 -0.98415209110E+03  0.98415209111E+03  0.50400001928E-02 0.  1.
    10030    2    1    2    0    0  0.00000000000E+00  0.00000000000E+00 -0.75579834242E+03  0.12125058398E+04  0.94812408324E+03 0.  0.
        3    1    3    3  502    0  0.26890443729E+03  0.18304247043E+03 -0.81890804526E+03  0.88114955550E+03  0.10100000352E+00 0.  1.
       -3    1    3    3    0  502 -0.26890443729E+03 -0.18304247043E+03  0.63109702838E+02  0.33135628433E+03  0.10100000352E+00 0. -1.
</event>
<event>
 5   0  0.1663497E-02  0.9827989E+03  0.7818609E-02  0.9327614E-01
        2   -1    0    0  501    0  0.00000000000E+00  0.00000000000E+00  0.37723964061E+03  0.37723964062E+03  0.25500000920E-02 0. -1.
       -2   -1    0    0    0  501  0.00000000000E+00  0.00000000000E+00 -0.64010622140E+03  0.64010622141E+03  0.25500000920E-02 0.  1.
    10030    2    1    2    0    0  0.00000000000E+00  0.00000000000E+00 -0.26286658079E+03  0.10173458620E+04  0.98279894367E+03 0.  0.
        1    1    3    3  502    0 -0.40892153446E+02  0.61402100423E+02 -0.63434125715E+03  0.63861664299E+03  0.50400001928E-02 0.  1.
       -1    1    3    3    0  502  0.40892153446E+02 -0.61402100423E+02  0.37147467636E+03  0.37872921904E+03  0.50400001928E-02 0. -1.
</event>
<event>
 5   0  0.9507815E-03  0.9909013E+03  0.7818609E-02  0.9318581E-01
        1   -1    0    0  501    0  0.00000000000E+00  0.00000000000E+00  0.40722918043E+03  0.40722918046E+03  0.50400001928E-02 0.  1.
       -1   -1    0    0    0  501  0.00000000000E+00  0.00000000000E+00 -0.60278432237E+03  0.60278432239E+03  0.50400001928E-02 0. -1.
    10030    2    1    2    0    0  0.00000000000E+00  0.00000000000E+00 -0.19555514194E+03  0.10100135028E+04  0.99090133838E+03 0.  0.
        1    1    3    3  502    0 -0.44780254606E+03  0.17857255914E+03 -0.21424467402E+03  0.52755668843E+03  0.50400001928E-02 0. -1.
       -1    1    3    3    0  502  0.44780254606E+03 -0.17857255914E+03  0.18689532084E+02  0.48245681441E+03  0.50400001928E-02 0.  1.
</event>
<event>
 5   0  0.1000773E-02  0.1012854E+04  0.7818609E-02  0.9294558E-01
       -1   -1    0    0    0  501  0.00000000000E+00  0.00000000000E+00  0.64538327473E+03  0.64538327475E+03  0.50400001928E-02 0.  1.
        1   -1    0    0  501    0  0.00000000000E+00  0.00000000000E+00 -0.39738931411E+03  0.39738931414E+03  0.50400001928E-02 0. -1.
    10030    2    1    2    0    0  0.00000000000E+00  0.00000000000E+00  0.24799396061E+03  0.10427725889E+04  0.10128542184E+04 0.  0.
        3    1    3    3  502    0  0.24223860398E+03 -0.43771858516E+03  0.20500607668E+03  0.54065201630E+03  0.10100000352E+00 0.  1.
       -3    1    3    3    0  502 -0.24223860398E+03  0.43771858516E+03  0.42987883937E+02  0.50212057259E+03  0.10100000352E+00 0. -1.
</event>
<event>
 5   0  0.1656859E-02  0.1002974E+04  0.7818609E-02  0.9305289E-01
       -2   -1    0    0    0  501  0.00000000000E+00  0.00000000000E+00  0.30118770937E+03  0.30118770939E+03  0.25500000920E-02 0.  1.
        2   -1    0    0  501    0  0.00000000000E+00  0.00000000000E+00 -0.83499127413E+03  0.83499127413E+03  0.25500000920E-02 0. -1.
    10030    2    1    2    0    0  0.00000000000E+00  0.00000000000E+00 -0.53380356475E+03  0.11361789835E+04  0.10029737967E+04 0.  0.
        4    1    3    3  502    0 -0.30923533639E+03  0.39162790767E+03 -0.21039072905E+03  0.54153927198E+03  0.12699999809E+01 0. -1.
       -4    1    3    3    0  502  0.30923533639E+03 -0.39162790767E+03 -0.32341283570E+03  0.59463971153E+03  0.12699999809E+01 0.  1.
</event>
<event>
 5   0  0.6314750E-03  0.6155293E+03  0.7818609E-02  0.9873701E-01
        4   -1    0    0  501    0  0.00000000000E+00  0.00000000000E+00  0.43526733054E+03  0.43526918331E+03  0.12699999809E+01 0. -1.
       -4   -1    0    0    0  501  0.00000000000E+00  0.00000000000E+00 -0.21760712973E+03  0.21761083569E+03  0.12699999809E+01 0.  1.
    10030    2    1    2    0    0  0.00000000000E+00  0.00000000000E+00  0.21766020081E+03  0.65288001899E+03  0.61552933007E+03 0.  0.
        2    1    3    3  502    0  0.14118275632E+02  0.29477530571E+03  0.16196287418E+02  0.29555731474E+03  0.25500000920E-02 0.  1.
       -2    1    3    3    0  502 -0.14118275632E+02 -0.29477530571E+03  0.20146391339E+03  0.35732270425E+03  0.25500000920E-02 0. -1.
</event>
<event>
 5   0  0.6314750E-03  0.1037605E+04  0.7818609E-02  0.9268236E-01
        3   -1    0    0  501    0  0.00000000000E+00  0.00000000000E+00  0.20847481075E+03  0.20847483521E+03  0.10100000352E+00 0.  1.
       -3   -1    0    0    0  501  0.00000000000E+00  0.00000000000E+00 -0.12910712627E+04  0.12910712666E+04  0.10100000352E+00 0. -1.
    10030    2    1    2    0    0  0.00000000000E+00  0.00000000000E+00 -0.10825964519E+04  0.14995461018E+04  0.10376046616E+04 0.  0.
        1    1    3    3  502    0  0.38525889886E+03 -0.60485500747E+02 -0.10357867041E+04  0.11067687254E+04  0.50400001928E-02 0. -1.
       -1    1    3    3    0  502 -0.38525889886E+03  0.60485500747E+02 -0.46809747791E+02  0.39277737647E+03  0.50400001928E-02 0.  1.
</event>
<event>
 5   0  0.1663497E-02  0.9809490E+03  0.7818609E-02  0.9329690E-01
       -2   -1    0    0    0  501  0.00000000000E+00  0.00000000000E+00  0.28591566201E+03  0.28591566202E+03  0.25500000920E-02 0. -1.
        2   -1    0    0  501    0  0.00000000000E+00  0.00000000000E+00 -0.84138531580E+03  0.84138531580E+03  0.25500000920E-02 0.  1.
    10030    2    1    2    0    0  0.00000000000E+00  0.00000000000E+00 -0.55546965380E+03  0.11273009778E+04  0.98094900903E+03 0.  0.
        1    1    3    3  502    0 -0.20453693729E+03 -0.24974917552E+02 -0.78923102822E+03  0.81568665623E+03  0.50400001928E-02 0.  1.
       -1    1    3    3    0  502  0.20453693729E+03  0.24974917552E+02  0.23376137442E+03  0.31161432159E+03  0.50400001928E-02 0. -1.
</event>
<event>
 5   0  0.1617721E-02  0.9962684E+03  0.7818609E-02  0.9312647E-01
       -2   -1    0    0    0  501  0.00000000000E+00  0.00000000000E+00  0.17587476847E+03  0.17587476849E+03  0.25500000920E-02 0.  1.
        2   -1    0    0  501    0  0.00000000000E+00  0.00000000000E+00 -0.14108771013E+04  0.14108771013E+04  0.25500000920E-02 0. -1.
    10030    2    1    2    0    0  0.00000000000E+00  0.00000000000E+00 -0.12350023328E+04  0.15867518698E+04  0.99626840469E+03 0.  0.
        5    1    3    3  502    0 -0.32383238697E+03 -0.64314018828E+02 -0.12115399226E+04  0.12557287852E+04  0.46999998093E+01 0. -1.
       -5    1    3    3    0  502  0.32383238697E+03  0.64314018828E+02 -0.23462410251E+02  0.33102308463E+03  0.46999998093E+01 0.  1.
</event>
<event>
 5   0  0.1656859E-02  0.1056881E+04  0.7818609E-02  0.9248269E-01
       -2   -1    0    0    0  501  0.00000000000E+00  0.00000000000E+00  0.15269626022E+03  0.15269626024E+03  0.25500000920E-02 0.  1.
        2   -1    0    0  501    0  0.00000000000E+00  0.00000000000E+00 -0.18287885637E+04  0.18287885637E+04  0.25500000920E-02 0. -1.
    10030    2    1    2    0    0  0.00000000000E+00  0.00000000000E+00 -0.16760923034E+04  0.19814848239E+04  0.10568806450E+04 0.  0.
        4    1    3    3  502    0  0.15317650877E+03  0.50366916699E+03 -0.75209144049E+03  0.91803530454E+03  0.12699999809E+01 0.  1.
       -4    1    3    3    0  502 -0.15317650877E+03 -0.50366916699E+03 -0.92400086295E+03  0.10634495194E+04  0.12699999809E+01 0. -1.
</event>
<event>
 5   0  0.1000773E-02  0.9892739E+03  0.7818609E-02  0.9320388E-01
        1   -1    0    0  501    0  0.00000000000E+00  0.00000000000E+00  0.89658298777E+03  0.89658298779E+03  0.50400001928E-02 0.  1.
       -1   -1    0    0    0  501  0.00000000000E+00  0.00000000000E+00 -0.27288686753E+03  0.27288686757E+03  0.50400001928E-02 0. -1.
    10030    2    1    2    0    0  0.00000000000E+00  0.00000000000E+00  0.62369612025E+03  0.11694698554E+04  0.98927392171E+03 0.  0.
        3    1    3    3  502    0  0.28631130054E+03 -0.28101445030E+03 -0.30204925436E+02  0.40231285067E+03  0.10100000352E+00 0. -1.
       -3    1    3    3    0  502 -0.28631130054E+03  0.28101445030E+03  0.65390104568E+03  0.76715700469E+03  0.10100000352E+00 0.  1.
</event>
<event>
 5   0  0.1000773E-02  0.1036694E+04  0.7818609E-02  0.9269190E-01
       -1   -1    0    0    0  501  0.00000000000E+00  0.00000000000E+00  0.27252743070E+03  0.27252743075E+03  0.50400001928E-02 0.  1.
        1   -1    0    0  501    0  0.00000000000E+00  0.00000000000E+00 -0.98589656301E+03  0.98589656302E+03  0.50400001928E-02 0. -1.
    10030    2    1    2    0    0  0.00000000000E+00  0.00000000000E+00 -0.71336913230E+03  0.12584239938E+04  0.10366944724E+04 0.  0.
        3    1    3    3  502    0  0.13849852321E+03  0.69485507521E+02  0.24375584615E+03  0.28883732345E+03  0.10100000352E+00 0.  1.
       -3    1    3    3    0  502 -0.13849852321E+03 -0.69485507521E+02 -0.95712497845E+03  0.96958667032E+03  0.10100000352E+00 0. -1.
</event>
<event>
 5   0  0.1598986E-02  0.1027276E+04  0.7818609E-02  0.9279125E-01
       -2   -1    0    0    0  501  0.00000000000E+00  0.00000000000E+00  0.15051817906E+03  0.15051817908E+03  0.25500000920E-02 0. -1.
        2   -1    0    0  501    0  0.00000000000E+00  0.00000000000E+00 -0.17527710702E+04  0.17527710702E+04  0.25500000920E-02 0.  1.
    10030    2    1    2    0    0  0.00000000000E+00  0.00000000000E+00 -0.16022528911E+04  0.19032892493E+04  0.10272758341E+04 0.  0.
        3    1    3    3  502    0  0.47460552697E+03  0.92443779222E+02 -0.48007226406E+03  0.68137041869E+03  0.10100000352E+00 0. -1.
       -3    1    3    3    0  502 -0.47460552697E+03 -0.92443779222E+02 -0.11221806271E+04  0.12219188306E+04  0.10100000352E+00 0.  1.
</event>
<event>
 5   0  0.1656859E-02  0.1009050E+04  0.7818609E-02  0.9298674E-01
       -2   -1    0    0    0  501  0.00000000000E+00  0.00000000000E+00  0.34478535251E+03  0.34478535252E+03  0.25500000920E-02 0. -1.
        2   -1    0    0  501    0  0.00000000000E+00  0.00000000000E+00 -0.73827296721E+03  0.73827296721E+03  0.25500000920E-02 0.  1.
    10030    2    1    2    0    0  0.00000000000E+00  0.00000000000E+00 -0.39348761470E+03  0.10830583197E+04  0.10090504551E+04 0.  0.
        4    1    3    3  502    0 -0.17392876412E+03 -0.21644687079E+02  0.31105614994E+03  0.35703956193E+03  0.12699999809E+01 0. -1.
       -4    1    3    3    0  502  0.17392876412E+03  0.21644687079E+02 -0.70454376464E+03  0.72601875779E+03  0.12699999809E+01 0.  1.
</event>
<event>
 5   0  0.9759443E-03  0.1122537E+04  0.7818609E-02  0.9183500E-01
       -1   -1    0    0    0  501  0.00000000000E+00  0.00000000000E+00  0.57982947133E+03  0.57982947135E+03  0.50400001928E-02 0.  1.
        1   -1    0    0  501    0  0.00000000000E+00  0.00000000000E+00 -0.54330212315E+03  0.54330212317E+03  0.50400001928E-02 0. -1.
    10030    2    1    2    0    0  0.00000000000E+00  0.00000000000E+00  0.36527348180E+02  0.11231315945E+04  0.11225374521E+04 0.  0.
        2    1    3    3  502    0 -0.18951953043E+03 -0.35269984937E+03  0.41180091383E+03  0.57436471758E+03  0.25500000920E-02 0.  1.
       -2    1    3    3    0  502  0.18951953043E+03  0.35269984937E+03 -0.37527356565E+03  0.54876687695E+03  0.25500000920E-02 0. -1.
</event>
<event>
 5   0  0.9507815E-03  0.9616273E+03  0.7818609E-02  0.9351662E-01
        1   -1    0    0  501    0  0.00000000000E+00  0.00000000000E+00  0.79439828132E+03  0.79439828134E+03  0.50400001928E-02 0. -1.
       -1   -1    0    0    0  501  0.00000000000E+00  0.00000000000E+00 -0.29101495606E+03  0.29101495611E+03  0.50400001928E-02 0.  1.
    10030    2    1    2    0    0  0.00000000000E+00  0.00000000000E+00  0.50338332526E+03  0.10854132374E+04  0.96162733107E+03 0.  0.
        1    1    3    3  502    0  0.14911757852E+02  0.22751726557E+03  0.72949770794E+03  0.76429926898E+03  0.50400001928E-02 0. -1.
       -1    1    3    3    0  502 -0.14911757852E+02 -0.22751726557E+03 -0.22611438268E+03  0.32111396846E+03  0.50400001928E-02 0.  1.
</event>
<event>
 5   0  0.9759443E-03  0.9580975E+03  0.7818609E-02  0.9355736E-01
       -1   -1    0    0    0  501  0.00000000000E+00  0.00000000000E+00  0.72090201502E+03  0.72090201504E+03  0.50400001928E-02 0. -1.
        1   -1    0    0  501    0  0.00000000000E+00  0.00000000000E+00 -0.31833408797E+03  0.31833408801E+03  0.50400001928E-02 0.  1.
    10030    2    1    2    0    0  0.00000000000E+00  0.00000000000E+00  0.40256792705E+03  0.10392361030E+04  0.95809745955E+03 0.  0.
        2    1    3    3  502    0 -0.33161526003E+03 -0.88817558721E+02 -0.16112244364E+03  0.37923301712E+03  0.25500000920E-02 0.  1.
       -2    1    3    3    0  502  0.33161526003E+03  0.88817558721E+02  0.56369037069E+03  0.66000308593E+03  0.25500000920E-02 0. -1.
</event>
<event>
 5   0  0.6314750E-03  0.6545282E+03  0.7818609E-02  0.9798319E-01
        3   -1    0    0  501    0  0.00000000000E+00  0.00000000000E+00  0.11974633555E+03  0.11974637815E+03  0.10100000352E+00 0.  1.
       -3   -1    0    0    0  501  0.00000000000E+00  0.00000000000E+00 -0.89440536344E+03  0.89440536914E+03  0.10100000352E+00 0. -1.
    10030    2    1    2    0    0  0.00000000000E+00  0.00000000000E+00 -0.77465902789E+03  0.10141517473E+04  0.65452819423E+03 0.  0.
        3    1    3    3  502    0  0.24977511272E+03  0.56782662366E+02 -0.70293590251E+03  0.74815156948E+03  0.10100000352E+00 0. -1.
       -3    1    3    3    0  502 -0.24977511272E+03 -0.56782662366E+02 -0.71723125378E+02  0.26600017781E+03  0.10100000352E+00 0.  1.
</event>
<event>
 5   0  0.1656859E-02  0.1222374E+04  0.7818609E-02  0.9093495E-01
       -2   -1    0    0    0  501  0.00000000000E+00  0.00000000000E+00  0.78177837360E+03  0.78177837360E+03  0.25500000920E-02 0. -1.
        2   -1    0    0  501    0  0.00000000000E+00  0.00000000000E+00 -0.47781992976E+03  0.47781992976E+03  0.25500000920E-02 0.  1.
    10030    2    1    2    0    0  0.00000000000E+00  0.00000000000E+00  0.30395844384E+03  0.12595983034E+04  0.12223735723E+04 0.  0.
        4    1    3    3  502    0 -0.52476152656E+03  0.29760859950E+03  0.51004642969E+02  0.60543259307E+03  0.12699999809E+01 0.  1.
       -4    1    3    3    0  502  0.52476152656E+03 -0.29760859950E+03  0.25295380087E+03  0.65416571029E+03  0.12699999809E+01 0. -1.
</event>
<event>
 5   0  0.1656859E-02  0.9977067E+03  0.7818609E-02  0.9311064E-01
       -2   -1    0    0    0  501  0.00000000000E+00  0.00000000000E+00  0.28973619587E+03  0.28973619588E+03  0.25500000920E-02 0.  1.
        2   -1    0    0  501    0  0.00000000000E+00  0.00000000000E+00 -0.85890091565E+03  0.85890091566E+03  0.25500000920E-02 0. -1.
    10030    2    1    2    0    0  0.00000000000E+00  0.00000000000E+00 -0.56916471978E+03  0.11486371115E+04  0.99770673835E+03 0.  0.
        4    1    3    3  502    0  0.41957753929E+03 -0.26973141359E+03 -0.27622277990E+03  0.57017627449E+03  0.12699999809E+01 0.  1.
       -4    1    3    3    0  502 -0.41957753929E+03  0.26973141359E+03 -0.29294193988E+03  0.57846083705E+03  0.12699999809E+01 0. -1.
</event>
<event>
 5   0  0.1617721E-02  0.9398487E+03  0.7818609E-02  0.9377095E-01
       -2   -1    0    0    0  501  0.00000000000E+00  0.00000000000E+00  0.24436785900E+03  0.24436785901E+03  0.25500000920E-02 0.  1.
        2   -1    0    0  501    0  0.00000000000E+00  0.00000000000E+00 -0.90367400925E+03  0.90367400925E+03  0.25500000920E-02 0. -1.
    10030    2    1    2    0    0  0.00000000000E+00  0.00000000000E+00 -0.65930615025E+03  0.11480418683E+04  0.93984867481E+03 0.  0.
        5    1    3    3  502    0  0.10758444022E+03  0.27411388436E+03  0.11765259226E+03  0.31713885892E+03  0.46999998093E+01 0.  1.
       -5    1    3    3    0  502 -0.10758444022E+03 -0.27411388436E+03 -0.77695874251E+03  0.83090300934E+03  0.46999998093E+01 0. -1.
</event>
<event>
 5   0  0.1000773E-02  0.9606764E+03  0.7818609E-02  0.9352758E-01
       -1   -1    0    0    0  501  0.00000000000E+00  0.00000000000E+00  0.15201744419E+03  0.15201744428E+03  0.50400001928E-02 0.  1.
        1   -1    0    0  501    0  0.00000000000E+00  0.00000000000E+00 -0.15177519851E+04  0.15177519851E+04  0.50400001928E-02 0. -1.
    10030    2    1    2    0    0  0.00000000000E+00  0.00000000000E+00 -0.13657345409E+04  0.16697694294E+04  0.96067638207E+03 0.  0.
        3    1    3    3  502    0  0.22852412043E+03 -0.20976411834E+02  0.50572382560E+02  0.23499119037E+03  0.10100000352E+00 0.  1.
       -3    1    3    3    0  502 -0.22852412043E+03  0.20976411834E+02 -0.14163069235E+04  0.14347782390E+04  0.10100000352E+00 0. -1.
</event>
<event>
 5   0  0.9759443E-03  0.1156450E+04  0.7818609E-02  0.9151854E-01
       -1   -1    0    0    0  501  0.00000000000E+00  0.00000000000E+00  0.55825378889E+03  0.55825378891E+03  0.50400001928E-02 0. -1.
        1   -1    0    0  501    0  0.00000000000E+00  0.00000000000E+00 -0.59891040444E+03  0.59891040446E+03  0.50400001928E-02 0.  1.
    10030    2    1    2    0    0  0.00000000000E+00  0.00000000000E+00 -0.40656615552E+02  0.11571641934E+04  0.11564497438E+04 0.  0.
        2    1    3    3  502    0 -0.53540932820E+03 -0.16250580507E+03 -0.16627010984E+03  0.58370971796E+03  0.25500000920E-02 0.  1.
       -2    1    3    3    0  502  0.53540932820E+03  0.16250580507E+03  0.12561349429E+03  0.57345447541E+03  0.25500000920E-02 0. -1.
</event>
<event>
 5   0  0.1663497E-02  0.9973300E+03  0.7818609E-02  0.9311478E-01
       -2   -1    0    0    0  501  0.00000000000E+00  0.00000000000E+00  0.27679166870E+03  0.27679166871E+03  0.25500000920E-02 0.  1.
        2   -1    0    0  501    0  0.00000000000E+00  0.00000000000E+00 -0.89838977345E+03  0.89838977346E+03  0.25500000920E-02 0. -1.
    10030    2    1    2    0    0  0.00000000000E+00  0.00000000000E+00 -0.62159810475E+03  0.11751814422E+04  0.99733004477E+03 0.  0.
        1    1    3    3  502    0 -0.40322196786E+03 -0.10598929805E+03  0.11565856564E+02  0.41707967552E+03  0.50400001928E-02 0.  1.
       -1    1    3    3    0  502  0.40322196786E+03  0.10598929805E+03 -0.63316396132E+03  0.75810176665E+03  0.50400001928E-02 0. -1.
</event>
<event>
 5   0  0.9471140E-03  0.9597611E+03  0.7818609E-02  0.9353814E-01
       -1   -1    0    0    0  501  0.00000000000E+00  0.00000000000E+00  0.19142062301E+03  0.19142062308E+03  0.50400001928E-02 0. -1.
        1   -1    0    0  501    0  0.00000000000E+00  0.00000000000E+00 -0.12030331732E+04  0.12030331732E+04  0.50400001928E-02 0.  1.
    10030    2    1    2    0    0  0.00000000000E+00  0.00000000000E+00 -0.10116125502E+04  0.13944537963E+04  0.95976113606E+03 0.  0.
        4    1    3    3  502    0  0.26201248056E+03 -0.40013510708E+03 -0.56254643118E+03  0.73838929029E+03  0.12699999809E+01 0.  1.
       -4    1    3    3    0  502 -0.26201248056E+03  0.40013510708E+03 -0.44906611903E+03  0.65606450601E+03  0.12699999809E+01 0. -1.
</event>
<event>
 5   0  0.1656859E-02  0.9815837E+03  0.7818609E-02  0.9328977E-01
       -2   -1    0    0    0  501  0.00000000000E+00  0.00000000000E+00  0.87191359856E+03  0.87191359857E+03  0.25500000920E-02 0.  1.
        2   -1    0    0  501    0  0.00000000000E+00  0.00000000000E+00 -0.27626203902E+03  0.27626203903E+03  0.25500000920E-02 0. -1.
    10030    2    1    2    0    0  0.00000000000E+00  0.00000000000E+00  0.59565155954E+03  0.11481756376E+04  0.98158367672E+03 0.  0.
        4    1    3    3  502    0  0.32392420406E+03  0.53064647947E+02  0.72462406576E+03  0.79550260617E+03  0.12699999809E+01 0.  1.
       -4    1    3    3    0  502 -0.32392420406E+03 -0.53064647947E+02 -0.12897250622E+03  0.35267303143E+03  0.12699999809E+01 0. -1.
</event>
<event>
 5   0  0.6314750E-03  0.9916926E+03  0.7818609E-02  0.9317703E-01
        3   -1    0    0  501    0  0.00000000000E+00  0.00000000000E+00  0.55349592726E+03  0.55349593648E+03  0.10100000352E+00 0.  1.
       -3   -1    0    0    0  501  0.00000000000E+00  0.00000000000E+00 -0.44420120711E+03  0.44420121859E+03  0.10100000352E+00 0. -1.
    10030    2    1    2    0    0  0.00000000000E+00  0.00000000000E+00  0.10929472015E+03  0.99769715507E+03  0.99169263251E+03 0.  0.
        4    1    3    3  502    0 -0.39251846870E+03  0.29485417857E+03 -0.15432295474E+02  0.49117156222E+03  0.12699999809E+01 0. -1.
       -4    1    3    3    0  502  0.39251846870E+03 -0.29485417857E+03  0.12472701563E+03  0.50652559285E+03  0.12699999809E+01 0.  1.
</event>
<event>
 5   0  0.1571895E-02  0.9870618E+03  0.7818609E-02  0.9322850E-01
        2   -1    0    0  501    0  0.00000000000E+00  0.00000000000E+00  0.11094301111E+04  0.11094301111E+04  0.25500000920E-02 0. -1.
       -2   -1    0    0    0  501  0.00000000000E+00  0.00000000000E+00 -0.21954764859E+03  0.21954764861E+03  0.25500000920E-02 0.  1.
    10030    2    1    2    0    0  0.00000000000E+00  0.00000000000E+00  0.88988246256E+03  0.13289777598E+04  0.98706184647E+03 0.  0.
        2    1    3    3  502    0  0.33738939026E+03 -0.28352199645E+03  0.74406112746E+03  0.86477932707E+03  0.25500000920E-02 0. -1.
       -2    1    3    3    0  502 -0.33738939026E+03  0.28352199645E+03  0.14582133509E+03  0.46419843268E+03  0.25500000920E-02 0.  1.
</event>
<event>
 5   0  0.9471140E-03  0.8933575E+03  0.7818609E-02  0.9433923E-01
        1   -1    0    0  501    0  0.00000000000E+00  0.00000000000E+00  0.30928120975E+03  0.30928120979E+03  0.50400001928E-02 0.  1.
       -1   -1    0    0    0  501  0.00000000000E+00  0.00000000000E+00 -0.64511489560E+03  0.64511489562E+03  0.50400001928E-02 0. -1.
    10030    2    1    2    0    0  0.00000000000E+00  0.00000000000E+00 -0.33583368585E+03  0.95439610541E+03  0.89335752164E+03 0.  0.
        4    1    3    3  502    0 -0.75680168153E+02  0.35901570203E+03  0.10424517502E+03  0.38142945818E+03  0.12699999809E+01 0.  1.
       -4    1    3    3    0  502  0.75680168153E+02 -0.35901570203E+03 -0.44007886087E+03  0.57296664723E+03  0.12699999809E+01 0. -1.
</event>
<event>
 5   0  0.1656859E-02  0.1015139E+04  0.7818609E-02  0.9292095E-01
        2   -1    0    0  501    0  0.00000000000E+00  0.00000000000E+00  0.76707904509E+03  0.76707904510E+03  0.25500000920E-02 0. -1.
       -2   -1    0    0    0  501  0.00000000000E+00  0.00000000000E+00 -0.33585411629E+03  0.33585411630E+03  0.25500000920E-02 0.  1.
    10030    2    1    2    0    0  0.00000000000E+00  0.00000000000E+00  0.43122492880E+03  0.11029331614E+04  0.10151387192E+04 0.  0.
        4    1    3    3  502    0  0.33119454393E+03  0.69965928563E+02  0.62652797012E+03  0.71212637034E+03  0.12699999809E+01 0. -1.
       -4    1    3    3    0  502 -0.33119454393E+03 -0.69965928563E+02 -0.19530304132E+03  0.39080679106E+03  0.12699999809E+01 0.  1.
</event>
<event>
 5   0  0.1000773E-02  0.9978955E+03  0.7818609E-02  0.9310856E-01
       -1   -1    0    0    0  501  0.00000000000E+00  0.00000000000E+00  0.33526909732E+03  0.33526909736E+03  0.50400001928E-02 0.  1.
        1   -1    0    0  501    0  0.00000000000E+00  0.00000000000E+00 -0.74253446388E+03  0.74253446389E+03  0.50400001928E-02 0. -1.
    10030    2    1    2    0    0  0.00000000000E+00  0.00000000000E+00 -0.40726536656E+03  0.10778035612E+04  0.99789550447E+03 0.  0.
        3    1    3    3  502    0  0.44047185703E+03 -0.19312438945E+03 -0.60196388505E+02  0.48470207553E+03  0.10100000352E+00 0.  1.
       -3    1    3    3    0  502 -0.44047185703E+03  0.19312438945E+03 -0.34706897805E+03  0.59310148572E+03  0.10100000352E+00 0. -1.
</event>
<event>
 5   0  0.1617721E-02  0.9832163E+03  0.7818609E-02  0.9327147E-01
        2   -1    0    0  501    0  0.00000000000E+00  0.00000000000E+00  0.66131445344E+03  0.66131445345E+03  0.25500000920E-02 0.  1.
       -2   -1    0    0    0  501  0.00000000000E+00  0.00000000000E+00 -0.36545185012E+03  0.36545185012E+03  0.25500000920E-02 0. -1.
    10030    2    1    2    0    0  0.00000000000E+00  0.00000000000E+00  0.29586260333E+03  0.10267663036E+04  0.98321633535E+03 0.  0.
        5    1    3    3  502    0  0.42783444821E+02 -0.48944506627E+03  0.13078438360E+03  0.50844226913E+03  0.46999998093E+01 0. -1.
       -5    1    3    3    0  502 -0.42783444821E+02  0.48944506627E+03  0.16507821973E+03  0.51832403444E+03  0.46999998093E+01 0.  1.
</event>
<event>
 5   0  0.1617721E-02  0.7364072E+03  0.7818609E-02  0.9656920E-01
        2   -1    0    0  501    0  0.00000000000E+00  0.00000000000E+00  0.62352112844E+03  0.62352112845E+03  0.25500000920E-02 0.  1.
       -2   -1    0    0    0  501  0.00000000000E+00  0.00000000000E+00 -0.21743271500E+03  0.21743271502E+03  0.25500000920E-02 0. -1.
    10030    2    1    2    0    0  0.00000000000E+00  0.00000000000E+00  0.40608841344E+03  0.84095384346E+03  0.73640720210E+03 0.  0.
        5    1    3    3  502    0  0.13091129275E+03  0.17857299251E+02  0.59548140589E+03  0.60998101975E+03  0.46999998093E+01 0.  1.
       -5    1    3    3    0  502 -0.13091129275E+03 -0.17857299251E+02 -0.18939299245E+03  0.23097282371E+03  0.46999998093E+01 0. -1.
</event>
<event>
 5   0  0.1663497E-02  0.1003552E+04  0.7818609E-02  0.9304658E-01
       -2   -1    0    0    0  501  0.00000000000E+00  0.00000000000E+00  0.68442165178E+03  0.68442165179E+03  0.25500000920E-02 0.  1.
        2   -1    0    0  501    0  0.00000000000E+00  0.00000000000E+00 -0.36787107011E+03  0.36787107012E+03  0.25500000920E-02 0. -1.
    10030    2    1    2    0    0  0.00000000000E+00  0.00000000000E+00  0.31655058167E+03  0.10522927219E+04  0.10035515442E+04 0.  0.
        1    1    3    3  502    0  0.76483439837E+02  0.25118598240E+03 -0.29008415822E+03  0.39127092046E+03  0.50400001928E-02 0. -1.
       -1    1    3    3    0  502 -0.76483439837E+02 -0.25118598240E+03  0.60663473989E+03  0.66102180145E+03  0.50400001928E-02 0.  1.
</event>
<event>
 5   0  0.9759443E-03  0.8711527E+03  0.7818609E-02  0.9462378E-01
       -1   -1    0    0    0  501  0.00000000000E+00  0.00000000000E+00  0.23292696539E+03  0.23292696544E+03  0.50400001928E-02 0. -1.
        1   -1    0    0  501    0  0.00000000000E+00  0.00000000000E+00 -0.81453329795E+03  0.81453329797E+03  0.50400001928E-02 0.  1.
    10030    2    1    2    0    0  0.00000000000E+00  0.00000000000E+00 -0.58160633257E+03  0.10474602634E+04  0.87115272906E+03 0.  0.
        2    1    3    3  502    0 -0.21745066961E+03 -0.21280938726E+03 -0.66558101298E+03  0.73182696989E+03  0.25500000920E-02 0.  1.
       -2    1    3    3    0  502  0.21745066961E+03  0.21280938726E+03  0.83974680410E+02  0.31563329352E+03  0.25500000920E-02 0. -1.
</event>
<event>
 5   0  0.1000773E-02  0.1073172E+04  0.7818609E-02  0.9231742E-01
        1   -1    0    0  501    0  0.00000000000E+00  0.00000000000E+00  0.10794420438E+04  0.10794420438E+04  0.50400001928E-02 0. -1.
       -1   -1    0    0    0  501  0.00000000000E+00  0.00000000000E+00 -0.26673476909E+03  0.26673476914E+03  0.50400001928E-02 0.  1.
    10030    2    1    2    0    0  0.00000000000E+00  0.00000000000E+00  0.81270727473E+03  0.13461768130E+04  0.10731723521E+04 0.  0.
        3    1    3    3  502    0  0.23792352840E+03  0.46785495397E+03  0.54619901565E+03  0.75751517359E+03  0.10100000352E+00 0. -1.
       -3    1    3    3    0  502 -0.23792352840E+03 -0.46785495397E+03  0.26650825907E+03  0.58866163938E+03  0.10100000352E+00 0.  1.
</event>
<event>
 5   0  0.9507815E-03  0.9924452E+03  0.7818609E-02  0.9316870E-01
       -1   -1    0    0    0  501  0.00000000000E+00  0.00000000000E+00  0.18449431049E+03  0.18449431056E+03  0.50400001928E-02 0.  1.
        1   -1    0    0  501    0  0.00000000000E+00  0.00000000000E+00 -0.13346584368E+04  0.13346584368E+04  0.50400001928E-02 0. -1.
    10030    2    1    2    0    0  0.00000000000E+00  0.00000000000E+00 -0.11501641263E+04  0.15191527473E+04  0.99244523896E+03 0.  0.
        1    1    3    3  502    0 -0.40246687579E+03 -0.13902920486E+02 -0.10188949863E+04  0.10955911055E+04  0.50400001928E-02 0. -1.
       -1    1    3    3    0  502  0.40246687579E+03  0.13902920486E+02 -0.13126914000E+03  0.42356164186E+03  0.50400001928E-02 0.  1.
</event>
<event>
 5   0  0.1656859E-02  0.1014975E+04  0.7818609E-02  0.9292271E-01
       -2   -1    0    0    0  501  0.00000000000E+00  0.00000000000E+00  0.51547823277E+03  0.51547823278E+03  0.25500000920E-02 0. -1.
        2   -1    0    0  501    0  0.00000000000E+00  0.00000000000E+00 -0.49962067201E+03  0.49962067202E+03  0.25500000920E-02 0.  1.
    10030    2    1    2    0    0  0.00000000000E+00  0.00000000000E+00  0.15857560757E+02  0.10150989048E+04  0.10149750363E+04 0.  0.
        4    1    3    3  502    0  0.38824574566E+03  0.69206624721E+02  0.32736978342E+03  0.51253966083E+03  0.12699999809E+01 0. -1.
       -4    1    3    3    0  502 -0.38824574566E+03 -0.69206624721E+02 -0.31151222266E+03  0.50255924397E+03  0.12699999809E+01 0.  1.
</event>
<event>
 5   0  0.9396660E-03  0.9684206E+03  0.7818609E-02  0.9343875E-01
        1   -1    0    0  501    0  0.00000000000E+00  0.00000000000E+00  0.96370608606E+03  0.96370608607E+03  0.50400001928E-02 0.  1.
       -1   -1    0    0    0  501  0.00000000000E+00  0.00000000000E+00 -0.24328955826E+03  0.24328955831E+03  0.50400001928E-02 0. -1.
    10030    2    1    2    0    0  0.00000000000E+00  0.00000000000E+00  0.72041652780E+03  0.12069956444E+04  0.96842062764E+03 0.  0.
        5    1    3    3  502    0  0.14544153339E+03  0.45236553327E+03  0.47612409769E+03  0.67268422140E+03  0.46999998093E+01 0.  1.
       -5    1    3    3    0  502 -0.14544153339E+03 -0.45236553327E+03  0.24429243011E+03  0.53431142299E+03  0.46999998093E+01 0. -1.
</event>
<event>
 5   0  0.9471140E-03  0.1004072E+04  0.7818609E-02  0.9304090E-01
       -1   -1    0    0    0  501  0.00000000000E+00  0.00000000000E+00  0.19856938362E+03  0.19856938368E+03  0.50400001928E-02 0. -1.
        1   -1    0    0  501    0  0.00000000000E+00  0.00000000000E+00 -0.12692791936E+04  0.12692791936E+04  0.50400001928E-02 0.  1.
    10030    2    1    2    0    0  0.00000000000E+00  0.00000000000E+00 -0.10707098100E+04  0.14678485773E+04  0.10040716850E+04 0.  0.
        4    1    3    3  502    0  0.46392093463E+03 -0.12852067739E+03 -0.32707611553E+03  0.58199707590E+03  0.12699999809E+01 0. -1.
       -4    1    3    3    0  502 -0.46392093463E+03  0.12852067739E+03 -0.74363369448E+03  0.88585150142E+03  0.12699999809E+01 0.  1.
</event>
<event>
 5   0  0.9759443E-03  0.1058381E+04  0.7818609E-02  0.9246733E-01
       -1   -1    0    0    0  501  0.00000000000E+00  0.00000000000E+00  0.21150113792E+03  0.21150113798E+03  0.50400001928E-02 0. -1.
        1   -1    0    0  501    0  0.00000000000E+00  0.00000000000E+00 -0.13240724902E+04  0.13240724902E+04  0.50400001928E-02 0.  1.
    10030    2    1    2    0    0  0.00000000000E+00  0.00000000000E+00 -0.11125713523E+04  0.15355736282E+04  0.10583814783E+04 0.  0.
        2    1    3    3  502    0 -0.15150968792E+03 -0.39107644893E+03 -0.88064003067E+02  0.42854549710E+03  0.25500000920E-02 0. -1.
       -2    1    3    3    0  502  0.15150968792E+03  0.39107644893E+03 -0.10245073492E+04  0.11070281311E+04  0.25500000920E-02 0.  1.
</event>
<event>
 5   0  0.1598986E-02  0.7063627E+03  0.7818609E-02  0.9706413E-01
       -2   -1    0    0    0  501  0.00000000000E+00  0.00000000000E+00  0.16588295968E+03  0.16588295970E+03  0.25500000920E-02 0.  1.
        2   -1    0    0  501    0  0.00000000000E+00  0.00000000000E+00 -0.75195838534E+03  0.75195838535E+03  0.25500000920E-02 0. -1.
    10030    2    1    2    0    0  0.00000000000E+00  0.00000000000E+00 -0.58607542566E+03  0.91784134505E+03  0.70636274683E+03 0.  0.
        3    1    3    3  502    0  0.10123297246E+03  0.10391547254E+03 -0.71145477131E+03  0.72609533945E+03  0.10100000352E+00 0. -1.
       -3    1    3    3    0  502 -0.10123297246E+03 -0.10391547254E+03  0.12537934565E+03  0.19174600560E+03  0.10100000352E+00 0.  1.
</event>
<event>
 5   0  0.1656859E-02  0.9695454E+03  0.7818609E-02  0.9342592E-01
        2   -1    0    0  501    0  0.00000000000E+00  0.00000000000E+00  0.13231363594E+04  0.13231363594E+04  0.25500000920E-02 0.  1.
       -2   -1    0    0    0  501  0.00000000000E+00  0.00000000000E+00 -0.17761175812E+03  0.17761175814E+03  0.25500000920E-02 0. -1.
    10030    2    1    2    0    0  0.00000000000E+00  0.00000000000E+00  0.11455246013E+04  0.15007481176E+04  0.96954540903E+03 0.  0.
        4    1    3    3  502    0  0.33529265317E+03 -0.33024560068E+03  0.39278312821E+03  0.61299552914E+03  0.12699999809E+01 0. -1.
       -4    1    3    3    0  502 -0.33529265317E+03  0.33024560068E+03  0.75274147310E+03  0.88775258843E+03  0.12699999809E+01 0.  1.
</event>
<event>
 5   0  0.1663497E-02  0.1158432E+04  0.7818609E-02  0.9150040E-01
       -2   -1    0    0    0  501  0.00000000000E+00  0.00000000000E+00  0.66665559065E+03  0.66665559066E+03  0.25500000920E-02 0.  1.
        2   -1    0    0  501    0  0.00000000000E+00  0.00000000000E+00 -0.50324506604E+03  0.50324506605E+03  0.25500000920E-02 0. -1.
    10030    2    1    2    0    0  0.00000000000E+00  0.00000000000E+00  0.16341052461E+03  0.11699006567E+04  0.11584319346E+04 0.  0.
        1    1    3    3  502    0  0.13835307139E+03 -0.52059943791E+03 -0.13330102148E+03  0.55491847101E+03  0.50400001928E-02 0. -1.
       -1    1    3    3    0  502 -0.13835307139E+03  0.52059943791E+03  0.29671154609E+03  0.61498218570E+03  0.50400001928E-02 0.  1.
</event>
<event>
 5   0  0.1598986E-02  0.9652895E+03  0.7818609E-02  0.9347456E-01
        2   -1    0    0  501    0  0.00000000000E+00  0.00000000000E+00  0.30008863800E+03  0.30008863801E+03  0.25500000920E-02 0.  1.
       -2   -1    0    0    0  501  0.00000000000E+00  0.00000000000E+00 -0.77625718887E+03  0.77625718888E+03  0.25500000920E-02 0. -1.
    10030    2    1    2    0    0  0.00000000000E+00  0.00000000000E+00 -0.47616855087E+03  0.10763458269E+04  0.96528951627E+03 0.  0.
        3    1    3    3  502    0 -0.29260801542E+03 -0.16761389108E+03  0.14694239299E+03  0.36783956317E+03  0.10100000352E+00 0.  1.
       -3    1    3    3    0  502  0.29260801542E+03  0.16761389108E+03 -0.62311094386E+03  0.70850626372E+03  0.10100000352E+00 0. -1.
</event>
<event>
 5   0  0.9396660E-03  0.9783124E+03  0.7818609E-02  0.9332657E-01
        1   -1    0    0  501    0  0.00000000000E+00  0.00000000000E+00  0.90493530373E+03  0.90493530375E+03  0.50400001928E-02 0. -1.
       -1   -1    0    0    0  501  0.00000000000E+00  0.00000000000E+00 -0.26440981595E+03  0.26440981600E+03  0.50400001928E-02 0.  1.
    10030    2    1    2    0    0  0.00000000000E+00  0.00000000000E+00  0.64052548779E+03  0.11693451197E+04  0.97831237780E+03 0.  0.
        5    1    3    3  502    0 -0.17739414786E+03 -0.39821506237E+03  0.55118630022E+02  0.43943608520E+03  0.46999998093E+01 0.  1.
       -5    1    3    3    0  502  0.17739414786E+03  0.39821506237E+03  0.58540685777E+03  0.72990903455E+03  0.46999998093E+01 0. -1.
</event>
<event>
 5   0  0.9471140E-03  0.1001512E+04  0.7818609E-02  0.9306888E-01
        1   -1    0    0  501    0  0.00000000000E+00  0.00000000000E+00  0.29045785206E+03  0.29045785210E+03  0.50400001928E-02 0. -1.
       -1   -1    0    0    0  501  0.00000000000E+00  0.00000000000E+00 -0.86331524527E+03  0.86331524528E+03  0.50400001928E-02 0.  1.
    10030    2    1    2    0    0  0.00000000000E+00  0.00000000000E+00 -0.57285739321E+03  0.11537730974E+04  0.10015122402E+04 0.  0.
        4    1    3    3  502    0 -0.41833662940E+03 -0.11434279282E+03 -0.57483998234E+03  0.72008501440E+03  0.12699999809E+01 0. -1.
       -4    1    3    3    0  502  0.41833662940E+03  0.11434279282E+03  0.19825891241E+01  0.43368808299E+03  0.12699999809E+01 0.  1.
</event>
<event>
 5   0  0.9396660E-03  0.8672014E+03  0.7818609E-02  0.9467536E-01
       -1   -1    0    0    0  501  0.00000000000E+00  0.00000000000E+00  0.43584962420E+03  0.43584962423E+03  0.50400001928E-02 0.  1.
        1   -1    0    0  501    0  0.00000000000E+00  0.00000000000E+00 -0.43136336437E+03  0.43136336440E+03  0.50400001928E-02 0. -1.
    10030    2    1    2    0    0  0.00000000000E+00  0.00000000000E+00  0.44862598303E+01  0.86721298863E+03  0.86720138441E+03 0.  0.
        5    1    3    3  502    0 -0.39725031867E+03 -0.98348428521E+02 -0.14096228210E+03  0.43286566513E+03  0.46999998093E+01 0. -1.
       -5    1    3    3    0  502  0.39725031867E+03  0.98348428521E+02  0.14544854193E+03  0.43434732349E+03  0.46999998093E+01 0.  1.
</event>
<event>
 5   0  0.9507815E-03  0.1007586E+04  0.7818609E-02  0.9300264E-01
        1   -1    0    0  501    0  0.00000000000E+00  0.00000000000E+00  0.89362050719E+03  0.89362050720E+03  0.50400001928E-02 0.  1.
       -1   -1    0    0    0  501  0.00000000000E+00  0.00000000000E+00 -0.28402130744E+03  0.28402130749E+03  0.50400001928E-02 0. -1.
    10030    2    1    2    0    0  0.00000000000E+00  0.00000000000E+00  0.60959919975E+03  0.11776418147E+04  0.10075857578E+04 0.  0.
        1    1    3    3  502    0 -0.89687056271E+02  0.58377167201E+02 -0.27058433256E+03  0.29097687669E+03  0.50400001928E-02 0. -1.
       -1    1    3    3    0  502  0.89687056271E+02 -0.58377167201E+02  0.88018353231E+03  0.88666493801E+03  0.50400001928E-02 0.  1.
</event>
<event>
 5   0  0.1656859E-02  0.1016942E+04  0.7818609E-02  0.9290156E-01
       -2   -1    0    0    0  501  0.00000000000E+00  0.00000000000E+00  0.30456191815E+03  0.30456191816E+03  0.25500000920E-02 0. -1.
        2   -1    0    0  501    0  0.00000000000E+00  0.00000000000E+00 -0.84890008585E+03  0.84890008585E+03  0.25500000920E-02 0.  1.
    10030    2    1    2    0    0  0.00000000000E+00  0.00000000000E+00 -0.54433816769E+03  0.11534620040E+04  0.10169417652E+04 0.  0.
        4    1    3    3  502    0  0.13477088673E+03  0.73216269221E+02 -0.82203530802E+03  0.83622214424E+03  0.12699999809E+01 0.  1.
       -4    1    3    3    0  502 -0.13477088673E+03 -0.73216269221E+02  0.27769714032E+03  0.31723985978E+03  0.12699999809E+01 0. -1.
</event>
<event>
 5   0  0.1663497E-02  0.5277956E+03  0.7818609E-02  0.1006768E+00
       -2   -1    0    0    0  501  0.00000000000E+00  0.00000000000E+00  0.16436226327E+04  0.16436226327E+04  0.25500000920E-02 0. -1.
        2   -1    0    0  501    0  0.00000000000E+00  0.00000000000E+00 -0.42371063529E+02  0.42371063606E+02  0.25500000920E-02 0.  1.
    10030    2    1    2    0    0  0.00000000000E+00  0.00000000000E+00  0.16012515692E+04  0.16859936963E+04  0.52779556290E+03 0.  0.
        1    1    3    3  502    0  0.13311528033E+03  0.18262028765E+03  0.36529258311E+03  0.42954454789E+03  0.50400001928E-02 0.  1.
       -1    1    3    3    0  502 -0.13311528033E+03 -0.18262028765E+03  0.12359589861E+04  0.12564491484E+04  0.50400001928E-02 0. -1.
</event>
<event>
 5   0  0.1571895E-02  0.1110174E+04  0.7818609E-02  0.9195332E-01
       -2   -1    0    0    0  501  0.00000000000E+00  0.00000000000E+00  0.51858507204E+03  0.51858507205E+03  0.25500000920E-02 0.  1.
        2   -1    0    0  501    0  0.00000000000E+00  0.00000000000E+00 -0.59415767660E+03  0.59415767661E+03  0.25500000920E-02 0. -1.
    10030    2    1    2    0    0  0.00000000000E+00  0.00000000000E+00 -0.75572604555E+02  0.11127427487E+04  0.11101735027E+04 0.  0.
        2    1    3    3  502    0  0.44789939630E+03 -0.23652187014E+03 -0.26539074816E+03  0.57182926952E+03  0.25500000920E-02 0. -1.
       -2    1    3    3    0  502 -0.44789939630E+03  0.23652187014E+03  0.18981814361E+03  0.54091347914E+03  0.25500000920E-02 0.  1.
</event>
<event>
 5   0  0.1000773E-02  0.1013796E+04  0.7818609E-02  0.9293542E-01
       -1   -1    0    0    0  501  0.00000000000E+00  0.00000000000E+00  0.56320971819E+03  0.56320971821E+03  0.50400001928E-02 0.  1.
        1   -1    0    0  501    0  0.00000000000E+00  0.00000000000E+00 -0.45621623664E+03  0.45621623667E+03  0.50400001928E-02 0. -1.
    10030    2    1    2    0    0  0.00000000000E+00  0.00000000000E+00  0.10699348155E+03  0.10194259549E+04  0.10137956759E+04 0.  0.
        3    1    3    3  502    0 -0.27868876991E+03  0.31562678594E+03  0.33730116354E+03  0.53949956775E+03  0.10100000352E+00 0.  1.
       -3    1    3    3    0  502  0.27868876991E+03 -0.31562678594E+03 -0.23030768200E+03  0.47992638713E+03  0.10100000352E+00 0. -1.
</event>
<event>
 5   0  0.1598986E-02  0.1010371E+04  0.7818609E-02  0.9297243E-01
       -2   -1    0    0    0  501  0.00000000000E+00  0.00000000000E+00  0.16255643943E+03  0.16255643945E+03  0.25500000920E-02 0.  1.
        2   -1    0    0  501    0  0.00000000000E+00  0.00000000000E+00 -0.15699922112E+04  0.15699922112E+04  0.25500000920E-02 0. -1.
    10030    2    1    2    0    0  0.00000000000E+00  0.00000000000E+00 -0.14074357718E+04  0.17325486507E+04  0.10103709097E+04 0.  0.
        3    1    3    3  502    0 -0.42736202559E+03  0.71656534509E+02 -0.11490267800E+04  0.12280209735E+04  0.10100000352E+00 0.  1.
       -3    1    3    3    0  502  0.42736202559E+03 -0.71656534509E+02 -0.25840899178E+03  0.50452767723E+03  0.10100000352E+00 0. -1.
</event>
<event>
 5   0  0.1617721E-02  0.1004931E+04  0.7818609E-02  0.9303153E-01
       -2   -1    0    0    0  501  0.00000000000E+00  0.00000000000E+00  0.12595811651E+03  0.12595811654E+03  0.25500000920E-02 0.  1.
        2   -1    0    0  501    0  0.00000000000E+00  0.00000000000E+00 -0.20044107819E+04  0.20044107819E+04  0.25500000920E-02 0. -1.
    10030    2    1    2    0    0  0.00000000000E+00  0.00000000000E+00 -0.18784526653E+04  0.21303688984E+04  0.10049314540E+04 0.  0.
        5    1    3    3  502    0  0.27390798849E+03  0.12882468408E+03 -0.89068321580E+02  0.31555766714E+03  0.46999998093E+01 0.  1.
       -5    1    3    3    0  502 -0.27390798849E+03 -0.12882468408E+03 -0.17893843438E+04  0.18148112313E+04  0.46999998093E+01 0. -1.
</event>
<event>
 5   0  0.1663497E-02  0.9156205E+03  0.7818609E-02  0.9406263E-01
       -2   -1    0    0    0  501  0.00000000000E+00  0.00000000000E+00  0.63108051783E+03  0.63108051784E+03  0.25500000920E-02 0. -1.
        2   -1    0    0  501    0  0.00000000000E+00  0.00000000000E+00 -0.33211327300E+03  0.33211327301E+03  0.25500000920E-02 0.  1.
    10030    2    1    2    0    0  0.00000000000E+00  0.00000000000E+00  0.29896724483E+03  0.96319379084E+03  0.91562048100E+03 0.  0.
        1    1    3    3  502    0 -0.25841171568E+03 -0.16181958924E+02 -0.24769370185E+03  0.35831639728E+03  0.50400001928E-02 0.  1.
       -1    1    3    3    0  502  0.25841171568E+03  0.16181958924E+02  0.54666094668E+03  0.60487739357E+03  0.50400001928E-02 0. -1.
</event>
<event>
 5   0  0.1000773E-02  0.9925176E+03  0.7818609E-02  0.9316790E-01
       -1   -1    0    0    0  501  0.00000000000E+00  0.00000000000E+00  0.17366691264E+03  0.17366691271E+03  0.50400001928E-02 0. -1.
        1   -1    0    0  501    0  0.00000000000E+00  0.00000000000E+00 -0.14180756351E+04  0.14180756351E+04  0.50400001928E-02 0.  1.
    10030    2    1    2    0    0  0.00000000000E+00  0.00000000000E+00 -0.12444087225E+04  0.15917425478E+04  0.99251764217E+03 0.  0.
        3    1    3    3  502    0  0.62011572638E+02  0.48899598463E+03 -0.52993272688E+03  0.72373421458E+03  0.10100000352E+00 0. -1.
       -3    1    3    3    0  502 -0.62011572638E+02 -0.48899598463E+03 -0.71447599559E+03  0.86800833326E+03  0.10100000352E+00 0.  1.
</event>
<event>
 5   0  0.9471140E-03  0.9757431E+03  0.7818609E-02  0.9335557E-01
       -1   -1    0    0    0  501  0.00000000000E+00  0.00000000000E+00  0.11791385010E+04  0.11791385010E+04  0.50400001928E-02 0. -1.
        1   -1    0    0  501    0  0.00000000000E+00  0.00000000000E+00 -0.20185808384E+03  0.20185808390E+03  0.50400001928E-02 0.  1.
    10030    2    1    2    0    0  0.00000000000E+00  0.00000000000E+00  0.97728041719E+03  0.13809965849E+04  0.97574307775E+03 0.  0.
        4    1    3    3  502    0  0.10004368502E+03  0.35671394840E+03  0.93791146147E+03  0.10084310102E+04  0.12699999809E+01 0. -1.
       -4    1    3    3    0  502 -0.10004368502E+03 -0.35671394840E+03  0.39368955720E+02  0.37256557473E+03  0.12699999809E+01 0.  1.
</event>
<event>
 5   0  0.1000773E-02  0.1000727E+04  0.7818609E-02  0.9307748E-01
        1   -1    0    0  501    0  0.00000000000E+00  0.00000000000E+00  0.46338618808E+03  0.46338618811E+03  0.50400001928E-02 0. -1.
       -1   -1    0    0    0  501  0.00000000000E+00  0.00000000000E+00 -0.54029175709E+03  0.54029175712E+03  0.50400001928E-02 0.  1.
    10030    2    1    2    0    0  0.00000000000E+00  0.00000000000E+00 -0.76905569009E+02  0.10036779452E+04  0.10007272112E+04 0.  0.
        3    1    3    3  502    0 -0.36588049494E+03  0.32162149576E+03 -0.15304730666E+03  0.51061963475E+03  0.10100000352E+00 0. -1.
       -3    1    3    3    0  502  0.36588049494E+03 -0.32162149576E+03  0.76141737653E+02  0.49305831048E+03  0.10100000352E+00 0.  1.
</event>
<event>
 5   0  0.1656859E-02  0.1105958E+04  0.7818609E-02  0.9199404E-01
        2   -1    0    0  501    0  0.00000000000E+00  0.00000000000E+00  0.92218118596E+03  0.92218118597E+03  0.25500000920E-02 0. -1.
       -2   -1    0    0    0  501  0.00000000000E+00  0.00000000000E+00 -0.33158973709E+03  0.33158973710E+03  0.25500000920E-02 0.  1.
    10030    2    1    2    0    0  0.00000000000E+00  0.00000000000E+00  0.59059144887E+03  0.12537709231E+04  0.11059580770E+04 0.  0.
        4    1    3    3  502    0  0.34997945671E+03 -0.14923189547E+03  0.75021129520E+03  0.84117440468E+03  0.12699999809E+01 0. -1.
       -4    1    3    3    0  502 -0.34997945671E+03  0.14923189547E+03 -0.15961984633E+03  0.41259651839E+03  0.12699999809E+01 0.  1.
</event>
<event>
 5   0  0.1617721E-02  0.1003963E+04  0.7818609E-02  0.9304209E-01
        2   -1    0    0  501    0  0.00000000000E+00  0.00000000000E+00  0.70029203662E+03  0.70029203662E+03  0.25500000920E-02 0. -1.
       -2   -1    0    0    0  501  0.00000000000E+00  0.00000000000E+00 -0.35982917504E+03  0.35982917505E+03  0.25500000920E-02 0.  1.
    10030    2    1    2    0    0  0.00000000000E+00  0.00000000000E+00  0.34046286158E+03  0.10601212117E+04  0.10039631583E+04 0.  0.
        5    1    3    3  502    0  0.23228876569E+03  0.58337186279E+02 -0.29558148833E+03  0.38046261868E+03  0.46999998093E+01 0.  1.
       -5    1    3    3    0  502 -0.23228876569E+03 -0.58337186279E+02  0.63604434992E+03  0.67965859299E+03  0.46999998093E+01 0. -1.
</event>
<event>
 5   0  0.1571895E-02  0.1013217E+04  0.7818609E-02  0.9294167E-01
        2   -1    0    0  501    0  0.00000000000E+00  0.00000000000E+00  0.47163915047E+03  0.47163915048E+03  0.25500000920E-02 0.  1.
       -2   -1    0    0    0  501  0.00000000000E+00  0.00000000000E+00 -0.54417022405E+03  0.54417022405E+03  0.25500000920E-02 0. -1.
    10030    2    1    2    0    0  0.00000000000E+00  0.00000000000E+00 -0.72531073576E+02  0.10158093745E+04  0.10132166248E+04 0.  0.
        2    1    3    3  502    0 -0.78429780880E+01 -0.46480633487E+03 -0.23814003439E+03  0.52231898035E+03  0.25500000920E-02 0. -1.
       -2    1    3    3    0  502  0.78429780880E+01  0.46480633487E+03  0.16560896081E+03  0.49349039418E+03  0.25500000920E-02 0.  1.
</event>
<event>
 5   0  0.1598986E-02  0.9891323E+03  0.7818609E-02  0.9320545E-01
       -2   -1    0    0    0  501  0.00000000000E+00  0.00000000000E+00  0.74022601757E+03  0.74022601757E+03  0.25500000920E-02 0.  1.
        2   -1    0    0  501    0  0.00000000000E+00  0.00000000000E+00 -0.33043374186E+03  0.33043374187E+03  0.25500000920E-02 0. -1.
    10030    2    1    2    0    0  0.00000000000E+00  0.00000000000E+00  0.40979227570E+03  0.10706597594E+04  0.98913225166E+03 0.  0.
        3    1    3    3  502    0 -0.25715838130E+03 -0.41196566209E+03  0.10364758963E+03  0.49657725768E+03  0.10100000352E+00 0.  1.
       -3    1    3    3    0  502  0.25715838130E+03  0.41196566209E+03  0.30614468607E+03  0.57408250176E+03  0.10100000352E+00 0. -1.
</event>
<event>
 5   0  0.1571895E-02  0.8553771E+03  0.7818609E-02  0.9483148E-01
        2   -1    0    0  501    0  0.00000000000E+00  0.00000000000E+00  0.58182872289E+03  0.58182872290E+03  0.25500000920E-02 0.  1.
       -2   -1    0    0    0  501  0.00000000000E+00  0.00000000000E+00 -0.31438375838E+03  0.31438375839E+03  0.25500000920E-02 0. -1.
    10030    2    1    2    0    0  0.00000000000E+00  0.00000000000E+00  0.26744496451E+03  0.89621248129E+03  0.85537711133E+03 0.  0.
        2    1    3    3  502    0  0.12590898518E+03  0.30726909805E+03 -0.14868198295E+03  0.36383197115E+03  0.25500000920E-02 0. -1.
       -2    1    3    3    0  502 -0.12590898518E+03 -0.30726909805E+03  0.41612694746E+03  0.53238051014E+03  0.25500000920E-02 0.  1.
</event>
<event>
 5   0  0.1598986E-02  0.1005575E+04  0.7818609E-02  0.9302451E-01
        2   -1    0    0  501    0  0.00000000000E+00  0.00000000000E+00  0.31208776523E+04  0.31208776523E+04  0.25500000920E-02 0.  1.
       -2   -1    0    0    0  501  0.00000000000E+00  0.00000000000E+00 -0.81001315416E+02  0.81001315457E+02  0.25500000920E-02 0. -1.
    10030    2    1    2    0    0  0.00000000000E+00  0.00000000000E+00  0.30398763369E+04  0.32018789678E+04  0.10055748508E+04 0.  0.
        3    1    3    3  502    0  0.42217814413E+03 -0.74485118815E+02  0.68345881231E+03  0.80678273199E+03  0.10100000352E+00 0.  1.
       -3    1    3    3    0  502 -0.42217814413E+03  0.74485118815E+02  0.23564175246E+04  0.23950962358E+04  0.10100000352E+00 0. -1.
</event>
<event>
 5   0  0.1598986E-02  0.1088682E+04  0.7818609E-02  0.9216294E-01
        2   -1    0    0  501    0  0.00000000000E+00  0.00000000000E+00  0.65302802097E+03  0.65302802097E+03  0.25500000920E-02 0. -1.
       -2   -1    0    0    0  501  0.00000000000E+00  0.00000000000E+00 -0.45374349798E+03  0.45374349799E+03  0.25500000920E-02 0.  1.
    10030    2    1    2    0    0  0.00000000000E+00  0.00000000000E+00  0.19928452299E+03  0.11067715190E+04  0.10886821731E+04 0.  0.
        3    1    3    3  502    0  0.53408811099E+03  0.10433951234E+03  0.86373022535E+02  0.55099650938E+03  0.10100000352E+00 0.  1.
       -3    1    3    3    0  502 -0.53408811099E+03 -0.10433951234E+03  0.11291150046E+03  0.55577500957E+03  0.10100000352E+00 0. -1.
</event>
<event>
 5   0  0.1571895E-02  0.1008018E+04  0.7818609E-02  0.9299795E-01
       -2   -1    0    0    0  501  0.00000000000E+00  0.00000000000E+00  0.34214686781E+03  0.34214686782E+03  0.25500000920E-02 0.  1.
        2   -1    0    0  501    0  0.00000000000E+00  0.00000000000E+00 -0.74244410200E+03  0.74244410200E+03  0.25500000920E-02 0. -1.
    10030    2    1    2    0    0  0.00000000000E+00  0.00000000000E+00 -0.40029723419E+03  0.10845909698E+04  0.10080177063E+04 0.  0.
        2    1    3    3  502    0  0.48774833812E+03  0.11957389843E+03 -0.15413852693E+03  0.52531423359E+03  0.25500000920E-02 0. -1.
       -2    1    3    3    0  502 -0.48774833812E+03 -0.11957389843E+03 -0.24615870726E+03  0.55927673623E+03  0.25500000920E-02 0.  1.
</event>
<event>
 5   0  0.1000773E-02  0.9854737E+03  0.7818609E-02  0.9324622E-01
       -1   -1    0    0    0  501  0.00000000000E+00  0.00000000000E+00  0.33993339799E+03  0.33993339803E+03  0.50400001928E-02 0.  1.
        1   -1    0    0  501    0  0.00000000000E+00  0.00000000000E+00 -0.71422696192E+03  0.71422696194E+03  0.50400001928E-02 0. -1.
    10030    2    1    2    0    0  0.00000000000E+00  0.00000000000E+00 -0.37429356392E+03  0.10541603600E+04  0.98547368942E+03 0.  0.
        3    1    3    3  502    0 -0.36222103266E+02 -0.22439820045E+01  0.33850180004E+03  0.34044170580E+03  0.10100000352E+00 0.  1.
       -3    1    3    3    0  502  0.36222103266E+02  0.22439820045E+01 -0.71279536396E+03  0.71371865417E+03  0.10100000352E+00 0. -1.
</event>
<event>
 5   0  0.9759443E-03  0.1005022E+04  0.7818609E-02  0.9303053E-01
       -1   -1    0    0    0  501  0.00000000000E+00  0.00000000000E+00  0.17976522839E+03  0.17976522846E+03  0.50400001928E-02 0. -1.
        1   -1    0    0  501    0  0.00000000000E+00  0.00000000000E+00 -0.14047070984E+04  0.14047070985E+04  0.50400001928E-02 0.  1.
    10030    2    1    2    0    0  0.00000000000E+00  0.00000000000E+00 -0.12249418701E+04  0.15844723269E+04  0.10050223728E+04 0.  0.
        2    1    3    3  502    0  0.12125527135E+03 -0.78486473614E+02  0.14633256054E+03  0.20561173520E+03  0.25500000920E-02 0. -1.
       -2    1    3    3    0  502 -0.12125527135E+03  0.78486473614E+02 -0.13712744306E+04  0.13788605917E+04  0.25500000920E-02 0.  1.
</event>
<event>
 5   0  0.9759443E-03  0.9984619E+03  0.7818609E-02  0.9310233E-01
       -1   -1    0    0    0  501  0.00000000000E+00  0.00000000000E+00  0.62739476413E+03  0.62739476415E+03  0.50400001928E-02 0. -1.
        1   -1    0    0  501    0  0.00000000000E+00  0.00000000000E+00 -0.39724835079E+03  0.39724835082E+03  0.50400001928E-02 0.  1.
    10030    2    1    2    0    0  0.00000000000E+00  0.00000000000E+00  0.23014641335E+03  0.10246431150E+04  0.99846188785E+03 0.  0.
        2    1    3    3  502    0  0.32129504215E+03 -0.22593855513E+03 -0.20115093561E+03  0.44129404449E+03  0.25500000920E-02 0.  1.
       -2    1    3    3    0  502 -0.32129504215E+03  0.22593855513E+03  0.43129734896E+03  0.58334907048E+03  0.25500000920E-02 0. -1.
</event>
<event>
 5   0  0.1000773E-02  0.9847771E+03  0.7818609E-02  0.9325400E-01
       -1   -1    0    0    0  501  0.00000000000E+00  0.00000000000E+00  0.48523279871E+03  0.48523279874E+03  0.50400001928E-02 0. -1.
        1   -1    0    0  501    0  0.00000000000E+00  0.00000000000E+00 -0.49964986289E+03  0.49964986291E+03  0.50400001928E-02 0.  1.
    10030    2    1    2    0    0  0.00000000000E+00  0.00000000000E+00 -0.14417064175E+02  0.98488266166E+03  0.98477713493E+03 0.  0.
        3    1    3    3  502    0  0.16556782729E+03 -0.96586185191E+02  0.44638708382E+03  0.48580143619E+03  0.10100000352E+00 0. -1.
       -3    1    3    3    0  502 -0.16556782729E+03  0.96586185191E+02 -0.46080414799E+03  0.49908122547E+03  0.10100000352E+00 0.  1.
</event>
<event>
 5   0  0.1663497E-02  0.9950165E+03  0.7818609E-02  0.9314028E-01
       -2   -1    0    0    0  501  0.00000000000E+00  0.00000000000E+00  0.76618504481E+03  0.76618504481E+03  0.25500000920E-02 0.  1.
        2   -1    0    0  501    0  0.00000000000E+00  0.00000000000E+00 -0.32304788366E+03  0.32304788367E+03  0.25500000920E-02 0. -1.
    10030    2    1    2    0    0  0.00000000000E+00  0.00000000000E+00  0.44313716115E+03  0.10892329285E+04  0.99501649679E+03 0.  0.
        1    1    3    3  502    0 -0.49378673042E+03  0.57975139448E+02  0.20174277313E+03  0.53655064856E+03  0.50400001928E-02 0.  1.
       -1    1    3    3    0  502  0.49378673042E+03 -0.57975139448E+02  0.24139438802E+03  0.55268227991E+03  0.50400001928E-02 0. -1.
</event>
<event>
 5   0  0.1000773E-02  0.9818929E+03  0.7818609E-02  0.9328630E-01
        1   -1    0    0  501    0  0.00000000000E+00  0.00000000000E+00  0.11220581118E+04  0.11220581119E+04  0.50400001928E-02 0.  1.
       -1   -1    0    0    0  501  0.00000000000E+00  0.00000000000E+00 -0.21480920561E+03  0.21480920567E+03  0.50400001928E-02 0. -1.
    10030    2    1    2    0    0  0.00000000000E+00  0.00000000000E+00  0.90724890623E+03  0.13368673175E+04  0.98189288968E+03 0.  0.
        3    1    3    3  502    0  0.30186554679E+03 -0.22444861527E+01  0.98076425876E+03  0.10261707399E+04  0.10100000352E+00 0.  1.
       -3    1    3    3    0  502 -0.30186554679E+03  0.22444861527E+01 -0.73515352530E+02  0.31069657757E+03  0.10100000352E+00 0. -1.
</event>
<event>
 5   0  0.1598986E-02  0.1023792E+04  0.7818609E-02  0.9282829E-01
       -2   -1    0    0    0  501  0.00000000000E+00  0.00000000000E+00  0.28506185660E+03  0.28506185661E+03  0.25500000920E-02 0.  1.
        2   -1    0    0  501    0  0.00000000000E+00  0.00000000000E+00 -0.91922952568E+03  0.91922952569E+03  0.25500000920E-02 0. -1.
    10030    2    1    2    0    0  0.00000000000E+00  0.00000000000E+00 -0.63416766909E+03  0.12042913823E+04  0.10237915320E+04 0.  0.
        3    1    3    3  502    0 -0.10268495079E+03  0.46368184357E+02  0.27029553091E+03  0.29283765446E+03  0.10100000352E+00 0.  1.
       -3    1    3    3    0  502  0.10268495079E+03 -0.46368184357E+02 -0.90446320000E+03  0.91145372784E+03  0.10100000352E+00 0. -1.
</event>
<event>
 5   0  0.9507815E-03  0.1051371E+04  0.7818609E-02  0.9253930E-01
       -1   -1    0    0    0  501  0.00000000000E+00  0.00000000000E+00  0.19885986597E+03  0.19885986603E+03  0.50400001928E-02 0. -1.
        1   -1    0    0  501    0  0.00000000000E+00  0.00000000000E+00 -0.13896484304E+04  0.13896484304E+04  0.50400001928E-02 0.  1.
    10030    2    1    2    0    0  0.00000000000E+00  0.00000000000E+00 -0.11907885644E+04  0.15885082964E+04  0.10513711061E+04 0.  0.
        1    1    3    3  502    0 -0.25974445773E+03 -0.42570147796E+03 -0.34412984191E+03  0.60589956245E+03  0.50400001928E-02 0. -1.
       -1    1    3    3    0  502  0.25974445773E+03  0.42570147796E+03 -0.84665872253E+03  0.98260873399E+03  0.50400001928E-02 0.  1.
</event>
<event>
 5   0  0.1656859E-02  0.9773723E+03  0.7818609E-02  0.9333717E-01
        2   -1    0    0  501    0  0.00000000000E+00  0.00000000000E+00  0.19149044099E+04  0.19149044099E+04  0.25500000920E-02 0. -1.
       -2   -1    0    0    0  501  0.00000000000E+00  0.00000000000E+00 -0.12471334862E+03  0.12471334864E+03  0.25500000920E-02 0.  1.
    10030    2    1    2    0    0  0.00000000000E+00  0.00000000000E+00  0.17901910613E+04  0.20396177585E+04  0.97737227557E+03 0.  0.
        4    1    3    3  502    0  0.15780656527E+03  0.24158723303E+03  0.17181282695E+04  0.17421922013E+04  0.12699999809E+01 0. -1.
       -4    1    3    3    0  502 -0.15780656527E+03 -0.24158723303E+03  0.72062791812E+02  0.29742555719E+03  0.12699999809E+01 0.  1.
</event>
<event>
 5   0  0.1656859E-02  0.9879154E+03  0.7818609E-02  0.9321899E-01
        2   -1    0    0  501    0  0.00000000000E+00  0.00000000000E+00  0.10701319883E+04  0.10701319883E+04  0.25500000920E-02 0. -1.
       -2   -1    0    0    0  501  0.00000000000E+00  0.00000000000E+00 -0.22800385984E+03  0.22800385985E+03  0.25500000920E-02 0.  1.
    10030    2    1    2    0    0  0.00000000000E+00  0.00000000000E+00  0.84212812844E+03  0.12981358481E+04  0.98791542933E+03 0.  0.
        4    1    3    3  502    0  0.19821225799E+03  0.19957781794E+03  0.95461442362E+03  0.99519330550E+03  0.12699999809E+01 0. -1.
       -4    1    3    3    0  502 -0.19821225799E+03 -0.19957781794E+03 -0.11248629519E+03  0.30294254263E+03  0.12699999809E+01 0.  1.
</event>
<event>
 5   0  0.9396660E-03  0.9707793E+03  0.7818609E-02  0.9341187E-01
       -1   -1    0    0    0  501  0.00000000000E+00  0.00000000000E+00  0.21499935996E+03  0.21499936002E+03  0.50400001928E-02 0. -1.
        1   -1    0    0  501    0  0.00000000000E+00  0.00000000000E+00 -0.10958316295E+04  0.10958316295E+04  0.50400001928E-02 0.  1.
    10030    2    1    2    0    0  0.00000000000E+00  0.00000000000E+00 -0.88083226951E+03  0.13108309895E+04  0.97077927256E+03 0.  0.
        5    1    3    3  502    0  0.12695218880E+03 -0.27714109570E+03 -0.95041909089E+03  0.99811952365E+03  0.46999998093E+01 0.  1.
       -5    1    3    3    0  502 -0.12695218880E+03  0.27714109570E+03  0.69586821380E+02  0.31271146585E+03  0.46999998093E+01 0. -1.
</event>
<event>
 5   0  0.1000773E-02  0.9549639E+03  0.7818609E-02  0.9359367E-01
        1   -1    0    0  501    0  0.00000000000E+00  0.00000000000E+00  0.16038596221E+04  0.16038596221E+04  0.50400001928E-02 0. -1.
       -1   -1    0    0    0  501  0.00000000000E+00  0.00000000000E+00 -0.14215022223E+03  0.14215022232E+03  0.50400001928E-02 0.  1.
    10030    2    1    2    0    0  0.00000000000E+00  0.00000000000E+00  0.14617093999E+04  0.17460098445E+04  0.95496387742E+03 0.  0.
        3    1    3    3  502    0 -0.19600368417E+02 -0.46530583578E+03  0.92344268833E+03  0.10342340664E+04  0.10100000352E+00 0. -1.
       -3    1    3    3    0  502  0.19600368417E+02  0.46530583578E+03  0.53826671157E+03  0.71177577806E+03  0.10100000352E+00 0.  1.
</event>
<event>
 5   0  0.9759443E-03  0.9802417E+03  0.7818609E-02  0.9330485E-01
        1   -1    0    0  501    0  0.00000000000E+00  0.00000000000E+00  0.15180989130E+04  0.15180989130E+04  0.50400001928E-02 0. -1.
       -1   -1    0    0    0  501  0.00000000000E+00  0.00000000000E+00 -0.15823637371E+03  0.15823637379E+03  0.50400001928E-02 0.  1.
    10030    2    1    2    0    0  0.00000000000E+00  0.00000000000E+00  0.13598625393E+04  0.16763352868E+04  0.98024173959E+03 0.  0.
        2    1    3    3  502    0 -0.40398240656E+03 -0.21675315207E+03  0.97630501609E+03  0.10785894484E+04  0.25500000920E-02 0. -1.
       -2    1    3    3    0  502  0.40398240656E+03  0.21675315207E+03  0.38355752322E+03  0.59774583843E+03  0.25500000920E-02 0.  1.
</event>
<event>
 5   0  0.1656859E-02  0.7826750E+03  0.7818609E-02  0.9585438E-01
       -2   -1    0    0    0  501  0.00000000000E+00  0.00000000000E+00  0.11727679785E+03  0.11727679788E+03  0.25500000920E-02 0. -1.
        2   -1    0    0  501    0  0.00000000000E+00  0.00000000000E+00 -0.13058426568E+04  0.13058426568E+04  0.25500000920E-02 0.  1.
    10030    2    1    2    0    0  0.00000000000E+00  0.00000000000E+00 -0.11885658590E+04  0.14231194547E+04  0.78267501635E+03 0.  0.
        4    1    3    3  502    0 -0.25174054719E+03  0.66428548647E+01 -0.49631004823E+02  0.25667543739E+03  0.12699999809E+01 0. -1.
       -4    1    3    3    0  502  0.25174054719E+03 -0.66428548647E+01 -0.11389348541E+04  0.11664440173E+04  0.12699999809E+01 0.  1.
</event>
<event>
 5   0  0.1000773E-02  0.9934202E+03  0.7818609E-02  0.9315791E-01
        1   -1    0    0  501    0  0.00000000000E+00  0.00000000000E+00  0.50798556714E+03  0.50798556716E+03  0.50400001928E-02 0. -1.
       -1   -1    0    0    0  501  0.00000000000E+00  0.00000000000E+00 -0.48568490275E+03  0.48568490278E+03  0.50400001928E-02 0.  1.
    10030    2    1    2    0    0  0.00000000000E+00  0.00000000000E+00  0.22300664386E+02  0.99367046994E+03  0.99342019468E+03 0.  0.
        3    1    3    3  502    0  0.57448690170E+02  0.28300806042E+03  0.41538949605E+03  0.50590745982E+03  0.10100000352E+00 0. -1.
       -3    1    3    3    0  502 -0.57448690170E+02 -0.28300806042E+03 -0.39308883167E+03  0.48776301013E+03  0.10100000352E+00 0.  1.
</event>
<event>
 5   0  0.1571895E-02  0.1018278E+04  0.7818609E-02  0.9288722E-01
       -2   -1    0    0    0  501  0.00000000000E+00  0.00000000000E+00  0.26609118041E+03  0.26609118042E+03  0.25500000920E-02 0. -1.
        2   -1    0    0  501    0  0.00000000000E+00  0.00000000000E+00 -0.97418668067E+03  0.97418668068E+03  0.25500000920E-02 0.  1.
    10030    2    1    2    0    0  0.00000000000E+00  0.00000000000E+00 -0.70809550026E+03  0.12402778611E+04  0.10182779263E+04 0.  0.
        2    1    3    3  502    0  0.96845626772E+02  0.36166240958E+03  0.66200475594E+02  0.38021214723E+03  0.25500000920E-02 0. -1.
       -2    1    3    3    0  502 -0.96845626772E+02 -0.36166240958E+03 -0.77429597586E+03  0.86006571386E+03  0.25500000920E-02 0.  1.
</event>
<event>
 5   0  0.1656859E-02  0.9978015E+03  0.7818609E-02  0.9310959E-01
        2   -1    0    0  501    0  0.00000000000E+00  0.00000000000E+00  0.92648272942E+03  0.92648272942E+03  0.25500000920E-02 0.  1.
       -2   -1    0    0    0  501  0.00000000000E+00  0.00000000000E+00 -0.26865255206E+03  0.26865255207E+03  0.25500000920E-02 0. -1.
    10030    2    1    2    0    0  0.00000000000E+00  0.00000000000E+00  0.65783017735E+03  0.11951352815E+04  0.99780148268E+03 0.  0.
        4    1    3    3  502    0 -0.33988515565E+02 -0.49342916476E+03  0.25062116919E+03  0.55447285161E+03  0.12699999809E+01 0. -1.
       -4    1    3    3    0  502  0.33988515565E+02  0.49342916476E+03  0.40720900817E+03  0.64066242988E+03  0.12699999809E+01 0.  1.
</event>
<event>
 5   0  0.9396660E-03  0.1013348E+04  0.7818609E-02  0.9294025E-01
        1   -1    0    0  501    0  0.00000000000E+00  0.00000000000E+00  0.76753900519E+03  0.76753900521E+03  0.50400001928E-02 0. -1.
       -1   -1    0    0    0  501  0.00000000000E+00  0.00000000000E+00 -0.33446946509E+03  0.33446946513E+03  0.50400001928E-02 0.  1.
    10030    2    1    2    0    0  0.00000000000E+00  0.00000000000E+00  0.43306954010E+03  0.11020084703E+04  0.10133476413E+04 0.  0.
        5    1    3    3  502    0  0.29719118416E+02  0.23906049344E+03  0.70124825599E+03  0.74148793115E+03  0.46999998093E+01 0. -1.
       -5    1    3    3    0  502 -0.29719118416E+02 -0.23906049344E+03 -0.26817871588E+03  0.36052053919E+03  0.46999998093E+01 0.  1.
</event>
<event>
 5   0  0.6314750E-03  0.1002509E+04  0.7818609E-02  0.9305797E-01
        4   -1    0    0  501    0  0.00000000000E+00  0.00000000000E+00  0.52152884155E+03  0.52153038786E+03  0.12699999809E+01 0. -1.
       -4   -1    0    0    0  501  0.00000000000E+00  0.00000000000E+00 -0.48176535423E+03  0.48176702818E+03  0.12699999809E+01 0.  1.
    10030    2    1    2    0    0  0.00000000000E+00  0.00000000000E+00  0.39763487316E+02  0.10032974160E+04  0.10025091372E+04 0.  0.
        1    1    3    3  502    0 -0.42506690545E+03  0.18496231964E+03  0.21072308194E+03  0.50921228489E+03  0.50400001928E-02 0. -1.
       -1    1    3    3    0  502  0.42506690545E+03 -0.18496231964E+03 -0.17095959462E+03  0.49408513115E+03  0.50400001928E-02 0.  1.
</event>
<event>
 5   0  0.1571895E-02  0.1002494E+04  0.7818609E-02  0.9305814E-01
        2   -1    0    0  501    0  0.00000000000E+00  0.00000000000E+00  0.87060071083E+03  0.87060071084E+03  0.25500000920E-02 0. -1.
       -2   -1    0    0    0  501  0.00000000000E+00  0.00000000000E+00 -0.28859211772E+03  0.28859211773E+03  0.25500000920E-02 0.  1.
    10030    2    1    2    0    0  0.00000000000E+00  0.00000000000E+00  0.58200859312E+03  0.11591928286E+04  0.10024938959E+04 0.  0.
        2    1    3    3  502    0  0.28689006895E+02  0.22992794070E+03  0.80495551865E+03  0.83764151284E+03  0.25500000920E-02 0. -1.
       -2    1    3    3    0  502 -0.28689006895E+02 -0.22992794070E+03 -0.22294692553E+03  0.32155131572E+03  0.25500000920E-02 0.  1.
</event>
<event>
 5   0  0.1598986E-02  0.9649206E+03  0.7818609E-02  0.9347879E-01
        2   -1    0    0  501    0  0.00000000000E+00  0.00000000000E+00  0.11898012780E+04  0.11898012780E+04  0.25500000920E-02 0.  1.
       -2   -1    0    0    0  501  0.00000000000E+00  0.00000000000E+00 -0.19563597112E+03  0.19563597114E+03  0.25500000920E-02 0. -1.
    10030    2    1    2    0    0  0.00000000000E+00  0.00000000000E+00  0.99416530690E+03  0.13854372492E+04  0.96492057389E+03 0.  0.
        3    1    3    3  502    0 -0.65765363483E+02  0.43553558435E+03  0.21443846718E+03  0.48989814725E+03  0.10100000352E+00 0. -1.
       -3    1    3    3    0  502  0.65765363483E+02 -0.43553558435E+03  0.77972683971E+03  0.89553910191E+03  0.10100000352E+00 0.  1.
</event>
<event>
 5   0  0.1617721E-02  0.9968604E+03  0.7818609E-02  0.9311995E-01
       -2   -1    0    0    0  501  0.00000000000E+00  0.00000000000E+00  0.22451938643E+03  0.22451938644E+03  0.25500000920E-02 0. -1.
        2   -1    0    0  501    0  0.00000000000E+00  0.00000000000E+00 -0.11065086821E+04  0.11065086821E+04  0.25500000920E-02 0.  1.
    10030    2    1    2    0    0  0.00000000000E+00  0.00000000000E+00 -0.88198929564E+03  0.13310280685E+04  0.99686037214E+03 0.  0.
        5    1    3    3  502    0  0.28585454335E+03 -0.23764838112E+03 -0.88428168387E+03  0.95925270885E+03  0.46999998093E+01 0.  1.
       -5    1    3    3    0  502 -0.28585454335E+03  0.23764838112E+03  0.22923882367E+01  0.37177535966E+03  0.46999998093E+01 0. -1.
</event>
<event>
 5   0  0.9759443E-03  0.9195767E+03  0.7818609E-02  0.9401435E-01
       -1   -1    0    0    0  501  0.00000000000E+00  0.00000000000E+00  0.28477206743E+03  0.28477206747E+03  0.50400001928E-02 0.  1.
        1   -1    0    0  501    0  0.00000000000E+00  0.00000000000E+00 -0.74236680635E+03  0.74236680636E+03  0.50400001928E-02 0. -1.
    10030    2    1    2    0    0  0.00000000000E+00  0.00000000000E+00 -0.45759473892E+03  0.10271388738E+04  0.91957670755E+03 0.  0.
        2    1    3    3  502    0 -0.33377870245E+03  0.18585252137E-01 -0.58200894119E+03  0.67092669509E+03  0.25500000920E-02 0. -1.
       -2    1    3    3    0  502  0.33377870245E+03 -0.18585252137E-01  0.12441420227E+03  0.35621217875E+03  0.25500000920E-02 0.  1.
</event>
<event>
 5   0  0.1571895E-02  0.1006397E+04  0.7818609E-02  0.9301556E-01
        2   -1    0    0  501    0  0.00000000000E+00  0.00000000000E+00  0.40985179404E+03  0.40985179405E+03  0.25500000920E-02 0. -1.
       -2   -1    0    0    0  501  0.00000000000E+00  0.00000000000E+00 -0.61780559546E+03  0.61780559546E+03  0.25500000920E-02 0.  1.
    10030    2    1    2    0    0  0.00000000000E+00  0.00000000000E+00 -0.20795380141E+03  0.10276573895E+04  0.10063970025E+04 0.  0.
        2    1    3    3  502    0  0.17238361925E+03 -0.39480072145E+03 -0.36951857269E+03  0.56756294577E+03  0.25500000920E-02 0. -1.
       -2    1    3    3    0  502 -0.17238361925E+03  0.39480072145E+03  0.16156477127E+03  0.46009444375E+03  0.25500000920E-02 0.  1.
</event>
<event>
 5   0  0.9759443E-03  0.9873251E+03  0.7818609E-02  0.9322557E-01
        1   -1    0    0  501    0  0.00000000000E+00  0.00000000000E+00  0.41065877847E+03  0.41065877850E+03  0.50400001928E-02 0. -1.
       -1   -1    0    0    0  501  0.00000000000E+00  0.00000000000E+00 -0.59344328646E+03  0.59344328648E+03  0.50400001928E-02 0.  1.
    10030    2    1    2    0    0  0.00000000000E+00  0.00000000000E+00 -0.18278450799E+03  0.10041020650E+04  0.98732506326E+03 0.  0.
        2    1    3    3  502    0 -0.27839879439E+03 -0.38973401132E+03 -0.21302474165E+03  0.52419274018E+03  0.25500000920E-02 0. -1.
       -2    1    3    3    0  502  0.27839879439E+03  0.38973401132E+03  0.30240233661E+02  0.47990932480E+03  0.25500000920E-02 0.  1.
</event>
<event>
 5   0  0.1617721E-02  0.1021771E+04  0.7818609E-02  0.9284984E-01
       -2   -1    0    0    0  501  0.00000000000E+00  0.00000000000E+00  0.34337009866E+03  0.34337009867E+03  0.25500000920E-02 0.  1.
        2   -1    0    0  501    0  0.00000000000E+00  0.00000000000E+00 -0.76012476504E+03  0.76012476504E+03  0.25500000920E-02 0. -1.
    10030    2    1    2    0    0  0.00000000000E+00  0.00000000000E+00 -0.41675466638E+03  0.11034948637E+04  0.10217712377E+04 0.  0.
        5    1    3    3  502    0 -0.30051541508E+03 -0.36487717902E+03 -0.41761859007E+03  0.63077115283E+03  0.46999998093E+01 0. -1.
       -5    1    3    3    0  502  0.30051541508E+03  0.36487717902E+03  0.86392369056E+00  0.47272371088E+03  0.46999998093E+01 0.  1.
</event>
<event>
 5   0  0.9471140E-03  0.9947974E+03  0.7818609E-02  0.9314269E-01
       -1   -1    0    0    0  501  0.00000000000E+00  0.00000000000E+00  0.14877580925E+03  0.14877580933E+03  0.50400001928E-02 0.  1.
        1   -1    0    0  501    0  0.00000000000E+00  0.00000000000E+00 -0.16629413626E+04  0.16629413626E+04  0.50400001928E-02 0. -1.
    10030    2    1    2    0    0  0.00000000000E+00  0.00000000000E+00 -0.15141655534E+04  0.18117171720E+04  0.99479736035E+03 0.  0.
        4    1    3    3  502    0 -0.48163842450E+03 -0.62503337993E+02 -0.56159838928E+03  0.74248003539E+03  0.12699999809E+01 0. -1.
       -4    1    3    3    0  502  0.48163842450E+03  0.62503337993E+02 -0.95256716410E+03  0.10692371366E+04  0.12699999809E+01 0.  1.
</event>
<event>
 5   0  0.9759443E-03  0.9954444E+03  0.7818609E-02  0.9313555E-01
        1   -1    0    0  501    0  0.00000000000E+00  0.00000000000E+00  0.15728978151E+04  0.15728978151E+04  0.50400001928E-02 0.  1.
       -1   -1    0    0    0  501  0.00000000000E+00  0.00000000000E+00 -0.15749743301E+03  0.15749743309E+03  0.50400001928E-02 0. -1.
    10030    2    1    2    0    0  0.00000000000E+00  0.00000000000E+00  0.14154003821E+04  0.17303952482E+04  0.99544435976E+03 0.  0.
        2    1    3    3  502    0 -0.38274688420E+03 -0.31705952155E+03  0.66152999911E+03  0.82743208621E+03  0.25500000920E-02 0.  1.
       -2    1    3    3    0  502  0.38274688420E+03  0.31705952155E+03  0.75387038296E+03  0.90296316197E+03  0.25500000920E-02 0. -1.
</event>
<event>
 5   0  0.9507815E-03  0.1001578E+04  0.7818609E-02  0.9306816E-01
        1   -1    0    0  501    0  0.00000000000E+00  0.00000000000E+00  0.12062920576E+04  0.12062920576E+04  0.50400001928E-02 0.  1.
       -1   -1    0    0    0  501  0.00000000000E+00  0.00000000000E+00 -0.20790109839E+03  0.20790109845E+03  0.50400001928E-02 0. -1.
    10030    2    1    2    0    0  0.00000000000E+00  0.00000000000E+00  0.99839095919E+03  0.14141931560E+04  0.10015776431E+04 0.  0.
        1    1    3    3  502    0 -0.41841120486E+03  0.23072566662E+03  0.71092994234E+03  0.85657670558E+03  0.50400001928E-02 0.  1.
       -1    1    3    3    0  502  0.41841120486E+03 -0.23072566662E+03  0.28746101685E+03  0.55761645046E+03  0.50400001928E-02 0. -1.
</event>
<event>
 5   0  0.1617721E-02  0.9732906E+03  0.7818609E-02  0.9338334E-01
        2   -1    0    0  501    0  0.00000000000E+00  0.00000000000E+00  0.11328879974E+04  0.11328879974E+04  0.25500000920E-02 0. -1.
       -2   -1    0    0    0  501  0.00000000000E+00  0.00000000000E+00 -0.20904417105E+03  0.20904417107E+03  0.25500000920E-02 0.  1.
    10030    2    1    2    0    0  0.00000000000E+00  0.00000000000E+00  0.92384382630E+03  0.13419321684E+04  0.97329056775E+03 0.  0.
        5    1    3    3  502    0  0.24210245610E+03 -0.41760530778E+03  0.37699948514E+03  0.61250183194E+03  0.46999998093E+01 0.  1.
       -5    1    3    3    0  502 -0.24210245610E+03  0.41760530778E+03  0.54684434116E+03  0.72943033649E+03  0.46999998093E+01 0. -1.
</event>
<event>
 5   0  0.9396660E-03  0.9913742E+03  0.7818609E-02  0.9318056E-01
        1   -1    0    0  501    0  0.00000000000E+00  0.00000000000E+00  0.85313954516E+03  0.85313954518E+03  0.50400001928E-02 0. -1.
       -1   -1    0    0    0  501  0.00000000000E+00  0.00000000000E+00 -0.28800175631E+03  0.28800175636E+03  0.50400001928E-02 0.  1.
    10030    2    1    2    0    0  0.00000000000E+00  0.00000000000E+00  0.56513778885E+03  0.11411413015E+04  0.99137417239E+03 0.  0.
        5    1    3    3  502    0 -0.24523319959E+03  0.35618481727E+03  0.56139567461E+03  0.70865657388E+03  0.46999998093E+01 0. -1.
       -5    1    3    3    0  502  0.24523319959E+03 -0.35618481727E+03  0.37421142371E+01  0.43248472765E+03  0.46999998093E+01 0.  1.
</event>
<event>
 5   0  0.1000773E-02  0.1022125E+04  0.7818609E-02  0.9284606E-01
       -1   -1    0    0    0  501  0.00000000000E+00  0.00000000000E+00  0.78305439332E+03  0.78305439333E+03  0.50400001928E-02 0.  1.
        1   -1    0    0  501    0  0.00000000000E+00  0.00000000000E+00 -0.33354604996E+03  0.33354604999E+03  0.50400001928E-02 0. -1.
    10030    2    1    2    0    0  0.00000000000E+00  0.00000000000E+00  0.44950834336E+03  0.11166004433E+04  0.10221246496E+04 0.  0.
        3    1    3    3  502    0 -0.42812441640E+03  0.23183516541E+03  0.39450902351E+03  0.62663820476E+03  0.10100000352E+00 0. -1.
       -3    1    3    3    0  502  0.42812441640E+03 -0.23183516541E+03  0.54999319854E+02  0.48996223857E+03  0.10100000352E+00 0.  1.
</event>
<event>
 5   0  0.1663497E-02  0.9889570E+03  0.7818609E-02  0.9320740E-01
       -2   -1    0    0    0  501  0.00000000000E+00  0.00000000000E+00  0.63169322664E+03  0.63169322664E+03  0.25500000920E-02 0.  1.
        2   -1    0    0  501    0  0.00000000000E+00  0.00000000000E+00 -0.38706916594E+03  0.38706916594E+03  0.25500000920E-02 0. -1.
    10030    2    1    2    0    0  0.00000000000E+00  0.00000000000E+00  0.24462406070E+03  0.10187623926E+04  0.98895696644E+03 0.  0.
        1    1    3    3  502    0 -0.12104371561E+03 -0.29086955292E+03 -0.27029403823E+03  0.41510907607E+03  0.50400001928E-02 0. -1.
       -1    1    3    3    0  502  0.12104371561E+03  0.29086955292E+03  0.51491809893E+03  0.60365331652E+03  0.50400001928E-02 0.  1.
</event>
<event>
 5   0  0.9507815E-03  0.9989587E+03  0.7818609E-02  0.9309688E-01
        1   -1    0    0  501    0  0.00000000000E+00  0.00000000000E+00  0.11008896285E+04  0.11008896285E+04  0.50400001928E-02 0.  1.
       -1   -1    0    0    0  501  0.00000000000E+00  0.00000000000E+00 -0.22661637011E+03  0.22661637017E+03  0.50400001928E-02 0. -1.
    10030    2    1    2    0    0  0.00000000000E+00  0.00000000000E+00  0.87427325841E+03  0.13275059987E+04  0.99895868094E+03 0.  0.
        1    1    3    3  502    0  0.72062329048E+02 -0.12681831984E+03 -0.19768300658E+03  0.24567139970E+03  0.50400001928E-02 0. -1.
       -1    1    3    3    0  502 -0.72062329048E+02  0.12681831984E+03  0.10719562650E+04  0.10818345990E+04  0.50400001928E-02 0.  1.
</event>
<event>
 5   0  0.1598986E-02  0.1047992E+04  0.7818609E-02  0.9257419E-01
        2   -1    0    0  501    0  0.00000000000E+00  0.00000000000E+00  0.12348028301E+04  0.12348028301E+04  0.25500000920E-02 0. -1.
       -2   -1    0    0    0  501  0.00000000000E+00  0.00000000000E+00 -0.22236099679E+03  0.22236099681E+03  0.25500000920E-02 0.  1.
    10030    2    1    2    0    0  0.00000000000E+00  0.00000000000E+00  0.10124418333E+04  0.14571638269E+04  0.10479923438E+04 0.  0.
        3    1    3    3  502    0  0.50850216740E+02  0.24926896510E+03  0.11431719071E+04  0.11711373877E+04  0.10100000352E+00 0. -1.
       -3    1    3    3    0  502 -0.50850216740E+02 -0.24926896510E+03 -0.13073007382E+03  0.28602643917E+03  0.10100000352E+00 0.  1.
</event>
<event>
 5   0  0.9507815E-03  0.1013513E+04  0.7818609E-02  0.9293847E-01
        1   -1    0    0  501    0  0.00000000000E+00  0.00000000000E+00  0.99705792441E+03  0.99705792443E+03  0.50400001928E-02 0.  1.
       -1   -1    0    0    0  501  0.00000000000E+00  0.00000000000E+00 -0.25755978887E+03  0.25755978892E+03  0.50400001928E-02 0. -1.
    10030    2    1    2    0    0  0.00000000000E+00  0.00000000000E+00  0.73949813555E+03  0.12546177133E+04  0.10135127597E+04 0.  0.
        1    1    3    3  502    0 -0.16518688735E+03  0.40381250591E+03  0.50645074932E+02  0.43922223455E+03  0.50400001928E-02 0. -1.
       -1    1    3    3    0  502  0.16518688735E+03 -0.40381250591E+03  0.68885306062E+03  0.81539547879E+03  0.50400001928E-02 0.  1.
</event>
<event>
 5   0  0.9471140E-03  0.1018488E+04  0.7818609E-02  0.9288497E-01
       -1   -1    0    0    0  501  0.00000000000E+00  0.00000000000E+00  0.14508957462E+03  0.14508957470E+03  0.50400001928E-02 0. -1.
        1   -1    0    0  501    0  0.00000000000E+00  0.00000000000E+00 -0.17873747185E+04  0.17873747185E+04  0.50400001928E-02 0.  1.
    10030    2    1    2    0    0  0.00000000000E+00  0.00000000000E+00 -0.16422851439E+04  0.19324642932E+04  0.10184879728E+04 0.  0.
        4    1    3    3  502    0 -0.46137764281E+03  0.83303860298E+02 -0.44395416184E+03  0.64568240888E+03  0.12699999809E+01 0. -1.
       -4    1    3    3    0  502  0.46137764281E+03 -0.83303860298E+02 -0.11983309821E+04  0.12867818844E+04  0.12699999809E+01 0.  1.
</event>
<event>
 5   0  0.1663497E-02  0.9927587E+03  0.7818609E-02  0.9316523E-01
       -2   -1    0    0    0  501  0.00000000000E+00  0.00000000000E+00  0.10098883414E+03  0.10098883417E+03  0.25500000920E-02 0.  1.
        2   -1    0    0  501    0  0.00000000000E+00  0.00000000000E+00 -0.24397991247E+04  0.24397991247E+04  0.25500000920E-02 0. -1.
    10030    2    1    2    0    0  0.00000000000E+00  0.00000000000E+00 -0.23388102906E+04  0.25407879589E+04  0.99275872028E+03 0.  0.
        1    1    3    3  502    0 -0.46630300372E+03 -0.94286019490E+02 -0.80688276912E+03  0.93668999561E+03  0.50400001928E-02 0.  1.
       -1    1    3    3    0  502  0.46630300372E+03  0.94286019490E+02 -0.15319275215E+04  0.16040979633E+04  0.50400001928E-02 0. -1.
</event>
<event>
 5   0  0.9507815E-03  0.1000525E+04  0.7818609E-02  0.9307970E-01
       -1   -1    0    0    0  501  0.00000000000E+00  0.00000000000E+00  0.14799665128E+03  0.14799665136E+03  0.50400001928E-02 0. -1.
        1   -1    0    0  501    0  0.00000000000E+00  0.00000000000E+00 -0.16909999246E+04  0.16909999246E+04  0.50400001928E-02 0.  1.
    10030    2    1    2    0    0  0.00000000000E+00  0.00000000000E+00 -0.15430032734E+04  0.18389965760E+04  0.10005245149E+04 0.  0.
        1    1    3    3  502    0  0.36794840783E+03  0.33249696264E+03 -0.65066493997E+03  0.81811070469E+03  0.50400001928E-02 0.  1.
       -1    1    3    3    0  502 -0.36794840783E+03 -0.33249696264E+03 -0.89233833338E+03  0.10208858713E+04  0.50400001928E-02 0. -1.
</event>
<event>
 5   0  0.9507815E-03  0.1024699E+04  0.7818609E-02  0.9281863E-01
        1   -1    0    0  501    0  0.00000000000E+00  0.00000000000E+00  0.84002649072E+03  0.84002649074E+03  0.50400001928E-02 0.  1.
       -1   -1    0    0    0  501  0.00000000000E+00  0.00000000000E+00 -0.31249249073E+03  0.31249249077E+03  0.50400001928E-02 0. -1.
    10030    2    1    2    0    0  0.00000000000E+00  0.00000000000E+00  0.52753399999E+03  0.11525189815E+04  0.10246989224E+04 0.  0.
        1    1    3    3  502    0 -0.12628587864E+03  0.19320509886E+03 -0.25070205421E+03  0.34077537085E+03  0.50400001928E-02 0. -1.
       -1    1    3    3    0  502  0.12628587864E+03 -0.19320509886E+03  0.77823605420E+03  0.81174361066E+03  0.50400001928E-02 0.  1.
</event>
<event>
 5   0  0.1598986E-02  0.7438031E+03  0.7818609E-02  0.9645123E-01
       -2   -1    0    0    0  501  0.00000000000E+00  0.00000000000E+00  0.12675985594E+03  0.12675985596E+03  0.25500000920E-02 0. -1.
        2   -1    0    0  501    0  0.00000000000E+00  0.00000000000E+00 -0.10911242389E+04  0.10911242389E+04  0.25500000920E-02 0.  1.
    10030    2    1    2    0    0  0.00000000000E+00  0.00000000000E+00 -0.96436438299E+03  0.12178840949E+04  0.74380306897E+03 0.  0.
        3    1    3    3  502    0 -0.22011826728E+03  0.28112856507E+03 -0.65254326163E+03  0.74384006359E+03  0.10100000352E+00 0.  1.
       -3    1    3    3    0  502  0.22011826728E+03 -0.28112856507E+03 -0.31182112136E+03  0.47404403131E+03  0.10100000352E+00 0. -1.
</event>
<event>
 5   0  0.1617721E-02  0.9969140E+03  0.7818609E-02  0.9311936E-01
       -2   -1    0    0    0  501  0.00000000000E+00  0.00000000000E+00  0.24399495336E+03  0.24399495338E+03  0.25500000920E-02 0.  1.
        2   -1    0    0  501    0  0.00000000000E+00  0.00000000000E+00 -0.10182972246E+04  0.10182972246E+04  0.25500000920E-02 0. -1.
    10030    2    1    2    0    0  0.00000000000E+00  0.00000000000E+00 -0.77430227125E+03  0.12622921780E+04  0.99691400600E+03 0.  0.
        5    1    3    3  502    0  0.20168571953E+03 -0.55442350444E+02 -0.96000862064E+03  0.98254242931E+03  0.46999998093E+01 0. -1.
       -5    1    3    3    0  502 -0.20168571953E+03  0.55442350444E+02  0.18570634939E+03  0.27974974868E+03  0.46999998093E+01 0.  1.
</event>
<event>
 5   0  0.1571895E-02  0.9877717E+03  0.7818609E-02  0.9322059E-01
        2   -1    0    0  501    0  0.00000000000E+00  0.00000000000E+00  0.10181002872E+04  0.10181002872E+04  0.25500000920E-02 0. -1.
       -2   -1    0    0    0  501  0.00000000000E+00  0.00000000000E+00 -0.23958666585E+03  0.23958666587E+03  0.25500000920E-02 0.  1.
    10030    2    1    2    0    0  0.00000000000E+00  0.00000000000E+00  0.77851362138E+03  0.12576869531E+04  0.98777174152E+03 0.  0.
        2    1    3    3  502    0 -0.43456062664E+03  0.23403465912E+03  0.36690785781E+03  0.61500937881E+03  0.25500000920E-02 0.  1.
       -2    1    3    3    0  502  0.43456062664E+03 -0.23403465912E+03  0.41160576357E+03  0.64267757430E+03  0.25500000920E-02 0. -1.
</event>
<event>
 5   0  0.1571895E-02  0.9912308E+03  0.7818609E-02  0.9318215E-01
        2   -1    0    0  501    0  0.00000000000E+00  0.00000000000E+00  0.93115512240E+03  0.93115512240E+03  0.25500000920E-02 0.  1.
       -2   -1    0    0    0  501  0.00000000000E+00  0.00000000000E+00 -0.26379561898E+03  0.26379561899E+03  0.25500000920E-02 0. -1.
    10030    2    1    2    0    0  0.00000000000E+00  0.00000000000E+00  0.66735950341E+03  0.11949507414E+04  0.99123083465E+03 0.  0.
        2    1    3    3  502    0 -0.34123034053E+03 -0.33110550041E+03  0.50230487309E+03  0.69164961016E+03  0.25500000920E-02 0.  1.
       -2    1    3    3    0  502  0.34123034053E+03  0.33110550041E+03  0.16505463032E+03  0.50330113123E+03  0.25500000920E-02 0. -1.
</event>
<event>
 5   0  0.1598986E-02  0.9345958E+03  0.7818609E-02  0.9383339E-01
        2   -1    0    0  501    0  0.00000000000E+00  0.00000000000E+00  0.14625975169E+04  0.14625975169E+04  0.25500000920E-02 0.  1.
       -2   -1    0    0    0  501  0.00000000000E+00  0.00000000000E+00 -0.14930103340E+03  0.14930103342E+03  0.25500000920E-02 0. -1.
    10030    2    1    2    0    0  0.00000000000E+00  0.00000000000E+00  0.13132964835E+04  0.16118985503E+04  0.93459578587E+03 0.  0.
        3    1    3    3  502    0  0.36592953937E+03  0.21118756940E+03  0.31230052689E+03  0.52539151739E+03  0.10100000352E+00 0. -1.
       -3    1    3    3    0  502 -0.36592953937E+03 -0.21118756940E+03  0.10009959566E+04  0.10865070330E+04  0.10100000352E+00 0.  1.
</event>
<event>
 5   0  0.9759443E-03  0.9750479E+03  0.7818609E-02  0.9336343E-01
       -1   -1    0    0    0  501  0.00000000000E+00  0.00000000000E+00  0.19471310956E+03  0.19471310962E+03  0.50400001928E-02 0.  1.
        1   -1    0    0  501    0  0.00000000000E+00  0.00000000000E+00 -0.12206656895E+04  0.12206656895E+04  0.50400001928E-02 0. -1.
    10030    2    1    2    0    0  0.00000000000E+00  0.00000000000E+00 -0.10259525799E+04  0.14153787991E+04  0.97504792124E+03 0.  0.
        2    1    3    3  502    0 -0.89889046126E+02  0.74854024814E+01  0.18249509078E+03  0.20356947224E+03  0.25500000920E-02 0.  1.
       -2    1    3    3    0  502  0.89889046126E+02 -0.74854024814E+01 -0.12084476707E+04  0.12118093269E+04  0.25500000920E-02 0. -1.
</event>
<event>
 5   0  0.1663497E-02  0.1034531E+04  0.7818609E-02  0.9271462E-01
       -2   -1    0    0    0  501  0.00000000000E+00  0.00000000000E+00  0.14765934703E+03  0.14765934705E+03  0.25500000920E-02 0. -1.
        2   -1    0    0  501    0  0.00000000000E+00  0.00000000000E+00 -0.18120342077E+04  0.18120342077E+04  0.25500000920E-02 0.  1.
    10030    2    1    2    0    0  0.00000000000E+00  0.00000000000E+00 -0.16643748607E+04  0.19596935547E+04  0.10345313681E+04 0.  0.
        1    1    3    3  502    0 -0.50178300112E+03  0.12285512268E+03 -0.88173752068E+03  0.10219298492E+04  0.50400001928E-02 0. -1.
       -1    1    3    3    0  502  0.50178300112E+03 -0.12285512268E+03 -0.78263733998E+03  0.93776370549E+03  0.50400001928E-02 0.  1.
</event>
<event>
 5   0  0.9507815E-03  0.9786998E+03  0.7818609E-02  0.9332220E-01
       -1   -1    0    0    0  501  0.00000000000E+00  0.00000000000E+00  0.25067944214E+03  0.25067944219E+03  0.50400001928E-02 0.  1.
        1   -1    0    0  501    0  0.00000000000E+00  0.00000000000E+00 -0.95525722542E+03  0.95525722543E+03  0.50400001928E-02 0. -1.
    10030    2    1    2    0    0  0.00000000000E+00  0.00000000000E+00 -0.70457778328E+03  0.12059366676E+04  0.97869984859E+03 0.  0.
        1    1    3    3  502    0 -0.53031796176E+00 -0.26462623525E+03  0.15490948355E+03  0.30663377789E+03  0.50400001928E-02 0.  1.
       -1    1    3    3    0  502  0.53031796176E+00  0.26462623525E+03 -0.85948726683E+03  0.89930288974E+03  0.50400001928E-02 0. -1.
</event>
<event>
 5   0  0.1000773E-02  0.9421223E+03  0.7818609E-02  0.9374406E-01
        1   -1    0    0  501    0  0.00000000000E+00  0.00000000000E+00  0.27896686787E+03  0.27896686792E+03  0.50400001928E-02 0. -1.
       -1   -1    0    0    0  501  0.00000000000E+00  0.00000000000E+00 -0.79543003466E+03  0.79543003468E+03  0.50400001928E-02 0.  1.
    10030    2    1    2    0    0  0.00000000000E+00  0.00000000000E+00 -0.51646316679E+03  0.10743969026E+04  0.94212233901E+03 0.  0.
        3    1    3    3  502    0  0.24998061786E+02  0.10994084312E+03  0.26335270942E+03  0.28647260225E+03  0.10100000352E+00 0. -1.
       -3    1    3    3    0  502 -0.24998061786E+02 -0.10994084312E+03 -0.77981587621E+03  0.78792430034E+03  0.10100000352E+00 0.  1.
</event>
<event>
 5   0  0.9471140E-03  0.9842988E+03  0.7818609E-02  0.9325935E-01
        1   -1    0    0  501    0  0.00000000000E+00  0.00000000000E+00  0.41198687351E+03  0.41198687354E+03  0.50400001928E-02 0.  1.
       -1   -1    0    0    0  501  0.00000000000E+00  0.00000000000E+00 -0.58790962438E+03  0.58790962440E+03  0.50400001928E-02 0. -1.
    10030    2    1    2    0    0  0.00000000000E+00  0.00000000000E+00 -0.17592275087E+03  0.99989649794E+03  0.98429883283E+03 0.  0.
        4    1    3    3  502    0 -0.11673472249E+03 -0.39049238588E+03  0.19226892189E+03  0.45064426112E+03  0.12699999809E+01 0.  1.
       -4    1    3    3    0  502  0.11673472249E+03  0.39049238588E+03 -0.36819167275E+03  0.54925223681E+03  0.12699999809E+01 0. -1.
</event>
<event>
 5   0  0.1656859E-02  0.9473031E+03  0.7818609E-02  0.9368308E-01
       -2   -1    0    0    0  501  0.00000000000E+00  0.00000000000E+00  0.19196830621E+03  0.19196830623E+03  0.25500000920E-02 0.  1.
        2   -1    0    0  501    0  0.00000000000E+00  0.00000000000E+00 -0.11686606827E+04  0.11686606827E+04  0.25500000920E-02 0. -1.
    10030    2    1    2    0    0  0.00000000000E+00  0.00000000000E+00 -0.97669237648E+03  0.13606289889E+04  0.94730314432E+03 0.  0.
        4    1    3    3  502    0 -0.30440421470E+03  0.19558311959E+03 -0.92737476624E+03  0.99545981967E+03  0.12699999809E+01 0. -1.
       -4    1    3    3    0  502  0.30440421470E+03 -0.19558311959E+03 -0.49317610235E+02  0.36516916926E+03  0.12699999809E+01 0.  1.
</event>
<event>
 5   0  0.1000773E-02  0.1175840E+04  0.7818609E-02  0.9134270E-01
       -1   -1    0    0    0  501  0.00000000000E+00  0.00000000000E+00  0.33665713049E+03  0.33665713053E+03  0.50400001928E-02 0. -1.
        1   -1    0    0  501    0  0.00000000000E+00  0.00000000000E+00 -0.10267123554E+04  0.10267123554E+04  0.50400001928E-02 0.  1.
    10030    2    1    2    0    0  0.00000000000E+00  0.00000000000E+00 -0.69005522487E+03  0.13633694859E+04  0.11758401855E+04 0.  0.
        3    1    3    3  502    0  0.41605158694E+03 -0.35917638955E+03 -0.58697813058E+03  0.80414547053E+03  0.10100000352E+00 0.  1.
       -3    1    3    3    0  502 -0.41605158694E+03  0.35917638955E+03 -0.10307709430E+03  0.55922401537E+03  0.10100000352E+00 0. -1.
</event>
<event>
 5   0  0.1617721E-02  0.1015523E+04  0.7818609E-02  0.9291681E-01
       -2   -1    0    0    0  501  0.00000000000E+00  0.00000000000E+00  0.21146174146E+03  0.21146174147E+03  0.25500000920E-02 0. -1.
        2   -1    0    0  501    0  0.00000000000E+00  0.00000000000E+00 -0.12192359580E+04  0.12192359581E+04  0.25500000920E-02 0.  1.
    10030    2    1    2    0    0  0.00000000000E+00  0.00000000000E+00 -0.10077742166E+04  0.14306976995E+04  0.10155230356E+04 0.  0.
        5    1    3    3  502    0 -0.11951505351E+03 -0.39737549605E+02  0.18907425236E+03  0.22723134416E+03  0.46999998093E+01 0. -1.
       -5    1    3    3    0  502  0.11951505351E+03  0.39737549605E+02 -0.11968484690E+04  0.12034663554E+04  0.46999998093E+01 0.  1.
</event>
<event>
 5   0  0.1000773E-02  0.1007113E+04  0.7818609E-02  0.9300777E-01
        1   -1    0    0  501    0  0.00000000000E+00  0.00000000000E+00  0.67720676850E+03  0.67720676852E+03  0.50400001928E-02 0.  1.
       -1   -1    0    0    0  501  0.00000000000E+00  0.00000000000E+00 -0.37443404348E+03  0.37443404352E+03  0.50400001928E-02 0. -1.
    10030    2    1    2    0    0  0.00000000000E+00  0.00000000000E+00  0.30277272502E+03  0.10516408120E+04  0.10071132382E+04 0.  0.
        3    1    3    3  502    0 -0.47568368742E+03 -0.13339322928E+02  0.32333737838E+03  0.57532597584E+03  0.10100000352E+00 0. -1.
       -3    1    3    3    0  502  0.47568368742E+03  0.13339322928E+02 -0.20564653359E+02  0.47631483620E+03  0.10100000352E+00 0.  1.
</event>
<event>
 5   0  0.1663497E-02  0.1046068E+04  0.7818609E-02  0.9259413E-01
       -2   -1    0    0    0  501  0.00000000000E+00  0.00000000000E+00  0.34001807132E+03  0.34001807133E+03  0.25500000920E-02 0. -1.
        2   -1    0    0  501    0  0.00000000000E+00  0.00000000000E+00 -0.80455879629E+03  0.80455879630E+03  0.25500000920E-02 0.  1.
    10030    2    1    2    0    0  0.00000000000E+00  0.00000000000E+00 -0.46454072497E+03  0.11445768676E+04  0.10460679331E+04 0.  0.
        1    1    3    3  502    0  0.41253987718E+03 -0.18950993111E+03 -0.51646288074E+03  0.68763149394E+03  0.50400001928E-02 0.  1.
       -1    1    3    3    0  502 -0.41253987718E+03  0.18950993111E+03  0.51922155773E+02  0.45694537369E+03  0.50400001928E-02 0. -1.
</event>
<event>
 5   0  0.1000773E-02  0.9958111E+03  0.7818609E-02  0.9313151E-01
        1   -1    0    0  501    0  0.00000000000E+00  0.00000000000E+00  0.21438783963E+04  0.21438783963E+04  0.50400001928E-02 0.  1.
       -1   -1    0    0    0  501  0.00000000000E+00  0.00000000000E+00 -0.11563619743E+03  0.11563619754E+03  0.50400001928E-02 0. -1.
    10030    2    1    2    0    0  0.00000000000E+00  0.00000000000E+00  0.20282421989E+04  0.22595145938E+04  0.99581111788E+03 0.  0.
        3    1    3    3  502    0  0.63818184036E+02 -0.47331151393E+03  0.69473388570E+03  0.84306093017E+03  0.10100000352E+00 0. -1.
       -3    1    3    3    0  502 -0.63818184036E+02  0.47331151393E+03  0.13335083132E+04  0.14164536637E+04  0.10100000352E+00 0.  1.
</event>
<event>
 5   0  0.1617721E-02  0.8817707E+03  0.7818609E-02  0.9448660E-01
       -2   -1    0    0    0  501  0.00000000000E+00  0.00000000000E+00  0.23238955086E+03  0.23238955088E+03  0.25500000920E-02 0. -1.
        2   -1    0    0  501    0  0.00000000000E+00  0.00000000000E+00 -0.83643998103E+03  0.83643998104E+03  0.25500000920E-02 0.  1.
    10030    2    1    2    0    0  0.00000000000E+00  0.00000000000E+00 -0.60405043017E+03  0.10688295319E+04  0.88177074464E+03 0.  0.
        5    1    3    3  502    0 -0.12502532060E+03 -0.33267613677E+03  0.14185547879E+02  0.35570783310E+03  0.46999998093E+01 0. -1.
       -5    1    3    3    0  502  0.12502532060E+03  0.33267613677E+03 -0.61823597805E+03  0.71312169881E+03  0.46999998093E+01 0.  1.
</event>
<event>
 5   0  0.1598986E-02  0.1002451E+04  0.7818609E-02  0.9305860E-01
       -2   -1    0    0    0  501  0.00000000000E+00  0.00000000000E+00  0.20274948461E+03  0.20274948463E+03  0.25500000920E-02 0. -1.
        2   -1    0    0  501    0  0.00000000000E+00  0.00000000000E+00 -0.12391016953E+04  0.12391016953E+04  0.25500000920E-02 0.  1.
    10030    2    1    2    0    0  0.00000000000E+00  0.00000000000E+00 -0.10363522107E+04  0.14418511799E+04  0.10024514554E+04 0.  0.
        3    1    3    3  502    0  0.42144649466E+03  0.92741033587E+02 -0.15144782140E+03  0.45733412291E+03  0.10100000352E+00 0. -1.
       -3    1    3    3    0  502 -0.42144649466E+03 -0.92741033587E+02 -0.88490438926E+03  0.98451705699E+03  0.10100000352E+00 0.  1.
</event>
<event>
 5   0  0.1598986E-02  0.1314719E+04  0.7818609E-02  0.9017974E-01
        2   -1    0    0  501    0  0.00000000000E+00  0.00000000000E+00  0.75816525542E+03  0.75816525542E+03  0.25500000920E-02 0.  1.
       -2   -1    0    0    0  501  0.00000000000E+00  0.00000000000E+00 -0.56995690391E+03  0.56995690392E+03  0.25500000920E-02 0. -1.
    10030    2    1    2    0    0  0.00000000000E+00  0.00000000000E+00  0.18820835151E+03  0.13281221593E+04  0.13147190143E+04 0.  0.
        3    1    3    3  502    0 -0.51061819061E+01 -0.45628154727E+03 -0.38390324138E+03  0.59632259089E+03  0.10100000352E+00 0. -1.
       -3    1    3    3    0  502  0.51061819061E+01  0.45628154727E+03  0.57211159288E+03  0.73179956845E+03  0.10100000352E+00 0.  1.
</event>
<event>
 5   0  0.9471140E-03  0.9615972E+03  0.7818609E-02  0.9351697E-01
        1   -1    0    0  501    0  0.00000000000E+00  0.00000000000E+00  0.10446992684E+04  0.10446992684E+04  0.50400001928E-02 0.  1.
       -1   -1    0    0    0  501  0.00000000000E+00  0.00000000000E+00 -0.22127640053E+03  0.22127640059E+03  0.50400001928E-02 0. -1.
    10030    2    1    2    0    0  0.00000000000E+00  0.00000000000E+00  0.82342286788E+03  0.12659756690E+04  0.96159720008E+03 0.  0.
        4    1    3    3  502    0 -0.16234858807E+03 -0.22765881304E+03  0.92664311573E+03  0.96791253532E+03  0.12699999809E+01 0.  1.
       -4    1    3    3    0  502  0.16234858807E+03  0.22765881304E+03 -0.10322024785E+03  0.29806313370E+03  0.12699999809E+01 0. -1.
</event>
<event>
 5   0  0.9471140E-03  0.9901207E+03  0.7818609E-02  0.9319447E-01
        1   -1    0    0  501    0  0.00000000000E+00  0.00000000000E+00  0.73798911808E+03  0.73798911810E+03  0.50400001928E-02 0.  1.
       -1   -1    0    0    0  501  0.00000000000E+00  0.00000000000E+00 -0.33209808175E+03  0.33209808178E+03  0.50400001928E-02 0. -1.
    10030    2    1    2    0    0  0.00000000000E+00  0.00000000000E+00  0.40589103634E+03  0.10700871999E+04  0.99012074111E+03 0.  0.
        4    1    3    3  502    0  0.32610199212E+03 -0.11520344849E+03 -0.17987826166E+03  0.38983604980E+03  0.12699999809E+01 0. -1.
       -4    1    3    3    0  502 -0.32610199212E+03  0.11520344849E+03  0.58576929800E+03  0.68025115008E+03  0.12699999809E+01 0.  1.
</event>
<event>
 5   0  0.9507815E-03  0.9680267E+03  0.7818609E-02  0.9344325E-01
        1   -1    0    0  501    0  0.00000000000E+00  0.00000000000E+00  0.12231328059E+04  0.12231328059E+04  0.50400001928E-02 0.  1.
       -1   -1    0    0    0  501  0.00000000000E+00  0.00000000000E+00 -0.19153189237E+03  0.19153189244E+03  0.50400001928E-02 0. -1.
    10030    2    1    2    0    0  0.00000000000E+00  0.00000000000E+00  0.10316009135E+04  0.14146646983E+04  0.96802673721E+03 0.  0.
        1    1    3    3  502    0 -0.23931999275E+03 -0.19337029876E+03 -0.30225442556E+02  0.30915968168E+03  0.50400001928E-02 0. -1.
       -1    1    3    3    0  502  0.23931999275E+03  0.19337029876E+03  0.10618263561E+04  0.11055050166E+04  0.50400001928E-02 0.  1.
</event>
<event>
 5   0  0.9396660E-03  0.1024508E+04  0.7818609E-02  0.9282066E-01
       -1   -1    0    0    0  501  0.00000000000E+00  0.00000000000E+00  0.33756713096E+03  0.33756713099E+03  0.50400001928E-02 0. -1.
        1   -1    0    0  501    0  0.00000000000E+00  0.00000000000E+00 -0.77733922623E+03  0.77733922624E+03  0.50400001928E-02 0.  1.
    10030    2    1    2    0    0  0.00000000000E+00  0.00000000000E+00 -0.43977209527E+03  0.11149063572E+04  0.10245080232E+04 0.  0.
        5    1    3    3  502    0  0.18529147161E+03  0.47613391422E+03 -0.25980589527E+03  0.57319946522E+03  0.46999998093E+01 0. -1.
       -5    1    3    3    0  502 -0.18529147161E+03 -0.47613391422E+03 -0.17996620001E+03  0.54170689202E+03  0.46999998093E+01 0.  1.
</event>
<event>
 5   0  0.1000773E-02  0.9951376E+03  0.7818609E-02  0.9313894E-01
       -1   -1    0    0    0  501  0.00000000000E+00  0.00000000000E+00  0.79673926916E+03  0.79673926917E+03  0.50400001928E-02 0. -1.
        1   -1    0    0  501    0  0.00000000000E+00  0.00000000000E+00 -0.31073493727E+03  0.31073493731E+03  0.50400001928E-02 0.  1.
    10030    2    1    2    0    0  0.00000000000E+00  0.00000000000E+00  0.48600433189E+03  0.11074742065E+04  0.99513763240E+03 0.  0.
        3    1    3    3  502    0 -0.44605639157E+03  0.10609361490E+03  0.45808742118E+03  0.64812518484E+03  0.10100000352E+00 0. -1.
       -3    1    3    3    0  502  0.44605639157E+03 -0.10609361490E+03  0.27916910708E+02  0.45934902165E+03  0.10100000352E+00 0.  1.
</event>
<event>
 5   0  0.9471140E-03  0.9982771E+03  0.7818609E-02  0.9310437E-01
       -1   -1    0    0    0  501  0.00000000000E+00  0.00000000000E+00  0.37393738074E+03  0.37393738077E+03  0.50400001928E-02 0.  1.
        1   -1    0    0  501    0  0.00000000000E+00  0.00000000000E+00 -0.66625933108E+03  0.66625933110E+03  0.50400001928E-02 0. -1.
    10030    2    1    2    0    0  0.00000000000E+00  0.00000000000E+00 -0.29232195035E+03  0.10401967119E+04  0.99827705410E+03 0.  0.
        4    1    3    3  502    0  0.84832177439E+02 -0.24012495997E+03  0.30114516355E+03  0.39439386045E+03  0.12699999809E+01 0.  1.
       -4    1    3    3    0  502 -0.84832177439E+02  0.24012495997E+03 -0.59346711390E+03  0.64580285142E+03  0.12699999809E+01 0. -1.
</event>
<event>
 5   0  0.9759443E-03  0.9903738E+03  0.7818609E-02  0.9319166E-01
       -1   -1    0    0    0  501  0.00000000000E+00  0.00000000000E+00  0.63823851745E+03  0.63823851747E+03  0.50400001928E-02 0.  1.
        1   -1    0    0  501    0  0.00000000000E+00  0.00000000000E+00 -0.38419815038E+03  0.38419815042E+03  0.50400001928E-02 0. -1.
    10030    2    1    2    0    0  0.00000000000E+00  0.00000000000E+00  0.25404036706E+03  0.10224366679E+04  0.99037378385E+03 0.  0.
        2    1    3    3  502    0  0.87024821511E+02  0.18087592940E+03  0.59435714311E+03  0.62733550431E+03  0.25500000920E-02 0.  1.
       -2    1    3    3    0  502 -0.87024821511E+02 -0.18087592940E+03 -0.34031677604E+03  0.39510116357E+03  0.25500000920E-02 0. -1.
</event>
<event>
 5   0  0.1571895E-02  0.1005557E+04  0.7818609E-02  0.9302471E-01
        2   -1    0    0  501    0  0.00000000000E+00  0.00000000000E+00  0.89984469032E+03  0.89984469032E+03  0.25500000920E-02 0.  1.
       -2   -1    0    0    0  501  0.00000000000E+00  0.00000000000E+00 -0.28092195372E+03  0.28092195373E+03  0.25500000920E-02 0. -1.
    10030    2    1    2    0    0  0.00000000000E+00  0.00000000000E+00  0.61892273660E+03  0.11807666441E+04  0.10055568178E+04 0.  0.
        2    1    3    3  502    0  0.34330418295E+02 -0.35011761973E+03  0.73124987064E+03  0.81147230303E+03  0.25500000920E-02 0.  1.
       -2    1    3    3    0  502 -0.34330418295E+02  0.35011761973E+03 -0.11232713404E+03  0.36929434102E+03  0.25500000920E-02 0. -1.
</event>
<event>
 5   0  0.9396660E-03  0.9618860E+03  0.7818609E-02  0.9351365E-01
       -1   -1    0    0    0  501  0.00000000000E+00  0.00000000000E+00  0.27495606739E+03  0.27495606744E+03  0.50400001928E-02 0. -1.
        1   -1    0    0  501    0  0.00000000000E+00  0.00000000000E+00 -0.84124766117E+03  0.84124766118E+03  0.50400001928E-02 0.  1.
    10030    2    1    2    0    0  0.00000000000E+00  0.00000000000E+00 -0.56629159378E+03  0.11162037286E+04  0.96188595718E+03 0.  0.
        5    1    3    3  502    0 -0.14330020424E+03 -0.43123771032E+03 -0.46582878797E+03  0.65078372831E+03  0.46999998093E+01 0.  1.
       -5    1    3    3    0  502  0.14330020424E+03  0.43123771032E+03 -0.10046280581E+03  0.46542000031E+03  0.46999998093E+01 0. -1.
</event>
<event>
 5   0  0.1000773E-02  0.1002208E+04  0.7818609E-02  0.9306127E-01
       -1   -1    0    0    0  501  0.00000000000E+00  0.00000000000E+00  0.11412458919E+03  0.11412458931E+03  0.50400001928E-02 0.  1.
        1   -1    0    0  501    0  0.00000000000E+00  0.00000000000E+00 -0.22002716483E+04  0.22002716483E+04  0.50400001928E-02 0. -1.
    10030    2    1    2    0    0  0.00000000000E+00  0.00000000000E+00 -0.20861470591E+04  0.23143962376E+04  0.10022077591E+04 0.  0.
        3    1    3    3  502    0  0.37047632741E+03 -0.71069354211E+02 -0.18047971913E+04  0.18437994669E+04  0.10100000352E+00 0.  1.
       -3    1    3    3    0  502 -0.37047632741E+03  0.71069354211E+02 -0.28134986783E+03  0.47059677072E+03  0.10100000352E+00 0. -1.
</event>
<event>
 5   0  0.1571895E-02  0.1032409E+04  0.7818609E-02  0.9273696E-01
       -2   -1    0    0    0  501  0.00000000000E+00  0.00000000000E+00  0.31621475942E+03  0.31621475944E+03  0.25500000920E-02 0.  1.
        2   -1    0    0  501    0  0.00000000000E+00  0.00000000000E+00 -0.84267771098E+03  0.84267771098E+03  0.25500000920E-02 0. -1.
    10030    2    1    2    0    0  0.00000000000E+00  0.00000000000E+00 -0.52646295156E+03  0.11588924704E+04  0.10324090849E+04 0.  0.
        2    1    3    3  502    0  0.37094192315E+03  0.81703523197E+02 -0.65561957444E+03  0.75770073409E+03  0.25500000920E-02 0. -1.
       -2    1    3    3    0  502 -0.37094192315E+03 -0.81703523197E+02  0.12915662288E+03  0.40119173633E+03  0.25500000920E-02 0.  1.
</event>
<event>
 5   0  0.9759443E-03  0.1007310E+04  0.7818609E-02  0.9300564E-01
        1   -1    0    0  501    0  0.00000000000E+00  0.00000000000E+00  0.58451501621E+03  0.58451501623E+03  0.50400001928E-02 0. -1.
       -1   -1    0    0    0  501  0.00000000000E+00  0.00000000000E+00 -0.43398069723E+03  0.43398069726E+03  0.50400001928E-02 0.  1.
    10030    2    1    2    0    0  0.00000000000E+00  0.00000000000E+00  0.15053431898E+03  0.10184957135E+04  0.10073097524E+04 0.  0.
        2    1    3    3  502    0  0.28603408365E+02  0.38598477081E+03  0.40112826569E+03  0.55741033701E+03  0.25500000920E-02 0. -1.
       -2    1    3    3    0  502 -0.28603408365E+02 -0.38598477081E+03 -0.25059394671E+03  0.46108537648E+03  0.25500000920E-02 0.  1.
</event>
<event>
 5   0  0.9396660E-03  0.9909150E+03  0.7818609E-02  0.9318566E-01
        1   -1    0    0  501    0  0.00000000000E+00  0.00000000000E+00  0.58933476793E+03  0.58933476795E+03  0.50400001928E-02 0. -1.
       -1   -1    0    0    0  501  0.00000000000E+00  0.00000000000E+00 -0.41653428542E+03  0.41653428545E+03  0.50400001928E-02 0.  1.
    10030    2    1    2    0    0  0.00000000000E+00  0.00000000000E+00  0.17280048251E+03  0.10058690534E+04  0.99091500435E+03 0.  0.
        5    1    3    3  502    0 -0.85166675112E+02  0.21835736110E+03 -0.35667599651E+03  0.42681747408E+03  0.46999998093E+01 0.  1.
       -5    1    3    3    0  502  0.85166675112E+02 -0.21835736110E+03  0.52947647902E+03  0.57905157933E+03  0.46999998093E+01 0. -1.
</event>
<event>
 5   0  0.1663497E-02  0.1018452E+04  0.7818609E-02  0.9288536E-01
       -2   -1    0    0    0  501  0.00000000000E+00  0.00000000000E+00  0.11887187009E+03  0.11887187012E+03  0.25500000920E-02 0. -1.
        2   -1    0    0  501    0  0.00000000000E+00  0.00000000000E+00 -0.21814323054E+04  0.21814323054E+04  0.25500000920E-02 0.  1.
    10030    2    1    2    0    0  0.00000000000E+00  0.00000000000E+00 -0.20625604353E+04  0.23003041755E+04  0.10184516437E+04 0.  0.
        1    1    3    3  502    0 -0.22252715224E+03 -0.22590139553E+03 -0.13133309860E+03  0.34321736087E+03  0.50400001928E-02 0. -1.
       -1    1    3    3    0  502  0.22252715224E+03  0.22590139553E+03 -0.19312273367E+04  0.19570868146E+04  0.50400001928E-02 0.  1.
</event>
<event>
 5   0  0.1571895E-02  0.1072774E+04  0.7818609E-02  0.9232142E-01
        2   -1    0    0  501    0  0.00000000000E+00  0.00000000000E+00  0.10434217070E+04  0.10434217070E+04  0.25500000920E-02 0.  1.
       -2   -1    0    0    0  501  0.00000000000E+00  0.00000000000E+00 -0.27573781239E+03  0.27573781240E+03  0.25500000920E-02 0. -1.
    10030    2    1    2    0    0  0.00000000000E+00  0.00000000000E+00  0.76768389464E+03  0.13191595194E+04  0.10727736367E+04 0.  0.
        2    1    3    3  502    0  0.28014086724E+03 -0.32972541248E+03  0.77369459081E+03  0.88645421370E+03  0.25500000920E-02 0.  1.
       -2    1    3    3    0  502 -0.28014086724E+03  0.32972541248E+03 -0.60106961690E+01  0.43270530574E+03  0.25500000920E-02 0. -1.
</event>
<event>
 5   0  0.1656859E-02  0.1013069E+04  0.7818609E-02  0.9294326E-01
       -2   -1    0    0    0  501  0.00000000000E+00  0.00000000000E+00  0.30216316698E+03  0.30216316699E+03  0.25500000920E-02 0. -1.
        2   -1    0    0  501    0  0.00000000000E+00  0.00000000000E+00 -0.84913505166E+03  0.84913505166E+03  0.25500000920E-02 0.  1.
    10030    2    1    2    0    0  0.00000000000E+00  0.00000000000E+00 -0.54697188468E+03  0.11512982186E+04  0.10130692699E+04 0.  0.
        4    1    3    3  502    0  0.25535744858E+03 -0.38268710584E+03 -0.32626802530E+02  0.46121900293E+03  0.12699999809E+01 0. -1.
       -4    1    3    3    0  502 -0.25535744858E+03  0.38268710584E+03 -0.51434508215E+03  0.69007921571E+03  0.12699999809E+01 0.  1.
</event>
<event>
 5   0  0.1617721E-02  0.9868165E+03  0.7818609E-02  0.9323124E-01
        2   -1    0    0  501    0  0.00000000000E+00  0.00000000000E+00  0.69350723540E+03  0.69350723540E+03  0.25500000920E-02 0. -1.
       -2   -1    0    0    0  501  0.00000000000E+00  0.00000000000E+00 -0.35104421355E+03  0.35104421356E+03  0.25500000920E-02 0.  1.
    10030    2    1    2    0    0  0.00000000000E+00  0.00000000000E+00  0.34246302185E+03  0.10445514490E+04  0.98681650178E+03 0.  0.
        5    1    3    3  502    0  0.23959037873E+03 -0.31676120964E+03 -0.13862059036E+03  0.42068868725E+03  0.46999998093E+01 0.  1.
       -5    1    3    3    0  502 -0.23959037873E+03  0.31676120964E+03  0.48108361221E+03  0.62386276171E+03  0.46999998093E+01 0. -1.
</event>
<event>
 5   0  0.1656859E-02  0.1154041E+04  0.7818609E-02  0.9154063E-01
        2   -1    0    0  501    0  0.00000000000E+00  0.00000000000E+00  0.12642595434E+04  0.12642595434E+04  0.25500000920E-02 0. -1.
       -2   -1    0    0    0  501  0.00000000000E+00  0.00000000000E+00 -0.26335795438E+03  0.26335795439E+03  0.25500000920E-02 0.  1.
    10030    2    1    2    0    0  0.00000000000E+00  0.00000000000E+00  0.10009015890E+04  0.15276174977E+04  0.11540412595E+04 0.  0.
        4    1    3    3  502    0 -0.15052730631E+02 -0.51942241054E+03  0.16839979390E+03  0.54624749771E+03  0.12699999809E+01 0.  1.
       -4    1    3    3    0  502  0.15052730631E+02  0.51942241054E+03  0.83250179507E+03  0.98137000004E+03  0.12699999809E+01 0. -1.
</event>
<event>
 5   0  0.1663497E-02  0.9977449E+03  0.7818609E-02  0.9311022E-01
       -2   -1    0    0    0  501  0.00000000000E+00  0.00000000000E+00  0.60909271024E+03  0.60909271024E+03  0.25500000920E-02 0.  1.
        2   -1    0    0  501    0  0.00000000000E+00  0.00000000000E+00 -0.40859747643E+03  0.40859747643E+03  0.25500000920E-02 0. -1.
    10030    2    1    2    0    0  0.00000000000E+00  0.00000000000E+00  0.20049523381E+03  0.10176901867E+04  0.99774494600E+03 0.  0.
        1    1    3    3  502    0  0.16873653286E+03 -0.34556210574E+03 -0.22389201557E+03  0.44498631564E+03  0.50400001928E-02 0. -1.
       -1    1    3    3    0  502 -0.16873653286E+03  0.34556210574E+03  0.42438724938E+03  0.57270387104E+03  0.50400001928E-02 0.  1.
</event>
<event>
 5   0  0.9759443E-03  0.1016036E+04  0.7818609E-02  0.9291129E-01
        1   -1    0    0  501    0  0.00000000000E+00  0.00000000000E+00  0.20351437715E+04  0.20351437715E+04  0.50400001928E-02 0.  1.
       -1   -1    0    0    0  501  0.00000000000E+00  0.00000000000E+00 -0.12681287592E+03  0.12681287602E+03  0.50400001928E-02 0. -1.
    10030    2    1    2    0    0  0.00000000000E+00  0.00000000000E+00  0.19083308956E+04  0.21619566475E+04  0.10160362881E+04 0.  0.
        2    1    3    3  502    0 -0.35996348705E+02  0.90543670898E+02  0.20150748901E+04  0.20174292320E+04  0.25500000920E-02 0.  1.
       -2    1    3    3    0  502  0.35996348705E+02 -0.90543670898E+02 -0.10674399452E+03  0.14452741551E+03  0.25500000920E-02 0. -1.
</event>
<event>
 5   0  0.1571895E-02  0.1007779E+04  0.7818609E-02  0.9300054E-01
       -2   -1    0    0    0  501  0.00000000000E+00  0.00000000000E+00  0.42875530269E+03  0.42875530270E+03  0.25500000920E-02 0.  1.
        2   -1    0    0  501    0  0.00000000000E+00  0.00000000000E+00 -0.59219022663E+03  0.59219022664E+03  0.25500000920E-02 0. -1.
    10030    2    1    2    0    0  0.00000000000E+00  0.00000000000E+00 -0.16343492394E+03  0.10209455293E+04  0.10077791422E+04 0.  0.
        2    1    3    3  502    0 -0.13134039286E+03 -0.35254664736E+03  0.25787124667E+03  0.45611075105E+03  0.25500000920E-02 0.  1.
       -2    1    3    3    0  502  0.13134039286E+03  0.35254664736E+03 -0.42130617061E+03  0.56483477828E+03  0.25500000920E-02 0. -1.
</event>
<event>
 5   0  0.1598986E-02  0.1018148E+04  0.7818609E-02  0.9288862E-01
        2   -1    0    0  501    0  0.00000000000E+00  0.00000000000E+00  0.44922869611E+03  0.44922869612E+03  0.25500000920E-02 0.  1.
       -2   -1    0    0    0  501  0.00000000000E+00  0.00000000000E+00 -0.57689122450E+03  0.57689122451E+03  0.25500000920E-02 0. -1.
    10030    2    1    2    0    0  0.00000000000E+00  0.00000000000E+00 -0.12766252839E+03  0.10261199206E+04  0.10181475190E+04 0.  0.
        3    1    3    3  502    0  0.47076002711E+03  0.19310228140E+03 -0.47813794049E+02  0.51106718082E+03  0.10100000352E+00 0.  1.
       -3    1    3    3    0  502 -0.47076002711E+03 -0.19310228140E+03 -0.79848734344E+02  0.51505273981E+03  0.10100000352E+00 0. -1.
</event>
<event>
 5   0  0.1617721E-02  0.9462626E+03  0.7818609E-02  0.9369530E-01
       -2   -1    0    0    0  501  0.00000000000E+00  0.00000000000E+00  0.98137803146E+03  0.98137803146E+03  0.25500000920E-02 0.  1.
        2   -1    0    0  501    0  0.00000000000E+00  0.00000000000E+00 -0.22810091301E+03  0.22810091302E+03  0.25500000920E-02 0. -1.
    10030    2    1    2    0    0  0.00000000000E+00  0.00000000000E+00  0.75327711845E+03  0.12094789445E+04  0.94626259567E+03 0.  0.
        5    1    3    3  502    0  0.24599393350E+03 -0.13077212977E+02 -0.13963077145E+03  0.28320111432E+03  0.46999998093E+01 0. -1.
       -5    1    3    3    0  502 -0.24599393350E+03  0.13077212977E+02  0.89290788990E+03  0.92627783016E+03  0.46999998093E+01 0.  1.
</event>
<event>
 5   0  0.1663497E-02  0.1006158E+04  0.7818609E-02  0.9301817E-01
       -2   -1    0    0    0  501  0.00000000000E+00  0.00000000000E+00  0.23735399551E+03  0.23735399553E+03  0.25500000920E-02 0. -1.
        2   -1    0    0  501    0  0.00000000000E+00  0.00000000000E+00 -0.10662905456E+04  0.10662905456E+04  0.25500000920E-02 0.  1.
    10030    2    1    2    0    0  0.00000000000E+00  0.00000000000E+00 -0.82893655005E+03  0.13036445411E+04  0.10061576842E+04 0.  0.
        1    1    3    3  502    0 -0.43760989422E+03  0.18030670666E+03 -0.63539891046E+03  0.79230341626E+03  0.50400001928E-02 0.  1.
       -1    1    3    3    0  502  0.43760989422E+03 -0.18030670666E+03 -0.19353763959E+03  0.51134112483E+03  0.50400001928E-02 0. -1.
</event>
<event>
 5   0  0.9507815E-03  0.9916726E+03  0.7818609E-02  0.9317726E-01
        1   -1    0    0  501    0  0.00000000000E+00  0.00000000000E+00  0.50076183857E+03  0.50076183859E+03  0.50400001928E-02 0.  1.
       -1   -1    0    0    0  501  0.00000000000E+00  0.00000000000E+00 -0.49095916677E+03  0.49095916680E+03  0.50400001928E-02 0. -1.
    10030    2    1    2    0    0  0.00000000000E+00  0.00000000000E+00  0.98026717979E+01  0.99172100539E+03  0.99167255693E+03 0.  0.
        1    1    3    3  502    0 -0.59934793254E+02  0.27013325553E+03  0.41636944111E+03  0.49992766147E+03  0.50400001928E-02 0.  1.
       -1    1    3    3    0  502  0.59934793254E+02 -0.27013325553E+03 -0.40656676931E+03  0.49179334392E+03  0.50400001928E-02 0. -1.
</event>
<event>
 5   0  0.1571895E-02  0.1026337E+04  0.7818609E-02  0.9280121E-01
       -2   -1    0    0    0  501  0.00000000000E+00  0.00000000000E+00  0.24628783862E+03  0.24628783863E+03  0.25500000920E-02 0.  1.
        2   -1    0    0  501    0  0.00000000000E+00  0.00000000000E+00 -0.10692452965E+04  0.10692452965E+04  0.25500000920E-02 0. -1.
    10030    2    1    2    0    0  0.00000000000E+00  0.00000000000E+00 -0.82295745792E+03  0.13155331352E+04  0.10263373969E+04 0.  0.
        2    1    3    3  502    0 -0.30308654345E+03 -0.34836381371E+03 -0.12451201517E+03  0.47824893251E+03  0.25500000920E-02 0.  1.
       -2    1    3    3    0  502  0.30308654345E+03  0.34836381371E+03 -0.69844544275E+03  0.83728420266E+03  0.25500000920E-02 0. -1.
</event>
<event>
 5   0  0.1000773E-02  0.9789728E+03  0.7818609E-02  0.9331912E-01
       -1   -1    0    0    0  501  0.00000000000E+00  0.00000000000E+00  0.27659878829E+03  0.27659878834E+03  0.50400001928E-02 0.  1.
        1   -1    0    0  501    0  0.00000000000E+00  0.00000000000E+00 -0.86622557874E+03  0.86622557875E+03  0.50400001928E-02 0. -1.
    10030    2    1    2    0    0  0.00000000000E+00  0.00000000000E+00 -0.58962679045E+03  0.11428243671E+04  0.97897281985E+03 0.  0.
        3    1    3    3  502    0  0.13251364615E+03 -0.21037894780E+02  0.25471270234E+03  0.28789065696E+03  0.10100000352E+00 0.  1.
       -3    1    3    3    0  502 -0.13251364615E+03  0.21037894780E+02 -0.84433949279E+03  0.85493371013E+03  0.10100000352E+00 0. -1.
</event>
<event>
 5   0  0.1617721E-02  0.1042261E+04  0.7818609E-02  0.9263370E-01
       -2   -1    0    0    0  501  0.00000000000E+00  0.00000000000E+00  0.36956782209E+03  0.36956782210E+03  0.25500000920E-02 0. -1.
        2   -1    0    0  501    0  0.00000000000E+00  0.00000000000E+00 -0.73485063029E+03  0.73485063029E+03  0.25500000920E-02 0.  1.
    10030    2    1    2    0    0  0.00000000000E+00  0.00000000000E+00 -0.36528280820E+03  0.11044184524E+04  0.10422612859E+04 0.  0.
        5    1    3    3  502    0 -0.12321454969E+03 -0.38983448531E+03  0.15974151704E+03  0.43896718950E+03  0.46999998093E+01 0. -1.
       -5    1    3    3    0  502  0.12321454969E+03  0.38983448531E+03 -0.52502432524E+03  0.66545126289E+03  0.46999998093E+01 0.  1.
</event>
<event>
 5   0  0.9759443E-03  0.9843420E+03  0.7818609E-02  0.9325887E-01
       -1   -1    0    0    0  501  0.00000000000E+00  0.00000000000E+00  0.47428598903E+03  0.47428598905E+03  0.50400001928E-02 0.  1.
        1   -1    0    0  501    0  0.00000000000E+00  0.00000000000E+00 -0.51073043849E+03  0.51073043851E+03  0.50400001928E-02 0. -1.
    10030    2    1    2    0    0  0.00000000000E+00  0.00000000000E+00 -0.36444449462E+02  0.98501642757E+03  0.98434199579E+03 0.  0.
        2    1    3    3  502    0 -0.42357234775E+03  0.12982527891E+03  0.19631719244E+03  0.48457050764E+03  0.25500000920E-02 0.  1.
       -2    1    3    3    0  502  0.42357234775E+03 -0.12982527891E+03 -0.23276164190E+03  0.50044591993E+03  0.25500000920E-02 0. -1.
</event>
<event>
 5   0  0.1656859E-02  0.1007970E+04  0.7818609E-02  0.9299847E-01
        2   -1    0    0  501    0  0.00000000000E+00  0.00000000000E+00  0.80848393719E+03  0.80848393719E+03  0.25500000920E-02 0. -1.
       -2   -1    0    0    0  501  0.00000000000E+00  0.00000000000E+00 -0.31416905126E+03  0.31416905127E+03  0.25500000920E-02 0.  1.
    10030    2    1    2    0    0  0.00000000000E+00  0.00000000000E+00  0.49431488593E+03  0.11226529885E+04  0.10079695065E+04 0.  0.
        4    1    3    3  502    0 -0.47824508377E+03 -0.99120228667E+02  0.10869103317E+03  0.50035840502E+03  0.12699999809E+01 0.  1.
       -4    1    3    3    0  502  0.47824508377E+03  0.99120228667E+02  0.38562385276E+03  0.62229458345E+03  0.12699999809E+01 0. -1.
</event>
<event>
 5   0  0.9507815E-03  0.1009933E+04  0.7818609E-02  0.9297717E-01
       -1   -1    0    0    0  501  0.00000000000E+00  0.00000000000E+00  0.57541677647E+03  0.57541677649E+03  0.50400001928E-02 0.  1.
        1   -1    0    0  501    0  0.00000000000E+00  0.00000000000E+00 -0.44314159567E+03  0.44314159570E+03  0.50400001928E-02 0. -1.
    10030    2    1    2    0    0  0.00000000000E+00  0.00000000000E+00  0.13227518080E+03  0.10185583722E+04  0.10099328859E+04 0.  0.
        1    1    3    3  502    0  0.47810893621E+03  0.11180903783E+03 -0.52774838590E+02  0.49383661209E+03  0.50400001928E-02 0. -1.
       -1    1    3    3    0  502 -0.47810893621E+03 -0.11180903783E+03  0.18505001939E+03  0.52472176010E+03  0.50400001928E-02 0.  1.
</event>
<event>
 5   0  0.1663497E-02  0.1005012E+04  0.7818609E-02  0.9303065E-01
       -2   -1    0    0    0  501  0.00000000000E+00  0.00000000000E+00  0.20540817862E+03  0.20540817864E+03  0.25500000920E-02 0. -1.
        2   -1    0    0  501    0  0.00000000000E+00  0.00000000000E+00 -0.12293196061E+04  0.12293196061E+04  0.25500000920E-02 0.  1.
    10030    2    1    2    0    0  0.00000000000E+00  0.00000000000E+00 -0.10239114275E+04  0.14347277848E+04  0.10050120422E+04 0.  0.
        1    1    3    3  502    0 -0.11508523293E+03 -0.12899830064E+02  0.18609857258E+03  0.21918872050E+03  0.50400001928E-02 0. -1.
       -1    1    3    3    0  502  0.11508523293E+03  0.12899830064E+02 -0.12100100001E+04  0.12155390643E+04  0.50400001928E-02 0.  1.
</event>
<event>
 5   0  0.9471140E-03  0.8750286E+03  0.7818609E-02  0.9457347E-01
        1   -1    0    0  501    0  0.00000000000E+00  0.00000000000E+00  0.90427958248E+03  0.90427958250E+03  0.50400001928E-02 0. -1.
       -1   -1    0    0    0  501  0.00000000000E+00  0.00000000000E+00 -0.21168097174E+03  0.21168097180E+03  0.50400001928E-02 0.  1.
    10030    2    1    2    0    0  0.00000000000E+00  0.00000000000E+00  0.69259861075E+03  0.11159605543E+04  0.87502864133E+03 0.  0.
        4    1    3    3  502    0  0.30252157413E+03 -0.30045394032E+03  0.22117732900E+03  0.48032582362E+03  0.12699999809E+01 0. -1.
       -4    1    3    3    0  502 -0.30252157413E+03  0.30045394032E+03  0.47142128174E+03  0.63563473068E+03  0.12699999809E+01 0.  1.
</event>
<event>
 5   0  0.6314750E-03  0.1011746E+04  0.7818609E-02  0.9295755E-01
        3   -1    0    0  501    0  0.00000000000E+00  0.00000000000E+00  0.31882547213E+03  0.31882548813E+03  0.10100000352E+00 0. -1.
       -3   -1    0    0    0  501  0.00000000000E+00  0.00000000000E+00 -0.80265721551E+03  0.80265722187E+03  0.10100000352E+00 0.  1.
    10030    2    1    2    0    0  0.00000000000E+00  0.00000000000E+00 -0.48383174338E+03  0.11214827100E+04  0.10117461702E+04 0.  0.
        1    1    3    3  502    0 -0.85314961974E+02 -0.94334472904E+02  0.30081203601E+03  0.32659687161E+03  0.50400001928E-02 0. -1.
       -1    1    3    3    0  502  0.85314961974E+02  0.94334472904E+02 -0.78464377939E+03  0.79488583839E+03  0.50400001928E-02 0.  1.
</event>
<event>
 5   0  0.1598986E-02  0.1007805E+04  0.7818609E-02  0.9300026E-01
        2   -1    0    0  501    0  0.00000000000E+00  0.00000000000E+00  0.68370320941E+03  0.68370320942E+03  0.25500000920E-02 0.  1.
       -2   -1    0    0    0  501  0.00000000000E+00  0.00000000000E+00 -0.37138561778E+03  0.37138561779E+03  0.25500000920E-02 0. -1.
    10030    2    1    2    0    0  0.00000000000E+00  0.00000000000E+00  0.31231759163E+03  0.10550888272E+04  0.10078046216E+04 0.  0.
        3    1    3    3  502    0 -0.44085316336E+03 -0.16354147152E+03  0.34582210206E+03  0.58368678332E+03  0.10100000352E+00 0.  1.
       -3    1    3    3    0  502  0.44085316336E+03  0.16354147152E+03 -0.33504510425E+02  0.47140204388E+03  0.10100000352E+00 0. -1.
</event>
<event>
 5   0  0.1000773E-02  0.9363179E+03  0.7818609E-02  0.9381287E-01
        1   -1    0    0  501    0  0.00000000000E+00  0.00000000000E+00  0.16247667123E+04  0.16247667123E+04  0.50400001928E-02 0. -1.
       -1   -1    0    0    0  501  0.00000000000E+00  0.00000000000E+00 -0.13489494486E+03  0.13489494496E+03  0.50400001928E-02 0.  1.
    10030    2    1    2    0    0  0.00000000000E+00  0.00000000000E+00  0.14898717675E+04  0.17596616573E+04  0.93631792926E+03 0.  0.
        3    1    3    3  502    0 -0.85291242122E+02 -0.43977446319E+03  0.10005307659E+04  0.10962381120E+04  0.10100000352E+00 0. -1.
       -3    1    3    3    0  502  0.85291242122E+02  0.43977446319E+03  0.48934100159E+03  0.66342354533E+03  0.10100000352E+00 0.  1.
</event>
<event>
 5   0  0.1663497E-02  0.1003310E+04  0.7818609E-02  0.9304922E-01
        2   -1    0    0  501    0  0.00000000000E+00  0.00000000000E+00  0.11177327521E+04  0.11177327521E+04  0.25500000920E-02 0. -1.
       -2   -1    0    0    0  501  0.00000000000E+00  0.00000000000E+00 -0.22515002912E+03  0.22515002913E+03  0.25500000920E-02 0.  1.
    10030    2    1    2    0    0  0.00000000000E+00  0.00000000000E+00  0.89258272301E+03  0.13428827813E+04  0.10033096465E+04 0.  0.
        1    1    3    3  502    0  0.31511175012E+03 -0.22048895319E+03  0.87740365344E+03  0.95799163077E+03  0.50400001928E-02 0. -1.
       -1    1    3    3    0  502 -0.31511175012E+03  0.22048895319E+03  0.15179069570E+02  0.38489115048E+03  0.50400001928E-02 0.  1.
</event>
<event>
 5   0  0.9471140E-03  0.9872023E+03  0.7818609E-02  0.9322694E-01
        1   -1    0    0  501    0  0.00000000000E+00  0.00000000000E+00  0.47249258182E+03  0.47249258184E+03  0.50400001928E-02 0.  1.
       -1   -1    0    0    0  501  0.00000000000E+00  0.00000000000E+00 -0.51565271016E+03  0.51565271019E+03  0.50400001928E-02 0. -1.
    10030    2    1    2    0    0  0.00000000000E+00  0.00000000000E+00 -0.43160128344E+02  0.98814529203E+03  0.98720226979E+03 0.  0.
        4    1    3    3  502    0  0.37884635341E+03 -0.76667931817E+02 -0.32885528813E+03  0.50749378783E+03  0.12699999809E+01 0. -1.
       -4    1    3    3    0  502 -0.37884635341E+03  0.76667931817E+02  0.28569515979E+03  0.48065150419E+03  0.12699999809E+01 0.  1.
</event>
<event>
 5   0  0.1598986E-02  0.9918273E+03  0.7818609E-02  0.9317554E-01
       -2   -1    0    0    0  501  0.00000000000E+00  0.00000000000E+00  0.24707949885E+03  0.24707949886E+03  0.25500000920E-02 0. -1.
        2   -1    0    0  501    0  0.00000000000E+00  0.00000000000E+00 -0.99534907219E+03  0.99534907219E+03  0.25500000920E-02 0.  1.
    10030    2    1    2    0    0  0.00000000000E+00  0.00000000000E+00 -0.74826957334E+03  0.12424285711E+04  0.99182730340E+03 0.  0.
        3    1    3    3  502    0 -0.24253247065E+03 -0.22147669193E+03  0.91305173499E+02  0.34089671353E+03  0.10100000352E+00 0. -1.
       -3    1    3    3    0  502  0.24253247065E+03  0.22147669193E+03 -0.83957474684E+03  0.90153185752E+03  0.10100000352E+00 0.  1.
</event>
<event>
 5   0  0.9471140E-03  0.1026054E+04  0.7818609E-02  0.9280422E-01
        1   -1    0    0  501    0  0.00000000000E+00  0.00000000000E+00  0.40374654627E+03  0.40374654630E+03  0.50400001928E-02 0.  1.
       -1   -1    0    0    0  501  0.00000000000E+00  0.00000000000E+00 -0.65188578584E+03  0.65188578586E+03  0.50400001928E-02 0. -1.
    10030    2    1    2    0    0  0.00000000000E+00  0.00000000000E+00 -0.24813923957E+03  0.10556323322E+04  0.10260538673E+04 0.  0.
        4    1    3    3  502    0 -0.32365809810E+02  0.15874089794E+03  0.37673667817E+03  0.41009554484E+03  0.12699999809E+01 0.  1.
       -4    1    3    3    0  502  0.32365809810E+02 -0.15874089794E+03 -0.62487591774E+03  0.64553678733E+03  0.12699999809E+01 0. -1.
</event>
<event>
 5   0  0.9396660E-03  0.9881477E+03  0.7818609E-02  0.9321641E-01
       -1   -1    0    0    0  501  0.00000000000E+00  0.00000000000E+00  0.59786905604E+03  0.59786905606E+03  0.50400001928E-02 0.  1.
        1   -1    0    0  501    0  0.00000000000E+00  0.00000000000E+00 -0.40829836007E+03  0.40829836011E+03  0.50400001928E-02 0. -1.
    10030    2    1    2    0    0  0.00000000000E+00  0.00000000000E+00  0.18957069597E+03  0.10061674162E+04  0.98814767145E+03 0.  0.
        5    1    3    3  502    0  0.34548241027E+02  0.96780340928E+02 -0.39727323073E+03  0.41037559041E+03  0.46999998093E+01 0. -1.
       -5    1    3    3    0  502 -0.34548241027E+02 -0.96780340928E+02  0.58684392669E+03  0.59579182576E+03  0.46999998093E+01 0.  1.
</event>
<event>
 5   0  0.9471140E-03  0.1010568E+04  0.7818609E-02  0.9297029E-01
       -1   -1    0    0    0  501  0.00000000000E+00  0.00000000000E+00  0.19688925946E+03  0.19688925952E+03  0.50400001928E-02 0.  1.
        1   -1    0    0  501    0  0.00000000000E+00  0.00000000000E+00 -0.12967289967E+04  0.12967289967E+04  0.50400001928E-02 0. -1.
    10030    2    1    2    0    0  0.00000000000E+00  0.00000000000E+00 -0.10998397372E+04  0.14936182562E+04  0.10105681806E+04 0.  0.
        4    1    3    3  502    0 -0.51177647135E+02 -0.13156480965E+03  0.16714850823E+03  0.21878913914E+03  0.12699999809E+01 0.  1.
       -4    1    3    3    0  502  0.51177647135E+02  0.13156480965E+03 -0.12669882455E+04  0.12748291171E+04  0.12699999809E+01 0. -1.
</event>
<event>
 5   0  0.9396660E-03  0.1024451E+04  0.7818609E-02  0.9282127E-01
        1   -1    0    0  501    0  0.00000000000E+00  0.00000000000E+00  0.45165598661E+03  0.45165598664E+03  0.50400001928E-02 0.  1.
       -1   -1    0    0    0  501  0.00000000000E+00  0.00000000000E+00 -0.58091726888E+03  0.58091726890E+03  0.50400001928E-02 0. -1.
    10030    2    1    2    0    0  0.00000000000E+00  0.00000000000E+00 -0.12926128227E+03  0.10325732555E+04  0.10244506084E+04 0.  0.
        5    1    3    3  502    0 -0.19491587183E+03 -0.37526128306E+03 -0.35595422189E+03  0.55275557504E+03  0.46999998093E+01 0. -1.
       -5    1    3    3    0  502  0.19491587183E+03  0.37526128306E+03  0.22669293962E+03  0.47981768051E+03  0.46999998093E+01 0.  1.
</event>
<event>
 5   0  0.1571895E-02  0.9955975E+03  0.7818609E-02  0.9313387E-01
       -2   -1    0    0    0  501  0.00000000000E+00  0.00000000000E+00  0.13589478223E+03  0.13589478225E+03  0.25500000920E-02 0.  1.
        2   -1    0    0  501    0  0.00000000000E+00  0.00000000000E+00 -0.18234959482E+04  0.18234959482E+04  0.25500000920E-02 0. -1.
    10030    2    1    2    0    0  0.00000000000E+00  0.00000000000E+00 -0.16876011660E+04  0.19593907305E+04  0.99559747851E+03 0.  0.
        2    1    3    3  502    0 -0.17757031771E+03  0.61846907226E+02 -0.17509167284E+04  0.17609842837E+04  0.25500000920E-02 0. -1.
       -2    1    3    3    0  502  0.17757031771E+03 -0.61846907226E+02  0.63315562417E+02  0.19840644676E+03  0.25500000920E-02 0.  1.
</event>
<event>
 5   0  0.1656859E-02  0.9754195E+03  0.7818609E-02  0.9335923E-01
       -2   -1    0    0    0  501  0.00000000000E+00  0.00000000000E+00  0.13107287627E+03  0.13107287629E+03  0.25500000920E-02 0.  1.
        2   -1    0    0  501    0  0.00000000000E+00  0.00000000000E+00 -0.18147218655E+04  0.18147218656E+04  0.25500000920E-02 0. -1.
    10030    2    1    2    0    0  0.00000000000E+00  0.00000000000E+00 -0.16836489893E+04  0.19457947418E+04  0.97541952936E+03 0.  0.
        4    1    3    3  502    0 -0.28091858866E+03 -0.38177685772E+02 -0.16334633896E+04  0.16578833033E+04  0.12699999809E+01 0. -1.
       -4    1    3    3    0  502  0.28091858866E+03  0.38177685772E+02 -0.50185599660E+02  0.28791143856E+03  0.12699999809E+01 0.  1.
</event>
<event>
 5   0  0.1617721E-02  0.1008798E+04  0.7818609E-02  0.9298948E-01
        2   -1    0    0  501    0  0.00000000000E+00  0.00000000000E+00  0.80896158380E+03  0.80896158380E+03  0.25500000920E-02 0.  1.
       -2   -1    0    0    0  501  0.00000000000E+00  0.00000000000E+00 -0.31449968451E+03  0.31449968452E+03  0.25500000920E-02 0. -1.
    10030    2    1    2    0    0  0.00000000000E+00  0.00000000000E+00  0.49446189929E+03  0.11234612683E+04  0.10087976267E+04 0.  0.
        5    1    3    3  502    0 -0.71006725054E+01  0.49154622279E+03  0.37287256904E+03  0.61702848510E+03  0.46999998093E+01 0.  1.
       -5    1    3    3    0  502  0.71006725054E+01 -0.49154622279E+03  0.12158933025E+03  0.50643278322E+03  0.46999998093E+01 0. -1.
</event>
<event>
 5   0  0.1617721E-02  0.1073761E+04  0.7818609E-02  0.9231150E-01
        2   -1    0    0  501    0  0.00000000000E+00  0.00000000000E+00  0.11690834287E+04  0.11690834287E+04  0.25500000920E-02 0. -1.
       -2   -1    0    0    0  501  0.00000000000E+00  0.00000000000E+00 -0.24655283704E+03  0.24655283706E+03  0.25500000920E-02 0.  1.
    10030    2    1    2    0    0  0.00000000000E+00  0.00000000000E+00  0.92253059161E+03  0.14156362657E+04  0.10737613070E+04 0.  0.
        5    1    3    3  502    0  0.35522396502E+03  0.33102577493E+03  0.76322157804E+03  0.90459460322E+03  0.46999998093E+01 0. -1.
       -5    1    3    3    0  502 -0.35522396502E+03 -0.33102577493E+03  0.15930901357E+03  0.51104166249E+03  0.46999998093E+01 0.  1.
</event>
<event>
 5   0  0.9471140E-03  0.1003517E+04  0.7818609E-02  0.9304696E-01
        1   -1    0    0  501    0  0.00000000000E+00  0.00000000000E+00  0.31770291157E+03  0.31770291161E+03  0.50400001928E-02 0. -1.
       -1   -1    0    0    0  501  0.00000000000E+00  0.00000000000E+00 -0.79244376521E+03  0.79244376522E+03  0.50400001928E-02 0.  1.
    10030    2    1    2    0    0  0.00000000000E+00  0.00000000000E+00 -0.47474085364E+03  0.11101466768E+04  0.10035171976E+04 0.  0.
        4    1    3    3  502    0  0.33795788628E+03 -0.37080843468E+03 -0.24484485780E+03  0.55826968879E+03  0.12699999809E+01 0. -1.
       -4    1    3    3    0  502 -0.33795788628E+03  0.37080843468E+03 -0.22989599584E+03  0.55187698805E+03  0.12699999809E+01 0.  1.
</event>
<event>
 5   0  0.9507815E-03  0.1017837E+04  0.7818609E-02  0.9289195E-01
        1   -1    0    0  501    0  0.00000000000E+00  0.00000000000E+00  0.13411063060E+04  0.13411063061E+04  0.50400001928E-02 0.  1.
       -1   -1    0    0    0  501  0.00000000000E+00  0.00000000000E+00 -0.19312262191E+03  0.19312262198E+03  0.50400001928E-02 0. -1.
    10030    2    1    2    0    0  0.00000000000E+00  0.00000000000E+00  0.11479836841E+04  0.15342289280E+04  0.10178368556E+04 0.  0.
        1    1    3    3  502    0 -0.18180369014E+03  0.25260554009E+03 -0.32956162804E+02  0.31296685020E+03  0.50400001928E-02 0. -1.
       -1    1    3    3    0  502  0.18180369014E+03 -0.25260554009E+03  0.11809398469E+04  0.12212620778E+04  0.50400001928E-02 0.  1.
</event>
<event>
 5   0  0.1598986E-02  0.1013428E+04  0.7818609E-02  0.9293939E-01
       -2   -1    0    0    0  501  0.00000000000E+00  0.00000000000E+00  0.16914408531E+03  0.16914408533E+03  0.25500000920E-02 0.  1.
        2   -1    0    0  501    0  0.00000000000E+00  0.00000000000E+00 -0.15179892247E+04  0.15179892247E+04  0.25500000920E-02 0. -1.
    10030    2    1    2    0    0  0.00000000000E+00  0.00000000000E+00 -0.13488451394E+04  0.16871333100E+04  0.10134276470E+04 0.  0.
        3    1    3    3  502    0  0.40271039195E+03 -0.87947131631E+02 -0.11650342579E+04  0.12358054823E+04  0.10100000352E+00 0. -1.
       -3    1    3    3    0  502 -0.40271039195E+03  0.87947131631E+02 -0.18381088147E+03  0.45132782774E+03  0.10100000352E+00 0.  1.
</event>
<event>
 5   0  0.1663497E-02  0.1003164E+04  0.7818609E-02  0.9305082E-01
       -2   -1    0    0    0  501  0.00000000000E+00  0.00000000000E+00  0.10844696083E+03  0.10844696086E+03  0.25500000920E-02 0. -1.
        2   -1    0    0  501    0  0.00000000000E+00  0.00000000000E+00 -0.23198846075E+04  0.23198846075E+04  0.25500000920E-02 0.  1.
    10030    2    1    2    0    0  0.00000000000E+00  0.00000000000E+00 -0.22114376467E+04  0.24283315684E+04  0.10031638654E+04 0.  0.
        1    1    3    3  502    0 -0.37880030631E+03  0.96215457845E+02 -0.18667398376E+04  0.19072138600E+04  0.50400001928E-02 0.  1.
       -1    1    3    3    0  502  0.37880030631E+03 -0.96215457845E+02 -0.34469780906E+03  0.52111770838E+03  0.50400001928E-02 0. -1.
</event>
<event>
 5   0  0.6314750E-03  0.9981671E+03  0.7818609E-02  0.9310557E-01
       -3   -1    0    0    0  501  0.00000000000E+00  0.00000000000E+00  0.59748905968E+03  0.59748906822E+03  0.10100000352E+00 0.  1.
        3   -1    0    0  501    0  0.00000000000E+00  0.00000000000E+00 -0.41688526420E+03  0.41688527643E+03  0.10100000352E+00 0. -1.
    10030    2    1    2    0    0  0.00000000000E+00  0.00000000000E+00  0.18060379549E+03  0.10143743446E+04  0.99816711033E+03 0.  0.
        1    1    3    3  502    0 -0.23349992796E+03 -0.37689867226E+03 -0.14256847039E+03  0.46572587890E+03  0.50400001928E-02 0. -1.
       -1    1    3    3    0  502  0.23349992796E+03  0.37689867226E+03  0.32317226588E+03  0.54864846574E+03  0.50400001928E-02 0.  1.
</event>
<event>
 5   0  0.1617721E-02  0.9964526E+03  0.7818609E-02  0.9312444E-01
        2   -1    0    0  501    0  0.00000000000E+00  0.00000000000E+00  0.39067354676E+03  0.39067354677E+03  0.25500000920E-02 0.  1.
       -2   -1    0    0    0  501  0.00000000000E+00  0.00000000000E+00 -0.63538847793E+03  0.63538847793E+03  0.25500000920E-02 0. -1.
    10030    2    1    2    0    0  0.00000000000E+00  0.00000000000E+00 -0.24471493117E+03  0.10260620247E+04  0.99645264865E+03 0.  0.
        5    1    3    3  502    0  0.38734585590E+03 -0.28305201023E+02  0.19895543244E+03  0.43639815603E+03  0.46999998093E+01 0.  1.
       -5    1    3    3    0  502 -0.38734585590E+03  0.28305201023E+02 -0.44367036360E+03  0.58966386868E+03  0.46999998093E+01 0. -1.
</event>
<event>
 5   0  0.1000773E-02  0.1003937E+04  0.7818609E-02  0.9304237E-01
        1   -1    0    0  501    0  0.00000000000E+00  0.00000000000E+00  0.66420385589E+03  0.66420385591E+03  0.50400001928E-02 0. -1.
       -1   -1    0    0    0  501  0.00000000000E+00  0.00000000000E+00 -0.37936027820E+03  0.37936027824E+03  0.50400001928E-02 0.  1.
    10030    2    1    2    0    0  0.00000000000E+00  0.00000000000E+00  0.28484357768E+03  0.10435641341E+04  0.10039373677E+04 0.  0.
        3    1    3    3  502    0 -0.34063180212E+03 -0.17781615046E+02  0.52523290852E+03  0.62627136997E+03  0.10100000352E+00 0. -1.
       -3    1    3    3    0  502  0.34063180212E+03  0.17781615046E+02 -0.24038933083E+03  0.41729276417E+03  0.10100000352E+00 0.  1.
</event>
<event>
 5   0  0.6314750E-03  0.1138950E+04  0.7818609E-02  0.9168039E-01
        3   -1    0    0  501    0  0.00000000000E+00  0.00000000000E+00  0.52389992669E+03  0.52389993643E+03  0.10100000352E+00 0.  1.
       -3   -1    0    0    0  501  0.00000000000E+00  0.00000000000E+00 -0.61901450262E+03  0.61901451086E+03  0.10100000352E+00 0. -1.
    10030    2    1    2    0    0  0.00000000000E+00  0.00000000000E+00 -0.95114575930E+02  0.11429144473E+04  0.11389498019E+04 0.  0.
        3    1    3    3  502    0  0.13459951497E+03  0.54563197255E+03  0.44797714682E+02  0.56377134048E+03  0.10100000352E+00 0.  1.
       -3    1    3    3    0  502 -0.13459951497E+03 -0.54563197255E+03 -0.13991229061E+03  0.57914310681E+03  0.10100000352E+00 0. -1.
</event>
<event>
 5   0  0.1571895E-02  0.1015997E+04  0.7818609E-02  0.9291172E-01
       -2   -1    0    0    0  501  0.00000000000E+00  0.00000000000E+00  0.34214460080E+03  0.34214460080E+03  0.25500000920E-02 0.  1.
        2   -1    0    0  501    0  0.00000000000E+00  0.00000000000E+00 -0.75424906779E+03  0.75424906780E+03  0.25500000920E-02 0. -1.
    10030    2    1    2    0    0  0.00000000000E+00  0.00000000000E+00 -0.41210446700E+03  0.10963936686E+04  0.10159965476E+04 0.  0.
        2    1    3    3  502    0 -0.36163843866E+03  0.21753593290E+01  0.17893479932E+03  0.40349071231E+03  0.25500000920E-02 0.  1.
       -2    1    3    3    0  502  0.36163843866E+03 -0.21753593290E+01 -0.59103926632E+03  0.69290295629E+03  0.25500000920E-02 0. -1.
</event>
<event>
 5   0  0.9507815E-03  0.9621341E+03  0.7818609E-02  0.9351079E-01
        1   -1    0    0  501    0  0.00000000000E+00  0.00000000000E+00  0.81024253366E+03  0.81024253368E+03  0.50400001928E-02 0. -1.
       -1   -1    0    0    0  501  0.00000000000E+00  0.00000000000E+00 -0.28562499642E+03  0.28562499646E+03  0.50400001928E-02 0.  1.
    10030    2    1    2    0    0  0.00000000000E+00  0.00000000000E+00  0.52461753724E+03  0.10958675301E+04  0.96213412954E+03 0.  0.
        1    1    3    3  502    0  0.41094535033E+03  0.14565409804E+03  0.30741135863E+02  0.43707689792E+03  0.50400001928E-02 0.  1.
       -1    1    3    3    0  502 -0.41094535033E+03 -0.14565409804E+03  0.49387640138E+03  0.65879063222E+03  0.50400001928E-02 0. -1.
</event>
<event>
 5   0  0.1598986E-02  0.1004063E+04  0.7818609E-02  0.9304099E-01
        2   -1    0    0  501    0  0.00000000000E+00  0.00000000000E+00  0.72189205585E+03  0.72189205586E+03  0.25500000920E-02 0. -1.
       -2   -1    0    0    0  501  0.00000000000E+00  0.00000000000E+00 -0.34913234227E+03  0.34913234228E+03  0.25500000920E-02 0.  1.
    10030    2    1    2    0    0  0.00000000000E+00  0.00000000000E+00  0.37275971358E+03  0.10710243981E+04  0.10040634728E+04 0.  0.
        3    1    3    3  502    0 -0.26782374956E+03 -0.27309382322E+03  0.53321988604E+03  0.65622652657E+03  0.10100000352E+00 0. -1.
       -3    1    3    3    0  502  0.26782374956E+03  0.27309382322E+03 -0.16046017246E+03  0.41479787156E+03  0.10100000352E+00 0.  1.
</event>
<event>
 5   0  0.1571895E-02  0.9238436E+03  0.7818609E-02  0.9396257E-01
       -2   -1    0    0    0  501  0.00000000000E+00  0.00000000000E+00  0.22408127786E+03  0.22408127787E+03  0.25500000920E-02 0. -1.
        2   -1    0    0  501    0  0.00000000000E+00  0.00000000000E+00 -0.95220694793E+03  0.95220694793E+03  0.25500000920E-02 0.  1.
    10030    2    1    2    0    0  0.00000000000E+00  0.00000000000E+00 -0.72812567007E+03  0.11762882258E+04  0.92384360081E+03 0.  0.
        2    1    3    3  502    0 -0.21007941085E+03 -0.78685476218E+02 -0.87819134019E+03  0.90639108172E+03  0.25500000920E-02 0.  1.
       -2    1    3    3    0  502  0.21007941085E+03  0.78685476218E+02  0.15006567012E+03  0.26989714408E+03  0.25500000920E-02 0. -1.
</event>
<event>
 5   0  0.9507815E-03  0.9866830E+03  0.7818609E-02  0.9323272E-01
       -1   -1    0    0    0  501  0.00000000000E+00  0.00000000000E+00  0.91543023607E+03  0.91543023608E+03  0.50400001928E-02 0.  1.
        1   -1    0    0  501    0  0.00000000000E+00  0.00000000000E+00 -0.26587040920E+03  0.26587040925E+03  0.50400001928E-02 0. -1.
    10030    2    1    2    0    0  0.00000000000E+00  0.00000000000E+00  0.64955982687E+03  0.11813006453E+04  0.98668295109E+03 0.  0.
        1    1    3    3  502    0  0.32638329956E+03 -0.20766088479E+03 -0.41773839817E+02  0.38909401823E+03  0.50400001928E-02 0. -1.
       -1    1    3    3    0  502 -0.32638329956E+03  0.20766088479E+03  0.69133366669E+03  0.79220662710E+03  0.50400001928E-02 0.  1.
</event>
<event>
 5   0  0.1617721E-02  0.7730815E+03  0.7818609E-02  0.9599819E-01
        2   -1    0    0  501    0  0.00000000000E+00  0.00000000000E+00  0.66482640160E+03  0.66482640161E+03  0.25500000920E-02 0. -1.
       -2   -1    0    0    0  501  0.00000000000E+00  0.00000000000E+00 -0.22474102238E+03  0.22474102240E+03  0.25500000920E-02 0.  1.
    10030    2    1    2    0    0  0.00000000000E+00  0.00000000000E+00  0.44008537922E+03  0.88956742400E+03  0.77308153570E+03 0.  0.
        5    1    3    3  502    0  0.23145494775E+03  0.30807690637E+03  0.25473331525E+03  0.46194580307E+03  0.46999998093E+01 0. -1.
       -5    1    3    3    0  502 -0.23145494775E+03 -0.30807690637E+03  0.18535206398E+03  0.42762162094E+03  0.46999998093E+01 0.  1.
</event>
<event>
 5   0  0.1571895E-02  0.9955412E+03  0.7818609E-02  0.9313449E-01
        2   -1    0    0  501    0  0.00000000000E+00  0.00000000000E+00  0.11481071062E+04  0.11481071063E+04  0.25500000920E-02 0. -1.
       -2   -1    0    0    0  501  0.00000000000E+00  0.00000000000E+00 -0.21581224524E+03  0.21581224525E+03  0.25500000920E-02 0.  1.
    10030    2    1    2    0    0  0.00000000000E+00  0.00000000000E+00  0.93229486101E+03  0.13639193515E+04  0.99554120434E+03 0.  0.
        2    1    3    3  502    0  0.22925666842E+02  0.42619848712E+03  0.11523611085E+03  0.44209738505E+03  0.25500000920E-02 0.  1.
       -2    1    3    3    0  502 -0.22925666842E+02 -0.42619848712E+03  0.81705875016E+03  0.92182196645E+03  0.25500000920E-02 0. -1.
</event>
<event>
 5   0  0.1617721E-02  0.9413396E+03  0.7818609E-02  0.9375331E-01
        2   -1    0    0  501    0  0.00000000000E+00  0.00000000000E+00  0.39995249479E+03  0.39995249479E+03  0.25500000920E-02 0.  1.
       -2   -1    0    0    0  501  0.00000000000E+00  0.00000000000E+00 -0.55389095469E+03  0.55389095469E+03  0.25500000920E-02 0. -1.
    10030    2    1    2    0    0  0.00000000000E+00  0.00000000000E+00 -0.15393845990E+03  0.95384344949E+03  0.94133961815E+03 0.  0.
        5    1    3    3  502    0  0.44189672797E+03  0.51234603415E+02 -0.23266660831E+03  0.50204934359E+03  0.46999998093E+01 0. -1.
       -5    1    3    3    0  502 -0.44189672797E+03 -0.51234603415E+02  0.78728148408E+02  0.45179410590E+03  0.46999998093E+01 0.  1.
</event>
<event>
 5   0  0.9507815E-03  0.9901546E+03  0.7818609E-02  0.9319409E-01
        1   -1    0    0  501    0  0.00000000000E+00  0.00000000000E+00  0.76428896130E+03  0.76428896132E+03  0.50400001928E-02 0.  1.
       -1   -1    0    0    0  501  0.00000000000E+00  0.00000000000E+00 -0.32069222357E+03  0.32069222361E+03  0.50400001928E-02 0. -1.
    10030    2    1    2    0    0  0.00000000000E+00  0.00000000000E+00  0.44359673773E+03  0.10849811849E+04  0.99015458689E+03 0.  0.
        1    1    3    3  502    0 -0.28869440007E+03  0.33347848112E+03  0.46816179117E+03  0.64321677274E+03  0.50400001928E-02 0.  1.
       -1    1    3    3    0  502  0.28869440007E+03 -0.33347848112E+03 -0.24565053439E+02  0.44176441219E+03  0.50400001928E-02 0. -1.
</event>
<event>
 5   0  0.1656859E-02  0.1011675E+04  0.7818609E-02  0.9295832E-01
        2   -1    0    0  501    0  0.00000000000E+00  0.00000000000E+00  0.19811621113E+04  0.19811621113E+04  0.25500000920E-02 0. -1.
       -2   -1    0    0    0  501  0.00000000000E+00  0.00000000000E+00 -0.12915216026E+03  0.12915216029E+03  0.25500000920E-02 0.  1.
    10030    2    1    2    0    0  0.00000000000E+00  0.00000000000E+00  0.18520099510E+04  0.21103142716E+04  0.10116745851E+04 0.  0.
        4    1    3    3  502    0 -0.14741516127E+03 -0.82189348694E+02 -0.68680341842E+02  0.18222217502E+03  0.12699999809E+01 0.  1.
       -4    1    3    3    0  502  0.14741516127E+03  0.82189348694E+02  0.19206902929E+04  0.19280920966E+04  0.12699999809E+01 0. -1.
</event>
<event>
 5   0  0.1598986E-02  0.9915387E+03  0.7818609E-02  0.9317874E-01
        2   -1    0    0  501    0  0.00000000000E+00  0.00000000000E+00  0.63461771721E+03  0.63461771722E+03  0.25500000920E-02 0. -1.
       -2   -1    0    0    0  501  0.00000000000E+00  0.00000000000E+00 -0.38729970740E+03  0.38729970741E+03  0.25500000920E-02 0.  1.
    10030    2    1    2    0    0  0.00000000000E+00  0.00000000000E+00  0.24731800982E+03  0.10219174246E+04  0.99153871572E+03 0.  0.
        3    1    3    3  502    0 -0.39547864353E+03 -0.55806335905E+02 -0.17905664411E+03  0.43769738018E+03  0.10100000352E+00 0.  1.
       -3    1    3    3    0  502  0.39547864353E+03  0.55806335905E+02  0.42637465393E+03  0.58422004444E+03  0.10100000352E+00 0. -1.
</event>
<event>
 5   0  0.1617721E-02  0.9981128E+03  0.7818609E-02  0.9310617E-01
        2   -1    0    0  501    0  0.00000000000E+00  0.00000000000E+00  0.98551582698E+03  0.98551582698E+03  0.25500000920E-02 0.  1.
       -2   -1    0    0    0  501  0.00000000000E+00  0.00000000000E+00 -0.25271770331E+03  0.25271770332E+03  0.25500000920E-02 0. -1.
    10030    2    1    2    0    0  0.00000000000E+00  0.00000000000E+00  0.73279812367E+03  0.12382335303E+04  0.99811281202E+03 0.  0.
        5    1    3    3  502    0  0.19073490357E+03  0.40302979096E+03  0.88381890526E+02  0.45458361652E+03  0.46999998093E+01 0. -1.
       -5    1    3    3    0  502 -0.19073490357E+03 -0.40302979096E+03  0.64441623314E+03  0.78364991379E+03  0.46999998093E+01 0.  1.
</event>
<event>
 5   0  0.1598986E-02  0.9772997E+03  0.7818609E-02  0.9333799E-01
        2   -1    0    0  501    0  0.00000000000E+00  0.00000000000E+00  0.11392095862E+04  0.11392095862E+04  0.25500000920E-02 0. -1.
       -2   -1    0    0    0  501  0.00000000000E+00  0.00000000000E+00 -0.20960029616E+03  0.20960029618E+03  0.25500000920E-02 0.  1.
    10030    2    1    2    0    0  0.00000000000E+00  0.00000000000E+00  0.92960929000E+03  0.13488098823E+04  0.97729968109E+03 0.  0.
        3    1    3    3  502    0 -0.16014031723E+03  0.14928204991E+03 -0.13812616482E+03  0.25886077192E+03  0.10100000352E+00 0.  1.
       -3    1    3    3    0  502  0.16014031723E+03 -0.14928204991E+03  0.10677354548E+04  0.10899491104E+04  0.10100000352E+00 0. -1.
</event>
<event>
 5   0  0.1000773E-02  0.1017297E+04  0.7818609E-02  0.9289774E-01
       -1   -1    0    0    0  501  0.00000000000E+00  0.00000000000E+00  0.36692168085E+03  0.36692168088E+03  0.50400001928E-02 0.  1.
        1   -1    0    0  501    0  0.00000000000E+00  0.00000000000E+00 -0.70511921864E+03  0.70511921866E+03  0.50400001928E-02 0. -1.
    10030    2    1    2    0    0  0.00000000000E+00  0.00000000000E+00 -0.33819753780E+03  0.10720408995E+04  0.10172974569E+04 0.  0.
        3    1    3    3  502    0 -0.45157588578E+03 -0.18113308767E+03 -0.32538149949E+03  0.58532307872E+03  0.10100000352E+00 0. -1.
       -3    1    3    3    0  502  0.45157588578E+03  0.18113308767E+03 -0.12816038306E+02  0.48671782082E+03  0.10100000352E+00 0.  1.
</event>
<event>
 5   0  0.1000773E-02  0.9900893E+03  0.7818609E-02  0.9319482E-01
        1   -1    0    0  501    0  0.00000000000E+00  0.00000000000E+00  0.90378469139E+03  0.90378469141E+03  0.50400001928E-02 0. -1.
       -1   -1    0    0    0  501  0.00000000000E+00  0.00000000000E+00 -0.27115886263E+03  0.27115886268E+03  0.50400001928E-02 0.  1.
    10030    2    1    2    0    0  0.00000000000E+00  0.00000000000E+00  0.63262582876E+03  0.11749435541E+04  0.99008934751E+03 0.  0.
        3    1    3    3  502    0 -0.76365603963E+02 -0.46967642643E+03  0.15428724198E+03  0.50023216035E+03  0.10100000352E+00 0. -1.
       -3    1    3    3    0  502  0.76365603963E+02  0.46967642643E+03  0.47833858679E+03  0.67471139373E+03  0.10100000352E+00 0.  1.
</event>
<event>
 5   0  0.1656859E-02  0.1035028E+04  0.7818609E-02  0.9270940E-01
       -2   -1    0    0    0  501  0.00000000000E+00  0.00000000000E+00  0.34937289021E+03  0.34937289022E+03  0.25500000920E-02 0.  1.
        2   -1    0    0  501    0  0.00000000000E+00  0.00000000000E+00 -0.76657514395E+03  0.76657514395E+03  0.25500000920E-02 0. -1.
    10030    2    1    2    0    0  0.00000000000E+00  0.00000000000E+00 -0.41720225373E+03  0.11159480342E+04  0.10350276781E+04 0.  0.
        4    1    3    3  502    0  0.13521278725E+03 -0.31731669932E+03 -0.62457057224E+03  0.71348608824E+03  0.12699999809E+01 0. -1.
       -4    1    3    3    0  502 -0.13521278725E+03  0.31731669932E+03  0.20736831851E+03  0.40246194593E+03  0.12699999809E+01 0.  1.
</event>
<event>
 5   0  0.9396660E-03  0.9804398E+03  0.7818609E-02  0.9330262E-01
        1   -1    0    0  501    0  0.00000000000E+00  0.00000000000E+00  0.75716633465E+03  0.75716633466E+03  0.50400001928E-02 0. -1.
       -1   -1    0    0    0  501  0.00000000000E+00  0.00000000000E+00 -0.31738805318E+03  0.31738805322E+03  0.50400001928E-02 0.  1.
    10030    2    1    2    0    0  0.00000000000E+00  0.00000000000E+00  0.43977828147E+03  0.10745543879E+04  0.98043979706E+03 0.  0.
        5    1    3    3  502    0  0.39826869500E+03  0.52605589738E+02 -0.87981603617E+02  0.41127625030E+03  0.46999998093E+01 0.  1.
       -5    1    3    3    0  502 -0.39826869500E+03 -0.52605589738E+02  0.52775988508E+03  0.66327813758E+03  0.46999998093E+01 0. -1.
</event>
<event>
 5   0  0.6314750E-03  0.9904873E+03  0.7818609E-02  0.9319040E-01
       -3   -1    0    0    0  501  0.00000000000E+00  0.00000000000E+00  0.12254339107E+04  0.12254339148E+04  0.10100000352E+00 0. -1.
        3   -1    0    0  501    0  0.00000000000E+00  0.00000000000E+00 -0.20014643749E+03  0.20014646298E+03  0.10100000352E+00 0.  1.
    10030    2    1    2    0    0  0.00000000000E+00  0.00000000000E+00  0.10252874732E+04  0.14255803778E+04  0.99048725935E+03 0.  0.
        4    1    3    3  502    0 -0.36841870073E+03  0.17646834038E+03  0.10967018527E+03  0.42296876556E+03  0.12699999809E+01 0.  1.
       -4    1    3    3    0  502  0.36841870073E+03 -0.17646834038E+03  0.91561728790E+03  0.10026116122E+04  0.12699999809E+01 0. -1.
</event>
<event>
 5   0  0.1000773E-02  0.9920690E+03  0.7818609E-02  0.9317286E-01
       -1   -1    0    0    0  501  0.00000000000E+00  0.00000000000E+00  0.54205262326E+03  0.54205262328E+03  0.50400001928E-02 0.  1.
        1   -1    0    0  501    0  0.00000000000E+00  0.00000000000E+00 -0.45392311173E+03  0.45392311175E+03  0.50400001928E-02 0. -1.
    10030    2    1    2    0    0  0.00000000000E+00  0.00000000000E+00  0.88129511530E+02  0.99597573503E+03  0.99206897642E+03 0.  0.
        3    1    3    3  502    0 -0.20335274482E+03  0.30627353132E+03  0.37838422931E+03  0.52757032707E+03  0.10100000352E+00 0.  1.
       -3    1    3    3    0  502  0.20335274482E+03 -0.30627353132E+03 -0.29025471779E+03  0.46840540796E+03  0.10100000352E+00 0. -1.
</event>
<event>
 5   0  0.6314750E-03  0.9852267E+03  0.7818609E-02  0.9324898E-01
        3   -1    0    0  501    0  0.00000000000E+00  0.00000000000E+00  0.82155365556E+03  0.82155366177E+03  0.10100000352E+00 0.  1.
       -3   -1    0    0    0  501  0.00000000000E+00  0.00000000000E+00 -0.29537680391E+03  0.29537682118E+03  0.10100000352E+00 0. -1.
    10030    2    1    2    0    0  0.00000000000E+00  0.00000000000E+00  0.52617685165E+03  0.11169304829E+04  0.98522668687E+03 0.  0.
        2    1    3    3  502    0  0.38617638921E+03 -0.29413905492E+03  0.35806011219E+03  0.60320562925E+03  0.25500000920E-02 0.  1.
       -2    1    3    3    0  502 -0.38617638921E+03  0.29413905492E+03  0.16811673946E+03  0.51372485369E+03  0.25500000920E-02 0. -1.
</event>
<event>
 5   0  0.1000773E-02  0.1010047E+04  0.7818609E-02  0.9297593E-01
       -1   -1    0    0    0  501  0.00000000000E+00  0.00000000000E+00  0.20040793466E+03  0.20040793473E+03  0.50400001928E-02 0.  1.
        1   -1    0    0  501    0  0.00000000000E+00  0.00000000000E+00 -0.12726481702E+04  0.12726481702E+04  0.50400001928E-02 0. -1.
    10030    2    1    2    0    0  0.00000000000E+00  0.00000000000E+00 -0.10722402355E+04  0.14730561049E+04  0.10100471106E+04 0.  0.
        3    1    3    3  502    0 -0.10512926262E+03  0.45688786492E+03 -0.26230474722E+03  0.53721734297E+03  0.10100000352E+00 0. -1.
       -3    1    3    3    0  502  0.10512926262E+03 -0.45688786492E+03 -0.80993548833E+03  0.93583876198E+03  0.10100000352E+00 0.  1.
</event>
<event>
 5   0  0.1663497E-02  0.1135131E+04  0.7818609E-02  0.9171612E-01
        2   -1    0    0  501    0  0.00000000000E+00  0.00000000000E+00  0.59152256630E+03  0.59152256631E+03  0.25500000920E-02 0. -1.
       -2   -1    0    0    0  501  0.00000000000E+00  0.00000000000E+00 -0.54457840319E+03  0.54457840320E+03  0.25500000920E-02 0.  1.
    10030    2    1    2    0    0  0.00000000000E+00  0.00000000000E+00  0.46944163112E+02  0.11361009695E+04  0.11351306790E+04 0.  0.
        1    1    3    3  502    0  0.21837876112E+02 -0.43956356245E+02 -0.54245033266E+03  0.54466633595E+03  0.50400001928E-02 0.  1.
       -1    1    3    3    0  502 -0.21837876112E+02  0.43956356245E+02  0.58939449577E+03  0.59143463355E+03  0.50400001928E-02 0. -1.
</event>
<event>
 5   0  0.9759443E-03  0.9871937E+03  0.7818609E-02  0.9322703E-01
       -1   -1    0    0    0  501  0.00000000000E+00  0.00000000000E+00  0.37718079034E+03  0.37718079037E+03  0.50400001928E-02 0. -1.
        1   -1    0    0  501    0  0.00000000000E+00  0.00000000000E+00 -0.64594452288E+03  0.64594452290E+03  0.50400001928E-02 0.  1.
    10030    2    1    2    0    0  0.00000000000E+00  0.00000000000E+00 -0.26876373255E+03  0.10231253133E+04  0.98719373111E+03 0.  0.
        2    1    3    3  502    0  0.31473910583E+03 -0.22167994167E+03  0.18578814691E+03  0.42745752633E+03  0.25500000920E-02 0. -1.
       -2    1    3    3    0  502 -0.31473910583E+03  0.22167994167E+03 -0.45455187945E+03  0.59566778694E+03  0.25500000920E-02 0.  1.
</event>
<event>
 5   0  0.1000773E-02  0.9329289E+03  0.7818609E-02  0.9385330E-01
        1   -1    0    0  501    0  0.00000000000E+00  0.00000000000E+00  0.12590500639E+04  0.12590500639E+04  0.50400001928E-02 0.  1.
       -1   -1    0    0    0  501  0.00000000000E+00  0.00000000000E+00 -0.17282002696E+03  0.17282002703E+03  0.50400001928E-02 0. -1.
    10030    2    1    2    0    0  0.00000000000E+00  0.00000000000E+00  0.10862300370E+04  0.14318700910E+04  0.93292886342E+03 0.  0.
        3    1    3    3  502    0  0.32916438630E+03 -0.19195011847E+03  0.95607637909E+03  0.10292113942E+04  0.10100000352E+00 0.  1.
       -3    1    3    3    0  502 -0.32916438630E+03  0.19195011847E+03  0.13015365788E+03  0.40265869673E+03  0.10100000352E+00 0. -1.
</event>
<event>
 5   0  0.9759443E-03  0.9833021E+03  0.7818609E-02  0.9327051E-01
        1   -1    0    0  501    0  0.00000000000E+00  0.00000000000E+00  0.35341333736E+03  0.35341333739E+03  0.50400001928E-02 0.  1.
       -1   -1    0    0    0  501  0.00000000000E+00  0.00000000000E+00 -0.68396050069E+03  0.68396050071E+03  0.50400001928E-02 0. -1.
    10030    2    1    2    0    0  0.00000000000E+00  0.00000000000E+00 -0.33054716333E+03  0.10373738381E+04  0.98330211674E+03 0.  0.
        2    1    3    3  502    0  0.48983796117E+02 -0.16603820308E+03 -0.65074398751E+03  0.67337644335E+03  0.25500000920E-02 0. -1.
       -2    1    3    3    0  502 -0.48983796117E+02  0.16603820308E+03  0.32019682418E+03  0.36399739475E+03  0.25500000920E-02 0.  1.
</event>
<event>
 5   0  0.1000773E-02  0.1004856E+04  0.7818609E-02  0.9303235E-01
        1   -1    0    0  501    0  0.00000000000E+00  0.00000000000E+00  0.67376481808E+03  0.67376481810E+03  0.50400001928E-02 0. -1.
       -1   -1    0    0    0  501  0.00000000000E+00  0.00000000000E+00 -0.37466184444E+03  0.37466184448E+03  0.50400001928E-02 0.  1.
    10030    2    1    2    0    0  0.00000000000E+00  0.00000000000E+00  0.29910297364E+03  0.10484266626E+04  0.10048561479E+04 0.  0.
        3    1    3    3  502    0  0.32784545686E+03 -0.21232682280E+03 -0.18017111810E+03  0.43014760869E+03  0.10100000352E+00 0.  1.
       -3    1    3    3    0  502 -0.32784545686E+03  0.21232682280E+03  0.47927409174E+03  0.61827905389E+03  0.10100000352E+00 0. -1.
</event>
<event>
 5   0  0.1617721E-02  0.7916400E+03  0.7818609E-02  0.9572197E-01
       -2   -1    0    0    0  501  0.00000000000E+00  0.00000000000E+00  0.20019419030E+03  0.20019419031E+03  0.25500000920E-02 0.  1.
        2   -1    0    0  501    0  0.00000000000E+00  0.00000000000E+00 -0.78260757809E+03  0.78260757809E+03  0.25500000920E-02 0. -1.
    10030    2    1    2    0    0  0.00000000000E+00  0.00000000000E+00 -0.58241338779E+03  0.98280176840E+03  0.79164004554E+03 0.  0.
        5    1    3    3  502    0  0.35989089589E+03 -0.16221479370E+03 -0.25573644902E+03  0.47038103447E+03  0.46999998093E+01 0. -1.
       -5    1    3    3    0  502 -0.35989089589E+03  0.16221479370E+03 -0.32667693877E+03  0.51242073393E+03  0.46999998093E+01 0.  1.
</event>
<event>
 5   0  0.1663497E-02  0.9908245E+03  0.7818609E-02  0.9318666E-01
       -2   -1    0    0    0  501  0.00000000000E+00  0.00000000000E+00  0.41385985770E+03  0.41385985771E+03  0.25500000920E-02 0. -1.
        2   -1    0    0  501    0  0.00000000000E+00  0.00000000000E+00 -0.59303482828E+03  0.59303482828E+03  0.25500000920E-02 0.  1.
    10030    2    1    2    0    0  0.00000000000E+00  0.00000000000E+00 -0.17917497058E+03  0.10068946860E+04  0.99082452463E+03 0.  0.
        1    1    3    3  502    0  0.33190461520E+03 -0.30750646762E+03 -0.29463320055E+03  0.53993483321E+03  0.50400001928E-02 0.  1.
       -1    1    3    3    0  502 -0.33190461520E+03  0.30750646762E+03  0.11545822997E+03  0.46695985279E+03  0.50400001928E-02 0. -1.
</event>
<event>
 5   0  0.9507815E-03  0.9997629E+03  0.7818609E-02  0.9308805E-01
        1   -1    0    0  501    0  0.00000000000E+00  0.00000000000E+00  0.64819246912E+03  0.64819246914E+03  0.50400001928E-02 0.  1.
       -1   -1    0    0    0  501  0.00000000000E+00  0.00000000000E+00 -0.38550507090E+03  0.38550507093E+03  0.50400001928E-02 0. -1.
    10030    2    1    2    0    0  0.00000000000E+00  0.00000000000E+00  0.26268739822E+03  0.10336975401E+04  0.99976293949E+03 0.  0.
        1    1    3    3  502    0 -0.85964473857E+02  0.29674801081E+03 -0.27497367562E+03  0.41359375599E+03  0.50400001928E-02 0. -1.
       -1    1    3    3    0  502  0.85964473857E+02 -0.29674801081E+03  0.53766107384E+03  0.62010378408E+03  0.50400001928E-02 0.  1.
</event>
<event>
 5   0  0.1571895E-02  0.8642866E+03  0.7818609E-02  0.9471360E-01
        2   -1    0    0  501    0  0.00000000000E+00  0.00000000000E+00  0.61999625871E+03  0.61999625871E+03  0.25500000920E-02 0. -1.
       -2   -1    0    0    0  501  0.00000000000E+00  0.00000000000E+00 -0.30120803156E+03  0.30120803157E+03  0.25500000920E-02 0.  1.
    10030    2    1    2    0    0  0.00000000000E+00  0.00000000000E+00  0.31878822715E+03  0.92120429028E+03  0.86428664843E+03 0.  0.
        2    1    3    3  502    0  0.63678991941E+02  0.24174402375E+03 -0.21631437304E+03  0.33058598734E+03  0.25500000920E-02 0.  1.
       -2    1    3    3    0  502 -0.63678991941E+02 -0.24174402375E+03  0.53510260019E+03  0.59061830294E+03  0.25500000920E-02 0. -1.
</event>
<event>
 5   0  0.1617721E-02  0.9918113E+03  0.7818609E-02  0.9317572E-01
        2   -1    0    0  501    0  0.00000000000E+00  0.00000000000E+00  0.11927774735E+04  0.11927774735E+04  0.25500000920E-02 0. -1.
       -2   -1    0    0    0  501  0.00000000000E+00  0.00000000000E+00 -0.20617628333E+03  0.20617628334E+03  0.25500000920E-02 0.  1.
    10030    2    1    2    0    0  0.00000000000E+00  0.00000000000E+00  0.98660119022E+03  0.13989537569E+04  0.99181132550E+03 0.  0.
        5    1    3    3  502    0 -0.30645802839E+03 -0.53572086555E+01 -0.56533865235E+02  0.31171042775E+03  0.46999998093E+01 0.  1.
       -5    1    3    3    0  502  0.30645802839E+03  0.53572086555E+01  0.10431350555E+04  0.10872433291E+04  0.46999998093E+01 0. -1.
</event>
<event>
 5   0  0.9759443E-03  0.9926729E+03  0.7818609E-02  0.9316618E-01
        1   -1    0    0  501    0  0.00000000000E+00  0.00000000000E+00  0.37237788469E+03  0.37237788473E+03  0.50400001928E-02 0.  1.
       -1   -1    0    0    0  501  0.00000000000E+00  0.00000000000E+00 -0.66155875553E+03  0.66155875555E+03  0.50400001928E-02 0. -1.
    10030    2    1    2    0    0  0.00000000000E+00  0.00000000000E+00 -0.28918087084E+03  0.10339366403E+04  0.99267285651E+03 0.  0.
        2    1    3    3  502    0 -0.35063528202E+03 -0.31475092436E+03  0.17896247349E+02  0.47152255626E+03  0.25500000920E-02 0.  1.
       -2    1    3    3    0  502  0.35063528202E+03  0.31475092436E+03 -0.30707711819E+03  0.56241408402E+03  0.25500000920E-02 0. -1.
</event>
<event>
 5   0  0.1571895E-02  0.1006273E+04  0.7818609E-02  0.9301692E-01
       -2   -1    0    0    0  501  0.00000000000E+00  0.00000000000E+00  0.36252728977E+03  0.36252728977E+03  0.25500000920E-02 0. -1.
        2   -1    0    0  501    0  0.00000000000E+00  0.00000000000E+00 -0.69828188346E+03  0.69828188346E+03  0.25500000920E-02 0.  1.
    10030    2    1    2    0    0  0.00000000000E+00  0.00000000000E+00 -0.33575459369E+03  0.10608091732E+04  0.10062728034E+04 0.  0.
        2    1    3    3  502    0  0.40291298053E+03 -0.24883243109E+03 -0.34705902644E+03  0.58711703815E+03  0.25500000920E-02 0. -1.
       -2    1    3    3    0  502 -0.40291298053E+03  0.24883243109E+03  0.11304432747E+02  0.47369213509E+03  0.25500000920E-02 0.  1.
</event>
<event>
 5   0  0.1598986E-02  0.9765796E+03  0.7818609E-02  0.9334612E-01
        2   -1    0    0  501    0  0.00000000000E+00  0.00000000000E+00  0.26565073736E+04  0.26565073736E+04  0.25500000920E-02 0. -1.
       -2   -1    0    0    0  501  0.00000000000E+00  0.00000000000E+00 -0.89752021575E+02  0.89752021611E+02  0.25500000920E-02 0.  1.
    10030    2    1    2    0    0  0.00000000000E+00  0.00000000000E+00  0.25667553520E+04  0.27462593952E+04  0.97657955572E+03 0.  0.
        3    1    3    3  502    0 -0.19603391560E+03 -0.10763023286E+03  0.62731641601E+02  0.23226887899E+03  0.10100000352E+00 0.  1.
       -3    1    3    3    0  502  0.19603391560E+03  0.10763023286E+03  0.25040237104E+04  0.25139905162E+04  0.10100000352E+00 0. -1.
</event>
<event>
 5   0  0.9396660E-03  0.7527113E+03  0.7818609E-02  0.9631106E-01
        1   -1    0    0  501    0  0.00000000000E+00  0.00000000000E+00  0.41407989982E+03  0.41407989985E+03  0.50400001928E-02 0.  1.
       -1   -1    0    0    0  501  0.00000000000E+00  0.00000000000E+00 -0.34206823170E+03  0.34206823174E+03  0.50400001928E-02 0. -1.
    10030    2    1    2    0    0  0.00000000000E+00  0.00000000000E+00  0.72011668122E+02  0.75614813159E+03  0.75271131024E+03 0.  0.
        5    1    3    3  502    0  0.17188627256E+03  0.12346189321E+03  0.34860789575E+03  0.40784468213E+03  0.46999998093E+01 0.  1.
       -5    1    3    3    0  502 -0.17188627256E+03 -0.12346189321E+03 -0.27659622763E+03  0.34830344946E+03  0.46999998093E+01 0. -1.
</event>
<event>
 5   0  0.9396660E-03  0.9760951E+03  0.7818609E-02  0.9335159E-01
        1   -1    0    0  501    0  0.00000000000E+00  0.00000000000E+00  0.29193160076E+03  0.29193160081E+03  0.50400001928E-02 0.  1.
       -1   -1    0    0    0  501  0.00000000000E+00  0.00000000000E+00 -0.81591162583E+03  0.81591162584E+03  0.50400001928E-02 0. -1.
    10030    2    1    2    0    0  0.00000000000E+00  0.00000000000E+00 -0.52398002506E+03  0.11078432266E+04  0.97609505078E+03 0.  0.
        5    1    3    3  502    0  0.57687406092E+02  0.12807448210E+03  0.26846637416E+03  0.30303002135E+03  0.46999998093E+01 0.  1.
       -5    1    3    3    0  502 -0.57687406092E+02 -0.12807448210E+03 -0.79244639922E+03  0.80481320530E+03  0.46999998093E+01 0. -1.
</event>
<event>
 5   0  0.1663497E-02  0.9989431E+03  0.7818609E-02  0.9309705E-01
        2   -1    0    0  501    0  0.00000000000E+00  0.00000000000E+00  0.82618322918E+03  0.82618322918E+03  0.25500000920E-02 0. -1.
       -2   -1    0    0    0  501  0.00000000000E+00  0.00000000000E+00 -0.30195703738E+03  0.30195703739E+03  0.25500000920E-02 0.  1.
    10030    2    1    2    0    0  0.00000000000E+00  0.00000000000E+00  0.52422619180E+03  0.11281402666E+04  0.99894312195E+03 0.  0.
        1    1    3    3  502    0  0.65073217003E+02  0.27554306860E+03 -0.20258181948E+03  0.34813488742E+03  0.50400001928E-02 0.  1.
       -1    1    3    3    0  502 -0.65073217003E+02 -0.27554306860E+03  0.72680801128E+03  0.78000537916E+03  0.50400001928E-02 0. -1.
</event>
<event>
 5   0  0.9471140E-03  0.1005818E+04  0.7818609E-02  0.9302186E-01
        1   -1    0    0  501    0  0.00000000000E+00  0.00000000000E+00  0.61792169343E+03  0.61792169346E+03  0.50400001928E-02 0.  1.
       -1   -1    0    0    0  501  0.00000000000E+00  0.00000000000E+00 -0.40930367314E+03  0.40930367317E+03  0.50400001928E-02 0. -1.
    10030    2    1    2    0    0  0.00000000000E+00  0.00000000000E+00  0.20861802029E+03  0.10272253666E+04  0.10058183114E+04 0.  0.
        4    1    3    3  502    0 -0.11212368931E+03 -0.11658877893E+03  0.59062788943E+03  0.61237862614E+03  0.12699999809E+01 0.  1.
       -4    1    3    3    0  502  0.11212368931E+03  0.11658877893E+03 -0.38200986914E+03  0.41484674049E+03  0.12699999809E+01 0. -1.
</event>
<event>
 5   0  0.9759443E-03  0.9887130E+03  0.7818609E-02  0.9321012E-01
       -1   -1    0    0    0  501  0.00000000000E+00  0.00000000000E+00  0.15670970883E+03  0.15670970892E+03  0.50400001928E-02 0. -1.
        1   -1    0    0  501    0  0.00000000000E+00  0.00000000000E+00 -0.15594970231E+04  0.15594970231E+04  0.50400001928E-02 0.  1.
    10030    2    1    2    0    0  0.00000000000E+00  0.00000000000E+00 -0.14027873143E+04  0.17162067321E+04  0.98871295025E+03 0.  0.
        2    1    3    3  502    0  0.11510847032E+03  0.35736642468E+03 -0.12596293594E+04  0.13143921959E+04  0.25500000920E-02 0.  1.
       -2    1    3    3    0  502 -0.11510847032E+03 -0.35736642468E+03 -0.14315795485E+03  0.40181453617E+03  0.25500000920E-02 0. -1.
</event>
<event>
 5   0  0.1656859E-02  0.1245609E+04  0.7818609E-02  0.9073846E-01
        2   -1    0    0  501    0  0.00000000000E+00  0.00000000000E+00  0.15155860579E+04  0.15155860579E+04  0.25500000920E-02 0. -1.
       -2   -1    0    0    0  501  0.00000000000E+00  0.00000000000E+00 -0.25593092618E+03  0.25593092619E+03  0.25500000920E-02 0.  1.
    10030    2    1    2    0    0  0.00000000000E+00  0.00000000000E+00  0.12596551317E+04  0.17715169841E+04  0.12456088367E+04 0.  0.
        4    1    3    3  502    0  0.14232438855E+03  0.59116743211E+03  0.43823228830E+03  0.74952272532E+03  0.12699999809E+01 0. -1.
       -4    1    3    3    0  502 -0.14232438855E+03 -0.59116743211E+03  0.82142284340E+03  0.10219942588E+04  0.12699999809E+01 0.  1.
</event>
<event>
 5   0  0.1571895E-02  0.1018527E+04  0.7818609E-02  0.9288455E-01
       -2   -1    0    0    0  501  0.00000000000E+00  0.00000000000E+00  0.16545166509E+03  0.16545166511E+03  0.25500000920E-02 0. -1.
        2   -1    0    0  501    0  0.00000000000E+00  0.00000000000E+00 -0.15675236686E+04  0.15675236686E+04  0.25500000920E-02 0.  1.
    10030    2    1    2    0    0  0.00000000000E+00  0.00000000000E+00 -0.14020720035E+04  0.17329753337E+04  0.10185271740E+04 0.  0.
        2    1    3    3  502    0 -0.14157438567E+03 -0.20313861510E+03  0.56140441563E+02  0.25389043465E+03  0.25500000920E-02 0. -1.
       -2    1    3    3    0  502  0.14157438567E+03  0.20313861510E+03 -0.14582124451E+04  0.14790848991E+04  0.25500000920E-02 0.  1.
</event>
<event>
 5   0  0.1598986E-02  0.1004828E+04  0.7818609E-02  0.9303266E-01
       -2   -1    0    0    0  501  0.00000000000E+00  0.00000000000E+00  0.14479226281E+03  0.14479226284E+03  0.25500000920E-02 0.  1.
        2   -1    0    0  501    0  0.00000000000E+00  0.00000000000E+00 -0.17433226414E+04  0.17433226414E+04  0.25500000920E-02 0. -1.
    10030    2    1    2    0    0  0.00000000000E+00  0.00000000000E+00 -0.15985303786E+04  0.18881149042E+04  0.10048276073E+04 0.  0.
        3    1    3    3  502    0  0.43989507618E+03  0.19743029332E+03 -0.10645580751E+04  0.11686617578E+04  0.10100000352E+00 0.  1.
       -3    1    3    3    0  502 -0.43989507618E+03 -0.19743029332E+03 -0.53397230345E+03  0.71945314637E+03  0.10100000352E+00 0. -1.
</event>
<event>
 5   0  0.6314750E-03  0.9745562E+03  0.7818609E-02  0.9336900E-01
        4   -1    0    0  501    0  0.00000000000E+00  0.00000000000E+00  0.13514293860E+04  0.13514299827E+04  0.12699999809E+01 0. -1.
       -4   -1    0    0    0  501  0.00000000000E+00  0.00000000000E+00 -0.17569246948E+03  0.17569705954E+03  0.12699999809E+01 0.  1.
    10030    2    1    2    0    0  0.00000000000E+00  0.00000000000E+00  0.11757369165E+04  0.15271270422E+04  0.97455615865E+03 0.  0.
        4    1    3    3  502    0 -0.40703265663E+03  0.76839986516E+01  0.16826501917E+03  0.44051033697E+03  0.12699999809E+01 0.  1.
       -4    1    3    3    0  502  0.40703265663E+03 -0.76839986516E+01  0.10074718973E+04  0.10866167053E+04  0.12699999809E+01 0. -1.
</event>
<event>
 5   0  0.1656859E-02  0.9827975E+03  0.7818609E-02  0.9327616E-01
        2   -1    0    0  501    0  0.00000000000E+00  0.00000000000E+00  0.95539939250E+03  0.95539939250E+03  0.25500000920E-02 0. -1.
       -2   -1    0    0    0  501  0.00000000000E+00  0.00000000000E+00 -0.25274533387E+03  0.25274533389E+03  0.25500000920E-02 0.  1.
    10030    2    1    2    0    0  0.00000000000E+00  0.00000000000E+00  0.70265405862E+03  0.12081447264E+04  0.98279751414E+03 0.  0.
        4    1    3    3  502    0 -0.33200104129E+03  0.28488509476E+03  0.62644379868E+03  0.76407961263E+03  0.12699999809E+01 0. -1.
       -4    1    3    3    0  502  0.33200104129E+03 -0.28488509476E+03  0.76210259941E+02  0.44406511376E+03  0.12699999809E+01 0.  1.
</event>
<event>
 5   0  0.1598986E-02  0.1014518E+04  0.7818609E-02  0.9292763E-01
        2   -1    0    0  501    0  0.00000000000E+00  0.00000000000E+00  0.15944479801E+04  0.15944479801E+04  0.25500000920E-02 0.  1.
       -2   -1    0    0    0  501  0.00000000000E+00  0.00000000000E+00 -0.16137981186E+03  0.16137981188E+03  0.25500000920E-02 0. -1.
    10030    2    1    2    0    0  0.00000000000E+00  0.00000000000E+00  0.14330681683E+04  0.17558277920E+04  0.10145180434E+04 0.  0.
        3    1    3    3  502    0  0.39451300943E+03  0.24385854073E+03  0.36098464981E+03  0.58772223890E+03  0.10100000352E+00 0. -1.
       -3    1    3    3    0  502 -0.39451300943E+03 -0.24385854073E+03  0.10720835185E+04  0.11681055531E+04  0.10100000352E+00 0.  1.
</event>
<event>
 5   0  0.1000773E-02  0.9898944E+03  0.7818609E-02  0.9319698E-01
       -1   -1    0    0    0  501  0.00000000000E+00  0.00000000000E+00  0.41253951930E+03  0.41253951933E+03  0.50400001928E-02 0. -1.
        1   -1    0    0  501    0  0.00000000000E+00  0.00000000000E+00 -0.59381636466E+03  0.59381636468E+03  0.50400001928E-02 0.  1.
    10030    2    1    2    0    0  0.00000000000E+00  0.00000000000E+00 -0.18127684536E+03  0.10063558840E+04  0.98989437347E+03 0.  0.
        3    1    3    3  502    0  0.49459087184E+03 -0.12258697693E+02 -0.10509821462E+03  0.50578261249E+03  0.10100000352E+00 0.  1.
       -3    1    3    3    0  502 -0.49459087184E+03  0.12258697693E+02 -0.76178630744E+02  0.50057327152E+03  0.10100000352E+00 0. -1.
</event>
<event>
 5   0  0.1598986E-02  0.1023569E+04  0.7818609E-02  0.9283066E-01
        2   -1    0    0  501    0  0.00000000000E+00  0.00000000000E+00  0.40121553343E+03  0.40121553344E+03  0.25500000920E-02 0. -1.
       -2   -1    0    0    0  501  0.00000000000E+00  0.00000000000E+00 -0.65282426814E+03  0.65282426814E+03  0.25500000920E-02 0.  1.
    10030    2    1    2    0    0  0.00000000000E+00  0.00000000000E+00 -0.25160873470E+03  0.10540398016E+04  0.10235687314E+04 0.  0.
        3    1    3    3  502    0  0.48136761729E+03 -0.72391478005E+02 -0.28852070565E+03  0.56586174712E+03  0.10100000352E+00 0. -1.
       -3    1    3    3    0  502 -0.48136761729E+03  0.72391478005E+02  0.36911970945E+02  0.48817805447E+03  0.10100000352E+00 0.  1.
</event>
<event>
 5   0  0.9759443E-03  0.1020932E+04  0.7818609E-02  0.9285880E-01
        1   -1    0    0  501    0  0.00000000000E+00  0.00000000000E+00  0.16373669573E+04  0.16373669573E+04  0.50400001928E-02 0. -1.
       -1   -1    0    0    0  501  0.00000000000E+00  0.00000000000E+00 -0.15914300412E+03  0.15914300420E+03  0.50400001928E-02 0.  1.
    10030    2    1    2    0    0  0.00000000000E+00  0.00000000000E+00  0.14782239532E+04  0.17965099615E+04  0.10209319204E+04 0.  0.
        2    1    3    3  502    0 -0.20803036411E+03 -0.34881804892E+03  0.19496253032E+03  0.45051198861E+03  0.25500000920E-02 0.  1.
       -2    1    3    3    0  502  0.20803036411E+03  0.34881804892E+03  0.12832614229E+04  0.13459979729E+04  0.25500000920E-02 0. -1.
</event>
<event>
 5   0  0.9507815E-03  0.9803200E+03  0.7818609E-02  0.9330397E-01
        1   -1    0    0  501    0  0.00000000000E+00  0.00000000000E+00  0.21117166019E+04  0.21117166019E+04  0.50400001928E-02 0.  1.
       -1   -1    0    0    0  501  0.00000000000E+00  0.00000000000E+00 -0.11377323429E+03  0.11377323440E+03  0.50400001928E-02 0. -1.
    10030    2    1    2    0    0  0.00000000000E+00  0.00000000000E+00  0.19979433676E+04  0.22254898363E+04  0.98032000454E+03 0.  0.
        1    1    3    3  502    0 -0.48161733304E+03  0.28154802077E+02  0.11956902344E+04  0.12893498691E+04  0.50400001928E-02 0.  1.
       -1    1    3    3    0  502  0.48161733304E+03 -0.28154802077E+02  0.80225313326E+03  0.93613996721E+03  0.50400001928E-02 0. -1.
</event>
<event>
 5   0  0.1656859E-02  0.9984503E+03  0.7818609E-02  0.9310246E-01
        2   -1    0    0  501    0  0.00000000000E+00  0.00000000000E+00  0.64008917465E+03  0.64008917465E+03  0.25500000920E-02 0. -1.
       -2   -1    0    0    0  501  0.00000000000E+00  0.00000000000E+00 -0.38936101317E+03  0.38936101318E+03  0.25500000920E-02 0.  1.
    10030    2    1    2    0    0  0.00000000000E+00  0.00000000000E+00  0.25072816148E+03  0.10294501878E+04  0.99845033841E+03 0.  0.
        4    1    3    3  502    0 -0.24078041582E+03 -0.42446569789E+03  0.23388313687E+03  0.54115549701E+03  0.12699999809E+01 0. -1.
       -4    1    3    3    0  502  0.24078041582E+03  0.42446569789E+03  0.16845024612E+02  0.48829469082E+03  0.12699999809E+01 0.  1.
</event>
<event>
 5   0  0.1656859E-02  0.9940297E+03  0.7818609E-02  0.9315117E-01
        2   -1    0    0  501    0  0.00000000000E+00  0.00000000000E+00  0.61950590948E+03  0.61950590949E+03  0.25500000920E-02 0. -1.
       -2   -1    0    0    0  501  0.00000000000E+00  0.00000000000E+00 -0.39874314785E+03  0.39874314786E+03  0.25500000920E-02 0.  1.
    10030    2    1    2    0    0  0.00000000000E+00  0.00000000000E+00  0.22076276163E+03  0.10182490573E+04  0.99402965040E+03 0.  0.
        4    1    3    3  502    0 -0.32302379802E+03  0.35040317470E+03  0.25486899816E+03  0.54045034744E+03  0.12699999809E+01 0.  1.
       -4    1    3    3    0  502  0.32302379802E+03 -0.35040317470E+03 -0.34106236531E+02  0.47779870991E+03  0.12699999809E+01 0. -1.
</event>
<event>
 5   0  0.1656859E-02  0.1056387E+04  0.7818609E-02  0.9248774E-01
       -2   -1    0    0    0  501  0.00000000000E+00  0.00000000000E+00  0.18774399480E+03  0.18774399482E+03  0.25500000920E-02 0.  1.
        2   -1    0    0  501    0  0.00000000000E+00  0.00000000000E+00 -0.14860053959E+04  0.14860053959E+04  0.25500000920E-02 0. -1.
    10030    2    1    2    0    0  0.00000000000E+00  0.00000000000E+00 -0.12982614011E+04  0.16737493907E+04  0.10563874087E+04 0.  0.
        4    1    3    3  502    0  0.51351754429E+03  0.50161192610E+02 -0.47008156195E+03  0.69799333902E+03  0.12699999809E+01 0. -1.
       -4    1    3    3    0  502 -0.51351754429E+03 -0.50161192610E+02 -0.82817983913E+03  0.97575605167E+03  0.12699999809E+01 0.  1.
</event>
<event>
 5   0  0.6314750E-03  0.9519131E+03  0.7818609E-02  0.9362917E-01
       -3   -1    0    0    0  501  0.00000000000E+00  0.00000000000E+00  0.25099457881E+03  0.25099459913E+03  0.10100000352E+00 0. -1.
        3   -1    0    0  501    0  0.00000000000E+00  0.00000000000E+00 -0.90254793704E+03  0.90254794269E+03  0.10100000352E+00 0.  1.
    10030    2    1    2    0    0  0.00000000000E+00  0.00000000000E+00 -0.65155335823E+03  0.11535425418E+04  0.95191313531E+03 0.  0.
        1    1    3    3  502    0  0.22076173910E+03  0.74196257233E+02 -0.82878034633E+03  0.86088192716E+03  0.50400001928E-02 0.  1.
       -1    1    3    3    0  502 -0.22076173910E+03 -0.74196257233E+02  0.17722698810E+03  0.29266061466E+03  0.50400001928E-02 0. -1.
</event>
<event>
 5   0  0.9507815E-03  0.1000323E+04  0.7818609E-02  0.9308191E-01
        1   -1    0    0  501    0  0.00000000000E+00  0.00000000000E+00  0.12942564493E+04  0.12942564493E+04  0.50400001928E-02 0. -1.
       -1   -1    0    0    0  501  0.00000000000E+00  0.00000000000E+00 -0.19328583706E+03  0.19328583712E+03  0.50400001928E-02 0.  1.
    10030    2    1    2    0    0  0.00000000000E+00  0.00000000000E+00  0.11009706122E+04  0.14875422864E+04  0.10003228303E+04 0.  0.
        1    1    3    3  502    0 -0.43840573550E+03  0.92773268939E+02  0.22011987426E+03  0.49925867786E+03  0.50400001928E-02 0.  1.
       -1    1    3    3    0  502  0.43840573550E+03 -0.92773268939E+02  0.88085073797E+03  0.98828360857E+03  0.50400001928E-02 0. -1.
</event>
<event>
 5   0  0.6314750E-03  0.9949047E+03  0.7818609E-02  0.9314151E-01
        3   -1    0    0  501    0  0.00000000000E+00  0.00000000000E+00  0.11721901957E+04  0.11721902001E+04  0.10100000352E+00 0. -1.
       -3   -1    0    0    0  501  0.00000000000E+00  0.00000000000E+00 -0.21110806291E+03  0.21110808707E+03  0.10100000352E+00 0.  1.
    10030    2    1    2    0    0  0.00000000000E+00  0.00000000000E+00  0.96108213282E+03  0.13832982871E+04  0.99490466135E+03 0.  0.
        1    1    3    3  502    0  0.14347004293E+03 -0.41808335186E+03  0.79784541766E+03  0.91210451859E+03  0.50400001928E-02 0.  1.
       -1    1    3    3    0  502 -0.14347004293E+03  0.41808335186E+03  0.16323671516E+03  0.47119376855E+03  0.50400001928E-02 0. -1.
</event>
<event>
 5   0  0.1598986E-02  0.1005211E+04  0.7818609E-02  0.9302848E-01
       -2   -1    0    0    0  501  0.00000000000E+00  0.00000000000E+00  0.39716856427E+03  0.39716856428E+03  0.25500000920E-02 0.  1.
        2   -1    0    0  501    0  0.00000000000E+00  0.00000000000E+00 -0.63603277850E+03  0.63603277850E+03  0.25500000920E-02 0. -1.
    10030    2    1    2    0    0  0.00000000000E+00  0.00000000000E+00 -0.23886421423E+03  0.10332013428E+04  0.10052108743E+04 0.  0.
        3    1    3    3  502    0  0.24265777229E+03 -0.39090909301E+03 -0.32735052060E+03  0.56466900658E+03  0.10100000352E+00 0. -1.
       -3    1    3    3    0  502 -0.24265777229E+03  0.39090909301E+03  0.88486306377E+02  0.46853233620E+03  0.10100000352E+00 0.  1.
</event>
<event>
 5   0  0.6314750E-03  0.9928213E+03  0.7818609E-02  0.9316453E-01
       -3   -1    0    0    0  501  0.00000000000E+00  0.00000000000E+00  0.37542016538E+03  0.37542017897E+03  0.10100000352E+00 0. -1.
        3   -1    0    0  501    0  0.00000000000E+00  0.00000000000E+00 -0.65639396981E+03  0.65639397758E+03  0.10100000352E+00 0.  1.
    10030    2    1    2    0    0  0.00000000000E+00  0.00000000000E+00 -0.28097380443E+03  0.10318141566E+04  0.99282132073E+03 0.  0.
        5    1    3    3  502    0  0.31781714449E+03  0.18473785015E+02  0.25532869159E+03  0.40812234540E+03  0.46999998093E+01 0. -1.
       -5    1    3    3    0  502 -0.31781714449E+03 -0.18473785015E+02 -0.53630249602E+03  0.62369181116E+03  0.46999998093E+01 0.  1.
</event>
<event>
 5   0  0.1663497E-02  0.1035218E+04  0.7818609E-02  0.9270740E-01
       -2   -1    0    0    0  501  0.00000000000E+00  0.00000000000E+00  0.29532024481E+03  0.29532024482E+03  0.25500000920E-02 0. -1.
        2   -1    0    0  501    0  0.00000000000E+00  0.00000000000E+00 -0.90721485449E+03  0.90721485449E+03  0.25500000920E-02 0.  1.
    10030    2    1    2    0    0  0.00000000000E+00  0.00000000000E+00 -0.61189460968E+03  0.12025350993E+04  0.10352176833E+04 0.  0.
        1    1    3    3  502    0  0.13475568426E+02  0.84604142376E+02  0.28702740357E+03  0.29953995105E+03  0.50400001928E-02 0. -1.
       -1    1    3    3    0  502 -0.13475568426E+02 -0.84604142376E+02 -0.89892201325E+03  0.90299514826E+03  0.50400001928E-02 0.  1.
</event>
<event>
 5   0  0.6314750E-03  0.1007697E+04  0.7818609E-02  0.9300142E-01
        4   -1    0    0  501    0  0.00000000000E+00  0.00000000000E+00  0.63512332355E+03  0.63512459330E+03  0.12699999809E+01 0.  1.
       -4   -1    0    0    0  501  0.00000000000E+00  0.00000000000E+00 -0.39970479138E+03  0.39970680899E+03  0.12699999809E+01 0. -1.
    10030    2    1    2    0    0  0.00000000000E+00  0.00000000000E+00  0.23541853217E+03  0.10348314023E+04  0.10076974476E+04 0.  0.
        1    1    3    3  502    0  0.11710216778E+03  0.48343860271E+03  0.20010524676E+03  0.53616033992E+03  0.50400001928E-02 0. -1.
       -1    1    3    3    0  502 -0.11710216778E+03 -0.48343860271E+03  0.35313285404E+02  0.49867106237E+03  0.50400001928E-02 0.  1.
</event>
<event>
 5   0  0.9507815E-03  0.9759698E+03  0.7818609E-02  0.9335301E-01
       -1   -1    0    0    0  501  0.00000000000E+00  0.00000000000E+00  0.51053534579E+03  0.51053534582E+03  0.50400001928E-02 0. -1.
        1   -1    0    0  501    0  0.00000000000E+00  0.00000000000E+00 -0.46643050930E+03  0.46643050933E+03  0.50400001928E-02 0.  1.
    10030    2    1    2    0    0  0.00000000000E+00  0.00000000000E+00  0.44104836492E+02  0.97696585515E+03  0.97596979744E+03 0.  0.
        1    1    3    3  502    0 -0.14633783236E+03  0.27289246571E+03  0.39959009105E+03  0.50552675489E+03  0.50400001928E-02 0. -1.
       -1    1    3    3    0  502  0.14633783236E+03 -0.27289246571E+03 -0.35548525456E+03  0.47143910026E+03  0.50400001928E-02 0.  1.
</event>
<event>
 5   0  0.9759443E-03  0.1017240E+04  0.7818609E-02  0.9289836E-01
       -1   -1    0    0    0  501  0.00000000000E+00  0.00000000000E+00  0.68063753525E+03  0.68063753526E+03  0.50400001928E-02 0. -1.
        1   -1    0    0  501    0  0.00000000000E+00  0.00000000000E+00 -0.38007650297E+03  0.38007650300E+03  0.50400001928E-02 0.  1.
    10030    2    1    2    0    0  0.00000000000E+00  0.00000000000E+00  0.30056103228E+03  0.10607140383E+04  0.10172400586E+04 0.  0.
        2    1    3    3  502    0 -0.39432749526E+03 -0.27502276126E+03 -0.22834715216E+02  0.48130356008E+03  0.25500000920E-02 0.  1.
       -2    1    3    3    0  502  0.39432749526E+03  0.27502276126E+03  0.32339574749E+03  0.57941047818E+03  0.25500000920E-02 0. -1.
</event>
<event>
 5   0  0.1598986E-02  0.1005732E+04  0.7818609E-02  0.9302281E-01
       -2   -1    0    0    0  501  0.00000000000E+00  0.00000000000E+00  0.62372047025E+03  0.62372047025E+03  0.25500000920E-02 0.  1.
        2   -1    0    0  501    0  0.00000000000E+00  0.00000000000E+00 -0.40542849441E+03  0.40542849442E+03  0.25500000920E-02 0. -1.
    10030    2    1    2    0    0  0.00000000000E+00  0.00000000000E+00  0.21829197584E+03  0.10291489647E+04  0.10057316763E+04 0.  0.
        3    1    3    3  502    0  0.23878350948E+03 -0.42723913062E+03 -0.89677507793E+01  0.48952147030E+03  0.10100000352E+00 0. -1.
       -3    1    3    3    0  502 -0.23878350948E+03  0.42723913062E+03  0.22725972662E+03  0.53962749437E+03  0.10100000352E+00 0.  1.
</event>
<event>
 5   0  0.9759443E-03  0.9376571E+03  0.7818609E-02  0.9379695E-01
       -1   -1    0    0    0  501  0.00000000000E+00  0.00000000000E+00  0.25459005589E+03  0.25459005594E+03  0.50400001928E-02 0. -1.
        1   -1    0    0  501    0  0.00000000000E+00  0.00000000000E+00 -0.86334947001E+03  0.86334947003E+03  0.50400001928E-02 0.  1.
    10030    2    1    2    0    0  0.00000000000E+00  0.00000000000E+00 -0.60875941412E+03  0.11179395260E+04  0.93765705854E+03 0.  0.
        2    1    3    3  502    0 -0.27195801440E+03  0.23081126766E+03  0.58362528705E+02  0.36144320113E+03  0.25500000920E-02 0. -1.
       -2    1    3    3    0  502  0.27195801440E+03 -0.23081126766E+03 -0.66712194283E+03  0.75649632483E+03  0.25500000920E-02 0.  1.
</event>
<event>
 5   0  0.1571895E-02  0.9084830E+03  0.7818609E-02  0.9415039E-01
        2   -1    0    0  501    0  0.00000000000E+00  0.00000000000E+00  0.70170862383E+03  0.70170862383E+03  0.25500000920E-02 0. -1.
       -2   -1    0    0    0  501  0.00000000000E+00  0.00000000000E+00 -0.29404701702E+03  0.29404701703E+03  0.25500000920E-02 0.  1.
    10030    2    1    2    0    0  0.00000000000E+00  0.00000000000E+00  0.40766160681E+03  0.99575564087E+03  0.90848297213E+03 0.  0.
        2    1    3    3  502    0 -0.26314630282E+03 -0.31734179701E+03  0.41289921946E+03  0.58347027196E+03  0.25500000920E-02 0.  1.
       -2    1    3    3    0  502  0.26314630282E+03  0.31734179701E+03 -0.52376126565E+01  0.41228536891E+03  0.25500000920E-02 0. -1.
</event>
<event>
 5   0  0.1000773E-02  0.1002403E+04  0.7818609E-02  0.9305913E-01
       -1   -1    0    0    0  501  0.00000000000E+00  0.00000000000E+00  0.11419071409E+04  0.11419071409E+04  0.50400001928E-02 0. -1.
        1   -1    0    0  501    0  0.00000000000E+00  0.00000000000E+00 -0.21998531380E+03  0.21998531386E+03  0.50400001928E-02 0.  1.
    10030    2    1    2    0    0  0.00000000000E+00  0.00000000000E+00  0.92192182708E+03  0.13618924548E+04  0.10024027150E+04 0.  0.
        3    1    3    3  502    0  0.21566323425E+03  0.28747151631E+03 -0.13689147185E+02  0.35963579667E+03  0.10100000352E+00 0.  1.
       -3    1    3    3    0  502 -0.21566323425E+03 -0.28747151631E+03  0.93561097427E+03  0.10022566581E+04  0.10100000352E+00 0. -1.
</event>
<event>
 5   0  0.9507815E-03  0.6300699E+03  0.7818609E-02  0.9844912E-01
        1   -1    0    0  501    0  0.00000000000E+00  0.00000000000E+00  0.55038562995E+02  0.55038563226E+02  0.50400001928E-02 0. -1.
       -1   -1    0    0    0  501  0.00000000000E+00  0.00000000000E+00 -0.18032268009E+04  0.18032268009E+04  0.50400001928E-02 0.  1.
    10030    2    1    2    0    0  0.00000000000E+00  0.00000000000E+00 -0.17481882379E+04  0.18582653642E+04  0.63006987580E+03 0.  0.
        1    1    3    3  502    0 -0.48465004914E+02  0.78092817666E+02  0.14618085987E+02  0.93064672866E+02  0.50400001928E-02 0. -1.
       -1    1    3    3    0  502  0.48465004914E+02 -0.78092817666E+02 -0.17628063239E+04  0.17652006913E+04  0.50400001928E-02 0.  1.
</event>
<event>
 5   0  0.1656859E-02  0.1059455E+04  0.7818609E-02  0.9245637E-01
       -2   -1    0    0    0  501  0.00000000000E+00  0.00000000000E+00  0.27137331124E+03  0.27137331125E+03  0.25500000920E-02 0. -1.
        2   -1    0    0  501    0  0.00000000000E+00  0.00000000000E+00 -0.10340411740E+04  0.10340411740E+04  0.25500000920E-02 0.  1.
    10030    2    1    2    0    0  0.00000000000E+00  0.00000000000E+00 -0.76266786272E+03  0.13054144852E+04  0.10594549114E+04 0.  0.
        4    1    3    3  502    0  0.31948048857E+03 -0.41638308445E+03 -0.46990285139E+03  0.70445223985E+03  0.12699999809E+01 0.  1.
       -4    1    3    3    0  502 -0.31948048857E+03  0.41638308445E+03 -0.29276501133E+03  0.60096224537E+03  0.12699999809E+01 0. -1.
</event>
<event>
 5   0  0.1617721E-02  0.9788252E+03  0.7818609E-02  0.9332079E-01
        2   -1    0    0  501    0  0.00000000000E+00  0.00000000000E+00  0.18928687635E+04  0.18928687635E+04  0.25500000920E-02 0. -1.
       -2   -1    0    0    0  501  0.00000000000E+00  0.00000000000E+00 -0.12654056637E+03  0.12654056640E+03  0.25500000920E-02 0.  1.
    10030    2    1    2    0    0  0.00000000000E+00  0.00000000000E+00  0.17663281971E+04  0.20194093299E+04  0.97882518445E+03 0.  0.
        5    1    3    3  502    0 -0.27402171903E+03 -0.33517713784E+03  0.13539431135E+04  0.14214836126E+04  0.46999998093E+01 0.  1.
       -5    1    3    3    0  502  0.27402171903E+03  0.33517713784E+03  0.41238508360E+03  0.59792571730E+03  0.46999998093E+01 0. -1.
</event>
<event>
 5   0  0.9759443E-03  0.7814269E+03  0.7818609E-02  0.9587297E-01
        1   -1    0    0  501    0  0.00000000000E+00  0.00000000000E+00  0.14149416697E+04  0.14149416697E+04  0.50400001928E-02 0.  1.
       -1   -1    0    0    0  501  0.00000000000E+00  0.00000000000E+00 -0.10788924150E+03  0.10788924161E+03  0.50400001928E-02 0. -1.
    10030    2    1    2    0    0  0.00000000000E+00  0.00000000000E+00  0.13070524282E+04  0.15228309113E+04  0.78142685799E+03 0.  0.
        2    1    3    3  502    0 -0.31715947009E+02  0.19278370737E+03 -0.58581412048E+01  0.19546298102E+03  0.25500000920E-02 0. -1.
       -2    1    3    3    0  502  0.31715947009E+02 -0.19278370737E+03  0.13129105694E+04  0.13273679303E+04  0.25500000920E-02 0.  1.
</event>
<event>
 5   0  0.9759443E-03  0.1003081E+04  0.7818609E-02  0.9305172E-01
       -1   -1    0    0    0  501  0.00000000000E+00  0.00000000000E+00  0.33635429796E+03  0.33635429799E+03  0.50400001928E-02 0.  1.
        1   -1    0    0  501    0  0.00000000000E+00  0.00000000000E+00 -0.74785084723E+03  0.74785084724E+03  0.50400001928E-02 0. -1.
    10030    2    1    2    0    0  0.00000000000E+00  0.00000000000E+00 -0.41149654927E+03  0.10842051452E+04  0.10030809473E+04 0.  0.
        2    1    3    3  502    0 -0.39681591949E+03 -0.44961204167E+02 -0.53369805324E+03  0.66657182350E+03  0.25500000920E-02 0. -1.
       -2    1    3    3    0  502  0.39681591949E+03  0.44961204167E+02  0.12220150397E+03  0.41763332173E+03  0.25500000920E-02 0.  1.
</event>
<event>
 5   0  0.9507815E-03  0.1016046E+04  0.7818609E-02  0.9291119E-01
       -1   -1    0    0    0  501  0.00000000000E+00  0.00000000000E+00  0.74146665712E+03  0.74146665714E+03  0.50400001928E-02 0. -1.
        1   -1    0    0  501    0  0.00000000000E+00  0.00000000000E+00 -0.34807680224E+03  0.34807680227E+03  0.50400001928E-02 0.  1.
    10030    2    1    2    0    0  0.00000000000E+00  0.00000000000E+00  0.39338985489E+03  0.10895434594E+04  0.10160459498E+04 0.  0.
        1    1    3    3  502    0 -0.36383252765E+02 -0.47606496265E+03  0.10571875094E+02  0.47757026112E+03  0.50400001928E-02 0.  1.
       -1    1    3    3    0  502  0.36383252765E+02  0.47606496265E+03  0.38281797979E+03  0.61197319829E+03  0.50400001928E-02 0. -1.
</event>
<event>
 5   0  0.9396660E-03  0.1001170E+04  0.7818609E-02  0.9307262E-01
       -1   -1    0    0    0  501  0.00000000000E+00  0.00000000000E+00  0.13492443382E+03  0.13492443392E+03  0.50400001928E-02 0.  1.
        1   -1    0    0  501    0  0.00000000000E+00  0.00000000000E+00 -0.18572284582E+04  0.18572284582E+04  0.50400001928E-02 0. -1.
    10030    2    1    2    0    0  0.00000000000E+00  0.00000000000E+00 -0.17223040244E+04  0.19921528921E+04  0.10011703118E+04 0.  0.
        5    1    3    3  502    0  0.12285237426E+02  0.48702050863E+03 -0.10899688620E+04  0.11938987030E+04  0.46999998093E+01 0. -1.
       -5    1    3    3    0  502 -0.12285237426E+02 -0.48702050863E+03 -0.63233516237E+03  0.79825418912E+03  0.46999998093E+01 0.  1.
</event>
<event>
 5   0  0.1000773E-02  0.1000281E+04  0.7818609E-02  0.9308236E-01
        1   -1    0    0  501    0  0.00000000000E+00  0.00000000000E+00  0.52846513322E+03  0.52846513324E+03  0.50400001928E-02 0. -1.
       -1   -1    0    0    0  501  0.00000000000E+00  0.00000000000E+00 -0.47333422244E+03  0.47333422246E+03  0.50400001928E-02 0.  1.
    10030    2    1    2    0    0  0.00000000000E+00  0.00000000000E+00  0.55130910780E+02  0.10017993557E+04  0.10002812263E+04 0.  0.
        3    1    3    3  502    0  0.46885812064E+02  0.38274988238E+03 -0.29142205354E+03  0.48334519272E+03  0.10100000352E+00 0.  1.
       -3    1    3    3    0  502 -0.46885812064E+02 -0.38274988238E+03  0.34655296432E+03  0.51845416298E+03  0.10100000352E+00 0. -1.
</event>
<event>
 5   0  0.1663497E-02  0.9439218E+03  0.7818609E-02  0.9372283E-01
       -2   -1    0    0    0  501  0.00000000000E+00  0.00000000000E+00  0.18346936904E+03  0.18346936906E+03  0.25500000920E-02 0. -1.
        2   -1    0    0  501    0  0.00000000000E+00  0.00000000000E+00 -0.12140832809E+04  0.12140832809E+04  0.25500000920E-02 0.  1.
    10030    2    1    2    0    0  0.00000000000E+00  0.00000000000E+00 -0.10306139119E+04  0.13975526500E+04  0.94392180510E+03 0.  0.
        1    1    3    3  502    0  0.75973384752E+02 -0.34853242633E+03 -0.57761237474E+02  0.36136293110E+03  0.50400001928E-02 0. -1.
       -1    1    3    3    0  502 -0.75973384752E+02  0.34853242633E+03 -0.97285267442E+03  0.10361897189E+04  0.50400001928E-02 0.  1.
</event>
<event>
 5   0  0.9396660E-03  0.1107290E+04  0.7818609E-02  0.9198116E-01
        1   -1    0    0  501    0  0.00000000000E+00  0.00000000000E+00  0.96053124845E+03  0.96053124846E+03  0.50400001928E-02 0.  1.
       -1   -1    0    0    0  501  0.00000000000E+00  0.00000000000E+00 -0.31911771340E+03  0.31911771344E+03  0.50400001928E-02 0. -1.
    10030    2    1    2    0    0  0.00000000000E+00  0.00000000000E+00  0.64141353505E+03  0.12796489619E+04  0.11072895478E+04 0.  0.
        5    1    3    3  502    0 -0.14325890977E+03 -0.10304996213E+03  0.92713376273E+03  0.94379103297E+03  0.46999998093E+01 0.  1.
       -5    1    3    3    0  502  0.14325890977E+03  0.10304996213E+03 -0.28572022768E+03  0.33585792894E+03  0.46999998093E+01 0. -1.
</event>
<event>
 5   0  0.9507815E-03  0.9198563E+03  0.7818609E-02  0.9401095E-01
       -1   -1    0    0    0  501  0.00000000000E+00  0.00000000000E+00  0.52846866852E+03  0.52846866854E+03  0.50400001928E-02 0. -1.
        1   -1    0    0  501    0  0.00000000000E+00  0.00000000000E+00 -0.40027707069E+03  0.40027707072E+03  0.50400001928E-02 0.  1.
    10030    2    1    2    0    0  0.00000000000E+00  0.00000000000E+00  0.12819159783E+03  0.92874573926E+03  0.91985627271E+03 0.  0.
        1    1    3    3  502    0  0.88059616014E+02 -0.35240684035E+03 -0.22074544604E+03  0.42505720682E+03  0.50400001928E-02 0.  1.
       -1    1    3    3    0  502 -0.88059616014E+02  0.35240684035E+03  0.34893704387E+03  0.50368853244E+03  0.50400001928E-02 0. -1.
</event>
<event>
 5   0  0.9507815E-03  0.9921836E+03  0.7818609E-02  0.9317159E-01
       -1   -1    0    0    0  501  0.00000000000E+00  0.00000000000E+00  0.30527838098E+03  0.30527838103E+03  0.50400001928E-02 0. -1.
        1   -1    0    0  501    0  0.00000000000E+00  0.00000000000E+00 -0.80617263327E+03  0.80617263329E+03  0.50400001928E-02 0.  1.
    10030    2    1    2    0    0  0.00000000000E+00  0.00000000000E+00 -0.50089425229E+03  0.11114510143E+04  0.99218360460E+03 0.  0.
        1    1    3    3  502    0 -0.93485713512E+02 -0.13266757098E+03 -0.77559224803E+03  0.79239106397E+03  0.50400001928E-02 0.  1.
       -1    1    3    3    0  502  0.93485713512E+02  0.13266757098E+03  0.27469799575E+03  0.31905995034E+03  0.50400001928E-02 0. -1.
</event>
<event>
 5   0  0.9759443E-03  0.9796584E+03  0.7818609E-02  0.9331141E-01
        1   -1    0    0  501    0  0.00000000000E+00  0.00000000000E+00  0.65379662643E+03  0.65379662645E+03  0.50400001928E-02 0. -1.
       -1   -1    0    0    0  501  0.00000000000E+00  0.00000000000E+00 -0.36698364469E+03  0.36698364472E+03  0.50400001928E-02 0.  1.
    10030    2    1    2    0    0  0.00000000000E+00  0.00000000000E+00  0.28681298175E+03  0.10207802712E+04  0.97965844840E+03 0.  0.
        2    1    3    3  502    0 -0.47341992553E+02 -0.46367240180E+03  0.30039356401E+03  0.55449946236E+03  0.25500000920E-02 0.  1.
       -2    1    3    3    0  502  0.47341992553E+02  0.46367240180E+03 -0.13580582262E+02  0.46628080882E+03  0.25500000920E-02 0. -1.
</event>
<event>
 5   0  0.1000773E-02  0.9621746E+03  0.7818609E-02  0.9351032E-01
        1   -1    0    0  501    0  0.00000000000E+00  0.00000000000E+00  0.26081223288E+03  0.26081223293E+03  0.50400001928E-02 0.  1.
       -1   -1    0    0    0  501  0.00000000000E+00  0.00000000000E+00 -0.88740085425E+03  0.88740085426E+03  0.50400001928E-02 0. -1.
    10030    2    1    2    0    0  0.00000000000E+00  0.00000000000E+00 -0.62658862136E+03  0.11482130872E+04  0.96217461678E+03 0.  0.
        3    1    3    3  502    0 -0.23176835171E+02 -0.13953528653E+03 -0.86202574156E+03  0.87355346212E+03  0.10100000352E+00 0. -1.
       -3    1    3    3    0  502  0.23176835171E+02  0.13953528653E+03  0.23543712020E+03  0.27465962507E+03  0.10100000352E+00 0.  1.
</event>
<event>
 5   0  0.1663497E-02  0.9691333E+03  0.7818609E-02  0.9343062E-01
        2   -1    0    0  501    0  0.00000000000E+00  0.00000000000E+00  0.54968078117E+03  0.54968078117E+03  0.25500000920E-02 0.  1.
       -2   -1    0    0    0  501  0.00000000000E+00  0.00000000000E+00 -0.42716580943E+03  0.42716580944E+03  0.25500000920E-02 0. -1.
    10030    2    1    2    0    0  0.00000000000E+00  0.00000000000E+00  0.12251497174E+03  0.97684659061E+03  0.96913329490E+03 0.  0.
        1    1    3    3  502    0  0.46685538977E+03  0.77035302266E+01  0.19187098651E+03  0.50480468978E+03  0.50400001928E-02 0.  1.
       -1    1    3    3    0  502 -0.46685538977E+03 -0.77035302266E+01 -0.69356014778E+02  0.47204190083E+03  0.50400001928E-02 0. -1.
</event>
<event>
 5   0  0.1598986E-02  0.1009867E+04  0.7818609E-02  0.9297789E-01
        2   -1    0    0  501    0  0.00000000000E+00  0.00000000000E+00  0.15461471466E+04  0.15461471466E+04  0.25500000920E-02 0. -1.
       -2   -1    0    0    0  501  0.00000000000E+00  0.00000000000E+00 -0.16489876572E+03  0.16489876574E+03  0.25500000920E-02 0.  1.
    10030    2    1    2    0    0  0.00000000000E+00  0.00000000000E+00  0.13812483809E+04  0.17110459123E+04  0.10098668350E+04 0.  0.
        3    1    3    3  502    0 -0.21477431327E+03  0.23552640877E+03  0.13541371773E+04  0.13911463618E+04  0.10100000352E+00 0. -1.
       -3    1    3    3    0  502  0.21477431327E+03 -0.23552640877E+03  0.27111203599E+02  0.31989955053E+03  0.10100000352E+00 0.  1.
</event>
<event>
 5   0  0.1000773E-02  0.9980235E+03  0.7818609E-02  0.9310715E-01
       -1   -1    0    0    0  501  0.00000000000E+00  0.00000000000E+00  0.64372276260E+03  0.64372276262E+03  0.50400001928E-02 0.  1.
        1   -1    0    0  501    0  0.00000000000E+00  0.00000000000E+00 -0.38683227059E+03  0.38683227062E+03  0.50400001928E-02 0. -1.
    10030    2    1    2    0    0  0.00000000000E+00  0.00000000000E+00  0.25689049201E+03  0.10305550332E+04  0.99802352259E+03 0.  0.
        3    1    3    3  502    0  0.35252380151E+03 -0.34947696318E+03  0.75736818712E+02  0.50213868038E+03  0.10100000352E+00 0.  1.
       -3    1    3    3    0  502 -0.35252380151E+03  0.34947696318E+03  0.18115367330E+03  0.52841635286E+03  0.10100000352E+00 0. -1.
</event>
<event>
 5   0  0.6314750E-03  0.1126228E+04  0.7818609E-02  0.9179999E-01
       -4   -1    0    0    0  501  0.00000000000E+00  0.00000000000E+00  0.22085913479E+03  0.22086278618E+03  0.12699999809E+01 0. -1.
        4   -1    0    0  501    0  0.00000000000E+00  0.00000000000E+00 -0.14357284096E+04  0.14357289713E+04  0.12699999809E+01 0.  1.
    10030    2    1    2    0    0  0.00000000000E+00  0.00000000000E+00 -0.12148692749E+04  0.16565917575E+04  0.11262277284E+04 0.  0.
        2    1    3    3  502    0  0.50233342880E+03 -0.36335856356E+02 -0.97791416400E+03  0.10999887637E+04  0.25500000920E-02 0.  1.
       -2    1    3    3    0  502 -0.50233342880E+03  0.36335856356E+02 -0.23695511086E+03  0.55660299381E+03  0.25500000920E-02 0. -1.
</event>
<event>
 5   0  0.9471140E-03  0.1018083E+04  0.7818609E-02  0.9288931E-01
        1   -1    0    0  501    0  0.00000000000E+00  0.00000000000E+00  0.10084913703E+04  0.10084913703E+04  0.50400001928E-02 0.  1.
       -1   -1    0    0    0  501  0.00000000000E+00  0.00000000000E+00 -0.25694147698E+03  0.25694147703E+03  0.50400001928E-02 0. -1.
    10030    2    1    2    0    0  0.00000000000E+00  0.00000000000E+00  0.75154989335E+03  0.12654328474E+04  0.10180830266E+04 0.  0.
        4    1    3    3  502    0 -0.64913033251E+02  0.47898585414E+03  0.17736663075E+03  0.51488026274E+03  0.12699999809E+01 0.  1.
       -4    1    3    3    0  502  0.64913033251E+02 -0.47898585414E+03  0.57418326260E+03  0.75055258463E+03  0.12699999809E+01 0. -1.
</event>
<event>
 5   0  0.9759443E-03  0.1019082E+04  0.7818609E-02  0.9287860E-01
       -1   -1    0    0    0  501  0.00000000000E+00  0.00000000000E+00  0.27102676000E+03  0.27102676005E+03  0.50400001928E-02 0. -1.
        1   -1    0    0  501    0  0.00000000000E+00  0.00000000000E+00 -0.95795724572E+03  0.95795724573E+03  0.50400001928E-02 0.  1.
    10030    2    1    2    0    0  0.00000000000E+00  0.00000000000E+00 -0.68693048572E+03  0.12289840058E+04  0.10190820351E+04 0.  0.
        2    1    3    3  502    0 -0.20938621820E+02  0.11447984973E+03  0.25478418486E+03  0.28010541362E+03  0.25500000920E-02 0. -1.
       -2    1    3    3    0  502  0.20938621820E+02 -0.11447984973E+03 -0.94171467058E+03  0.94887859216E+03  0.25500000920E-02 0.  1.
</event>
<event>
 5   0  0.9507815E-03  0.9832922E+03  0.7818609E-02  0.9327062E-01
        1   -1    0    0  501    0  0.00000000000E+00  0.00000000000E+00  0.26094669266E+03  0.26094669271E+03  0.50400001928E-02 0. -1.
       -1   -1    0    0    0  501  0.00000000000E+00  0.00000000000E+00 -0.92630367560E+03  0.92630367561E+03  0.50400001928E-02 0.  1.
    10030    2    1    2    0    0  0.00000000000E+00  0.00000000000E+00 -0.66535698294E+03  0.11872503683E+04  0.98329218564E+03 0.  0.
        1    1    3    3  502    0 -0.45006742470E+03 -0.16427377972E+03 -0.46587500726E+03  0.66827096592E+03  0.50400001928E-02 0.  1.
       -1    1    3    3    0  502  0.45006742470E+03  0.16427377972E+03 -0.19948197567E+03  0.51897940240E+03  0.50400001928E-02 0. -1.
</event>
<event>
 5   0  0.9396660E-03  0.1003636E+04  0.7818609E-02  0.9304566E-01
        1   -1    0    0  501    0  0.00000000000E+00  0.00000000000E+00  0.56920762233E+03  0.56920762235E+03  0.50400001928E-02 0. -1.
       -1   -1    0    0    0  501  0.00000000000E+00  0.00000000000E+00 -0.44240691351E+03  0.44240691354E+03  0.50400001928E-02 0.  1.
    10030    2    1    2    0    0  0.00000000000E+00  0.00000000000E+00  0.12680070881E+03  0.10116145359E+04  0.10036361639E+04 0.  0.
        5    1    3    3  502    0  0.17837966914E+03  0.29842633827E+03  0.42810777221E+03  0.55152147770E+03  0.46999998093E+01 0. -1.
       -5    1    3    3    0  502 -0.17837966914E+03 -0.29842633827E+03 -0.30130706340E+03  0.46009305819E+03  0.46999998093E+01 0.  1.
</event>
<event>
 5   0  0.1617721E-02  0.9731548E+03  0.7818609E-02  0.9338488E-01
       -2   -1    0    0    0  501  0.00000000000E+00  0.00000000000E+00  0.17551081879E+03  0.17551081881E+03  0.25500000920E-02 0. -1.
        2   -1    0    0  501    0  0.00000000000E+00  0.00000000000E+00 -0.13489628069E+04  0.13489628069E+04  0.25500000920E-02 0.  1.
    10030    2    1    2    0    0  0.00000000000E+00  0.00000000000E+00 -0.11734519882E+04  0.15244736257E+04  0.97315480120E+03 0.  0.
        5    1    3    3  502    0 -0.18403020398E+03 -0.11821605620E+03  0.94115931143E+02  0.23816391501E+03  0.46999998093E+01 0. -1.
       -5    1    3    3    0  502  0.18403020398E+03  0.11821605620E+03 -0.12675679193E+04  0.12863097107E+04  0.46999998093E+01 0.  1.
</event>
<event>
 5   0  0.1656859E-02  0.8885274E+03  0.7818609E-02  0.9440037E-01
        2   -1    0    0  501    0  0.00000000000E+00  0.00000000000E+00  0.65274949276E+03  0.65274949276E+03  0.25500000920E-02 0. -1.
       -2   -1    0    0    0  501  0.00000000000E+00  0.00000000000E+00 -0.30236748531E+03  0.30236748532E+03  0.25500000920E-02 0.  1.
    10030    2    1    2    0    0  0.00000000000E+00  0.00000000000E+00  0.35038200745E+03  0.95511697808E+03  0.88852737193E+03 0.  0.
        4    1    3    3  502    0  0.12389297255E+03  0.71346285365E+02  0.62734365282E+03  0.64342943103E+03  0.12699999809E+01 0. -1.
       -4    1    3    3    0  502 -0.12389297255E+03 -0.71346285365E+02 -0.27696164537E+03  0.31168754705E+03  0.12699999809E+01 0.  1.
</event>
<event>
 5   0  0.9396660E-03  0.1037301E+04  0.7818609E-02  0.9268554E-01
        1   -1    0    0  501    0  0.00000000000E+00  0.00000000000E+00  0.72165603709E+03  0.72165603711E+03  0.50400001928E-02 0. -1.
       -1   -1    0    0    0  501  0.00000000000E+00  0.00000000000E+00 -0.37275172753E+03  0.37275172756E+03  0.50400001928E-02 0.  1.
    10030    2    1    2    0    0  0.00000000000E+00  0.00000000000E+00  0.34890430957E+03  0.10944077647E+04  0.10373013729E+04 0.  0.
        5    1    3    3  502    0 -0.31870935943E+03 -0.40719605398E+03  0.21655077781E+03  0.56062519702E+03  0.46999998093E+01 0. -1.
       -5    1    3    3    0  502  0.31870935943E+03  0.40719605398E+03  0.13235353176E+03  0.53378256765E+03  0.46999998093E+01 0.  1.
</event>
<event>
 5   0  0.6314750E-03  0.1008429E+04  0.7818609E-02  0.9299348E-01
       -3   -1    0    0    0  501  0.00000000000E+00  0.00000000000E+00  0.10345298750E+04  0.10345298799E+04  0.10100000352E+00 0.  1.
        3   -1    0    0  501    0  0.00000000000E+00  0.00000000000E+00 -0.24574683692E+03  0.24574685768E+03  0.10100000352E+00 0. -1.
    10030    2    1    2    0    0  0.00000000000E+00  0.00000000000E+00  0.78878303807E+03  0.12802767376E+04  0.10084293945E+04 0.  0.
        2    1    3    3  502    0  0.29769079380E+03  0.40328810494E+03  0.32518679407E+03  0.59750109234E+03  0.25500000920E-02 0.  1.
       -2    1    3    3    0  502 -0.29769079380E+03 -0.40328810494E+03  0.46359624400E+03  0.68277564526E+03  0.25500000920E-02 0. -1.
</event>
<event>
 5   0  0.1663497E-02  0.5388208E+03  0.7818609E-02  0.1004115E+00
        2   -1    0    0  501    0  0.00000000000E+00  0.00000000000E+00  0.66074396097E+03  0.66074396098E+03  0.25500000920E-02 0. -1.
       -2   -1    0    0    0  501  0.00000000000E+00  0.00000000000E+00 -0.10984886855E+03  0.10984886858E+03  0.25500000920E-02 0.  1.
    10030    2    1    2    0    0  0.00000000000E+00  0.00000000000E+00  0.55089509243E+03  0.77059282956E+03  0.53882084788E+03 0.  0.
        1    1    3    3  502    0  0.32670327068E+02  0.17161054788E+03  0.56876517118E+03  0.59498852963E+03  0.50400001928E-02 0. -1.
       -1    1    3    3    0  502 -0.32670327068E+02 -0.17161054788E+03 -0.17870078754E+02  0.17560429993E+03  0.50400001928E-02 0.  1.
</event>
<event>
 5   0  0.1656859E-02  0.9839452E+03  0.7818609E-02  0.9326331E-01
       -2   -1    0    0    0  501  0.00000000000E+00  0.00000000000E+00  0.18762905162E+03  0.18762905164E+03  0.25500000920E-02 0. -1.
        2   -1    0    0  501    0  0.00000000000E+00  0.00000000000E+00 -0.12899762331E+04  0.12899762331E+04  0.25500000920E-02 0.  1.
    10030    2    1    2    0    0  0.00000000000E+00  0.00000000000E+00 -0.11023471814E+04  0.14776052847E+04  0.98394515546E+03 0.  0.
        4    1    3    3  502    0  0.18433270996E+03 -0.24450738904E+03 -0.11294274916E+04  0.11702010438E+04  0.12699999809E+01 0.  1.
       -4    1    3    3    0  502 -0.18433270996E+03  0.24450738904E+03  0.27080310107E+02  0.30740424094E+03  0.12699999809E+01 0. -1.
</event>
<event>
 5   0  0.1656859E-02  0.9696173E+03  0.7818609E-02  0.9342510E-01
        2   -1    0    0  501    0  0.00000000000E+00  0.00000000000E+00  0.82220632695E+03  0.82220632696E+03  0.25500000920E-02 0. -1.
       -2   -1    0    0    0  501  0.00000000000E+00  0.00000000000E+00 -0.28586429443E+03  0.28586429445E+03  0.25500000920E-02 0.  1.
    10030    2    1    2    0    0  0.00000000000E+00  0.00000000000E+00  0.53634203252E+03  0.11080706214E+04  0.96961730913E+03 0.  0.
        4    1    3    3  502    0 -0.91677790980E+01  0.48437573553E+03  0.28905371105E+03  0.56414321064E+03  0.12699999809E+01 0. -1.
       -4    1    3    3    0  502  0.91677790980E+01 -0.48437573553E+03  0.24728832147E+03  0.54392741076E+03  0.12699999809E+01 0.  1.
</event>
<event>
 5   0  0.9471140E-03  0.9884418E+03  0.7818609E-02  0.9321313E-01
       -1   -1    0    0    0  501  0.00000000000E+00  0.00000000000E+00  0.25076758579E+03  0.25076758584E+03  0.50400001928E-02 0. -1.
        1   -1    0    0  501    0  0.00000000000E+00  0.00000000000E+00 -0.97402662860E+03  0.97402662862E+03  0.50400001928E-02 0.  1.
    10030    2    1    2    0    0  0.00000000000E+00  0.00000000000E+00 -0.72325904281E+03  0.12247942145E+04  0.98844181658E+03 0.  0.
        4    1    3    3  502    0 -0.42079684079E+03 -0.12617843233E+00 -0.68280378013E+03  0.80205524261E+03  0.12699999809E+01 0.  1.
       -4    1    3    3    0  502  0.42079684079E+03  0.12617843233E+00 -0.40455262678E+02  0.42273897185E+03  0.12699999809E+01 0. -1.
</event>
<event>
 5   0  0.1000773E-02  0.9308889E+03  0.7818609E-02  0.9387772E-01
       -1   -1    0    0    0  501  0.00000000000E+00  0.00000000000E+00  0.17066277878E+03  0.17066277885E+03  0.50400001928E-02 0. -1.
        1   -1    0    0  501    0  0.00000000000E+00  0.00000000000E+00 -0.12693954533E+04  0.12693954533E+04  0.50400001928E-02 0.  1.
    10030    2    1    2    0    0  0.00000000000E+00  0.00000000000E+00 -0.10987326745E+04  0.14400582321E+04  0.93088894178E+03 0.  0.
        3    1    3    3  502    0 -0.70150032450E+02  0.79436780669E+02  0.15175008051E+03  0.18509275056E+03  0.10100000352E+00 0. -1.
       -3    1    3    3    0  502  0.70150032450E+02 -0.79436780669E+02 -0.12504827550E+04  0.12549654816E+04  0.10100000352E+00 0.  1.
</event>
<event>
 5   0  0.1000773E-02  0.5384358E+03  0.7818609E-02  0.1004207E+00
       -1   -1    0    0    0  501  0.00000000000E+00  0.00000000000E+00  0.34149010070E+03  0.34149010074E+03  0.50400001928E-02 0. -1.
        1   -1    0    0  501    0  0.00000000000E+00  0.00000000000E+00 -0.21224123215E+03  0.21224123221E+03  0.50400001928E-02 0.  1.
    10030    2    1    2    0    0  0.00000000000E+00  0.00000000000E+00  0.12924886856E+03  0.55373133295E+03  0.53843580775E+03 0.  0.
        3    1    3    3  502    0  0.19797483773E+03 -0.15244328220E+03  0.16769773038E+03  0.30092445836E+03  0.10100000352E+00 0.  1.
       -3    1    3    3    0  502 -0.19797483773E+03  0.15244328220E+03 -0.38448861827E+02  0.25280687459E+03  0.10100000352E+00 0. -1.
</event>
<event>
 5   0  0.1656859E-02  0.9827075E+03  0.7818609E-02  0.9327717E-01
       -2   -1    0    0    0  501  0.00000000000E+00  0.00000000000E+00  0.49525382053E+03  0.49525382054E+03  0.25500000920E-02 0. -1.
        2   -1    0    0  501    0  0.00000000000E+00  0.00000000000E+00 -0.48748440294E+03  0.48748440295E+03  0.25500000920E-02 0.  1.
    10030    2    1    2    0    0  0.00000000000E+00  0.00000000000E+00  0.77694175942E+01  0.98273822349E+03  0.98270751094E+03 0.  0.
        4    1    3    3  502    0  0.47236455462E+03  0.38251473327E+02 -0.12587084899E+03  0.49034327893E+03  0.12699999809E+01 0.  1.
       -4    1    3    3    0  502 -0.47236455462E+03 -0.38251473327E+02  0.13364026658E+03  0.49239494455E+03  0.12699999809E+01 0. -1.
</event>
<event>
 5   0  0.9471140E-03  0.9995055E+03  0.7818609E-02  0.9309087E-01
        1   -1    0    0  501    0  0.00000000000E+00  0.00000000000E+00  0.53056196411E+03  0.53056196414E+03  0.50400001928E-02 0. -1.
       -1   -1    0    0    0  501  0.00000000000E+00  0.00000000000E+00 -0.47073263904E+03  0.47073263907E+03  0.50400001928E-02 0.  1.
    10030    2    1    2    0    0  0.00000000000E+00  0.00000000000E+00  0.59829325075E+02  0.10012946032E+04  0.99950554489E+03 0.  0.
        4    1    3    3  502    0  0.92814396904E+02  0.19005880845E+03  0.48351023433E+03  0.52775053059E+03  0.12699999809E+01 0. -1.
       -4    1    3    3    0  502 -0.92814396904E+02 -0.19005880845E+03 -0.42368090925E+03  0.47354407261E+03  0.12699999809E+01 0.  1.
</event>
<event>
 5   0  0.1663497E-02  0.1025155E+04  0.7818609E-02  0.9281377E-01
        2   -1    0    0  501    0  0.00000000000E+00  0.00000000000E+00  0.20666164067E+04  0.20666164067E+04  0.25500000920E-02 0. -1.
       -2   -1    0    0    0  501  0.00000000000E+00  0.00000000000E+00 -0.12713338020E+03  0.12713338023E+03  0.25500000920E-02 0.  1.
    10030    2    1    2    0    0  0.00000000000E+00  0.00000000000E+00  0.19394830265E+04  0.21937497869E+04  0.10251554602E+04 0.  0.
        1    1    3    3  502    0 -0.21459261972E+03  0.45685692794E+03  0.11607547315E+04  0.12657487080E+04  0.50400001928E-02 0. -1.
       -1    1    3    3    0  502  0.21459261972E+03 -0.45685692794E+03  0.77872829497E+03  0.92800107891E+03  0.50400001928E-02 0.  1.
</event>
<event>
 5   0  0.9396660E-03  0.9412396E+03  0.7818609E-02  0.9375449E-01
        1   -1    0    0  501    0  0.00000000000E+00  0.00000000000E+00  0.53068758925E+03  0.53068758927E+03  0.50400001928E-02 0. -1.
       -1   -1    0    0    0  501  0.00000000000E+00  0.00000000000E+00 -0.41735096706E+03  0.41735096709E+03  0.50400001928E-02 0.  1.
    10030    2    1    2    0    0  0.00000000000E+00  0.00000000000E+00  0.11333662219E+03  0.94803855636E+03  0.94123956271E+03 0.  0.
        5    1    3    3  502    0 -0.16785202367E+02 -0.39119643128E+03 -0.20626234452E+03  0.44258630303E+03  0.46999998093E+01 0.  1.
       -5    1    3    3    0  502  0.16785202367E+02  0.39119643128E+03  0.31959896671E+03  0.50545225332E+03  0.46999998093E+01 0. -1.
</event>
<event>
 5   0  0.1598986E-02  0.9998616E+03  0.7818609E-02  0.9308697E-01
        2   -1    0    0  501    0  0.00000000000E+00  0.00000000000E+00  0.63678463863E+03  0.63678463863E+03  0.25500000920E-02 0. -1.
       -2   -1    0    0    0  501  0.00000000000E+00  0.00000000000E+00 -0.39248873370E+03  0.39248873371E+03  0.25500000920E-02 0.  1.
    10030    2    1    2    0    0  0.00000000000E+00  0.00000000000E+00  0.24429590493E+03  0.10292733723E+04  0.99986158334E+03 0.  0.
        3    1    3    3  502    0 -0.20413995421E+03  0.26294584612E+03 -0.26180780759E+03  0.42350558109E+03  0.10100000352E+00 0.  1.
       -3    1    3    3    0  502  0.20413995421E+03 -0.26294584612E+03  0.50610371251E+03  0.60576779125E+03  0.10100000352E+00 0. -1.
</event>
<event>
 5   0  0.1663497E-02  0.9970539E+03  0.7818609E-02  0.9311782E-01
       -2   -1    0    0    0  501  0.00000000000E+00  0.00000000000E+00  0.35957667348E+03  0.35957667349E+03  0.25500000920E-02 0. -1.
        2   -1    0    0  501    0  0.00000000000E+00  0.00000000000E+00 -0.69117146988E+03  0.69117146989E+03  0.25500000920E-02 0.  1.
    10030    2    1    2    0    0  0.00000000000E+00  0.00000000000E+00 -0.33159479640E+03  0.10507481434E+04  0.99705393626E+03 0.  0.
        1    1    3    3  502    0 -0.16813477323E+03 -0.19665388439E+03  0.28328130335E+03  0.38365394442E+03  0.50400001928E-02 0. -1.
       -1    1    3    3    0  502  0.16813477323E+03  0.19665388439E+03 -0.61487609975E+03  0.66709419896E+03  0.50400001928E-02 0.  1.
</event>
<event>
 5   0  0.9396660E-03  0.9985022E+03  0.7818609E-02  0.9310189E-01
       -1   -1    0    0    0  501  0.00000000000E+00  0.00000000000E+00  0.14385989564E+03  0.14385989573E+03  0.50400001928E-02 0.  1.
        1   -1    0    0  501    0  0.00000000000E+00  0.00000000000E+00 -0.17326001986E+04  0.17326001986E+04  0.50400001928E-02 0. -1.
    10030    2    1    2    0    0  0.00000000000E+00  0.00000000000E+00 -0.15887403029E+04  0.18764600943E+04  0.99850224606E+03 0.  0.
        5    1    3    3  502    0  0.15566894914E+03  0.30899813062E+03 -0.14706922114E+04  0.15108508653E+04  0.46999998093E+01 0. -1.
       -5    1    3    3    0  502 -0.15566894914E+03 -0.30899813062E+03 -0.11804809155E+03  0.36560922905E+03  0.46999998093E+01 0.  1.
</event>
<event>
 5   0  0.9759443E-03  0.9672564E+03  0.7818609E-02  0.9345205E-01
        1   -1    0    0  501    0  0.00000000000E+00  0.00000000000E+00  0.10476757464E+04  0.10476757464E+04  0.50400001928E-02 0. -1.
       -1   -1    0    0    0  501  0.00000000000E+00  0.00000000000E+00 -0.22325249545E+03  0.22325249550E+03  0.50400001928E-02 0.  1.
    10030    2    1    2    0    0  0.00000000000E+00  0.00000000000E+00  0.82442325093E+03  0.12709282419E+04  0.96725637727E+03 0.  0.
        2    1    3    3  502    0  0.21676529772E+03  0.98786500530E+01 -0.15570053223E+03  0.26707197113E+03  0.25500000920E-02 0.  1.
       -2    1    3    3    0  502 -0.21676529772E+03 -0.98786500530E+01  0.98012378315E+03  0.10038562708E+04  0.25500000920E-02 0. -1.
</event>
<event>
 5   0  0.1571895E-02  0.1006791E+04  0.7818609E-02  0.9301128E-01
       -2   -1    0    0    0  501  0.00000000000E+00  0.00000000000E+00  0.16807883832E+03  0.16807883834E+03  0.25500000920E-02 0.  1.
        2   -1    0    0  501    0  0.00000000000E+00  0.00000000000E+00 -0.15076683330E+04  0.15076683330E+04  0.25500000920E-02 0. -1.
    10030    2    1    2    0    0  0.00000000000E+00  0.00000000000E+00 -0.13395894947E+04  0.16757471713E+04  0.10067912237E+04 0.  0.
        2    1    3    3  502    0 -0.50483952989E+02 -0.23468576614E+03 -0.14062637290E+04  0.14266056616E+04  0.25500000920E-02 0. -1.
       -2    1    3    3    0  502  0.50483952989E+02  0.23468576614E+03  0.66674234300E+02  0.24914150972E+03  0.25500000920E-02 0.  1.
</event>
<event>
 5   0  0.1571895E-02  0.9910456E+03  0.7818609E-02  0.9318421E-01
       -2   -1    0    0    0  501  0.00000000000E+00  0.00000000000E+00  0.47709768583E+03  0.47709768584E+03  0.25500000920E-02 0. -1.
        2   -1    0    0  501    0  0.00000000000E+00  0.00000000000E+00 -0.51465943709E+03  0.51465943710E+03  0.25500000920E-02 0.  1.
    10030    2    1    2    0    0  0.00000000000E+00  0.00000000000E+00 -0.37561751257E+02  0.99175712294E+03  0.99104556189E+03 0.  0.
        2    1    3    3  502    0 -0.24907305970E+03  0.33154675911E+03  0.25267424847E+03  0.48559748598E+03  0.25500000920E-02 0. -1.
       -2    1    3    3    0  502  0.24907305970E+03 -0.33154675911E+03 -0.29023599973E+03  0.50615963696E+03  0.25500000920E-02 0.  1.
</event>
<event>
 5   0  0.1000773E-02  0.9986264E+03  0.7818609E-02  0.9310053E-01
        1   -1    0    0  501    0  0.00000000000E+00  0.00000000000E+00  0.45587123595E+03  0.45587123597E+03  0.50400001928E-02 0.  1.
       -1   -1    0    0    0  501  0.00000000000E+00  0.00000000000E+00 -0.54689490362E+03  0.54689490365E+03  0.50400001928E-02 0. -1.
    10030    2    1    2    0    0  0.00000000000E+00  0.00000000000E+00 -0.91023667678E+02  0.10027661396E+04  0.99862636791E+03 0.  0.
        3    1    3    3  502    0  0.10553737900E+03  0.43091000418E+03 -0.27557309896E+03  0.52226632396E+03  0.10100000352E+00 0. -1.
       -3    1    3    3    0  502 -0.10553737900E+03 -0.43091000418E+03  0.18454943128E+03  0.48049981567E+03  0.10100000352E+00 0.  1.
</event>
<event>
 5   0  0.9759443E-03  0.9981509E+03  0.7818609E-02  0.9310575E-01
        1   -1    0    0  501    0  0.00000000000E+00  0.00000000000E+00  0.11233184435E+04  0.11233184435E+04  0.50400001928E-02 0.  1.
       -1   -1    0    0    0  501  0.00000000000E+00  0.00000000000E+00 -0.22173257818E+03  0.22173257824E+03  0.50400001928E-02 0. -1.
    10030    2    1    2    0    0  0.00000000000E+00  0.00000000000E+00  0.90158586535E+03  0.13450510218E+04  0.99815087967E+03 0.  0.
        2    1    3    3  502    0  0.33295195666E+03 -0.19343255997E+03  0.22954709369E+02  0.38574613334E+03  0.25500000920E-02 0.  1.
       -2    1    3    3    0  502 -0.33295195666E+03  0.19343255997E+03  0.87863115599E+03  0.95930488844E+03  0.25500000920E-02 0. -1.
</event>
<event>
 5   0  0.1663497E-02  0.5247529E+03  0.7818609E-02  0.1007513E+00
       -2   -1    0    0    0  501  0.00000000000E+00  0.00000000000E+00  0.34779542780E+03  0.34779542781E+03  0.25500000920E-02 0. -1.
        2   -1    0    0  501    0  0.00000000000E+00  0.00000000000E+00 -0.19793646960E+03  0.19793646961E+03  0.25500000920E-02 0.  1.
    10030    2    1    2    0    0  0.00000000000E+00  0.00000000000E+00  0.14985895820E+03  0.54573189742E+03  0.52475289090E+03 0.  0.
        1    1    3    3  502    0 -0.20850746414E+03 -0.33765257212E+02 -0.86939956473E+02  0.22841631127E+03  0.50400001928E-02 0.  1.
       -1    1    3    3    0  502  0.20850746414E+03  0.33765257212E+02  0.23679891467E+03  0.31731558615E+03  0.50400001928E-02 0. -1.
</event>
<event>
 5   0  0.9471140E-03  0.1017633E+04  0.7818609E-02  0.9289414E-01
        1   -1    0    0  501    0  0.00000000000E+00  0.00000000000E+00  0.70401706420E+03  0.70401706421E+03  0.50400001928E-02 0. -1.
       -1   -1    0    0    0  501  0.00000000000E+00  0.00000000000E+00 -0.36773857909E+03  0.36773857912E+03  0.50400001928E-02 0.  1.
    10030    2    1    2    0    0  0.00000000000E+00  0.00000000000E+00  0.33627848511E+03  0.10717556433E+04  0.10176330082E+04 0.  0.
        4    1    3    3  502    0 -0.48837202467E+03  0.12999712523E+03  0.23032296108E+03  0.55538884248E+03  0.12699999809E+01 0.  1.
       -4    1    3    3    0  502  0.48837202467E+03 -0.12999712523E+03  0.10595552403E+03  0.51636680085E+03  0.12699999809E+01 0. -1.
</event>
<event>
 5   0  0.1663497E-02  0.1010797E+04  0.7818609E-02  0.9296781E-01
        2   -1    0    0  501    0  0.00000000000E+00  0.00000000000E+00  0.25357759093E+04  0.25357759093E+04  0.25500000920E-02 0.  1.
       -2   -1    0    0    0  501  0.00000000000E+00  0.00000000000E+00 -0.10072964707E+03  0.10072964710E+03  0.25500000920E-02 0. -1.
    10030    2    1    2    0    0  0.00000000000E+00  0.00000000000E+00  0.24350462623E+04  0.26365055565E+04  0.10107973337E+04 0.  0.
        1    1    3    3  502    0  0.12545998307E+02 -0.46845304409E+03  0.72384889520E+03  0.86230092178E+03  0.50400001928E-02 0. -1.
       -1    1    3    3    0  502 -0.12545998307E+02  0.46845304409E+03  0.17111973671E+04  0.17742046347E+04  0.50400001928E-02 0.  1.
</event>
<event>
 5   0  0.9507815E-03  0.9800459E+03  0.7818609E-02  0.9330705E-01
       -1   -1    0    0    0  501  0.00000000000E+00  0.00000000000E+00  0.21075664393E+03  0.21075664399E+03  0.50400001928E-02 0.  1.
        1   -1    0    0  501    0  0.00000000000E+00  0.00000000000E+00 -0.11393353114E+04  0.11393353115E+04  0.50400001928E-02 0. -1.
    10030    2    1    2    0    0  0.00000000000E+00  0.00000000000E+00 -0.92857866751E+03  0.13500919554E+04  0.98004588994E+03 0.  0.
        1    1    3    3  502    0  0.36034577157E+03 -0.37544786258E+02 -0.91881528429E+03  0.98766401814E+03  0.50400001928E-02 0. -1.
       -1    1    3    3    0  502 -0.36034577157E+03  0.37544786258E+02 -0.97633832265E+01  0.36242793730E+03  0.50400001928E-02 0.  1.
</event>
<event>
 5   0  0.1656859E-02  0.9791290E+03  0.7818609E-02  0.9331737E-01
       -2   -1    0    0    0  501  0.00000000000E+00  0.00000000000E+00  0.25447005723E+03  0.25447005724E+03  0.25500000920E-02 0.  1.
        2   -1    0    0  501    0  0.00000000000E+00  0.00000000000E+00 -0.94185309369E+03  0.94185309369E+03  0.25500000920E-02 0. -1.
    10030    2    1    2    0    0  0.00000000000E+00  0.00000000000E+00 -0.68738303646E+03  0.11963231509E+04  0.97912902247E+03 0.  0.
        4    1    3    3  502    0 -0.33039143248E+03 -0.26581160565E+03 -0.64262036874E+03  0.76992003453E+03  0.12699999809E+01 0. -1.
       -4    1    3    3    0  502  0.33039143248E+03  0.26581160565E+03 -0.44762667714E+02  0.42640311640E+03  0.12699999809E+01 0.  1.
</event>
<event>
 5   0  0.6314750E-03  0.8858898E+03  0.7818609E-02  0.9443394E-01
       -3   -1    0    0    0  501  0.00000000000E+00  0.00000000000E+00  0.56433683916E+03  0.56433684820E+03  0.10100000352E+00 0.  1.
        3   -1    0    0  501    0  0.00000000000E+00  0.00000000000E+00 -0.34766503402E+03  0.34766504869E+03  0.10100000352E+00 0. -1.
    10030    2    1    2    0    0  0.00000000000E+00  0.00000000000E+00  0.21667180514E+03  0.91200189689E+03  0.88588982881E+03 0.  0.
        2    1    3    3  502    0 -0.12502544671E+03  0.17657588627E+03  0.50623823636E+03  0.55053388442E+03  0.25500000920E-02 0.  1.
       -2    1    3    3    0  502  0.12502544671E+03 -0.17657588627E+03 -0.28956643122E+03  0.36146801246E+03  0.25500000920E-02 0. -1.
</event>
<event>
 5   0  0.1598986E-02  0.1011476E+04  0.7818609E-02  0.9296047E-01
       -2   -1    0    0    0  501  0.00000000000E+00  0.00000000000E+00  0.79481147450E+03  0.79481147450E+03  0.25500000920E-02 0.  1.
        2   -1    0    0  501    0  0.00000000000E+00  0.00000000000E+00 -0.32180091147E+03  0.32180091148E+03  0.25500000920E-02 0. -1.
    10030    2    1    2    0    0  0.00000000000E+00  0.00000000000E+00  0.47301056302E+03  0.11166123860E+04  0.10114762616E+04 0.  0.
        3    1    3    3  502    0 -0.21556300484E+03  0.28818975593E+03  0.62875528804E+03  0.72446805790E+03  0.10100000352E+00 0.  1.
       -3    1    3    3    0  502  0.21556300484E+03 -0.28818975593E+03 -0.15574472502E+03  0.39214432809E+03  0.10100000352E+00 0. -1.
</event>
<event>
 5   0  0.1571895E-02  0.9923119E+03  0.7818609E-02  0.9317017E-01
       -2   -1    0    0    0  501  0.00000000000E+00  0.00000000000E+00  0.42920855324E+03  0.42920855325E+03  0.25500000920E-02 0. -1.
        2   -1    0    0  501    0  0.00000000000E+00  0.00000000000E+00 -0.57354566685E+03  0.57354566686E+03  0.25500000920E-02 0.  1.
    10030    2    1    2    0    0  0.00000000000E+00  0.00000000000E+00 -0.14433711361E+03  0.10027542201E+04  0.99231185802E+03 0.  0.
        2    1    3    3  502    0  0.14462365341E+03 -0.37214351161E+03 -0.36982540488E+03  0.54422203599E+03  0.25500000920E-02 0.  1.
       -2    1    3    3    0  502 -0.14462365341E+03  0.37214351161E+03  0.22548829126E+03  0.45853218411E+03  0.25500000920E-02 0. -1.
</event>
<event>
 5   0  0.1663497E-02  0.9900568E+03  0.7818609E-02  0.9319518E-01
       -2   -1    0    0    0  501  0.00000000000E+00  0.00000000000E+00  0.30328470736E+03  0.30328470737E+03  0.25500000920E-02 0.  1.
        2   -1    0    0  501    0  0.00000000000E+00  0.00000000000E+00 -0.80799691247E+03  0.80799691248E+03  0.25500000920E-02 0. -1.
    10030    2    1    2    0    0  0.00000000000E+00  0.00000000000E+00 -0.50471220512E+03  0.11112816198E+04  0.99005678050E+03 0.  0.
        1    1    3    3  502    0 -0.20488525600E+03  0.83255128565E+02 -0.74946465576E+03  0.78141324203E+03  0.50400001928E-02 0. -1.
       -1    1    3    3    0  502  0.20488525600E+03 -0.83255128565E+02  0.24475245065E+03  0.32986837781E+03  0.50400001928E-02 0.  1.
</event>
<event>
 5   0  0.9759443E-03  0.9936334E+03  0.7818609E-02  0.9315555E-01
       -1   -1    0    0    0  501  0.00000000000E+00  0.00000000000E+00  0.37306255386E+03  0.37306255390E+03  0.50400001928E-02 0. -1.
        1   -1    0    0  501    0  0.00000000000E+00  0.00000000000E+00 -0.66162315181E+03  0.66162315183E+03  0.50400001928E-02 0.  1.
    10030    2    1    2    0    0  0.00000000000E+00  0.00000000000E+00 -0.28856059794E+03  0.10346857057E+04  0.99363337854E+03 0.  0.
        2    1    3    3  502    0  0.43904465375E+03 -0.13148686855E+03  0.55418410225E+02  0.46164943928E+03  0.25500000920E-02 0. -1.
       -2    1    3    3    0  502 -0.43904465375E+03  0.13148686855E+03 -0.34397900817E+03  0.57303626644E+03  0.25500000920E-02 0.  1.
</event>
<event>
 5   0  0.1571895E-02  0.9258831E+03  0.7818609E-02  0.9393792E-01
        2   -1    0    0  501    0  0.00000000000E+00  0.00000000000E+00  0.44202711011E+03  0.44202711011E+03  0.25500000920E-02 0. -1.
       -2   -1    0    0    0  501  0.00000000000E+00  0.00000000000E+00 -0.48484555742E+03  0.48484555743E+03  0.25500000920E-02 0.  1.
    10030    2    1    2    0    0  0.00000000000E+00  0.00000000000E+00 -0.42818447313E+02  0.92687266754E+03  0.92588310407E+03 0.  0.
        2    1    3    3  502    0 -0.41968685483E+03  0.23291398183E+02  0.17279640415E+03  0.45446467700E+03  0.25500000920E-02 0. -1.
       -2    1    3    3    0  502  0.41968685483E+03 -0.23291398183E+02 -0.21561485146E+03  0.47240799054E+03  0.25500000920E-02 0.  1.
</event>
<event>
 5   0  0.1000773E-02  0.9633055E+03  0.7818609E-02  0.9349732E-01
       -1   -1    0    0    0  501  0.00000000000E+00  0.00000000000E+00  0.44903446365E+03  0.44903446368E+03  0.50400001928E-02 0. -1.
        1   -1    0    0  501    0  0.00000000000E+00  0.00000000000E+00 -0.51664047437E+03  0.51664047440E+03  0.50400001928E-02 0.  1.
    10030    2    1    2    0    0  0.00000000000E+00  0.00000000000E+00 -0.67606010723E+02  0.96567493807E+03  0.96330551402E+03 0.  0.
        3    1    3    3  502    0 -0.10591431135E+03  0.68553580222E+02 -0.49978173516E+03  0.51546020963E+03  0.10100000352E+00 0.  1.
       -3    1    3    3    0  502  0.10591431135E+03 -0.68553580222E+02  0.43217572444E+03  0.45021472844E+03  0.10100000352E+00 0. -1.
</event>
<event>
 5   0  0.9471140E-03  0.1008816E+04  0.7818609E-02  0.9298928E-01
       -1   -1    0    0    0  501  0.00000000000E+00  0.00000000000E+00  0.40858835085E+03  0.40858835088E+03  0.50400001928E-02 0. -1.
        1   -1    0    0  501    0  0.00000000000E+00  0.00000000000E+00 -0.62269830110E+03  0.62269830112E+03  0.50400001928E-02 0.  1.
    10030    2    1    2    0    0  0.00000000000E+00  0.00000000000E+00 -0.21410995025E+03  0.10312866520E+04  0.10088156857E+04 0.  0.
        4    1    3    3  502    0  0.17869567082E+03  0.23227065810E+03 -0.52674054334E+03  0.60277608967E+03  0.12699999809E+01 0.  1.
       -4    1    3    3    0  502 -0.17869567082E+03 -0.23227065810E+03  0.31263059309E+03  0.42851056232E+03  0.12699999809E+01 0. -1.
</event>
<event>
 5   0  0.9759443E-03  0.9979843E+03  0.7818609E-02  0.9310758E-01
        1   -1    0    0  501    0  0.00000000000E+00  0.00000000000E+00  0.12550930243E+04  0.12550930243E+04  0.50400001928E-02 0.  1.
       -1   -1    0    0    0  501  0.00000000000E+00  0.00000000000E+00 -0.19838620728E+03  0.19838620734E+03  0.50400001928E-02 0. -1.
    10030    2    1    2    0    0  0.00000000000E+00  0.00000000000E+00  0.10567068170E+04  0.14534792316E+04  0.99798425823E+03 0.  0.
        2    1    3    3  502    0 -0.10773114361E+03 -0.69273876535E+02 -0.17403777098E+03  0.21608797979E+03  0.25500000920E-02 0. -1.
       -2    1    3    3    0  502  0.10773114361E+03  0.69273876535E+02  0.12307445880E+04  0.12373912518E+04  0.25500000920E-02 0.  1.
</event>
<event>
 5   0  0.9396660E-03  0.1013571E+04  0.7818609E-02  0.9293785E-01
       -1   -1    0    0    0  501  0.00000000000E+00  0.00000000000E+00  0.18889320434E+03  0.18889320441E+03  0.50400001928E-02 0.  1.
        1   -1    0    0  501    0  0.00000000000E+00  0.00000000000E+00 -0.13596641686E+04  0.13596641687E+04  0.50400001928E-02 0. -1.
    10030    2    1    2    0    0  0.00000000000E+00  0.00000000000E+00 -0.11707709643E+04  0.15485573731E+04  0.10135705633E+04 0.  0.
        5    1    3    3  502    0 -0.30755546110E+03 -0.40273464315E+03 -0.57795120019E+03  0.76865807369E+03  0.46999998093E+01 0. -1.
       -5    1    3    3    0  502  0.30755546110E+03  0.40273464315E+03 -0.59281976411E+03  0.77989929938E+03  0.46999998093E+01 0.  1.
</event>
<event>
 5   0  0.1598986E-02  0.9687379E+03  0.7818609E-02  0.9343513E-01
        2   -1    0    0  501    0  0.00000000000E+00  0.00000000000E+00  0.47382178347E+03  0.47382178347E+03  0.25500000920E-02 0. -1.
       -2   -1    0    0    0  501  0.00000000000E+00  0.00000000000E+00 -0.49515092276E+03  0.49515092276E+03  0.25500000920E-02 0.  1.
    10030    2    1    2    0    0  0.00000000000E+00  0.00000000000E+00 -0.21329139290E+02  0.96897270623E+03  0.96873792805E+03 0.  0.
        3    1    3    3  502    0  0.46558443445E+03  0.88510392796E+02  0.89411304368E+02  0.48228347140E+03  0.10100000352E+00 0.  1.
       -3    1    3    3    0  502 -0.46558443445E+03 -0.88510392796E+02 -0.11074044366E+03  0.48668923483E+03  0.10100000352E+00 0. -1.
</event>
<event>
 5   0  0.1656859E-02  0.9783032E+03  0.7818609E-02  0.9332667E-01
       -2   -1    0    0    0  501  0.00000000000E+00  0.00000000000E+00  0.21926113220E+03  0.21926113222E+03  0.25500000920E-02 0.  1.
        2   -1    0    0  501    0  0.00000000000E+00  0.00000000000E+00 -0.10912525219E+04  0.10912525219E+04  0.25500000920E-02 0. -1.
    10030    2    1    2    0    0  0.00000000000E+00  0.00000000000E+00 -0.87199138970E+03  0.13105136541E+04  0.97830315032E+03 0.  0.
        4    1    3    3  502    0  0.43530484020E+03 -0.21278774251E+03 -0.34614679993E+03  0.59547304495E+03  0.12699999809E+01 0. -1.
       -4    1    3    3    0  502 -0.43530484020E+03  0.21278774251E+03 -0.52584458977E+03  0.71504060917E+03  0.12699999809E+01 0.  1.
</event>
<event>
 5   0  0.1598986E-02  0.9818256E+03  0.7818609E-02  0.9328706E-01
       -2   -1    0    0    0  501  0.00000000000E+00  0.00000000000E+00  0.18075910571E+03  0.18075910573E+03  0.25500000920E-02 0. -1.
        2   -1    0    0  501    0  0.00000000000E+00  0.00000000000E+00 -0.13332406020E+04  0.13332406020E+04  0.25500000920E-02 0.  1.
    10030    2    1    2    0    0  0.00000000000E+00  0.00000000000E+00 -0.11524814963E+04  0.15139997077E+04  0.98182560351E+03 0.  0.
        3    1    3    3  502    0 -0.18597937642E+03 -0.38377727121E+03 -0.20129695641E+03  0.47158646843E+03  0.10100000352E+00 0. -1.
       -3    1    3    3    0  502  0.18597937642E+03  0.38377727121E+03 -0.95118453987E+03  0.10424132393E+04  0.10100000352E+00 0.  1.
</event>
<event>
 5   0  0.9759443E-03  0.9745726E+03  0.7818609E-02  0.9336881E-01
       -1   -1    0    0    0  501  0.00000000000E+00  0.00000000000E+00  0.22549410906E+03  0.22549410911E+03  0.50400001928E-02 0. -1.
        1   -1    0    0  501    0  0.00000000000E+00  0.00000000000E+00 -0.10530116416E+04  0.10530116416E+04  0.50400001928E-02 0.  1.
    10030    2    1    2    0    0  0.00000000000E+00  0.00000000000E+00 -0.82751753257E+03  0.12785057508E+04  0.97457256682E+03 0.  0.
        2    1    3    3  502    0  0.16482647457E+03  0.45296352675E+03 -0.32003444797E+03  0.57858946687E+03  0.25500000920E-02 0.  1.
       -2    1    3    3    0  502 -0.16482647457E+03 -0.45296352675E+03 -0.50748308460E+03  0.69991628388E+03  0.25500000920E-02 0. -1.
</event>
<event>
 5   0  0.6314750E-03  0.1001854E+04  0.7818609E-02  0.9306513E-01
        4   -1    0    0  501    0  0.00000000000E+00  0.00000000000E+00  0.72853489549E+03  0.72853600243E+03  0.12699999809E+01 0. -1.
       -4   -1    0    0    0  501  0.00000000000E+00  0.00000000000E+00 -0.34442585140E+03  0.34442819282E+03  0.12699999809E+01 0.  1.
    10030    2    1    2    0    0  0.00000000000E+00  0.00000000000E+00  0.38410904409E+03  0.10729641953E+04  0.10018544837E+04 0.  0.
        1    1    3    3  502    0 -0.16387619271E+03 -0.40108182016E+03 -0.77198119559E+02  0.44009269783E+03  0.50400001928E-02 0.  1.
       -1    1    3    3    0  502  0.16387619271E+03  0.40108182016E+03  0.46130716365E+03  0.63287149743E+03  0.50400001928E-02 0. -1.
</event>
<event>
 5   0  0.6314750E-03  0.1012912E+04  0.7818609E-02  0.9294496E-01
        3   -1    0    0  501    0  0.00000000000E+00  0.00000000000E+00  0.44651374516E+03  0.44651375659E+03  0.10100000352E+00 0. -1.
       -3   -1    0    0    0  501  0.00000000000E+00  0.00000000000E+00 -0.57444506488E+03  0.57444507376E+03  0.10100000352E+00 0.  1.
    10030    2    1    2    0    0  0.00000000000E+00  0.00000000000E+00 -0.12793131972E+03  0.10209588303E+04  0.10129118968E+04 0.  0.
        2    1    3    3  502    0 -0.52748605096E+02 -0.39238090392E+03  0.25437954924E+03  0.47058914584E+03  0.25500000920E-02 0. -1.
       -2    1    3    3    0  502  0.52748605096E+02  0.39238090392E+03 -0.38231086896E+03  0.55036968451E+03  0.25500000920E-02 0.  1.
</event>
<event>
 5   0  0.6314750E-03  0.1019237E+04  0.7818609E-02  0.9287694E-01
       -3   -1    0    0    0  501  0.00000000000E+00  0.00000000000E+00  0.65258918375E+03  0.65258919157E+03  0.10100000352E+00 0. -1.
        3   -1    0    0  501    0  0.00000000000E+00  0.00000000000E+00 -0.39797052302E+03  0.39797053583E+03  0.10100000352E+00 0.  1.
    10030    2    1    2    0    0  0.00000000000E+00  0.00000000000E+00  0.25461866073E+03  0.10505597274E+04  0.10192374985E+04 0.  0.
        2    1    3    3  502    0 -0.19253267899E+03  0.52355733067E+02 -0.35603793697E+03  0.40813351717E+03  0.25500000920E-02 0.  1.
       -2    1    3    3    0  502  0.19253267899E+03 -0.52355733067E+02  0.61065659771E+03  0.64242621023E+03  0.25500000920E-02 0. -1.
</event>
<event>
 5   0  0.9471140E-03  0.1035685E+04  0.7818609E-02  0.9270249E-01
       -1   -1    0    0    0  501  0.00000000000E+00  0.00000000000E+00  0.55944910062E+03  0.55944910064E+03  0.50400001928E-02 0.  1.
        1   -1    0    0  501    0  0.00000000000E+00  0.00000000000E+00 -0.47933066129E+03  0.47933066131E+03  0.50400001928E-02 0. -1.
    10030    2    1    2    0    0  0.00000000000E+00  0.00000000000E+00  0.80118439330E+02  0.10387797619E+04  0.10356854877E+04 0.  0.
        4    1    3    3  502    0  0.35115707519E+03  0.31022726854E+03  0.26118841812E+03  0.53644501328E+03  0.12699999809E+01 0.  1.
       -4    1    3    3    0  502 -0.35115707519E+03 -0.31022726854E+03 -0.18106997879E+03  0.50233474867E+03  0.12699999809E+01 0. -1.
</event>
<event>
 5   0  0.9507815E-03  0.9885430E+03  0.7818609E-02  0.9321201E-01
        1   -1    0    0  501    0  0.00000000000E+00  0.00000000000E+00  0.11106087037E+04  0.11106087037E+04  0.50400001928E-02 0.  1.
       -1   -1    0    0    0  501  0.00000000000E+00  0.00000000000E+00 -0.21997335394E+03  0.21997335400E+03  0.50400001928E-02 0. -1.
    10030    2    1    2    0    0  0.00000000000E+00  0.00000000000E+00  0.89063534980E+03  0.13305820577E+04  0.98854301175E+03 0.  0.
        1    1    3    3  502    0  0.30076886258E+03  0.73807682441E+02  0.96382570990E+03  0.10123583762E+04  0.50400001928E-02 0.  1.
       -1    1    3    3    0  502 -0.30076886258E+03 -0.73807682441E+02 -0.73190360100E+02  0.31822368159E+03  0.50400001928E-02 0. -1.
</event>
<event>
 5   0  0.1656859E-02  0.1013545E+04  0.7818609E-02  0.9293812E-01
        2   -1    0    0  501    0  0.00000000000E+00  0.00000000000E+00  0.46796295021E+03  0.46796295021E+03  0.25500000920E-02 0.  1.
       -2   -1    0    0    0  501  0.00000000000E+00  0.00000000000E+00 -0.54880109311E+03  0.54880109311E+03  0.25500000920E-02 0. -1.
    10030    2    1    2    0    0  0.00000000000E+00  0.00000000000E+00 -0.80838142902E+02  0.10167640433E+04  0.10135454181E+04 0.  0.
        4    1    3    3  502    0 -0.89574577092E+02 -0.46492635720E+03  0.14081132376E+03  0.49397324248E+03  0.12699999809E+01 0.  1.
       -4    1    3    3    0  502  0.89574577092E+02  0.46492635720E+03 -0.22164946666E+03  0.52279080085E+03  0.12699999809E+01 0. -1.
</event>
<event>
 5   0  0.1617721E-02  0.9983648E+03  0.7818609E-02  0.9310340E-01
        2   -1    0    0  501    0  0.00000000000E+00  0.00000000000E+00  0.11016645756E+04  0.11016645756E+04  0.25500000920E-02 0.  1.
       -2   -1    0    0    0  501  0.00000000000E+00  0.00000000000E+00 -0.22618777940E+03  0.22618777942E+03  0.25500000920E-02 0. -1.
    10030    2    1    2    0    0  0.00000000000E+00  0.00000000000E+00  0.87547679619E+03  0.13278523550E+04  0.99836479107E+03 0.  0.
        5    1    3    3  502    0 -0.56084985098E+02 -0.17332908216E+01  0.10974271354E+04  0.10988707555E+04  0.46999998093E+01 0.  1.
       -5    1    3    3    0  502  0.56084985098E+02  0.17332908216E+01 -0.22195033919E+03  0.22898159951E+03  0.46999998093E+01 0. -1.
</event>
<event>
 5   0  0.9396660E-03  0.8071800E+03  0.7818609E-02  0.9549682E-01
       -1   -1    0    0    0  501  0.00000000000E+00  0.00000000000E+00  0.14163478939E+03  0.14163478948E+03  0.50400001928E-02 0. -1.
        1   -1    0    0  501    0  0.00000000000E+00  0.00000000000E+00 -0.11500344692E+04  0.11500344692E+04  0.50400001928E-02 0.  1.
    10030    2    1    2    0    0  0.00000000000E+00  0.00000000000E+00 -0.10083996798E+04  0.12916692587E+04  0.80718000446E+03 0.  0.
        5    1    3    3  502    0 -0.27029817441E+02 -0.16794870026E+03  0.81415496800E+02  0.18864768768E+03  0.46999998093E+01 0. -1.
       -5    1    3    3    0  502  0.27029817441E+02  0.16794870026E+03 -0.10898151766E+04  0.11030215710E+04  0.46999998093E+01 0.  1.
</event>
<event>
 5   0  0.1663497E-02  0.9037925E+03  0.7818609E-02  0.9420853E-01
        2   -1    0    0  501    0  0.00000000000E+00  0.00000000000E+00  0.77575263532E+03  0.77575263533E+03  0.25500000920E-02 0. -1.
       -2   -1    0    0    0  501  0.00000000000E+00  0.00000000000E+00 -0.26324140246E+03  0.26324140247E+03  0.25500000920E-02 0.  1.
    10030    2    1    2    0    0  0.00000000000E+00  0.00000000000E+00  0.51251123287E+03  0.10389940378E+04  0.90379247992E+03 0.  0.
        1    1    3    3  502    0  0.95056802692E+02 -0.24034065414E+03  0.68239801275E+03  0.72970300370E+03  0.50400001928E-02 0. -1.
       -1    1    3    3    0  502 -0.95056802692E+02  0.24034065414E+03 -0.16988677989E+03  0.30929103410E+03  0.50400001928E-02 0.  1.
</event>
<event>
 5   0  0.1571895E-02  0.1001699E+04  0.7818609E-02  0.9306683E-01
        2   -1    0    0  501    0  0.00000000000E+00  0.00000000000E+00  0.14130529298E+04  0.14130529298E+04  0.25500000920E-02 0. -1.
       -2   -1    0    0    0  501  0.00000000000E+00  0.00000000000E+00 -0.17752360943E+03  0.17752360944E+03  0.25500000920E-02 0.  1.
    10030    2    1    2    0    0  0.00000000000E+00  0.00000000000E+00  0.12355293204E+04  0.15905765392E+04  0.10016990694E+04 0.  0.
        2    1    3    3  502    0 -0.20156095368E+03  0.24287169742E+03  0.12352775236E+04  0.12749604071E+04  0.25500000920E-02 0. -1.
       -2    1    3    3    0  502  0.20156095368E+03 -0.24287169742E+03  0.25179680229E+00  0.31561613214E+03  0.25500000920E-02 0.  1.
</event>
<event>
 5   0  0.1571895E-02  0.9990716E+03  0.7818609E-02  0.9309564E-01
       -2   -1    0    0    0  501  0.00000000000E+00  0.00000000000E+00  0.24034640027E+03  0.24034640028E+03  0.25500000920E-02 0.  1.
        2   -1    0    0  501    0  0.00000000000E+00  0.00000000000E+00 -0.10382348844E+04  0.10382348844E+04  0.25500000920E-02 0. -1.
    10030    2    1    2    0    0  0.00000000000E+00  0.00000000000E+00 -0.79788848412E+03  0.12785812847E+04  0.99907160325E+03 0.  0.
        2    1    3    3  502    0  0.10280056401E+03  0.13833174957E+03  0.20109211677E+03  0.26484272377E+03  0.25500000920E-02 0.  1.
       -2    1    3    3    0  502 -0.10280056401E+03 -0.13833174957E+03 -0.99898060089E+03  0.10137385609E+04  0.25500000920E-02 0. -1.
</event>
<event>
 5   0  0.9471140E-03  0.1126967E+04  0.7818609E-02  0.9179299E-01
       -1   -1    0    0    0  501  0.00000000000E+00  0.00000000000E+00  0.50170836694E+03  0.50170836696E+03  0.50400001928E-02 0.  1.
        1   -1    0    0  501    0  0.00000000000E+00  0.00000000000E+00 -0.63286522139E+03  0.63286522141E+03  0.50400001928E-02 0. -1.
    10030    2    1    2    0    0  0.00000000000E+00  0.00000000000E+00 -0.13115685445E+03  0.11345735884E+04  0.11269672165E+04 0.  0.
        4    1    3    3  502    0 -0.19209680271E+03  0.23347531278E+03  0.41313093182E+03  0.51194792999E+03  0.12699999809E+01 0.  1.
       -4    1    3    3    0  502  0.19209680271E+03 -0.23347531278E+03 -0.54428778628E+03  0.62262565838E+03  0.12699999809E+01 0. -1.
</event>
<event>
 5   0  0.9507815E-03  0.9970865E+03  0.7818609E-02  0.9311746E-01
        1   -1    0    0  501    0  0.00000000000E+00  0.00000000000E+00  0.54290811965E+03  0.54290811967E+03  0.50400001928E-02 0. -1.
       -1   -1    0    0    0  501  0.00000000000E+00  0.00000000000E+00 -0.45780376638E+03  0.45780376641E+03  0.50400001928E-02 0.  1.
    10030    2    1    2    0    0  0.00000000000E+00  0.00000000000E+00  0.85104353261E+02  0.10007118861E+04  0.99708651982E+03 0.  0.
        1    1    3    3  502    0 -0.47894695686E+03 -0.87918906390E+02 -0.64726416092E+02  0.49123256260E+03  0.50400001928E-02 0. -1.
       -1    1    3    3    0  502  0.47894695686E+03  0.87918906390E+02  0.14983076935E+03  0.50947932349E+03  0.50400001928E-02 0.  1.
</event>
<event>
 5   0  0.1617721E-02  0.1177421E+04  0.7818609E-02  0.9132853E-01
       -2   -1    0    0    0  501  0.00000000000E+00  0.00000000000E+00  0.11159553446E+04  0.11159553446E+04  0.25500000920E-02 0. -1.
        2   -1    0    0  501    0  0.00000000000E+00  0.00000000000E+00 -0.31056787722E+03  0.31056787723E+03  0.25500000920E-02 0.  1.
    10030    2    1    2    0    0  0.00000000000E+00  0.00000000000E+00  0.80538746742E+03  0.14265232219E+04  0.11774207107E+04 0.  0.
        5    1    3    3  502    0  0.15668797517E+03  0.19709811583E+03  0.10474006998E+04  0.10772507158E+04  0.46999998093E+01 0. -1.
       -5    1    3    3    0  502 -0.15668797517E+03 -0.19709811583E+03 -0.24201323238E+03  0.34927250604E+03  0.46999998093E+01 0.  1.
</event>
<event>
 5   0  0.9396660E-03  0.9941135E+03  0.7818609E-02  0.9315025E-01
       -1   -1    0    0    0  501  0.00000000000E+00  0.00000000000E+00  0.49122483834E+03  0.49122483837E+03  0.50400001928E-02 0.  1.
        1   -1    0    0  501    0  0.00000000000E+00  0.00000000000E+00 -0.50295792950E+03  0.50295792952E+03  0.50400001928E-02 0. -1.
    10030    2    1    2    0    0  0.00000000000E+00  0.00000000000E+00 -0.11733091155E+02  0.99418276789E+03  0.99411353000E+03 0.  0.
        5    1    3    3  502    0  0.28416220460E+03 -0.71786245915E+02  0.39558626756E+03  0.49235354036E+03  0.46999998093E+01 0.  1.
       -5    1    3    3    0  502 -0.28416220460E+03  0.71786245915E+02 -0.40731935871E+03  0.50182922753E+03  0.46999998093E+01 0. -1.
</event>
<event>
 5   0  0.1571895E-02  0.1004481E+04  0.7818609E-02  0.9303643E-01
        2   -1    0    0  501    0  0.00000000000E+00  0.00000000000E+00  0.13069457538E+04  0.13069457538E+04  0.25500000920E-02 0.  1.
       -2   -1    0    0    0  501  0.00000000000E+00  0.00000000000E+00 -0.19300392825E+03  0.19300392827E+03  0.25500000920E-02 0. -1.
    10030    2    1    2    0    0  0.00000000000E+00  0.00000000000E+00  0.11139418256E+04  0.14999496821E+04  0.10044812881E+04 0.  0.
        2    1    3    3  502    0  0.18321916793E+03 -0.20606803295E+03  0.11838056152E+04  0.12154953856E+04  0.25500000920E-02 0.  1.
       -2    1    3    3    0  502 -0.18321916793E+03  0.20606803295E+03 -0.69863789653E+02  0.28445429653E+03  0.25500000920E-02 0. -1.
</event>
<event>
 5   0  0.1656859E-02  0.9770990E+03  0.7818609E-02  0.9334025E-01
        2   -1    0    0  501    0  0.00000000000E+00  0.00000000000E+00  0.17755332859E+04  0.17755332859E+04  0.25500000920E-02 0. -1.
       -2   -1    0    0    0  501  0.00000000000E+00  0.00000000000E+00 -0.13442756609E+03  0.13442756612E+03  0.25500000920E-02 0.  1.
    10030    2    1    2    0    0  0.00000000000E+00  0.00000000000E+00  0.16411057198E+04  0.19099608520E+04  0.97709900863E+03 0.  0.
        4    1    3    3  502    0 -0.31528492480E+03  0.16981108240E+02  0.91814685622E+02  0.32882288734E+03  0.12699999809E+01 0.  1.
       -4    1    3    3    0  502  0.31528492480E+03 -0.16981108240E+02  0.15492910342E+04  0.15811379647E+04  0.12699999809E+01 0. -1.
</event>
<event>
 5   0  0.9471140E-03  0.1105487E+04  0.7818609E-02  0.9199861E-01
       -1   -1    0    0    0  501  0.00000000000E+00  0.00000000000E+00  0.28689609866E+03  0.28689609870E+03  0.50400001928E-02 0.  1.
        1   -1    0    0  501    0  0.00000000000E+00  0.00000000000E+00 -0.10649330129E+04  0.10649330129E+04  0.50400001928E-02 0. -1.
    10030    2    1    2    0    0  0.00000000000E+00  0.00000000000E+00 -0.77803691424E+03  0.13518291116E+04  0.11054865477E+04 0.  0.
        4    1    3    3  502    0 -0.80038397443E+02  0.11805003716E+03 -0.10420423189E+04  0.10517584150E+04  0.12699999809E+01 0. -1.
       -4    1    3    3    0  502  0.80038397443E+02 -0.11805003716E+03  0.26400540467E+03  0.30007069656E+03  0.12699999809E+01 0.  1.
</event>
<event>
 5   0  0.1617721E-02  0.1005331E+04  0.7818609E-02  0.9302717E-01
        2   -1    0    0  501    0  0.00000000000E+00  0.00000000000E+00  0.60814228995E+03  0.60814228995E+03  0.25500000920E-02 0. -1.
       -2   -1    0    0    0  501  0.00000000000E+00  0.00000000000E+00 -0.41548256416E+03  0.41548256417E+03  0.25500000920E-02 0.  1.
    10030    2    1    2    0    0  0.00000000000E+00  0.00000000000E+00  0.19265972579E+03  0.10236248541E+04  0.10053308272E+04 0.  0.
        5    1    3    3  502    0  0.26628637258E+03 -0.57160505864E+02  0.52648005290E+03  0.59277237769E+03  0.46999998093E+01 0. -1.
       -5    1    3    3    0  502 -0.26628637258E+03  0.57160505864E+02 -0.33382032711E+03  0.43085247643E+03  0.46999998093E+01 0.  1.
</event>
<event>
 5   0  0.1598986E-02  0.9826671E+03  0.7818609E-02  0.9327762E-01
       -2   -1    0    0    0  501  0.00000000000E+00  0.00000000000E+00  0.15064311947E+03  0.15064311949E+03  0.25500000920E-02 0. -1.
        2   -1    0    0  501    0  0.00000000000E+00  0.00000000000E+00 -0.16025201466E+04  0.16025201466E+04  0.25500000920E-02 0.  1.
    10030    2    1    2    0    0  0.00000000000E+00  0.00000000000E+00 -0.14518770271E+04  0.17531632661E+04  0.98266705227E+03 0.  0.
        3    1    3    3  502    0  0.46493502591E+03 -0.66476939811E+02 -0.46848013366E+03  0.66336822933E+03  0.10100000352E+00 0. -1.
       -3    1    3    3    0  502 -0.46493502591E+03  0.66476939811E+02 -0.98339689344E+03  0.10897950367E+04  0.10100000352E+00 0.  1.
</event>
<event>
 5   0  0.1656859E-02  0.1031246E+04  0.7818609E-02  0.9274924E-01
       -2   -1    0    0    0  501  0.00000000000E+00  0.00000000000E+00  0.26357828083E+03  0.26357828084E+03  0.25500000920E-02 0.  1.
        2   -1    0    0  501    0  0.00000000000E+00  0.00000000000E+00 -0.10086825904E+04  0.10086825904E+04  0.25500000920E-02 0. -1.
    10030    2    1    2    0    0  0.00000000000E+00  0.00000000000E+00 -0.74510430958E+03  0.12722608713E+04  0.10312455054E+04 0.  0.
        4    1    3    3  502    0  0.39091213907E+03  0.17769364177E+03 -0.72470723702E+03  0.84237136886E+03  0.12699999809E+01 0. -1.
       -4    1    3    3    0  502 -0.39091213907E+03 -0.17769364177E+03 -0.20397072566E+02  0.42988950239E+03  0.12699999809E+01 0.  1.
</event>
<event>
 5   0  0.9759443E-03  0.9740466E+03  0.7818609E-02  0.9337477E-01
        1   -1    0    0  501    0  0.00000000000E+00  0.00000000000E+00  0.30882302610E+03  0.30882302614E+03  0.50400001928E-02 0. -1.
       -1   -1    0    0    0  501  0.00000000000E+00  0.00000000000E+00 -0.76805052889E+03  0.76805052891E+03  0.50400001928E-02 0.  1.
    10030    2    1    2    0    0  0.00000000000E+00  0.00000000000E+00 -0.45922750279E+03  0.10768735551E+04  0.97404658731E+03 0.  0.
        2    1    3    3  502    0  0.25555197961E+03 -0.33220206064E+03 -0.50384482960E+03  0.65538129032E+03  0.25500000920E-02 0.  1.
       -2    1    3    3    0  502 -0.25555197961E+03  0.33220206064E+03  0.44617326806E+02  0.42149226474E+03  0.25500000920E-02 0. -1.
</event>
<event>
 5   0  0.1617721E-02  0.1020102E+04  0.7818609E-02  0.9286768E-01
       -2   -1    0    0    0  501  0.00000000000E+00  0.00000000000E+00  0.40483728469E+03  0.40483728470E+03  0.25500000920E-02 0. -1.
        2   -1    0    0  501    0  0.00000000000E+00  0.00000000000E+00 -0.64260902598E+03  0.64260902598E+03  0.25500000920E-02 0.  1.
    10030    2    1    2    0    0  0.00000000000E+00  0.00000000000E+00 -0.23777174128E+03  0.10474463107E+04  0.10201021384E+04 0.  0.
        5    1    3    3  502    0 -0.10100241458E+03  0.49934742246E+03 -0.14362883557E+03  0.52933984213E+03  0.46999998093E+01 0. -1.
       -5    1    3    3    0  502  0.10100241458E+03 -0.49934742246E+03 -0.94142905714E+02  0.51810646855E+03  0.46999998093E+01 0.  1.
</event>
<event>
 5   0  0.1000773E-02  0.8751766E+03  0.7818609E-02  0.9457155E-01
       -1   -1    0    0    0  501  0.00000000000E+00  0.00000000000E+00  0.14195157484E+03  0.14195157493E+03  0.50400001928E-02 0.  1.
        1   -1    0    0  501    0  0.00000000000E+00  0.00000000000E+00 -0.13489353922E+04  0.13489353922E+04  0.50400001928E-02 0. -1.
    10030    2    1    2    0    0  0.00000000000E+00  0.00000000000E+00 -0.12069838173E+04  0.14908869671E+04  0.87517656128E+03 0.  0.
        3    1    3    3  502    0 -0.13759878036E+02  0.18990606296E+03  0.67684454963E+02  0.20207632874E+03  0.10100000352E+00 0.  1.
       -3    1    3    3    0  502  0.13759878036E+02 -0.18990606296E+03 -0.12746682723E+04  0.12888106384E+04  0.10100000352E+00 0. -1.
</event>
<event>
 5   0  0.1656859E-02  0.1014604E+04  0.7818609E-02  0.9292671E-01
        2   -1    0    0  501    0  0.00000000000E+00  0.00000000000E+00  0.13528456508E+04  0.13528456508E+04  0.25500000920E-02 0. -1.
       -2   -1    0    0    0  501  0.00000000000E+00  0.00000000000E+00 -0.19023258789E+03  0.19023258791E+03  0.25500000920E-02 0.  1.
    10030    2    1    2    0    0  0.00000000000E+00  0.00000000000E+00  0.11626130629E+04  0.15430782387E+04  0.10146040197E+04 0.  0.
        4    1    3    3  502    0 -0.41933838747E+03  0.14999092521E+03  0.21185230848E+03  0.49317844068E+03  0.12699999809E+01 0.  1.
       -4    1    3    3    0  502  0.41933838747E+03 -0.14999092521E+03  0.95076075446E+03  0.10498997981E+04  0.12699999809E+01 0. -1.
</event>
<event>
 5   0  0.9507815E-03  0.1023173E+04  0.7818609E-02  0.9283488E-01
        1   -1    0    0  501    0  0.00000000000E+00  0.00000000000E+00  0.73557794176E+03  0.73557794178E+03  0.50400001928E-02 0. -1.
       -1   -1    0    0    0  501  0.00000000000E+00  0.00000000000E+00 -0.35580277227E+03  0.35580277231E+03  0.50400001928E-02 0.  1.
    10030    2    1    2    0    0  0.00000000000E+00  0.00000000000E+00  0.37977516949E+03  0.10913807141E+04  0.10231728513E+04 0.  0.
        1    1    3    3  502    0  0.46374859512E+02 -0.97212226610E+01 -0.35345717148E+03  0.35661898696E+03  0.50400001928E-02 0.  1.
       -1    1    3    3    0  502 -0.46374859512E+02  0.97212226610E+01  0.73323234097E+03  0.73476172712E+03  0.50400001928E-02 0. -1.
</event>
<event>
 5   0  0.1617721E-02  0.9834769E+03  0.7818609E-02  0.9326855E-01
       -2   -1    0    0    0  501  0.00000000000E+00  0.00000000000E+00  0.43000012214E+03  0.43000012214E+03  0.25500000920E-02 0. -1.
        2   -1    0    0  501    0  0.00000000000E+00  0.00000000000E+00 -0.56234099725E+03  0.56234099725E+03  0.25500000920E-02 0.  1.
    10030    2    1    2    0    0  0.00000000000E+00  0.00000000000E+00 -0.13234087511E+03  0.99234111940E+03  0.98347688840E+03 0.  0.
        5    1    3    3  502    0 -0.11503449294E+03 -0.43220293633E+02 -0.54657481426E+03  0.56023838313E+03  0.46999998093E+01 0.  1.
       -5    1    3    3    0  502  0.11503449294E+03  0.43220293633E+02  0.41423393915E+03  0.43210273627E+03  0.46999998093E+01 0. -1.
</event>
<event>
 5   0  0.9396660E-03  0.1066936E+04  0.7818609E-02  0.9238031E-01
       -1   -1    0    0    0  501  0.00000000000E+00  0.00000000000E+00  0.25538338304E+03  0.25538338309E+03  0.50400001928E-02 0.  1.
        1   -1    0    0  501    0  0.00000000000E+00  0.00000000000E+00 -0.11143565317E+04  0.11143565317E+04  0.50400001928E-02 0. -1.
    10030    2    1    2    0    0  0.00000000000E+00  0.00000000000E+00 -0.85897314866E+03  0.13697399148E+04  0.10669360637E+04 0.  0.
        5    1    3    3  502    0 -0.13404044242E+03  0.37551470217E+03 -0.88444702872E+03  0.97017873011E+03  0.46999998093E+01 0. -1.
       -5    1    3    3    0  502  0.13404044242E+03 -0.37551470217E+03  0.25473880055E+02  0.39956118469E+03  0.46999998093E+01 0.  1.
</event>
<event>
 5   0  0.9396660E-03  0.1108755E+04  0.7818609E-02  0.9196701E-01
       -1   -1    0    0    0  501  0.00000000000E+00  0.00000000000E+00  0.50682943045E+03  0.50682943047E+03  0.50400001928E-02 0.  1.
        1   -1    0    0  501    0  0.00000000000E+00  0.00000000000E+00 -0.60638600685E+03  0.60638600687E+03  0.50400001928E-02 0. -1.
    10030    2    1    2    0    0  0.00000000000E+00  0.00000000000E+00 -0.99556576400E+02  0.11132154373E+04  0.11087547511E+04 0.  0.
        5    1    3    3  502    0  0.10404654679E+03 -0.11719018463E+03 -0.58366278202E+03  0.60435383376E+03  0.46999998093E+01 0. -1.
       -5    1    3    3    0  502 -0.10404654679E+03  0.11719018463E+03  0.48410620562E+03  0.50886160357E+03  0.46999998093E+01 0.  1.
</event>
<event>
 5   0  0.1617721E-02  0.1017712E+04  0.7818609E-02  0.9289330E-01
       -2   -1    0    0    0  501  0.00000000000E+00  0.00000000000E+00  0.12282761715E+03  0.12282761718E+03  0.25500000920E-02 0.  1.
        2   -1    0    0  501    0  0.00000000000E+00  0.00000000000E+00 -0.21081109384E+04  0.21081109384E+04  0.25500000920E-02 0. -1.
    10030    2    1    2    0    0  0.00000000000E+00  0.00000000000E+00 -0.19852833213E+04  0.22309385556E+04  0.10177116356E+04 0.  0.
        5    1    3    3  502    0 -0.32773225581E+03  0.36778094949E+03 -0.12720039932E+04  0.13640701987E+04  0.46999998093E+01 0.  1.
       -5    1    3    3    0  502  0.32773225581E+03 -0.36778094949E+03 -0.71327932805E+03  0.86686835686E+03  0.46999998093E+01 0. -1.
</event>
<event>
 5   0  0.9471140E-03  0.5822012E+03  0.7818609E-02  0.9943037E-01
        1   -1    0    0  501    0  0.00000000000E+00  0.00000000000E+00  0.46866792322E+03  0.46866792325E+03  0.50400001928E-02 0. -1.
       -1   -1    0    0    0  501  0.00000000000E+00  0.00000000000E+00 -0.18080938809E+03  0.18080938816E+03  0.50400001928E-02 0.  1.
    10030    2    1    2    0    0  0.00000000000E+00  0.00000000000E+00  0.28785853514E+03  0.64947731141E+03  0.58220120387E+03 0.  0.
        4    1    3    3  502    0  0.67906873069E+02 -0.21040509020E+02 -0.17097328355E+03  0.18516890402E+03  0.12699999809E+01 0.  1.
       -4    1    3    3    0  502 -0.67906873069E+02  0.21040509020E+02  0.45883181869E+03  0.46430840739E+03  0.12699999809E+01 0. -1.
</event>
<event>
 5   0  0.9471140E-03  0.1036750E+04  0.7818609E-02  0.9269131E-01
       -1   -1    0    0    0  501  0.00000000000E+00  0.00000000000E+00  0.60292829023E+03  0.60292829025E+03  0.50400001928E-02 0.  1.
        1   -1    0    0  501    0  0.00000000000E+00  0.00000000000E+00 -0.44567945992E+03  0.44567945995E+03  0.50400001928E-02 0. -1.
    10030    2    1    2    0    0  0.00000000000E+00  0.00000000000E+00  0.15724883031E+03  0.10486077502E+04  0.10367502202E+04 0.  0.
        4    1    3    3  502    0  0.47601833763E+03  0.10856735595E+03 -0.97524898429E+02  0.49788858920E+03  0.12699999809E+01 0. -1.
       -4    1    3    3    0  502 -0.47601833763E+03 -0.10856735595E+03  0.25477372874E+03  0.55071916100E+03  0.12699999809E+01 0.  1.
</event>
<event>
 5   0  0.9396660E-03  0.1039318E+04  0.7818609E-02  0.9266442E-01
        1   -1    0    0  501    0  0.00000000000E+00  0.00000000000E+00  0.17702962902E+04  0.17702962902E+04  0.50400001928E-02 0.  1.
       -1   -1    0    0    0  501  0.00000000000E+00  0.00000000000E+00 -0.15254264564E+03  0.15254264572E+03  0.50400001928E-02 0. -1.
    10030    2    1    2    0    0  0.00000000000E+00  0.00000000000E+00  0.16177536446E+04  0.19228389359E+04  0.10393183916E+04 0.  0.
        5    1    3    3  502    0 -0.51646580919E+03 -0.48626222565E+02  0.75269515137E+03  0.91415180494E+03  0.46999998093E+01 0.  1.
       -5    1    3    3    0  502  0.51646580919E+03  0.48626222565E+02  0.86505849321E+03  0.10086871310E+04  0.46999998093E+01 0. -1.
</event>
<event>
 5   0  0.9759443E-03  0.9821685E+03  0.7818609E-02  0.9328321E-01
       -1   -1    0    0    0  501  0.00000000000E+00  0.00000000000E+00  0.10789652722E+04  0.10789652722E+04  0.50400001928E-02 0. -1.
        1   -1    0    0  501    0  0.00000000000E+00  0.00000000000E+00 -0.22351390862E+03  0.22351390867E+03  0.50400001928E-02 0.  1.
    10030    2    1    2    0    0  0.00000000000E+00  0.00000000000E+00  0.85545136356E+03  0.13024791809E+04  0.98216850955E+03 0.  0.
        2    1    3    3  502    0 -0.20656744546E+03 -0.38444611414E+02 -0.16089449506E+03  0.26464152399E+03  0.25500000920E-02 0.  1.
       -2    1    3    3    0  502  0.20656744546E+03  0.38444611414E+02  0.10163458586E+04  0.10378376569E+04  0.25500000920E-02 0. -1.
</event>
<event>
 5   0  0.9471140E-03  0.1011700E+04  0.7818609E-02  0.9295804E-01
        1   -1    0    0  501    0  0.00000000000E+00  0.00000000000E+00  0.40487000832E+03  0.40487000835E+03  0.50400001928E-02 0. -1.
       -1   -1    0    0    0  501  0.00000000000E+00  0.00000000000E+00 -0.63201622848E+03  0.63201622850E+03  0.50400001928E-02 0.  1.
    10030    2    1    2    0    0  0.00000000000E+00  0.00000000000E+00 -0.22714622016E+03  0.10368862368E+04  0.10117003819E+04 0.  0.
        4    1    3    3  502    0 -0.13189280967E+02 -0.43128028959E+03 -0.38416499474E+03  0.57772052188E+03  0.12699999809E+01 0.  1.
       -4    1    3    3    0  502  0.13189280967E+02  0.43128028959E+03  0.15701877458E+03  0.45916571496E+03  0.12699999809E+01 0. -1.
</event>
<event>
 5   0  0.9471140E-03  0.9688363E+03  0.7818609E-02  0.9343401E-01
        1   -1    0    0  501    0  0.00000000000E+00  0.00000000000E+00  0.57748901102E+03  0.57748901105E+03  0.50400001928E-02 0. -1.
       -1   -1    0    0    0  501  0.00000000000E+00  0.00000000000E+00 -0.40634705262E+03  0.40634705265E+03  0.50400001928E-02 0.  1.
    10030    2    1    2    0    0  0.00000000000E+00  0.00000000000E+00  0.17114195840E+03  0.98383606369E+03  0.96883632792E+03 0.  0.
        4    1    3    3  502    0 -0.69050616435E+02 -0.22183569363E+03  0.51721696170E+03  0.56700446292E+03  0.12699999809E+01 0. -1.
       -4    1    3    3    0  502  0.69050616435E+02  0.22183569363E+03 -0.34607500330E+03  0.41683160078E+03  0.12699999809E+01 0.  1.
</event>
<event>
 5   0  0.9507815E-03  0.1017620E+04  0.7818609E-02  0.9289427E-01
       -1   -1    0    0    0  501  0.00000000000E+00  0.00000000000E+00  0.31225249883E+03  0.31225249887E+03  0.50400001928E-02 0.  1.
        1   -1    0    0  501    0  0.00000000000E+00  0.00000000000E+00 -0.82909771529E+03  0.82909771531E+03  0.50400001928E-02 0. -1.
    10030    2    1    2    0    0  0.00000000000E+00  0.00000000000E+00 -0.51684521646E+03  0.11413502142E+04  0.10176204271E+04 0.  0.
        1    1    3    3  502    0 -0.45648939634E+03  0.22203876920E+03 -0.29734103340E+03  0.58829879667E+03  0.50400001928E-02 0. -1.
       -1    1    3    3    0  502  0.45648939634E+03 -0.22203876920E+03 -0.21950418307E+03  0.55305141751E+03  0.50400001928E-02 0.  1.
</event>
<event>
 5   0  0.1571895E-02  0.9932884E+03  0.7818609E-02  0.9315937E-01
        2   -1    0    0  501    0  0.00000000000E+00  0.00000000000E+00  0.13671016548E+03  0.13671016550E+03  0.25500000920E-02 0. -1.
       -2   -1    0    0    0  501  0.00000000000E+00  0.00000000000E+00 -0.18042216880E+04  0.18042216880E+04  0.25500000920E-02 0.  1.
    10030    2    1    2    0    0  0.00000000000E+00  0.00000000000E+00 -0.16675115226E+04  0.19409318535E+04  0.99328836812E+03 0.  0.
        2    1    3    3  502    0  0.44979137139E+03  0.71020695950E+01 -0.42251026546E+03  0.61715285108E+03  0.25500000920E-02 0. -1.
       -2    1    3    3    0  502 -0.44979137139E+03 -0.71020695950E+01 -0.12450012571E+04  0.13237790025E+04  0.25500000920E-02 0.  1.
</event>
<event>
 5   0  0.9507815E-03  0.9826972E+03  0.7818609E-02  0.9327728E-01
       -1   -1    0    0    0  501  0.00000000000E+00  0.00000000000E+00  0.48376581491E+03  0.48376581494E+03  0.50400001928E-02 0.  1.
        1   -1    0    0  501    0  0.00000000000E+00  0.00000000000E+00 -0.49905021912E+03  0.49905021914E+03  0.50400001928E-02 0. -1.
    10030    2    1    2    0    0  0.00000000000E+00  0.00000000000E+00 -0.15284404205E+02  0.98281603408E+03  0.98269717810E+03 0.  0.
        1    1    3    3  502    0  0.31810106620E+03  0.34236106628E+03 -0.15939732626E+03  0.49376805857E+03  0.50400001928E-02 0. -1.
       -1    1    3    3    0  502 -0.31810106620E+03 -0.34236106628E+03  0.14411292205E+03  0.48904797551E+03  0.50400001928E-02 0.  1.
</event>
<event>
 5   0  0.9471140E-03  0.9862416E+03  0.7818609E-02  0.9323765E-01
        1   -1    0    0  501    0  0.00000000000E+00  0.00000000000E+00  0.44322676674E+03  0.44322676677E+03  0.50400001928E-02 0.  1.
       -1   -1    0    0    0  501  0.00000000000E+00  0.00000000000E+00 -0.54863139903E+03  0.54863139905E+03  0.50400001928E-02 0. -1.
    10030    2    1    2    0    0  0.00000000000E+00  0.00000000000E+00 -0.10540463229E+03  0.99185816582E+03  0.98624159545E+03 0.  0.
        4    1    3    3  502    0 -0.32696923270E+03 -0.10674244916E+03  0.30267059565E+03  0.45816365194E+03  0.12699999809E+01 0.  1.
       -4    1    3    3    0  502  0.32696923270E+03  0.10674244916E+03 -0.40807522794E+03  0.53369451388E+03  0.12699999809E+01 0. -1.
</event>
<event>
 5   0  0.1617721E-02  0.1009223E+04  0.7818609E-02  0.9298487E-01
        2   -1    0    0  501    0  0.00000000000E+00  0.00000000000E+00  0.31542848771E+03  0.31542848772E+03  0.25500000920E-02 0. -1.
       -2   -1    0    0    0  501  0.00000000000E+00  0.00000000000E+00 -0.80725970629E+03  0.80725970629E+03  0.25500000920E-02 0.  1.
    10030    2    1    2    0    0  0.00000000000E+00  0.00000000000E+00 -0.49183121858E+03  0.11226881940E+04  0.10092228859E+04 0.  0.
        5    1    3    3  502    0  0.28880976965E+02  0.17055528378E+03 -0.77322004829E+03  0.79234749241E+03  0.46999998093E+01 0.  1.
       -5    1    3    3    0  502 -0.28880976965E+02 -0.17055528378E+03  0.28138882971E+03  0.33034070161E+03  0.46999998093E+01 0. -1.
</event>
<event>
 5   0  0.6314750E-03  0.9873504E+03  0.7818609E-02  0.9322528E-01
        4   -1    0    0  501    0  0.00000000000E+00  0.00000000000E+00  0.11522868484E+04  0.11522875483E+04  0.12699999809E+01 0.  1.
       -4   -1    0    0    0  501  0.00000000000E+00  0.00000000000E+00 -0.21150299447E+03  0.21150680738E+03  0.12699999809E+01 0. -1.
    10030    2    1    2    0    0  0.00000000000E+00  0.00000000000E+00  0.94078385393E+03  0.13637943556E+04  0.98735038597E+03 0.  0.
        2    1    3    3  502    0 -0.94195099812E+02  0.34757922912E+03  0.39588321867E+01  0.36013845908E+03  0.25500000920E-02 0. -1.
       -2    1    3    3    0  502  0.94195099812E+02 -0.34757922912E+03  0.93682502175E+03  0.10036558966E+04  0.25500000920E-02 0.  1.
</event>
<event>
 5   0  0.1000773E-02  0.9972142E+03  0.7818609E-02  0.9311605E-01
        1   -1    0    0  501    0  0.00000000000E+00  0.00000000000E+00  0.25703295273E+03  0.25703295278E+03  0.50400001928E-02 0.  1.
       -1   -1    0    0    0  501  0.00000000000E+00  0.00000000000E+00 -0.96722634542E+03  0.96722634543E+03  0.50400001928E-02 0. -1.
    10030    2    1    2    0    0  0.00000000000E+00  0.00000000000E+00 -0.71019339269E+03  0.12242592982E+04  0.99721420680E+03 0.  0.
        3    1    3    3  502    0  0.36560381459E+03 -0.19314723441E+03 -0.69717018005E+03  0.81056663733E+03  0.10100000352E+00 0. -1.
       -3    1    3    3    0  502 -0.36560381459E+03  0.19314723441E+03 -0.13023212638E+02  0.41369266088E+03  0.10100000352E+00 0.  1.
</event>
<event>
 5   0  0.9471140E-03  0.9875491E+03  0.7818609E-02  0.9322307E-01
       -1   -1    0    0    0  501  0.00000000000E+00  0.00000000000E+00  0.34682184405E+03  0.34682184409E+03  0.50400001928E-02 0.  1.
        1   -1    0    0  501    0  0.00000000000E+00  0.00000000000E+00 -0.70299294445E+03  0.70299294447E+03  0.50400001928E-02 0. -1.
    10030    2    1    2    0    0  0.00000000000E+00  0.00000000000E+00 -0.35617110040E+03  0.10498147886E+04  0.98754910638E+03 0.  0.
        4    1    3    3  502    0 -0.44969694937E+02 -0.29188744884E+03  0.24258061181E+03  0.38218781035E+03  0.12699999809E+01 0.  1.
       -4    1    3    3    0  502  0.44969694937E+02  0.29188744884E+03 -0.59875171221E+03  0.66762697821E+03  0.12699999809E+01 0. -1.
</event>
<event>
 5   0  0.9471140E-03  0.1073274E+04  0.7818609E-02  0.9231640E-01
       -1   -1    0    0    0  501  0.00000000000E+00  0.00000000000E+00  0.20359537544E+03  0.20359537550E+03  0.50400001928E-02 0. -1.
        1   -1    0    0  501    0  0.00000000000E+00  0.00000000000E+00 -0.14144683808E+04  0.14144683808E+04  0.50400001928E-02 0.  1.
    10030    2    1    2    0    0  0.00000000000E+00  0.00000000000E+00 -0.12108730054E+04  0.16180637563E+04  0.10732739093E+04 0.  0.
        4    1    3    3  502    0  0.30033354467E+03  0.18508657458E+03  0.41999614677E+01  0.35281231657E+03  0.12699999809E+01 0. -1.
       -4    1    3    3    0  502 -0.30033354467E+03 -0.18508657458E+03 -0.12150729669E+04  0.12652514398E+04  0.12699999809E+01 0.  1.
</event>
<event>
 5   0  0.1656859E-02  0.1013724E+04  0.7818609E-02  0.9293619E-01
        2   -1    0    0  501    0  0.00000000000E+00  0.00000000000E+00  0.90515104048E+03  0.90515104048E+03  0.25500000920E-02 0. -1.
       -2   -1    0    0    0  501  0.00000000000E+00  0.00000000000E+00 -0.28383004086E+03  0.28383004087E+03  0.25500000920E-02 0.  1.
    10030    2    1    2    0    0  0.00000000000E+00  0.00000000000E+00  0.62132099962E+03  0.11889810814E+04  0.10137239403E+04 0.  0.
        4    1    3    3  502    0  0.30712531597E+03 -0.20800903140E+03 -0.94475137781E+02  0.38278046111E+03  0.12699999809E+01 0.  1.
       -4    1    3    3    0  502 -0.30712531597E+03  0.20800903140E+03  0.71579613741E+03  0.80620062024E+03  0.12699999809E+01 0. -1.
</event>
<event>
 5   0  0.6314750E-03  0.9823599E+03  0.7818609E-02  0.9328107E-01
        3   -1    0    0  501    0  0.00000000000E+00  0.00000000000E+00  0.39347031539E+03  0.39347032835E+03  0.10100000352E+00 0.  1.
       -3   -1    0    0    0  501  0.00000000000E+00  0.00000000000E+00 -0.61315363621E+03  0.61315364453E+03  0.10100000352E+00 0. -1.
    10030    2    1    2    0    0  0.00000000000E+00  0.00000000000E+00 -0.21968332082E+03  0.10066239729E+04  0.98235994489E+03 0.  0.
        2    1    3    3  502    0  0.26467821792E+03 -0.12835745204E+03 -0.51291166146E+03  0.59127706450E+03  0.25500000920E-02 0. -1.
       -2    1    3    3    0  502 -0.26467821792E+03  0.12835745204E+03  0.29322834064E+03  0.41534690838E+03  0.25500000920E-02 0.  1.
</event>
<event>
 5   0  0.1000773E-02  0.1008471E+04  0.7818609E-02  0.9299302E-01
       -1   -1    0    0    0  501  0.00000000000E+00  0.00000000000E+00  0.56280148901E+03  0.56280148903E+03  0.50400001928E-02 0. -1.
        1   -1    0    0  501    0  0.00000000000E+00  0.00000000000E+00 -0.45176428583E+03  0.45176428586E+03  0.50400001928E-02 0.  1.
    10030    2    1    2    0    0  0.00000000000E+00  0.00000000000E+00  0.11103720318E+03  0.10145657749E+04  0.10084713437E+04 0.  0.
        3    1    3    3  502    0 -0.29281253376E+03 -0.31185707819E+03  0.32407672376E+03  0.53667471547E+03  0.10100000352E+00 0. -1.
       -3    1    3    3    0  502  0.29281253376E+03  0.31185707819E+03 -0.21303952058E+03  0.47789105942E+03  0.10100000352E+00 0.  1.
</event>
<event>
 5   0  0.1571895E-02  0.1016428E+04  0.7818609E-02  0.9290709E-01
        2   -1    0    0  501    0  0.00000000000E+00  0.00000000000E+00  0.80421722997E+03  0.80421722997E+03  0.25500000920E-02 0. -1.
       -2   -1    0    0    0  501  0.00000000000E+00  0.00000000000E+00 -0.32115852367E+03  0.32115852368E+03  0.25500000920E-02 0.  1.
    10030    2    1    2    0    0  0.00000000000E+00  0.00000000000E+00  0.48305870630E+03  0.11253757536E+04  0.10164275051E+04 0.  0.
        2    1    3    3  502    0 -0.22140371207E+03 -0.33938017883E+03 -0.98077191960E+02  0.41691443378E+03  0.25500000920E-02 0.  1.
       -2    1    3    3    0  502  0.22140371207E+03  0.33938017883E+03  0.58113589826E+03  0.70846131987E+03  0.25500000920E-02 0. -1.
</event>
<event>
 5   0  0.1617721E-02  0.1008234E+04  0.7818609E-02  0.9299560E-01
       -2   -1    0    0    0  501  0.00000000000E+00  0.00000000000E+00  0.42913128382E+03  0.42913128383E+03  0.25500000920E-02 0. -1.
        2   -1    0    0  501    0  0.00000000000E+00  0.00000000000E+00 -0.59220554850E+03  0.59220554850E+03  0.25500000920E-02 0.  1.
    10030    2    1    2    0    0  0.00000000000E+00  0.00000000000E+00 -0.16307426468E+03  0.10213368323E+04  0.10082339556E+04 0.  0.
        5    1    3    3  502    0 -0.48169142183E+02  0.12030334204E+03  0.41194750100E+03  0.43187497490E+03  0.46999998093E+01 0. -1.
       -5    1    3    3    0  502  0.48169142183E+02 -0.12030334204E+03 -0.57502176568E+03  0.58946185743E+03  0.46999998093E+01 0.  1.
</event>
<event>
 5   0  0.1598986E-02  0.9924760E+03  0.7818609E-02  0.9316836E-01
       -2   -1    0    0    0  501  0.00000000000E+00  0.00000000000E+00  0.20993984409E+03  0.20993984410E+03  0.25500000920E-02 0.  1.
        2   -1    0    0  501    0  0.00000000000E+00  0.00000000000E+00 -0.11729651937E+04  0.11729651937E+04  0.25500000920E-02 0. -1.
    10030    2    1    2    0    0  0.00000000000E+00  0.00000000000E+00 -0.96302534958E+03  0.13829050378E+04  0.99247595414E+03 0.  0.
        3    1    3    3  502    0  0.85442804612E+02  0.43964315298E+03 -0.77927290202E+03  0.89880634224E+03  0.10100000352E+00 0. -1.
       -3    1    3    3    0  502 -0.85442804612E+02 -0.43964315298E+03 -0.18375244756E+03  0.48409869553E+03  0.10100000352E+00 0.  1.
</event>
<event>
 5   0  0.9759443E-03  0.9966934E+03  0.7818609E-02  0.9312179E-01
        1   -1    0    0  501    0  0.00000000000E+00  0.00000000000E+00  0.84831688669E+03  0.84831688670E+03  0.50400001928E-02 0. -1.
       -1   -1    0    0    0  501  0.00000000000E+00  0.00000000000E+00 -0.29275551718E+03  0.29275551722E+03  0.50400001928E-02 0.  1.
    10030    2    1    2    0    0  0.00000000000E+00  0.00000000000E+00  0.55556136951E+03  0.11410724039E+04  0.99669343116E+03 0.  0.
        2    1    3    3  502    0  0.48774033646E+03 -0.62007351815E+02  0.37088728429E+03  0.61586761982E+03  0.25500000920E-02 0.  1.
       -2    1    3    3    0  502 -0.48774033646E+03  0.62007351815E+02  0.18467408522E+03  0.52520478411E+03  0.25500000920E-02 0. -1.
</event>
<event>
 5   0  0.1598986E-02  0.9916249E+03  0.7818609E-02  0.9317778E-01
        2   -1    0    0  501    0  0.00000000000E+00  0.00000000000E+00  0.33275711258E+03  0.33275711259E+03  0.25500000920E-02 0.  1.
       -2   -1    0    0    0  501  0.00000000000E+00  0.00000000000E+00 -0.73876708127E+03  0.73876708128E+03  0.25500000920E-02 0. -1.
    10030    2    1    2    0    0  0.00000000000E+00  0.00000000000E+00 -0.40600996870E+03  0.10715241939E+04  0.99162493079E+03 0.  0.
        3    1    3    3  502    0  0.41056451380E+03 -0.27660904389E+03 -0.23268061542E+03  0.54700645531E+03  0.10100000352E+00 0. -1.
       -3    1    3    3    0  502 -0.41056451380E+03  0.27660904389E+03 -0.17332935328E+03  0.52451773856E+03  0.10100000352E+00 0.  1.
</event>
<event>
 5   0  0.9396660E-03  0.9682262E+03  0.7818609E-02  0.9344097E-01
        1   -1    0    0  501    0  0.00000000000E+00  0.00000000000E+00  0.22890366200E+03  0.22890366205E+03  0.50400001928E-02 0. -1.
       -1   -1    0    0    0  501  0.00000000000E+00  0.00000000000E+00 -0.10238609004E+04  0.10238609004E+04  0.50400001928E-02 0.  1.
    10030    2    1    2    0    0  0.00000000000E+00  0.00000000000E+00 -0.79495723842E+03  0.12527645625E+04  0.96822623291E+03 0.  0.
        5    1    3    3  502    0 -0.76549936953E+02 -0.26213462940E+03  0.11969792814E+03  0.29820151035E+03  0.46999998093E+01 0. -1.
       -5    1    3    3    0  502  0.76549936953E+02  0.26213462940E+03 -0.91465516655E+03  0.95456305212E+03  0.46999998093E+01 0.  1.
</event>
<event>
 5   0  0.1000773E-02  0.9547285E+03  0.7818609E-02  0.9359641E-01
        1   -1    0    0  501    0  0.00000000000E+00  0.00000000000E+00  0.12852218888E+04  0.12852218888E+04  0.50400001928E-02 0. -1.
       -1   -1    0    0    0  501  0.00000000000E+00  0.00000000000E+00 -0.17730529679E+03  0.17730529686E+03  0.50400001928E-02 0.  1.
    10030    2    1    2    0    0  0.00000000000E+00  0.00000000000E+00  0.11079165920E+04  0.14625271856E+04  0.95472854464E+03 0.  0.
        3    1    3    3  502    0  0.17990586772E+03 -0.18329719795E+03 -0.62444267721E+02  0.26431662979E+03  0.10100000352E+00 0.  1.
       -3    1    3    3    0  502 -0.17990586772E+03  0.18329719795E+03  0.11703608597E+04  0.11982105559E+04  0.10100000352E+00 0. -1.
</event>
<event>
 5   0  0.6314750E-03  0.1031415E+04  0.7818609E-02  0.9274745E-01
        3   -1    0    0  501    0  0.00000000000E+00  0.00000000000E+00  0.46865164299E+03  0.46865165387E+03  0.10100000352E+00 0.  1.
       -3   -1    0    0    0  501  0.00000000000E+00  0.00000000000E+00 -0.56748779405E+03  0.56748780303E+03  0.10100000352E+00 0. -1.
    10030    2    1    2    0    0  0.00000000000E+00  0.00000000000E+00 -0.98836151058E+02  0.10361394569E+04  0.10314147514E+04 0.  0.
        5    1    3    3  502    0  0.92720267162E+02 -0.26947507854E+03 -0.48117533551E+03  0.55925455689E+03  0.46999998093E+01 0. -1.
       -5    1    3    3    0  502 -0.92720267162E+02  0.26947507854E+03  0.38233918445E+03  0.47688490002E+03  0.46999998093E+01 0.  1.
</event>
<event>
 5   0  0.9471140E-03  0.1007231E+04  0.7818609E-02  0.9300650E-01
        1   -1    0    0  501    0  0.00000000000E+00  0.00000000000E+00  0.10647991627E+04  0.10647991627E+04  0.50400001928E-02 0. -1.
       -1   -1    0    0    0  501  0.00000000000E+00  0.00000000000E+00 -0.23819365606E+03  0.23819365611E+03  0.50400001928E-02 0.  1.
    10030    2    1    2    0    0  0.00000000000E+00  0.00000000000E+00  0.82660550665E+03  0.13029928188E+04  0.10072306699E+04 0.  0.
        4    1    3    3  502    0 -0.14096299997E+03  0.45812929507E+03  0.61318472410E+03  0.77829951633E+03  0.12699999809E+01 0. -1.
       -4    1    3    3    0  502  0.14096299997E+03 -0.45812929507E+03  0.21342078255E+03  0.52469330250E+03  0.12699999809E+01 0.  1.
</event>
<event>
 5   0  0.1656859E-02  0.9633688E+03  0.7818609E-02  0.9349660E-01
       -2   -1    0    0    0  501  0.00000000000E+00  0.00000000000E+00  0.13114449554E+03  0.13114449557E+03  0.25500000920E-02 0. -1.
        2   -1    0    0  501    0  0.00000000000E+00  0.00000000000E+00 -0.17691923683E+04  0.17691923683E+04  0.25500000920E-02 0.  1.
    10030    2    1    2    0    0  0.00000000000E+00  0.00000000000E+00 -0.16380478727E+04  0.19003368639E+04  0.96336875740E+03 0.  0.
        4    1    3    3  502    0  0.93219288132E+02 -0.41356630856E+03 -0.36794478265E+03  0.56134829049E+03  0.12699999809E+01 0. -1.
       -4    1    3    3    0  502 -0.93219288132E+02  0.41356630856E+03 -0.12701030901E+04  0.13389885734E+04  0.12699999809E+01 0.  1.
</event>
<event>
 5   0  0.9471140E-03  0.9928325E+03  0.7818609E-02  0.9316441E-01
        1   -1    0    0  501    0  0.00000000000E+00  0.00000000000E+00  0.99065369687E+03  0.99065369688E+03  0.50400001928E-02 0. -1.
       -1   -1    0    0    0  501  0.00000000000E+00  0.00000000000E+00 -0.24875402756E+03  0.24875402761E+03  0.50400001928E-02 0.  1.
    10030    2    1    2    0    0  0.00000000000E+00  0.00000000000E+00  0.74189966931E+03  0.12394077245E+04  0.99283250763E+03 0.  0.
        4    1    3    3  502    0  0.37889356137E+03  0.34995934135E+02 -0.27043452055E+02  0.38146822601E+03  0.12699999809E+01 0.  1.
       -4    1    3    3    0  502 -0.37889356137E+03 -0.34995934135E+02  0.76894312136E+03  0.85793949848E+03  0.12699999809E+01 0. -1.
</event>
<event>
 5   0  0.1617721E-02  0.1029685E+04  0.7818609E-02  0.9276573E-01
       -2   -1    0    0    0  501  0.00000000000E+00  0.00000000000E+00  0.51547192941E+03  0.51547192941E+03  0.25500000920E-02 0.  1.
        2   -1    0    0  501    0  0.00000000000E+00  0.00000000000E+00 -0.51421338984E+03  0.51421338985E+03  0.25500000920E-02 0. -1.
    10030    2    1    2    0    0  0.00000000000E+00  0.00000000000E+00  0.12585395651E+01  0.10296853193E+04  0.10296845501E+04 0.  0.
        5    1    3    3  502    0  0.37578390741E+03  0.15301842722E+03  0.31750849609E+03  0.51522996732E+03  0.46999998093E+01 0.  1.
       -5    1    3    3    0  502 -0.37578390741E+03 -0.15301842722E+03 -0.31624995653E+03  0.51445535194E+03  0.46999998093E+01 0. -1.
</event>
<event>
 5   0  0.1000773E-02  0.8157756E+03  0.7818609E-02  0.9537459E-01
       -1   -1    0    0    0  501  0.00000000000E+00  0.00000000000E+00  0.47056438432E+03  0.47056438435E+03  0.50400001928E-02 0. -1.
        1   -1    0    0  501    0  0.00000000000E+00  0.00000000000E+00 -0.35355935046E+03  0.35355935049E+03  0.50400001928E-02 0.  1.
    10030    2    1    2    0    0  0.00000000000E+00  0.00000000000E+00  0.11700503386E+03  0.82412373484E+03  0.81577555270E+03 0.  0.
        3    1    3    3  502    0  0.26703728486E+03 -0.21469275081E+03 -0.16505494920E+03  0.38032227810E+03  0.10100000352E+00 0.  1.
       -3    1    3    3    0  502 -0.26703728486E+03  0.21469275081E+03  0.28205998306E+03  0.44380145674E+03  0.10100000352E+00 0. -1.
</event>
<event>
 5   0  0.1571895E-02  0.9997057E+03  0.7818609E-02  0.9308868E-01
       -2   -1    0    0    0  501  0.00000000000E+00  0.00000000000E+00  0.14201743248E+03  0.14201743250E+03  0.25500000920E-02 0.  1.
        2   -1    0    0  501    0  0.00000000000E+00  0.00000000000E+00 -0.17593111934E+04  0.17593111934E+04  0.25500000920E-02 0. -1.
    10030    2    1    2    0    0  0.00000000000E+00  0.00000000000E+00 -0.16172937609E+04  0.19013286259E+04  0.99970567398E+03 0.  0.
        2    1    3    3  502    0  0.18814295765E+03 -0.41061504227E+03 -0.40140121807E+03  0.60425609084E+03  0.25500000920E-02 0.  1.
       -2    1    3    3    0  502 -0.18814295765E+03  0.41061504227E+03 -0.12158925428E+04  0.12970725351E+04  0.25500000920E-02 0. -1.
</event>
<event>
 5   0  0.1656859E-02  0.9677559E+03  0.7818609E-02  0.9344634E-01
        2   -1    0    0  501    0  0.00000000000E+00  0.00000000000E+00  0.11325184114E+04  0.11325184114E+04  0.25500000920E-02 0.  1.
       -2   -1    0    0    0  501  0.00000000000E+00  0.00000000000E+00 -0.20674090292E+03  0.20674090294E+03  0.25500000920E-02 0. -1.
    10030    2    1    2    0    0  0.00000000000E+00  0.00000000000E+00  0.92577750847E+03  0.13392593143E+04  0.96775591749E+03 0.  0.
        4    1    3    3  502    0 -0.97512194903E+02  0.26452369848E+03  0.10071164173E+04  0.10458329246E+04  0.12699999809E+01 0.  1.
       -4    1    3    3    0  502  0.97512194903E+02 -0.26452369848E+03 -0.81338908846E+02  0.29342638975E+03  0.12699999809E+01 0. -1.
</event>
<event>
 5   0  0.1571895E-02  0.1000208E+04  0.7818609E-02  0.9308317E-01
        2   -1    0    0  501    0  0.00000000000E+00  0.00000000000E+00  0.54435035732E+03  0.54435035733E+03  0.25500000920E-02 0. -1.
       -2   -1    0    0    0  501  0.00000000000E+00  0.00000000000E+00 -0.45945399100E+03  0.45945399100E+03  0.25500000920E-02 0.  1.
    10030    2    1    2    0    0  0.00000000000E+00  0.00000000000E+00  0.84896366324E+02  0.10038043483E+04  0.10002078668E+04 0.  0.
        2    1    3    3  502    0 -0.18475762684E+03 -0.32544377428E+03 -0.29048993817E+03  0.47374406073E+03  0.25500000920E-02 0.  1.
       -2    1    3    3    0  502  0.18475762684E+03  0.32544377428E+03  0.37538630449E+03  0.53006028761E+03  0.25500000920E-02 0. -1.
</event>
<event>
 5   0  0.9471140E-03  0.1113433E+04  0.7818609E-02  0.9192198E-01
       -1   -1    0    0    0  501  0.00000000000E+00  0.00000000000E+00  0.18953129154E+03  0.18953129160E+03  0.50400001928E-02 0. -1.
        1   -1    0    0  501    0  0.00000000000E+00  0.00000000000E+00 -0.16352604202E+04  0.16352604202E+04  0.50400001928E-02 0.  1.
    10030    2    1    2    0    0  0.00000000000E+00  0.00000000000E+00 -0.14457291287E+04  0.18247917118E+04  0.11134325655E+04 0.  0.
        4    1    3    3  502    0  0.35439566547E+03  0.38373796086E+03 -0.40727620308E+03  0.66236442296E+03  0.12699999809E+01 0. -1.
       -4    1    3    3    0  502 -0.35439566547E+03 -0.38373796086E+03 -0.10384529256E+04  0.11624272889E+04  0.12699999809E+01 0.  1.
</event>
<event>
 5   0  0.1617721E-02  0.9866045E+03  0.7818609E-02  0.9323360E-01
        2   -1    0    0  501    0  0.00000000000E+00  0.00000000000E+00  0.57635106541E+03  0.57635106541E+03  0.25500000920E-02 0.  1.
       -2   -1    0    0    0  501  0.00000000000E+00  0.00000000000E+00 -0.42222027999E+03  0.42222027999E+03  0.25500000920E-02 0. -1.
    10030    2    1    2    0    0  0.00000000000E+00  0.00000000000E+00  0.15413078542E+03  0.99857134540E+03  0.98660449667E+03 0.  0.
        5    1    3    3  502    0  0.34357009375E+03 -0.88639098531E+02  0.42389911885E+03  0.55281990926E+03  0.46999998093E+01 0.  1.
       -5    1    3    3    0  502 -0.34357009375E+03  0.88639098531E+02 -0.26976833343E+03  0.44575143615E+03  0.46999998093E+01 0. -1.
</event>
<event>
 5   0  0.9759443E-03  0.9893231E+03  0.7818609E-02  0.9320333E-01
       -1   -1    0    0    0  501  0.00000000000E+00  0.00000000000E+00  0.98954388851E+03  0.98954388853E+03  0.50400001928E-02 0.  1.
        1   -1    0    0  501    0  0.00000000000E+00  0.00000000000E+00 -0.24727560246E+03  0.24727560251E+03  0.50400001928E-02 0. -1.
    10030    2    1    2    0    0  0.00000000000E+00  0.00000000000E+00  0.74226828606E+03  0.12368194910E+04  0.98932312463E+03 0.  0.
        2    1    3    3  502    0 -0.40962977841E+03  0.27027488675E+03  0.44865451532E+03  0.66493303715E+03  0.25500000920E-02 0.  1.
       -2    1    3    3    0  502  0.40962977841E+03 -0.27027488675E+03  0.29361377074E+03  0.57188645389E+03  0.25500000920E-02 0. -1.
</event>
<event>
 5   0  0.9507815E-03  0.9995681E+03  0.7818609E-02  0.9309019E-01
       -1   -1    0    0    0  501  0.00000000000E+00  0.00000000000E+00  0.41580811966E+03  0.41580811969E+03  0.50400001928E-02 0.  1.
        1   -1    0    0  501    0  0.00000000000E+00  0.00000000000E+00 -0.60071966781E+03  0.60071966783E+03  0.50400001928E-02 0. -1.
    10030    2    1    2    0    0  0.00000000000E+00  0.00000000000E+00 -0.18491154815E+03  0.10165277875E+04  0.99956813782E+03 0.  0.
        1    1    3    3  502    0 -0.34012086075E+03  0.11899827172E+03  0.25974578600E+03  0.44419664785E+03  0.50400001928E-02 0.  1.
       -1    1    3    3    0  502  0.34012086075E+03 -0.11899827172E+03 -0.44465733415E+03  0.57233113966E+03  0.50400001928E-02 0. -1.
</event>
<event>
 5   0  0.9396660E-03  0.8479794E+03  0.7818609E-02  0.9493053E-01
       -1   -1    0    0    0  501  0.00000000000E+00  0.00000000000E+00  0.18473272716E+03  0.18473272723E+03  0.50400001928E-02 0.  1.
        1   -1    0    0  501    0  0.00000000000E+00  0.00000000000E+00 -0.97312072962E+03  0.97312072963E+03  0.50400001928E-02 0. -1.
    10030    2    1    2    0    0  0.00000000000E+00  0.00000000000E+00 -0.78838800246E+03  0.11578534569E+04  0.84797935419E+03 0.  0.
        5    1    3    3  502    0  0.19018494830E+03 -0.39321755643E+02 -0.90877800791E+03  0.92930946013E+03  0.46999998093E+01 0. -1.
       -5    1    3    3    0  502 -0.19018494830E+03  0.39321755643E+02  0.12039000545E+03  0.22854399673E+03  0.46999998093E+01 0.  1.
</event>
<event>
 5   0  0.9471140E-03  0.1000421E+04  0.7818609E-02  0.9308083E-01
        1   -1    0    0  501    0  0.00000000000E+00  0.00000000000E+00  0.68281961103E+03  0.68281961105E+03  0.50400001928E-02 0. -1.
       -1   -1    0    0    0  501  0.00000000000E+00  0.00000000000E+00 -0.36643741579E+03  0.36643741582E+03  0.50400001928E-02 0.  1.
    10030    2    1    2    0    0  0.00000000000E+00  0.00000000000E+00  0.31638219524E+03  0.10492570269E+04  0.10004212188E+04 0.  0.
        4    1    3    3  502    0  0.28343295152E+03  0.99019537442E+02  0.57780887095E+03  0.65115575022E+03  0.12699999809E+01 0. -1.
       -4    1    3    3    0  502 -0.28343295152E+03 -0.99019537442E+02 -0.26142667571E+03  0.39810127665E+03  0.12699999809E+01 0.  1.
</event>
<event>
 5   0  0.1663497E-02  0.9568994E+03  0.7818609E-02  0.9357122E-01
       -2   -1    0    0    0  501  0.00000000000E+00  0.00000000000E+00  0.15243702796E+03  0.15243702798E+03  0.25500000920E-02 0. -1.
        2   -1    0    0  501    0  0.00000000000E+00  0.00000000000E+00 -0.15016962750E+04  0.15016962750E+04  0.25500000920E-02 0.  1.
    10030    2    1    2    0    0  0.00000000000E+00  0.00000000000E+00 -0.13492592471E+04  0.16541333030E+04  0.95689940346E+03 0.  0.
        1    1    3    3  502    0 -0.22348184718E+03  0.50922146437E+02  0.51351107764E+02  0.23489175659E+03  0.50400001928E-02 0. -1.
       -1    1    3    3    0  502  0.22348184718E+03 -0.50922146437E+02 -0.14006103548E+04  0.14192415464E+04  0.50400001928E-02 0.  1.
</event>
<event>
 5   0  0.9507815E-03  0.1004894E+04  0.7818609E-02  0.9303193E-01
       -1   -1    0    0    0  501  0.00000000000E+00  0.00000000000E+00  0.27557637682E+03  0.27557637687E+03  0.50400001928E-02 0.  1.
        1   -1    0    0  501    0  0.00000000000E+00  0.00000000000E+00 -0.91609079225E+03  0.91609079226E+03  0.50400001928E-02 0. -1.
    10030    2    1    2    0    0  0.00000000000E+00  0.00000000000E+00 -0.64051441542E+03  0.11916671691E+04  0.10048939873E+04 0.  0.
        1    1    3    3  502    0 -0.41311452104E+03 -0.38975603123E+02  0.15721771042E+02  0.41524676910E+03  0.50400001928E-02 0.  1.
       -1    1    3    3    0  502  0.41311452104E+03  0.38975603123E+02 -0.65623618647E+03  0.77642040003E+03  0.50400001928E-02 0. -1.
</event>
<event>
 5   0  0.1598986E-02  0.1078229E+04  0.7818609E-02  0.9226675E-01
       -2   -1    0    0    0  501  0.00000000000E+00  0.00000000000E+00  0.19805126273E+03  0.19805126274E+03  0.25500000920E-02 0. -1.
        2   -1    0    0  501    0  0.00000000000E+00  0.00000000000E+00 -0.14675222885E+04  0.14675222885E+04  0.25500000920E-02 0.  1.
    10030    2    1    2    0    0  0.00000000000E+00  0.00000000000E+00 -0.12694710258E+04  0.16655735512E+04  0.10782293677E+04 0.  0.
        3    1    3    3  502    0  0.27021808045E+03 -0.23372263931E+03 -0.11076514581E+02  0.35744479645E+03  0.10100000352E+00 0. -1.
       -3    1    3    3    0  502 -0.27021808045E+03  0.23372263931E+03 -0.12583945112E+04  0.13081287548E+04  0.10100000352E+00 0.  1.
</event>
<event>
 5   0  0.1663497E-02  0.9831362E+03  0.7818609E-02  0.9327237E-01
        2   -1    0    0  501    0  0.00000000000E+00  0.00000000000E+00  0.70597587425E+03  0.70597587425E+03  0.25500000920E-02 0.  1.
       -2   -1    0    0    0  501  0.00000000000E+00  0.00000000000E+00 -0.34227681789E+03  0.34227681790E+03  0.25500000920E-02 0. -1.
    10030    2    1    2    0    0  0.00000000000E+00  0.00000000000E+00  0.36369905636E+03  0.10482526922E+04  0.98313615691E+03 0.  0.
        1    1    3    3  502    0  0.21784945638E+02 -0.40029434383E+03  0.48517192978E+03  0.62936630593E+03  0.50400001928E-02 0.  1.
       -1    1    3    3    0  502 -0.21784945638E+02  0.40029434383E+03 -0.12147287343E+03  0.41888638623E+03  0.50400001928E-02 0. -1.
</event>
<event>
 5   0  0.1663497E-02  0.9901275E+03  0.7818609E-02  0.9319440E-01
       -2   -1    0    0    0  501  0.00000000000E+00  0.00000000000E+00  0.93750067062E+02  0.93750067097E+02  0.25500000920E-02 0.  1.
        2   -1    0    0  501    0  0.00000000000E+00  0.00000000000E+00 -0.26142712312E+04  0.26142712312E+04  0.25500000920E-02 0. -1.
    10030    2    1    2    0    0  0.00000000000E+00  0.00000000000E+00 -0.25205211641E+04  0.27080212983E+04  0.99012747319E+03 0.  0.
        1    1    3    3  502    0 -0.19896484004E+03 -0.36777282242E+03 -0.19851409613E+04  0.20287011837E+04  0.50400001928E-02 0. -1.
       -1    1    3    3    0  502  0.19896484004E+03  0.36777282242E+03 -0.53538020283E+03  0.67932011459E+03  0.50400001928E-02 0.  1.
</event>
<event>
 5   0  0.1617721E-02  0.9866563E+03  0.7818609E-02  0.9323302E-01
        2   -1    0    0  501    0  0.00000000000E+00  0.00000000000E+00  0.12657004944E+04  0.12657004944E+04  0.25500000920E-02 0. -1.
       -2   -1    0    0    0  501  0.00000000000E+00  0.00000000000E+00 -0.19228296364E+03  0.19228296365E+03  0.25500000920E-02 0.  1.
    10030    2    1    2    0    0  0.00000000000E+00  0.00000000000E+00  0.10734175308E+04  0.14579834581E+04  0.98665625656E+03 0.  0.
        5    1    3    3  502    0 -0.46389287759E+03 -0.18556567352E+02  0.29028412842E+03  0.54756544201E+03  0.46999998093E+01 0.  1.
       -5    1    3    3    0  502  0.46389287759E+03  0.18556567352E+02  0.78313340235E+03  0.91041801605E+03  0.46999998093E+01 0. -1.
</event>
<event>
 5   0  0.9396660E-03  0.9923603E+03  0.7818609E-02  0.9316964E-01
        1   -1    0    0  501    0  0.00000000000E+00  0.00000000000E+00  0.50861555955E+03  0.50861555958E+03  0.50400001928E-02 0.  1.
       -1   -1    0    0    0  501  0.00000000000E+00  0.00000000000E+00 -0.48404873869E+03  0.48404873872E+03  0.50400001928E-02 0. -1.
    10030    2    1    2    0    0  0.00000000000E+00  0.00000000000E+00  0.24566820856E+02  0.99266429829E+03  0.99236025738E+03 0.  0.
        5    1    3    3  502    0 -0.24304107288E+03  0.28647369386E+03 -0.31190922071E+03  0.48830891077E+03  0.46999998093E+01 0. -1.
       -5    1    3    3    0  502  0.24304107288E+03 -0.28647369386E+03  0.33647604156E+03  0.50435538752E+03  0.46999998093E+01 0.  1.
</event>
<event>
 5   0  0.1598986E-02  0.9697226E+03  0.7818609E-02  0.9342390E-01
        2   -1    0    0  501    0  0.00000000000E+00  0.00000000000E+00  0.10187586069E+04  0.10187586069E+04  0.25500000920E-02 0. -1.
       -2   -1    0    0    0  501  0.00000000000E+00  0.00000000000E+00 -0.23076173556E+03  0.23076173557E+03  0.25500000920E-02 0.  1.
    10030    2    1    2    0    0  0.00000000000E+00  0.00000000000E+00  0.78799687132E+03  0.12495203424E+04  0.96972264951E+03 0.  0.
        3    1    3    3  502    0 -0.39689883904E+03 -0.18312044106E+03  0.66437171621E+03  0.79526823894E+03  0.10100000352E+00 0. -1.
       -3    1    3    3    0  502  0.39689883904E+03  0.18312044106E+03  0.12362515511E+03  0.45425210351E+03  0.10100000352E+00 0.  1.
</event>
<event>
 5   0  0.9759443E-03  0.1033091E+04  0.7818609E-02  0.9272977E-01
        1   -1    0    0  501    0  0.00000000000E+00  0.00000000000E+00  0.85131072805E+03  0.85131072806E+03  0.50400001928E-02 0. -1.
       -1   -1    0    0    0  501  0.00000000000E+00  0.00000000000E+00 -0.31342186088E+03  0.31342186092E+03  0.50400001928E-02 0.  1.
    10030    2    1    2    0    0  0.00000000000E+00  0.00000000000E+00  0.53788886717E+03  0.11647325890E+04  0.10330912692E+04 0.  0.
        2    1    3    3  502    0 -0.47381471712E+03  0.19010491053E+03  0.35756839970E+03  0.62329401059E+03  0.25500000920E-02 0.  1.
       -2    1    3    3    0  502  0.47381471712E+03 -0.19010491053E+03  0.18032046748E+03  0.54143857839E+03  0.25500000920E-02 0. -1.
</event>
<event>
 5   0  0.9507815E-03  0.1026857E+04  0.7818609E-02  0.9279569E-01
        1   -1    0    0  501    0  0.00000000000E+00  0.00000000000E+00  0.10086882957E+04  0.10086882957E+04  0.50400001928E-02 0. -1.
       -1   -1    0    0    0  501  0.00000000000E+00  0.00000000000E+00 -0.26133837726E+03  0.26133837730E+03  0.50400001928E-02 0.  1.
    10030    2    1    2    0    0  0.00000000000E+00  0.00000000000E+00  0.74734991845E+03  0.12700266730E+04  0.10268572684E+04 0.  0.
        1    1    3    3  502    0 -0.75910113914E+02 -0.15939469574E+03  0.96996580939E+03  0.98590196563E+03  0.50400001928E-02 0. -1.
       -1    1    3    3    0  502  0.75910113914E+02  0.15939469574E+03 -0.22261589094E+03  0.28412470739E+03  0.50400001928E-02 0.  1.
</event>
<event>
 5   0  0.1000773E-02  0.1001791E+04  0.7818609E-02  0.9306583E-01
        1   -1    0    0  501    0  0.00000000000E+00  0.00000000000E+00  0.62661008977E+03  0.62661008979E+03  0.50400001928E-02 0.  1.
       -1   -1    0    0    0  501  0.00000000000E+00  0.00000000000E+00 -0.40040243382E+03  0.40040243386E+03  0.50400001928E-02 0. -1.
    10030    2    1    2    0    0  0.00000000000E+00  0.00000000000E+00  0.22620765594E+03  0.10270125236E+04  0.10017908066E+04 0.  0.
        3    1    3    3  502    0  0.89894517887E+02  0.48665188744E+03  0.19241507892E+03  0.53097519405E+03  0.10100000352E+00 0. -1.
       -3    1    3    3    0  502 -0.89894517887E+02 -0.48665188744E+03  0.33792577021E+02  0.49603732960E+03  0.10100000352E+00 0.  1.
</event>
<event>
 5   0  0.1000773E-02  0.1013962E+04  0.7818609E-02  0.9293362E-01
       -1   -1    0    0    0  501  0.00000000000E+00  0.00000000000E+00  0.66028481142E+03  0.66028481144E+03  0.50400001928E-02 0. -1.
        1   -1    0    0  501    0  0.00000000000E+00  0.00000000000E+00 -0.38927128274E+03  0.38927128277E+03  0.50400001928E-02 0.  1.
    10030    2    1    2    0    0  0.00000000000E+00  0.00000000000E+00  0.27101352869E+03  0.10495560942E+04  0.10139623574E+04 0.  0.
        3    1    3    3  502    0  0.20595403973E+03  0.26645356357E+03  0.52777598587E+03  0.62606874182E+03  0.10100000352E+00 0. -1.
       -3    1    3    3    0  502 -0.20595403973E+03 -0.26645356357E+03 -0.25676245719E+03  0.42348735240E+03  0.10100000352E+00 0.  1.
</event>
<event>
 5   0  0.1571895E-02  0.8992635E+03  0.7818609E-02  0.9426503E-01
       -2   -1    0    0    0  501  0.00000000000E+00  0.00000000000E+00  0.12283387972E+03  0.12283387975E+03  0.25500000920E-02 0. -1.
        2   -1    0    0  501    0  0.00000000000E+00  0.00000000000E+00 -0.16458708250E+04  0.16458708250E+04  0.25500000920E-02 0.  1.
    10030    2    1    2    0    0  0.00000000000E+00  0.00000000000E+00 -0.15230369453E+04  0.17687047047E+04  0.89926347415E+03 0.  0.
        2    1    3    3  502    0 -0.43287034232E+03  0.82608381219E+02 -0.93708356267E+03  0.10355319799E+04  0.25500000920E-02 0.  1.
       -2    1    3    3    0  502  0.43287034232E+03 -0.82608381219E+02 -0.58595338260E+03  0.73317272487E+03  0.25500000920E-02 0. -1.
</event>
<event>
 5   0  0.9396660E-03  0.9925427E+03  0.7818609E-02  0.9316762E-01
       -1   -1    0    0    0  501  0.00000000000E+00  0.00000000000E+00  0.15575421812E+03  0.15575421820E+03  0.50400001928E-02 0. -1.
        1   -1    0    0  501    0  0.00000000000E+00  0.00000000000E+00 -0.15812429666E+04  0.15812429666E+04  0.50400001928E-02 0.  1.
    10030    2    1    2    0    0  0.00000000000E+00  0.00000000000E+00 -0.14254887485E+04  0.17369971848E+04  0.99254271846E+03 0.  0.
        5    1    3    3  502    0  0.44762855845E+03  0.19939336329E+03 -0.57567940366E+03  0.75601448760E+03  0.46999998093E+01 0. -1.
       -5    1    3    3    0  502 -0.44762855845E+03 -0.19939336329E+03 -0.84980934481E+03  0.98098269719E+03  0.46999998093E+01 0.  1.
</event>
<event>
 5   0  0.1617721E-02  0.1094904E+04  0.7818609E-02  0.9210173E-01
        2   -1    0    0  501    0  0.00000000000E+00  0.00000000000E+00  0.42221407429E+03  0.42221407429E+03  0.25500000920E-02 0.  1.
       -2   -1    0    0    0  501  0.00000000000E+00  0.00000000000E+00 -0.70983786608E+03  0.70983786609E+03  0.25500000920E-02 0. -1.
    10030    2    1    2    0    0  0.00000000000E+00  0.00000000000E+00 -0.28762379180E+03  0.11320519404E+04  0.10949037173E+04 0.  0.
        5    1    3    3  502    0  0.19262552858E+03  0.19904117153E+03 -0.63201819690E+03  0.69006599209E+03  0.46999998093E+01 0. -1.
       -5    1    3    3    0  502 -0.19262552858E+03 -0.19904117153E+03  0.34439440510E+03  0.44198594829E+03  0.46999998093E+01 0.  1.
</event>
<event>
 5   0  0.9759443E-03  0.7062134E+03  0.7818609E-02  0.9706665E-01
        1   -1    0    0  501    0  0.00000000000E+00  0.00000000000E+00  0.17929518956E+04  0.17929518956E+04  0.50400001928E-02 0. -1.
       -1   -1    0    0    0  501  0.00000000000E+00  0.00000000000E+00 -0.69541370330E+02  0.69541370512E+02  0.50400001928E-02 0.  1.
    10030    2    1    2    0    0  0.00000000000E+00  0.00000000000E+00  0.17234105252E+04  0.18624932661E+04  0.70621337265E+03 0.  0.
        2    1    3    3  502    0  0.29337938814E+03  0.12146178689E+03  0.45433146497E+03  0.55429370476E+03  0.25500000920E-02 0.  1.
       -2    1    3    3    0  502 -0.29337938814E+03 -0.12146178689E+03  0.12690790603E+04  0.13081995613E+04  0.25500000920E-02 0. -1.
</event>
<event>
 5   0  0.6314750E-03  0.1004983E+04  0.7818609E-02  0.9303096E-01
        4   -1    0    0  501    0  0.00000000000E+00  0.00000000000E+00  0.64606236586E+03  0.64606361411E+03  0.12699999809E+01 0. -1.
       -4   -1    0    0    0  501  0.00000000000E+00  0.00000000000E+00 -0.39082310003E+03  0.39082516349E+03  0.12699999809E+01 0.  1.
    10030    2    1    2    0    0  0.00000000000E+00  0.00000000000E+00  0.25523926583E+03  0.10368887776E+04  0.10049832109E+04 0.  0.
        4    1    3    3  502    0 -0.19645527514E+03 -0.21332912522E+03  0.55100355883E+03  0.62266405512E+03  0.12699999809E+01 0. -1.
       -4    1    3    3    0  502  0.19645527514E+03  0.21332912522E+03 -0.29576429300E+03  0.41422472248E+03  0.12699999809E+01 0.  1.
</event>
<event>
 5   0  0.9507815E-03  0.9081318E+03  0.7818609E-02  0.9415473E-01
        1   -1    0    0  501    0  0.00000000000E+00  0.00000000000E+00  0.83080741687E+03  0.83080741688E+03  0.50400001928E-02 0.  1.
       -1   -1    0    0    0  501  0.00000000000E+00  0.00000000000E+00 -0.24816319647E+03  0.24816319652E+03  0.50400001928E-02 0. -1.
    10030    2    1    2    0    0  0.00000000000E+00  0.00000000000E+00  0.58264422039E+03  0.10789706134E+04  0.90813176194E+03 0.  0.
        1    1    3    3  502    0  0.15319922346E+03  0.11163724926E+03 -0.19890273161E+03  0.27476385162E+03  0.50400001928E-02 0. -1.
       -1    1    3    3    0  502 -0.15319922346E+03 -0.11163724926E+03  0.78154695200E+03  0.80420676178E+03  0.50400001928E-02 0.  1.
</event>
<event>
 5   0  0.9759443E-03  0.9906076E+03  0.7818609E-02  0.9318907E-01
       -1   -1    0    0    0  501  0.00000000000E+00  0.00000000000E+00  0.30448115486E+03  0.30448115490E+03  0.50400001928E-02 0. -1.
        1   -1    0    0  501    0  0.00000000000E+00  0.00000000000E+00 -0.80571771998E+03  0.80571772000E+03  0.50400001928E-02 0.  1.
    10030    2    1    2    0    0  0.00000000000E+00  0.00000000000E+00 -0.50123656513E+03  0.11101988749E+04  0.99060761536E+03 0.  0.
        2    1    3    3  502    0  0.41498336190E+03 -0.95840765180E+02  0.32748422215E+02  0.42716402246E+03  0.25500000920E-02 0. -1.
       -2    1    3    3    0  502 -0.41498336190E+03  0.95840765180E+02 -0.53398498734E+03  0.68303485243E+03  0.25500000920E-02 0.  1.
</event>
<event>
 5   0  0.1663497E-02  0.1020573E+04  0.7818609E-02  0.9286264E-01
        2   -1    0    0  501    0  0.00000000000E+00  0.00000000000E+00  0.14762960913E+04  0.14762960913E+04  0.25500000920E-02 0. -1.
       -2   -1    0    0    0  501  0.00000000000E+00  0.00000000000E+00 -0.17638226995E+03  0.17638226997E+03  0.25500000920E-02 0.  1.
    10030    2    1    2    0    0  0.00000000000E+00  0.00000000000E+00  0.12999138213E+04  0.16526783612E+04  0.10205732815E+04 0.  0.
        1    1    3    3  502    0  0.21583289941E+03  0.39511215640E+03  0.10389243357E+04  0.11322814279E+04  0.50400001928E-02 0.  1.
       -1    1    3    3    0  502 -0.21583289941E+03 -0.39511215640E+03  0.26098948560E+03  0.52039693333E+03  0.50400001928E-02 0. -1.
</event>
<event>
 5   0  0.1663497E-02  0.1032526E+04  0.7818609E-02  0.9273573E-01
       -2   -1    0    0    0  501  0.00000000000E+00  0.00000000000E+00  0.23525144788E+03  0.23525144789E+03  0.25500000920E-02 0. -1.
        2   -1    0    0  501    0  0.00000000000E+00  0.00000000000E+00 -0.11329475880E+04  0.11329475880E+04  0.25500000920E-02 0.  1.
    10030    2    1    2    0    0  0.00000000000E+00  0.00000000000E+00 -0.89769614013E+03  0.13681990359E+04  0.10325261458E+04 0.  0.
        1    1    3    3  502    0 -0.49281139974E+02  0.30848818105E+03  0.95788399340E+02  0.32675526939E+03  0.50400001928E-02 0. -1.
       -1    1    3    3    0  502  0.49281139974E+02 -0.30848818105E+03 -0.99348453947E+03  0.10414437665E+04  0.50400001928E-02 0.  1.
</event>
<event>
 5   0  0.6314750E-03  0.9523213E+03  0.7818609E-02  0.9362441E-01
       -3   -1    0    0    0  501  0.00000000000E+00  0.00000000000E+00  0.15636005654E+04  0.15636005687E+04  0.10100000352E+00 0. -1.
        3   -1    0    0  501    0  0.00000000000E+00  0.00000000000E+00 -0.14500436596E+03  0.14500440113E+03  0.10100000352E+00 0.  1.
    10030    2    1    2    0    0  0.00000000000E+00  0.00000000000E+00  0.14185961994E+04  0.17086049698E+04  0.95232125134E+03 0.  0.
        2    1    3    3  502    0  0.23598975284E+03  0.37700604583E+03  0.40427072850E+03  0.60104870349E+03  0.25500000920E-02 0. -1.
       -2    1    3    3    0  502 -0.23598975284E+03 -0.37700604583E+03  0.10143254709E+04  0.11075562663E+04  0.25500000920E-02 0.  1.
</event>
<event>
 5   0  0.9471140E-03  0.1011494E+04  0.7818609E-02  0.9296028E-01
       -1   -1    0    0    0  501  0.00000000000E+00  0.00000000000E+00  0.15183492736E+03  0.15183492745E+03  0.50400001928E-02 0.  1.
        1   -1    0    0  501    0  0.00000000000E+00  0.00000000000E+00 -0.16845917597E+04  0.16845917597E+04  0.50400001928E-02 0. -1.
    10030    2    1    2    0    0  0.00000000000E+00  0.00000000000E+00 -0.15327568323E+04  0.18364266871E+04  0.10114936827E+04 0.  0.
        4    1    3    3  502    0  0.20467496567E+02 -0.48007144507E+03 -0.10528155757E+04  0.11572855137E+04  0.12699999809E+01 0.  1.
       -4    1    3    3    0  502 -0.20467496567E+02  0.48007144507E+03 -0.47994125657E+03  0.67914117343E+03  0.12699999809E+01 0. -1.
</event>
<event>
 5   0  0.1617721E-02  0.1007739E+04  0.7818609E-02  0.9300098E-01
        2   -1    0    0  501    0  0.00000000000E+00  0.00000000000E+00  0.18354331508E+04  0.18354331508E+04  0.25500000920E-02 0. -1.
       -2   -1    0    0    0  501  0.00000000000E+00  0.00000000000E+00 -0.13832390897E+03  0.13832390900E+03  0.25500000920E-02 0.  1.
    10030    2    1    2    0    0  0.00000000000E+00  0.00000000000E+00  0.16971092418E+04  0.19737570598E+04  0.10077386330E+04 0.  0.
        5    1    3    3  502    0  0.36639526006E+03  0.29802707669E+03  0.11922684330E+04  0.12824163643E+04  0.46999998093E+01 0. -1.
       -5    1    3    3    0  502 -0.36639526006E+03 -0.29802707669E+03  0.50484080882E+03  0.69134069552E+03  0.46999998093E+01 0.  1.
</event>
<event>
 5   0  0.9396660E-03  0.1007728E+04  0.7818609E-02  0.9300110E-01
       -1   -1    0    0    0  501  0.00000000000E+00  0.00000000000E+00  0.17866653883E+03  0.17866653890E+03  0.50400001928E-02 0.  1.
        1   -1    0    0  501    0  0.00000000000E+00  0.00000000000E+00 -0.14209644886E+04  0.14209644886E+04  0.50400001928E-02 0. -1.
    10030    2    1    2    0    0  0.00000000000E+00  0.00000000000E+00 -0.12422979497E+04  0.15996310275E+04  0.10077277550E+04 0.  0.
        5    1    3    3  502    0  0.16998263601E+02  0.48914450626E+03 -0.43129179390E+03  0.65236951987E+03  0.46999998093E+01 0.  1.
       -5    1    3    3    0  502 -0.16998263601E+02 -0.48914450626E+03 -0.81100615584E+03  0.94726150760E+03  0.46999998093E+01 0. -1.
</event>
<event>
 5   0  0.9759443E-03  0.1042308E+04  0.7818609E-02  0.9263322E-01
       -1   -1    0    0    0  501  0.00000000000E+00  0.00000000000E+00  0.21531040298E+03  0.21531040304E+03  0.50400001928E-02 0.  1.
        1   -1    0    0  501    0  0.00000000000E+00  0.00000000000E+00 -0.12614416013E+04  0.12614416013E+04  0.50400001928E-02 0. -1.
    10030    2    1    2    0    0  0.00000000000E+00  0.00000000000E+00 -0.10461311984E+04  0.14767520044E+04  0.10423080151E+04 0.  0.
        2    1    3    3  502    0 -0.26141561046E+03 -0.42769941318E+03 -0.72511174002E+03  0.88150549910E+03  0.25500000920E-02 0. -1.
       -2    1    3    3    0  502  0.26141561046E+03  0.42769941318E+03 -0.32101945833E+03  0.59524650529E+03  0.25500000920E-02 0.  1.
</event>
<event>
 5   0  0.1617721E-02  0.1281717E+04  0.7818609E-02  0.9044191E-01
       -2   -1    0    0    0  501  0.00000000000E+00  0.00000000000E+00  0.15968374183E+03  0.15968374185E+03  0.25500000920E-02 0. -1.
        2   -1    0    0  501    0  0.00000000000E+00  0.00000000000E+00 -0.25719551375E+04  0.25719551375E+04  0.25500000920E-02 0.  1.
    10030    2    1    2    0    0  0.00000000000E+00  0.00000000000E+00 -0.24122713957E+04  0.27316388794E+04  0.12817166929E+04 0.  0.
        5    1    3    3  502    0  0.33556624098E+03  0.31847217951E+03 -0.21512321244E+04  0.22004206357E+04  0.46999998093E+01 0.  1.
       -5    1    3    3    0  502 -0.33556624098E+03 -0.31847217951E+03 -0.26103927132E+03  0.53121824364E+03  0.46999998093E+01 0. -1.
</event>
<event>
 5   0  0.1663497E-02  0.9732651E+03  0.7818609E-02  0.9338363E-01
        2   -1    0    0  501    0  0.00000000000E+00  0.00000000000E+00  0.85403766398E+03  0.85403766399E+03  0.25500000920E-02 0. -1.
       -2   -1    0    0    0  501  0.00000000000E+00  0.00000000000E+00 -0.27728430071E+03  0.27728430072E+03  0.25500000920E-02 0.  1.
    10030    2    1    2    0    0  0.00000000000E+00  0.00000000000E+00  0.57675336327E+03  0.11313219647E+04  0.97326509533E+03 0.  0.
        1    1    3    3  502    0 -0.54793227277E+02  0.14767674840E+03  0.82358583263E+03  0.83851317432E+03  0.50400001928E-02 0. -1.
       -1    1    3    3    0  502  0.54793227277E+02 -0.14767674840E+03 -0.24683246936E+03  0.29280879039E+03  0.50400001928E-02 0.  1.
</event>
<event>
 5   0  0.9759443E-03  0.1006731E+04  0.7818609E-02  0.9301193E-01
       -1   -1    0    0    0  501  0.00000000000E+00  0.00000000000E+00  0.25712825997E+03  0.25712826002E+03  0.50400001928E-02 0.  1.
        1   -1    0    0  501    0  0.00000000000E+00  0.00000000000E+00 -0.98541113883E+03  0.98541113884E+03  0.50400001928E-02 0. -1.
    10030    2    1    2    0    0  0.00000000000E+00  0.00000000000E+00 -0.72828287886E+03  0.12425393989E+04  0.10067314469E+04 0.  0.
        2    1    3    3  502    0 -0.33753182143E+03 -0.80544488957E+00 -0.82503827411E+03  0.89141266144E+03  0.25500000920E-02 0. -1.
       -2    1    3    3    0  502  0.33753182143E+03  0.80544488957E+00  0.96755395253E+02  0.35112673742E+03  0.25500000920E-02 0.  1.
</event>
<event>
 5   0  0.9396660E-03  0.9638479E+03  0.7818609E-02  0.9349109E-01
       -1   -1    0    0    0  501  0.00000000000E+00  0.00000000000E+00  0.24707330220E+03  0.24707330225E+03  0.50400001928E-02 0.  1.
        1   -1    0    0  501    0  0.00000000000E+00  0.00000000000E+00 -0.94000730946E+03  0.94000730947E+03  0.50400001928E-02 0. -1.
    10030    2    1    2    0    0  0.00000000000E+00  0.00000000000E+00 -0.69293400726E+03  0.11870806117E+04  0.96384793423E+03 0.  0.
        5    1    3    3  502    0 -0.11391610039E+03 -0.21514562954E+02  0.22961498795E+03  0.25726423582E+03  0.46999998093E+01 0.  1.
       -5    1    3    3    0  502  0.11391610039E+03  0.21514562954E+02 -0.92254899520E+03  0.92981637590E+03  0.46999998093E+01 0. -1.
</event>
<event>
 5   0  0.1000773E-02  0.9158006E+03  0.7818609E-02  0.9406043E-01
        1   -1    0    0  501    0  0.00000000000E+00  0.00000000000E+00  0.39388160709E+03  0.39388160712E+03  0.50400001928E-02 0.  1.
       -1   -1    0    0    0  501  0.00000000000E+00  0.00000000000E+00 -0.53232416141E+03  0.53232416143E+03  0.50400001928E-02 0. -1.
    10030    2    1    2    0    0  0.00000000000E+00  0.00000000000E+00 -0.13844255432E+03  0.92620576855E+03  0.91580062505E+03 0.  0.
        3    1    3    3  502    0 -0.18937677115E+03  0.32009659116E+03 -0.33936526576E+03  0.50348205820E+03  0.10100000352E+00 0. -1.
       -3    1    3    3    0  502  0.18937677115E+03 -0.32009659116E+03  0.20092271144E+03  0.42272371035E+03  0.10100000352E+00 0.  1.
</event>
<event>
 5   0  0.1000773E-02  0.1007283E+04  0.7818609E-02  0.9300593E-01
       -1   -1    0    0    0  501  0.00000000000E+00  0.00000000000E+00  0.20631720060E+03  0.20631720066E+03  0.50400001928E-02 0.  1.
        1   -1    0    0  501    0  0.00000000000E+00  0.00000000000E+00 -0.12294397967E+04  0.12294397967E+04  0.50400001928E-02 0. -1.
    10030    2    1    2    0    0  0.00000000000E+00  0.00000000000E+00 -0.10231225961E+04  0.14357569974E+04  0.10072826360E+04 0.  0.
        3    1    3    3  502    0  0.44606830340E+03  0.18696040556E+03 -0.71174142159E+03  0.86052715585E+03  0.10100000352E+00 0.  1.
       -3    1    3    3    0  502 -0.44606830340E+03 -0.18696040556E+03 -0.31138117454E+03  0.57522984154E+03  0.10100000352E+00 0. -1.
</event>
<event>
 5   0  0.9396660E-03  0.6665273E+03  0.7818609E-02  0.9776252E-01
       -1   -1    0    0    0  501  0.00000000000E+00  0.00000000000E+00  0.46849914205E+03  0.46849914208E+03  0.50400001928E-02 0. -1.
        1   -1    0    0  501    0  0.00000000000E+00  0.00000000000E+00 -0.23706483441E+03  0.23706483446E+03  0.50400001928E-02 0.  1.
    10030    2    1    2    0    0  0.00000000000E+00  0.00000000000E+00  0.23143430764E+03  0.70556397654E+03  0.66652733345E+03 0.  0.
        5    1    3    3  502    0 -0.35897960214E+02 -0.27804890756E+03 -0.74950527241E+02  0.29024046939E+03  0.46999998093E+01 0.  1.
       -5    1    3    3    0  502  0.35897960214E+02  0.27804890756E+03  0.30638483488E+03  0.41532350714E+03  0.46999998093E+01 0. -1.
</event>
<event>
 5   0  0.9471140E-03  0.1017286E+04  0.7818609E-02  0.9289786E-01
        1   -1    0    0  501    0  0.00000000000E+00  0.00000000000E+00  0.12229287775E+04  0.12229287775E+04  0.50400001928E-02 0. -1.
       -1   -1    0    0    0  501  0.00000000000E+00  0.00000000000E+00 -0.21155583843E+03  0.21155583849E+03  0.50400001928E-02 0.  1.
    10030    2    1    2    0    0  0.00000000000E+00  0.00000000000E+00  0.10113729391E+04  0.14344846160E+04  0.10172860422E+04 0.  0.
        4    1    3    3  502    0  0.37977393239E+03 -0.23433152320E+03  0.16150245641E+03  0.47457787434E+03  0.12699999809E+01 0.  1.
       -4    1    3    3    0  502 -0.37977393239E+03  0.23433152320E+03  0.84987048264E+03  0.95990674165E+03  0.12699999809E+01 0. -1.
</event>
<event>
 5   0  0.9396660E-03  0.9547782E+03  0.7818609E-02  0.9359583E-01
        1   -1    0    0  501    0  0.00000000000E+00  0.00000000000E+00  0.44860032021E+03  0.44860032023E+03  0.50400001928E-02 0.  1.
       -1   -1    0    0    0  501  0.00000000000E+00  0.00000000000E+00 -0.50802538477E+03  0.50802538479E+03  0.50400001928E-02 0. -1.
    10030    2    1    2    0    0  0.00000000000E+00  0.00000000000E+00 -0.59425064562E+02  0.95662570503E+03  0.95477819478E+03 0.  0.
        5    1    3    3  502    0 -0.13688929842E+03 -0.44342676600E+03  0.82362234047E+02  0.47135082945E+03  0.46999998093E+01 0.  1.
       -5    1    3    3    0  502  0.13688929842E+03  0.44342676600E+03 -0.14178729861E+03  0.48527487558E+03  0.46999998093E+01 0. -1.
</event>
<event>
 5   0  0.1656859E-02  0.9014030E+03  0.7818609E-02  0.9423829E-01
       -2   -1    0    0    0  501  0.00000000000E+00  0.00000000000E+00  0.10238697691E+03  0.10238697694E+03  0.25500000920E-02 0. -1.
        2   -1    0    0  501    0  0.00000000000E+00  0.00000000000E+00 -0.19839616891E+04  0.19839616891E+04  0.25500000920E-02 0.  1.
    10030    2    1    2    0    0  0.00000000000E+00  0.00000000000E+00 -0.18815747121E+04  0.20863486660E+04  0.90140299462E+03 0.  0.
        4    1    3    3  502    0 -0.54837362777E+02 -0.44143767429E+03 -0.77298803282E+03  0.89184441941E+03  0.12699999809E+01 0. -1.
       -4    1    3    3    0  502  0.54837362777E+02  0.44143767429E+03 -0.11085866793E+04  0.11945042466E+04  0.12699999809E+01 0.  1.
</event>
<event>
 5   0  0.1000773E-02  0.1179374E+04  0.7818609E-02  0.9131104E-01
       -1   -1    0    0    0  501  0.00000000000E+00  0.00000000000E+00  0.30988938925E+03  0.30988938929E+03  0.50400001928E-02 0.  1.
        1   -1    0    0  501    0  0.00000000000E+00  0.00000000000E+00 -0.11221133453E+04  0.11221133453E+04  0.50400001928E-02 0. -1.
    10030    2    1    2    0    0  0.00000000000E+00  0.00000000000E+00 -0.81222395602E+03  0.14320027346E+04  0.11793744431E+04 0.  0.
        3    1    3    3  502    0  0.10501388862E+03 -0.56444304840E+03 -0.56949880289E+03  0.80867346215E+03  0.10100000352E+00 0.  1.
       -3    1    3    3    0  502 -0.10501388862E+03  0.56444304840E+03 -0.24272515313E+03  0.62332927242E+03  0.10100000352E+00 0. -1.
</event>
<event>
 5   0  0.1598986E-02  0.1019278E+04  0.7818609E-02  0.9287651E-01
        2   -1    0    0  501    0  0.00000000000E+00  0.00000000000E+00  0.12195945416E+04  0.12195945416E+04  0.25500000920E-02 0.  1.
       -2   -1    0    0    0  501  0.00000000000E+00  0.00000000000E+00 -0.21296560943E+03  0.21296560944E+03  0.25500000920E-02 0. -1.
    10030    2    1    2    0    0  0.00000000000E+00  0.00000000000E+00  0.10066289321E+04  0.14325601510E+04  0.10192775771E+04 0.  0.
        3    1    3    3  502    0  0.41926654923E+03 -0.20625458057E+03  0.21732267139E+03  0.51531984729E+03  0.10100000352E+00 0. -1.
       -3    1    3    3    0  502 -0.41926654923E+03  0.20625458057E+03  0.78930626075E+03  0.91724030372E+03  0.10100000352E+00 0.  1.
</event>
<event>
 5   0  0.1598986E-02  0.1021012E+04  0.7818609E-02  0.9285795E-01
       -2   -1    0    0    0  501  0.00000000000E+00  0.00000000000E+00  0.32541155186E+03  0.32541155187E+03  0.25500000920E-02 0.  1.
        2   -1    0    0  501    0  0.00000000000E+00  0.00000000000E+00 -0.80088203123E+03  0.80088203123E+03  0.25500000920E-02 0. -1.
    10030    2    1    2    0    0  0.00000000000E+00  0.00000000000E+00 -0.47547047937E+03  0.11262935831E+04  0.10210117818E+04 0.  0.
        3    1    3    3  502    0 -0.49515760620E+03  0.35741611465E+02 -0.36899081849E+03  0.61855699180E+03  0.10100000352E+00 0. -1.
       -3    1    3    3    0  502  0.49515760620E+03 -0.35741611465E+02 -0.10647966088E+03  0.50773659130E+03  0.10100000352E+00 0.  1.
</event>
<event>
 5   0  0.6314750E-03  0.9958233E+03  0.7818609E-02  0.9313138E-01
        4   -1    0    0  501    0  0.00000000000E+00  0.00000000000E+00  0.31997520173E+03  0.31997772207E+03  0.12699999809E+01 0. -1.
       -4   -1    0    0    0  501  0.00000000000E+00  0.00000000000E+00 -0.77479149079E+03  0.77479253165E+03  0.12699999809E+01 0.  1.
    10030    2    1    2    0    0  0.00000000000E+00  0.00000000000E+00 -0.45481628905E+03  0.10947702537E+04  0.99582330342E+03 0.  0.
        4    1    3    3  502    0 -0.47265198277E+03 -0.25842909599E+00 -0.39953619902E+03  0.61889478171E+03  0.12699999809E+01 0. -1.
       -4    1    3    3    0  502  0.47265198277E+03  0.25842909599E+00 -0.55280090032E+02  0.47587547201E+03  0.12699999809E+01 0.  1.
</event>
<event>
 5   0  0.1617721E-02  0.1070877E+04  0.7818609E-02  0.9234051E-01
       -2   -1    0    0    0  501  0.00000000000E+00  0.00000000000E+00  0.23748033577E+03  0.23748033579E+03  0.25500000920E-02 0.  1.
        2   -1    0    0  501    0  0.00000000000E+00  0.00000000000E+00 -0.12072343962E+04  0.12072343962E+04  0.25500000920E-02 0. -1.
    10030    2    1    2    0    0  0.00000000000E+00  0.00000000000E+00 -0.96975406039E+03  0.14447147319E+04  0.10708770793E+04 0.  0.
        5    1    3    3  502    0  0.20495039116E+03  0.17531762326E+03  0.13911602021E+03  0.30350665386E+03  0.46999998093E+01 0.  1.
       -5    1    3    3    0  502 -0.20495039116E+03 -0.17531762326E+03 -0.11088700806E+04  0.11412080781E+04  0.46999998093E+01 0. -1.
</event>
<event>
 5   0  0.9396660E-03  0.1006969E+04  0.7818609E-02  0.9300934E-01
       -1   -1    0    0    0  501  0.00000000000E+00  0.00000000000E+00  0.22573540341E+03  0.22573540346E+03  0.50400001928E-02 0.  1.
        1   -1    0    0  501    0  0.00000000000E+00  0.00000000000E+00 -0.11229816413E+04  0.11229816413E+04  0.50400001928E-02 0. -1.
    10030    2    1    2    0    0  0.00000000000E+00  0.00000000000E+00 -0.89724623792E+03  0.13487170448E+04  0.10069691433E+04 0.  0.
        5    1    3    3  502    0 -0.17820049963E+03  0.15166178307E+03 -0.10456902838E+04  0.10715628652E+04  0.46999998093E+01 0. -1.
       -5    1    3    3    0  502  0.17820049963E+03 -0.15166178307E+03  0.14844404586E+03  0.27715417959E+03  0.46999998093E+01 0.  1.
</event>
<event>
 5   0  0.9759443E-03  0.9985697E+03  0.7818609E-02  0.9310115E-01
        1   -1    0    0  501    0  0.00000000000E+00  0.00000000000E+00  0.89934328167E+03  0.89934328168E+03  0.50400001928E-02 0. -1.
       -1   -1    0    0    0  501  0.00000000000E+00  0.00000000000E+00 -0.27718601544E+03  0.27718601549E+03  0.50400001928E-02 0.  1.
    10030    2    1    2    0    0  0.00000000000E+00  0.00000000000E+00  0.62215726623E+03  0.11765292972E+04  0.99856973876E+03 0.  0.
        2    1    3    3  502    0 -0.37930570063E+03 -0.33791854585E+02  0.69153551272E+03  0.78945301908E+03  0.25500000920E-02 0. -1.
       -2    1    3    3    0  502  0.37930570063E+03  0.33791854585E+02 -0.69378246489E+02  0.38707627809E+03  0.25500000920E-02 0.  1.
</event>
<event>
 5   0  0.1617721E-02  0.1018432E+04  0.7818609E-02  0.9288557E-01
        2   -1    0    0  501    0  0.00000000000E+00  0.00000000000E+00  0.18990702764E+04  0.18990702764E+04  0.25500000920E-02 0. -1.
       -2   -1    0    0    0  501  0.00000000000E+00  0.00000000000E+00 -0.13654087935E+03  0.13654087938E+03  0.25500000920E-02 0.  1.
    10030    2    1    2    0    0  0.00000000000E+00  0.00000000000E+00  0.17625293970E+04  0.20356111558E+04  0.10184315893E+04 0.  0.
        5    1    3    3  502    0 -0.47066495491E+02 -0.17792329425E+03  0.18302213050E+04  0.18394575475E+04  0.46999998093E+01 0. -1.
       -5    1    3    3    0  502  0.47066495491E+02  0.17792329425E+03 -0.67691907993E+02  0.19615360828E+03  0.46999998093E+01 0.  1.
</event>
<event>
 5   0  0.1663497E-02  0.1011783E+04  0.7818609E-02  0.9295715E-01
        2   -1    0    0  501    0  0.00000000000E+00  0.00000000000E+00  0.14296507195E+04  0.14296507195E+04  0.25500000920E-02 0. -1.
       -2   -1    0    0    0  501  0.00000000000E+00  0.00000000000E+00 -0.17901297209E+03  0.17901297211E+03  0.25500000920E-02 0.  1.
    10030    2    1    2    0    0  0.00000000000E+00  0.00000000000E+00  0.12506377474E+04  0.16086636916E+04  0.10117826335E+04 0.  0.
        1    1    3    3  502    0  0.94783847851E+02 -0.24704474440E+03  0.13108552636E+04  0.13372945097E+04  0.50400001928E-02 0. -1.
       -1    1    3    3    0  502 -0.94783847851E+02  0.24704474440E+03 -0.60217516277E+02  0.27136918182E+03  0.50400001928E-02 0.  1.
</event>
<event>
 5   0  0.9759443E-03  0.1006992E+04  0.7818609E-02  0.9300909E-01
       -1   -1    0    0    0  501  0.00000000000E+00  0.00000000000E+00  0.70745739831E+03  0.70745739833E+03  0.50400001928E-02 0. -1.
        1   -1    0    0  501    0  0.00000000000E+00  0.00000000000E+00 -0.35833738542E+03  0.35833738546E+03  0.50400001928E-02 0.  1.
    10030    2    1    2    0    0  0.00000000000E+00  0.00000000000E+00  0.34912001289E+03  0.10657947838E+04  0.10069924219E+04 0.  0.
        2    1    3    3  502    0 -0.50236704514E+03 -0.15166539656E+02  0.14270669807E+03  0.52246327493E+03  0.25500000920E-02 0. -1.
       -2    1    3    3    0  502  0.50236704514E+03  0.15166539656E+02  0.20641331482E+03  0.54333150885E+03  0.25500000920E-02 0.  1.
</event>
<event>
 5   0  0.1663497E-02  0.9760374E+03  0.7818609E-02  0.9335224E-01
        2   -1    0    0  501    0  0.00000000000E+00  0.00000000000E+00  0.18165876099E+04  0.18165876099E+04  0.25500000920E-02 0. -1.
       -2   -1    0    0    0  501  0.00000000000E+00  0.00000000000E+00 -0.13110419205E+03  0.13110419207E+03  0.25500000920E-02 0.  1.
    10030    2    1    2    0    0  0.00000000000E+00  0.00000000000E+00  0.16854834178E+04  0.19476918020E+04  0.97603739869E+03 0.  0.
        1    1    3    3  502    0 -0.12036764993E+03  0.41534952464E+03  0.39139183628E+03  0.58325909191E+03  0.50400001928E-02 0.  1.
       -1    1    3    3    0  502  0.12036764993E+03 -0.41534952464E+03  0.12940915816E+04  0.13644327101E+04  0.50400001928E-02 0. -1.
</event>
<event>
 5   0  0.9471140E-03  0.9788582E+03  0.7818609E-02  0.9332042E-01
        1   -1    0    0  501    0  0.00000000000E+00  0.00000000000E+00  0.88239572669E+03  0.88239572670E+03  0.50400001928E-02 0. -1.
       -1   -1    0    0    0  501  0.00000000000E+00  0.00000000000E+00 -0.27146645689E+03  0.27146645694E+03  0.50400001928E-02 0.  1.
    10030    2    1    2    0    0  0.00000000000E+00  0.00000000000E+00  0.61092926980E+03  0.11538621836E+04  0.97885819511E+03 0.  0.
        4    1    3    3  502    0  0.20351244424E+03  0.13412594840E+02 -0.21898423456E+03  0.29925393990E+03  0.12699999809E+01 0.  1.
       -4    1    3    3    0  502 -0.20351244424E+03 -0.13412594840E+02  0.82991350435E+03  0.85460824374E+03  0.12699999809E+01 0. -1.
</event>
<event>
 5   0  0.6314750E-03  0.1061743E+04  0.7818609E-02  0.9243303E-01
       -3   -1    0    0    0  501  0.00000000000E+00  0.00000000000E+00  0.99504668988E+03  0.99504669500E+03  0.10100000352E+00 0.  1.
        3   -1    0    0  501    0  0.00000000000E+00  0.00000000000E+00 -0.28322742062E+03  0.28322743863E+03  0.10100000352E+00 0. -1.
    10030    2    1    2    0    0  0.00000000000E+00  0.00000000000E+00  0.71181926926E+03  0.12782741336E+04  0.10617429485E+04 0.  0.
        5    1    3    3  502    0  0.33404651024E+03  0.29296970161E+03  0.70564130794E+03  0.83388851925E+03  0.46999998093E+01 0.  1.
       -5    1    3    3    0  502 -0.33404651024E+03 -0.29296970161E+03  0.61779613161E+01  0.44438561438E+03  0.46999998093E+01 0. -1.
</event>
<event>
 5   0  0.1598986E-02  0.1009391E+04  0.7818609E-02  0.9298304E-01
        2   -1    0    0  501    0  0.00000000000E+00  0.00000000000E+00  0.85684908903E+03  0.85684908904E+03  0.25500000920E-02 0.  1.
       -2   -1    0    0    0  501  0.00000000000E+00  0.00000000000E+00 -0.29727239346E+03  0.29727239347E+03  0.25500000920E-02 0. -1.
    10030    2    1    2    0    0  0.00000000000E+00  0.00000000000E+00  0.55957669557E+03  0.11541214825E+04  0.10093910630E+04 0.  0.
        3    1    3    3  502    0  0.16304491516E+03 -0.91862563886E+02  0.81571128902E+03  0.83690339481E+03  0.10100000352E+00 0.  1.
       -3    1    3    3    0  502 -0.16304491516E+03  0.91862563886E+02 -0.25613459345E+03  0.31721808770E+03  0.10100000352E+00 0. -1.
</event>
<event>
 5   0  0.9471140E-03  0.1033658E+04  0.7818609E-02  0.9272380E-01
       -1   -1    0    0    0  501  0.00000000000E+00  0.00000000000E+00  0.30661567176E+03  0.30661567181E+03  0.50400001928E-02 0. -1.
        1   -1    0    0  501    0  0.00000000000E+00  0.00000000000E+00 -0.87116353259E+03  0.87116353260E+03  0.50400001928E-02 0.  1.
    10030    2    1    2    0    0  0.00000000000E+00  0.00000000000E+00 -0.56454786082E+03  0.11777792044E+04  0.10336583416E+04 0.  0.
        4    1    3    3  502    0 -0.27073592740E+02 -0.18200370274E+03  0.26802665745E+03  0.32511264085E+03  0.12699999809E+01 0. -1.
       -4    1    3    3    0  502  0.27073592740E+02  0.18200370274E+03 -0.83257451827E+03  0.85266656356E+03  0.12699999809E+01 0.  1.
</event>
<event>
 5   0  0.1598986E-02  0.9934238E+03  0.7818609E-02  0.9315787E-01
       -2   -1    0    0    0  501  0.00000000000E+00  0.00000000000E+00  0.15656854298E+03  0.15656854300E+03  0.25500000920E-02 0. -1.
        2   -1    0    0  501    0  0.00000000000E+00  0.00000000000E+00 -0.15758127983E+04  0.15758127983E+04  0.25500000920E-02 0.  1.
    10030    2    1    2    0    0  0.00000000000E+00  0.00000000000E+00 -0.14192442553E+04  0.17323813413E+04  0.99342380452E+03 0.  0.
        3    1    3    3  502    0  0.21107755308E+03  0.16733433935E+03 -0.14373907938E+04  0.14624113029E+04  0.10100000352E+00 0.  1.
       -3    1    3    3    0  502 -0.21107755308E+03 -0.16733433935E+03  0.18146538533E+02  0.26997003835E+03  0.10100000352E+00 0. -1.
</event>
<event>
 5   0  0.1656859E-02  0.1038061E+04  0.7818609E-02  0.9267757E-01
        2   -1    0    0  501    0  0.00000000000E+00  0.00000000000E+00  0.63951090784E+03  0.63951090784E+03  0.25500000920E-02 0.  1.
       -2   -1    0    0    0  501  0.00000000000E+00  0.00000000000E+00 -0.42124823918E+03  0.42124823919E+03  0.25500000920E-02 0. -1.
    10030    2    1    2    0    0  0.00000000000E+00  0.00000000000E+00  0.21826266866E+03  0.10607591470E+04  0.10380613544E+04 0.  0.
        4    1    3    3  502    0 -0.44744112292E+02 -0.31303915411E+03  0.52970776591E+03  0.61691772366E+03  0.12699999809E+01 0.  1.
       -4    1    3    3    0  502  0.44744112292E+02  0.31303915411E+03 -0.31144509726E+03  0.44384142337E+03  0.12699999809E+01 0. -1.
</event>
<event>
 5   0  0.1571895E-02  0.1030167E+04  0.7818609E-02  0.9276063E-01
        2   -1    0    0  501    0  0.00000000000E+00  0.00000000000E+00  0.13193258626E+04  0.13193258626E+04  0.25500000920E-02 0. -1.
       -2   -1    0    0    0  501  0.00000000000E+00  0.00000000000E+00 -0.20109590794E+03  0.20109590795E+03  0.25500000920E-02 0.  1.
    10030    2    1    2    0    0  0.00000000000E+00  0.00000000000E+00  0.11182299546E+04  0.15204217705E+04  0.10301670393E+04 0.  0.
        2    1    3    3  502    0  0.15349617602E+03  0.26306889405E+03 -0.53951059893E+02  0.30931704760E+03  0.25500000920E-02 0.  1.
       -2    1    3    3    0  502 -0.15349617602E+03 -0.26306889405E+03  0.11721810145E+04  0.12111047229E+04  0.25500000920E-02 0. -1.
</event>
<event>
 5   0  0.1571895E-02  0.6359694E+03  0.7818609E-02  0.9833469E-01
       -2   -1    0    0    0  501  0.00000000000E+00  0.00000000000E+00  0.14200761652E+03  0.14200761654E+03  0.25500000920E-02 0. -1.
        2   -1    0    0  501    0  0.00000000000E+00  0.00000000000E+00 -0.71203415046E+03  0.71203415046E+03  0.25500000920E-02 0.  1.
    10030    2    1    2    0    0  0.00000000000E+00  0.00000000000E+00 -0.57002653394E+03  0.85404176701E+03  0.63596940996E+03 0.  0.
        2    1    3    3  502    0 -0.92224118035E+02 -0.23090709947E+03 -0.18825035720E+02  0.24935468415E+03  0.25500000920E-02 0. -1.
       -2    1    3    3    0  502  0.92224118035E+02  0.23090709947E+03 -0.55120149822E+03  0.60468708286E+03  0.25500000920E-02 0.  1.
</event>
<event>
 5   0  0.9759443E-03  0.1013111E+04  0.7818609E-02  0.9294280E-01
        1   -1    0    0  501    0  0.00000000000E+00  0.00000000000E+00  0.19283755874E+04  0.19283755874E+04  0.50400001928E-02 0.  1.
       -1   -1    0    0    0  501  0.00000000000E+00  0.00000000000E+00 -0.13306469628E+03  0.13306469637E+03  0.50400001928E-02 0. -1.
    10030    2    1    2    0    0  0.00000000000E+00  0.00000000000E+00  0.17953108911E+04  0.20614402838E+04  0.10131114686E+04 0.  0.
        2    1    3    3  502    0 -0.85700589653E+02 -0.18465438769E+03  0.18414797221E+04  0.18526978709E+04  0.25500000920E-02 0.  1.
       -2    1    3    3    0  502  0.85700589653E+02  0.18465438769E+03 -0.46168830997E+02  0.20874241285E+03  0.25500000920E-02 0. -1.
</event>
<event>
 5   0  0.1571895E-02  0.6036596E+03  0.7818609E-02  0.9897842E-01
        2   -1    0    0  501    0  0.00000000000E+00  0.00000000000E+00  0.11561222925E+04  0.11561222925E+04  0.25500000920E-02 0. -1.
       -2   -1    0    0    0  501  0.00000000000E+00  0.00000000000E+00 -0.78798959253E+02  0.78798959294E+02  0.25500000920E-02 0.  1.
    10030    2    1    2    0    0  0.00000000000E+00  0.00000000000E+00  0.10773233333E+04  0.12349212518E+04  0.60365961749E+03 0.  0.
        2    1    3    3  502    0  0.12807703435E+02 -0.18252148331E+03  0.10297339987E+04  0.10458633932E+04  0.25500000920E-02 0. -1.
       -2    1    3    3    0  502 -0.12807703435E+02  0.18252148331E+03  0.47589334565E+02  0.18905785862E+03  0.25500000920E-02 0.  1.
</event>
<event>
 5   0  0.1617721E-02  0.9324237E+03  0.7818609E-02  0.9385934E-01
        2   -1    0    0  501    0  0.00000000000E+00  0.00000000000E+00  0.38762722430E+03  0.38762722431E+03  0.25500000920E-02 0.  1.
       -2   -1    0    0    0  501  0.00000000000E+00  0.00000000000E+00 -0.56072816783E+03  0.56072816784E+03  0.25500000920E-02 0. -1.
    10030    2    1    2    0    0  0.00000000000E+00  0.00000000000E+00 -0.17310094353E+03  0.94835539215E+03  0.93242373048E+03 0.  0.
        5    1    3    3  502    0  0.17745745315E+03  0.69971949981E+02  0.34609296867E+03  0.39520836836E+03  0.46999998093E+01 0.  1.
       -5    1    3    3    0  502 -0.17745745315E+03 -0.69971949981E+02 -0.51919391220E+03  0.55314702379E+03  0.46999998093E+01 0. -1.
</event>
<event>
 5   0  0.1617721E-02  0.1038132E+04  0.7818609E-02  0.9267683E-01
        2   -1    0    0  501    0  0.00000000000E+00  0.00000000000E+00  0.24509809571E+03  0.24509809572E+03  0.25500000920E-02 0. -1.
       -2   -1    0    0    0  501  0.00000000000E+00  0.00000000000E+00 -0.10992722526E+04  0.10992722526E+04  0.25500000920E-02 0.  1.
    10030    2    1    2    0    0  0.00000000000E+00  0.00000000000E+00 -0.85417415686E+03  0.13443703483E+04  0.10381320451E+04 0.  0.
        5    1    3    3  502    0  0.51318830665E+03 -0.41050868797E+02 -0.51259596659E+03  0.72651505619E+03  0.46999998093E+01 0.  1.
       -5    1    3    3    0  502 -0.51318830665E+03  0.41050868797E+02 -0.34157819027E+03  0.61785529210E+03  0.46999998093E+01 0. -1.
</event>
<event>
 5   0  0.1598986E-02  0.9918140E+03  0.7818609E-02  0.9317569E-01
        2   -1    0    0  501    0  0.00000000000E+00  0.00000000000E+00  0.21716931749E+03  0.21716931750E+03  0.25500000920E-02 0.  1.
       -2   -1    0    0    0  501  0.00000000000E+00  0.00000000000E+00 -0.11324055220E+04  0.11324055220E+04  0.25500000920E-02 0. -1.
    10030    2    1    2    0    0  0.00000000000E+00  0.00000000000E+00 -0.91523620447E+03  0.13495748395E+04  0.99181396307E+03 0.  0.
        3    1    3    3  502    0 -0.41952148921E+03 -0.43786114964E+02 -0.10276593661E+03  0.43413863189E+03  0.10100000352E+00 0.  1.
       -3    1    3    3    0  502  0.41952148921E+03  0.43786114964E+02 -0.81247026786E+03  0.91543620757E+03  0.10100000352E+00 0. -1.
</event>
<event>
 5   0  0.9396660E-03  0.1009792E+04  0.7818609E-02  0.9297870E-01
       -1   -1    0    0    0  501  0.00000000000E+00  0.00000000000E+00  0.57292043468E+03  0.57292043470E+03  0.50400001928E-02 0. -1.
        1   -1    0    0  501    0  0.00000000000E+00  0.00000000000E+00 -0.44494815225E+03  0.44494815228E+03  0.50400001928E-02 0.  1.
    10030    2    1    2    0    0  0.00000000000E+00  0.00000000000E+00  0.12797228243E+03  0.10178685870E+04  0.10097918376E+04 0.  0.
        5    1    3    3  502    0  0.34728881320E+03  0.48515344890E+02  0.43011933999E+03  0.55496666124E+03  0.46999998093E+01 0. -1.
       -5    1    3    3    0  502 -0.34728881320E+03 -0.48515344890E+02 -0.30214705756E+03  0.46290192574E+03  0.46999998093E+01 0.  1.
</event>
<event>
 5   0  0.9507815E-03  0.9570956E+03  0.7818609E-02  0.9356895E-01
       -1   -1    0    0    0  501  0.00000000000E+00  0.00000000000E+00  0.43603216171E+03  0.43603216174E+03  0.50400001928E-02 0. -1.
        1   -1    0    0  501    0  0.00000000000E+00  0.00000000000E+00 -0.52520899863E+03  0.52520899866E+03  0.50400001928E-02 0.  1.
    10030    2    1    2    0    0  0.00000000000E+00  0.00000000000E+00 -0.89176836924E+02  0.96124116039E+03  0.95709563796E+03 0.  0.
        1    1    3    3  502    0 -0.11475988817E+03  0.27945780649E+03  0.32815454504E+03  0.44604024818E+03  0.50400001928E-02 0. -1.
       -1    1    3    3    0  502  0.11475988817E+03 -0.27945780649E+03 -0.41733138197E+03  0.51520091221E+03  0.50400001928E-02 0.  1.
</event>
<event>
 5   0  0.1598986E-02  0.1000013E+04  0.7818609E-02  0.9308531E-01
        2   -1    0    0  501    0  0.00000000000E+00  0.00000000000E+00  0.98347376124E+03  0.98347376125E+03  0.25500000920E-02 0. -1.
       -2   -1    0    0    0  501  0.00000000000E+00  0.00000000000E+00 -0.25420738411E+03  0.25420738413E+03  0.25500000920E-02 0.  1.
    10030    2    1    2    0    0  0.00000000000E+00  0.00000000000E+00  0.72926637713E+03  0.12376811454E+04  0.10000125843E+04 0.  0.
        3    1    3    3  502    0 -0.41061360241E+03 -0.96820581381E+02  0.69679949329E+03  0.81455957395E+03  0.10100000352E+00 0. -1.
       -3    1    3    3    0  502  0.41061360241E+03  0.96820581381E+02  0.32466883843E+02  0.42312157143E+03  0.10100000352E+00 0.  1.
</event>
<event>
 5   0  0.6314750E-03  0.6665825E+03  0.7818609E-02  0.9776151E-01
        4   -1    0    0  501    0  0.00000000000E+00  0.00000000000E+00  0.18597918785E+03  0.18598352404E+03  0.12699999809E+01 0. -1.
       -4   -1    0    0    0  501  0.00000000000E+00  0.00000000000E+00 -0.59727567686E+03  0.59727702707E+03  0.12699999809E+01 0.  1.
    10030    2    1    2    0    0  0.00000000000E+00  0.00000000000E+00 -0.41129648901E+03  0.78326055111E+03  0.66658254482E+03 0.  0.
        3    1    3    3  502    0 -0.28242374955E+02  0.10260624758E+03 -0.57677721090E+03  0.58651311579E+03  0.10100000352E+00 0.  1.
       -3    1    3    3    0  502  0.28242374955E+02 -0.10260624758E+03  0.16548072189E+03  0.19674743532E+03  0.10100000352E+00 0. -1.
</event>
<event>
 5   0  0.1656859E-02  0.1029236E+04  0.7818609E-02  0.9277048E-01
        2   -1    0    0  501    0  0.00000000000E+00  0.00000000000E+00  0.49161258416E+03  0.49161258417E+03  0.25500000920E-02 0.  1.
       -2   -1    0    0    0  501  0.00000000000E+00  0.00000000000E+00 -0.53870009048E+03  0.53870009049E+03  0.25500000920E-02 0. -1.
    10030    2    1    2    0    0  0.00000000000E+00  0.00000000000E+00 -0.47087506318E+02  0.10303126747E+04  0.10292361120E+04 0.  0.
        4    1    3    3  502    0 -0.67558802103E+01  0.41173513211E+03  0.28541911146E+03  0.50103606957E+03  0.12699999809E+01 0.  1.
       -4    1    3    3    0  502  0.67558802103E+01 -0.41173513211E+03 -0.33250661777E+03  0.52927660509E+03  0.12699999809E+01 0. -1.
</event>
<event>
 5   0  0.6314750E-03  0.9502671E+03  0.7818609E-02  0.9364838E-01
       -3   -1    0    0    0  501  0.00000000000E+00  0.00000000000E+00  0.75358271897E+03  0.75358272574E+03  0.10100000352E+00 0.  1.
        3   -1    0    0  501    0  0.00000000000E+00  0.00000000000E+00 -0.29957148706E+03  0.29957150409E+03  0.10100000352E+00 0. -1.
    10030    2    1    2    0    0  0.00000000000E+00  0.00000000000E+00  0.45401123191E+03  0.10531542298E+04  0.95026713776E+03 0.  0.
        3    1    3    3  502    0  0.32045071366E+03  0.20460454068E+03 -0.88803650529E+02  0.39043280664E+03  0.10100000352E+00 0. -1.
       -3    1    3    3    0  502 -0.32045071366E+03 -0.20460454068E+03  0.54281488244E+03  0.66272142319E+03  0.10100000352E+00 0.  1.
</event>
<event>
 5   0  0.9471140E-03  0.1006872E+04  0.7818609E-02  0.9301040E-01
        1   -1    0    0  501    0  0.00000000000E+00  0.00000000000E+00  0.72375949314E+03  0.72375949316E+03  0.50400001928E-02 0. -1.
       -1   -1    0    0    0  501  0.00000000000E+00  0.00000000000E+00 -0.35018229751E+03  0.35018229754E+03  0.50400001928E-02 0.  1.
    10030    2    1    2    0    0  0.00000000000E+00  0.00000000000E+00  0.37357719563E+03  0.10739417907E+04  0.10068719128E+04 0.  0.
        4    1    3    3  502    0  0.41838840890E+02 -0.16212684968E+03  0.69318852111E+03  0.71312519426E+03  0.12699999809E+01 0. -1.
       -4    1    3    3    0  502 -0.41838840890E+02  0.16212684968E+03 -0.31961132548E+03  0.36081659644E+03  0.12699999809E+01 0.  1.
</event>
<event>
 5   0  0.1656859E-02  0.9939900E+03  0.7818609E-02  0.9315161E-01
        2   -1    0    0  501    0  0.00000000000E+00  0.00000000000E+00  0.70871110100E+03  0.70871110100E+03  0.25500000920E-02 0.  1.
       -2   -1    0    0    0  501  0.00000000000E+00  0.00000000000E+00 -0.34852566602E+03  0.34852566603E+03  0.25500000920E-02 0. -1.
    10030    2    1    2    0    0  0.00000000000E+00  0.00000000000E+00  0.36018543497E+03  0.10572367670E+04  0.99398995669E+03 0.  0.
        4    1    3    3  502    0 -0.11371753694E+03  0.95374729280E+02 -0.32440219611E+03  0.35674418697E+03  0.12699999809E+01 0. -1.
       -4    1    3    3    0  502  0.11371753694E+03 -0.95374729280E+02  0.68458763109E+03  0.70049258007E+03  0.12699999809E+01 0.  1.
</event>
<event>
 5   0  0.1663497E-02  0.1018383E+04  0.7818609E-02  0.9288609E-01
        2   -1    0    0  501    0  0.00000000000E+00  0.00000000000E+00  0.37718866895E+03  0.37718866896E+03  0.25500000920E-02 0. -1.
       -2   -1    0    0    0  501  0.00000000000E+00  0.00000000000E+00 -0.68739119048E+03  0.68739119048E+03  0.25500000920E-02 0.  1.
    10030    2    1    2    0    0  0.00000000000E+00  0.00000000000E+00 -0.31020252153E+03  0.10645798594E+04  0.10183833624E+04 0.  0.
        1    1    3    3  502    0 -0.20898448545E+03  0.14868677761E+03 -0.61493473562E+03  0.66627847188E+03  0.50400001928E-02 0.  1.
       -1    1    3    3    0  502  0.20898448545E+03 -0.14868677761E+03  0.30473221410E+03  0.39830138755E+03  0.50400001928E-02 0. -1.
</event>
<event>
 5   0  0.1571895E-02  0.9750648E+03  0.7818609E-02  0.9336324E-01
        2   -1    0    0  501    0  0.00000000000E+00  0.00000000000E+00  0.44280474105E+03  0.44280474106E+03  0.25500000920E-02 0.  1.
       -2   -1    0    0    0  501  0.00000000000E+00  0.00000000000E+00 -0.53677795905E+03  0.53677795905E+03  0.25500000920E-02 0. -1.
    10030    2    1    2    0    0  0.00000000000E+00  0.00000000000E+00 -0.93973217997E+02  0.97958270011E+03  0.97506476741E+03 0.  0.
        2    1    3    3  502    0  0.30956684296E+03  0.24785148184E+03 -0.33189513084E+03  0.51712316250E+03  0.25500000920E-02 0. -1.
       -2    1    3    3    0  502 -0.30956684296E+03 -0.24785148184E+03  0.23792191284E+03  0.46245953761E+03  0.25500000920E-02 0.  1.
</event>
<event>
 5   0  0.1000773E-02  0.1010597E+04  0.7818609E-02  0.9296998E-01
       -1   -1    0    0    0  501  0.00000000000E+00  0.00000000000E+00  0.28723936242E+03  0.28723936247E+03  0.50400001928E-02 0.  1.
        1   -1    0    0  501    0  0.00000000000E+00  0.00000000000E+00 -0.88889876259E+03  0.88889876261E+03  0.50400001928E-02 0. -1.
    10030    2    1    2    0    0  0.00000000000E+00  0.00000000000E+00 -0.60165940017E+03  0.11761381251E+04  0.10105972766E+04 0.  0.
        3    1    3    3  502    0  0.70027441116E+02  0.49903468948E+03 -0.34417639421E+03  0.61024328292E+03  0.10100000352E+00 0.  1.
       -3    1    3    3    0  502 -0.70027441116E+02 -0.49903468948E+03 -0.25748300596E+03  0.56589484215E+03  0.10100000352E+00 0. -1.
</event>
<event>
 5   0  0.6314750E-03  0.1017596E+04  0.7818609E-02  0.9289453E-01
        3   -1    0    0  501    0  0.00000000000E+00  0.00000000000E+00  0.10318488395E+04  0.10318488444E+04  0.10100000352E+00 0. -1.
       -3   -1    0    0    0  501  0.00000000000E+00  0.00000000000E+00 -0.25088508127E+03  0.25088510160E+03  0.10100000352E+00 0.  1.
    10030    2    1    2    0    0  0.00000000000E+00  0.00000000000E+00  0.78096375821E+03  0.12827339460E+04  0.10175961796E+04 0.  0.
        1    1    3    3  502    0  0.41681027797E+03 -0.27931189279E+03  0.28404495201E+03  0.57656524008E+03  0.50400001928E-02 0.  1.
       -1    1    3    3    0  502 -0.41681027797E+03  0.27931189279E+03  0.49691880620E+03  0.70616870595E+03  0.50400001928E-02 0. -1.
</event>
<event>
 5   0  0.9507815E-03  0.9793938E+03  0.7818609E-02  0.9331439E-01
        1   -1    0    0  501    0  0.00000000000E+00  0.00000000000E+00  0.97327603411E+03  0.97327603412E+03  0.50400001928E-02 0. -1.
       -1   -1    0    0    0  501  0.00000000000E+00  0.00000000000E+00 -0.24638751189E+03  0.24638751194E+03  0.50400001928E-02 0.  1.
    10030    2    1    2    0    0  0.00000000000E+00  0.00000000000E+00  0.72688852222E+03  0.12196635461E+04  0.97939381347E+03 0.  0.
        1    1    3    3  502    0 -0.19659055755E+03 -0.44020109980E+03  0.47041328721E+03  0.67358259805E+03  0.50400001928E-02 0. -1.
       -1    1    3    3    0  502  0.19659055755E+03  0.44020109980E+03  0.25647523501E+03  0.54608094801E+03  0.50400001928E-02 0.  1.
</event>
<event>
 5   0  0.9759443E-03  0.1000417E+04  0.7818609E-02  0.9308087E-01
        1   -1    0    0  501    0  0.00000000000E+00  0.00000000000E+00  0.83796529888E+03  0.83796529890E+03  0.50400001928E-02 0.  1.
       -1   -1    0    0    0  501  0.00000000000E+00  0.00000000000E+00 -0.29859073469E+03  0.29859073473E+03  0.50400001928E-02 0. -1.
    10030    2    1    2    0    0  0.00000000000E+00  0.00000000000E+00  0.53937456419E+03  0.11365560336E+04  0.10004172615E+04 0.  0.
        2    1    3    3  502    0  0.16830962600E+02 -0.48688136029E+03  0.39858094831E+03  0.62944698956E+03  0.25500000920E-02 0.  1.
       -2    1    3    3    0  502 -0.16830962600E+02  0.48688136029E+03  0.14079361588E+03  0.50710904407E+03  0.25500000920E-02 0. -1.
</event>
<event>
 5   0  0.1571895E-02  0.9948825E+03  0.7818609E-02  0.9314175E-01
        2   -1    0    0  501    0  0.00000000000E+00  0.00000000000E+00  0.61704575944E+03  0.61704575944E+03  0.25500000920E-02 0. -1.
       -2   -1    0    0    0  501  0.00000000000E+00  0.00000000000E+00 -0.40102017687E+03  0.40102017687E+03  0.25500000920E-02 0.  1.
    10030    2    1    2    0    0  0.00000000000E+00  0.00000000000E+00  0.21602558257E+03  0.10180659363E+04  0.99488250480E+03 0.  0.
        2    1    3    3  502    0 -0.18372795302E+03 -0.25684045327E+03  0.50131904157E+03  0.59248946033E+03  0.25500000920E-02 0. -1.
       -2    1    3    3    0  502  0.18372795302E+03  0.25684045327E+03 -0.28529345900E+03  0.42557647598E+03  0.25500000920E-02 0.  1.
</event>
<event>
 5   0  0.1617721E-02  0.1018866E+04  0.7818609E-02  0.9288091E-01
       -2   -1    0    0    0  501  0.00000000000E+00  0.00000000000E+00  0.15958870897E+03  0.15958870899E+03  0.25500000920E-02 0.  1.
        2   -1    0    0  501    0  0.00000000000E+00  0.00000000000E+00 -0.16261930769E+04  0.16261930769E+04  0.25500000920E-02 0. -1.
    10030    2    1    2    0    0  0.00000000000E+00  0.00000000000E+00 -0.14666043680E+04  0.17857817859E+04  0.10188661417E+04 0.  0.
        5    1    3    3  502    0 -0.92128755373E+02 -0.34282169819E+03 -0.13736683373E+04  0.14188027400E+04  0.46999998093E+01 0. -1.
       -5    1    3    3    0  502  0.92128755373E+02  0.34282169819E+03 -0.92936030682E+02  0.36697904588E+03  0.46999998093E+01 0.  1.
</event>
<event>
 5   0  0.9507815E-03  0.1012384E+04  0.7818609E-02  0.9295066E-01
       -1   -1    0    0    0  501  0.00000000000E+00  0.00000000000E+00  0.46185264866E+03  0.46185264869E+03  0.50400001928E-02 0. -1.
        1   -1    0    0  501    0  0.00000000000E+00  0.00000000000E+00 -0.55478793991E+03  0.55478793993E+03  0.50400001928E-02 0.  1.
    10030    2    1    2    0    0  0.00000000000E+00  0.00000000000E+00 -0.92935291245E+02  0.10166405886E+04  0.10123838788E+04 0.  0.
        1    1    3    3  502    0  0.14379709293E+03 -0.47132362602E+03  0.69806568843E+02  0.49769119086E+03  0.50400001928E-02 0.  1.
       -1    1    3    3    0  502 -0.14379709293E+03  0.47132362602E+03 -0.16274186009E+03  0.51894939776E+03  0.50400001928E-02 0. -1.
</event>
<event>
 5   0  0.1663497E-02  0.1001554E+04  0.7818609E-02  0.9306842E-01
       -2   -1    0    0    0  501  0.00000000000E+00  0.00000000000E+00  0.46832831178E+03  0.46832831179E+03  0.25500000920E-02 0.  1.
        2   -1    0    0  501    0  0.00000000000E+00  0.00000000000E+00 -0.53547428799E+03  0.53547428800E+03  0.25500000920E-02 0. -1.
    10030    2    1    2    0    0  0.00000000000E+00  0.00000000000E+00 -0.67145976213E+02  0.10038025998E+04  0.10015543306E+04 0.  0.
        1    1    3    3  502    0  0.11859224890E+03  0.10150270582E+03 -0.51046760380E+03  0.53380155053E+03  0.50400001928E-02 0. -1.
       -1    1    3    3    0  502 -0.11859224890E+03 -0.10150270582E+03  0.44332162759E+03  0.47000104926E+03  0.50400001928E-02 0.  1.
</event>
<event>
 5   0  0.9507815E-03  0.1015615E+04  0.7818609E-02  0.9291582E-01
       -1   -1    0    0    0  501  0.00000000000E+00  0.00000000000E+00  0.21448272193E+03  0.21448272199E+03  0.50400001928E-02 0. -1.
        1   -1    0    0  501    0  0.00000000000E+00  0.00000000000E+00 -0.12022817106E+04  0.12022817106E+04  0.50400001928E-02 0.  1.
    10030    2    1    2    0    0  0.00000000000E+00  0.00000000000E+00 -0.98779898863E+03  0.14167644326E+04  0.10156153876E+04 0.  0.
        1    1    3    3  502    0 -0.31967571823E+03  0.25796951484E+03 -0.91036114051E+03  0.99874833746E+03  0.50400001928E-02 0.  1.
       -1    1    3    3    0  502  0.31967571823E+03 -0.25796951484E+03 -0.77437848119E+02  0.41801609510E+03  0.50400001928E-02 0. -1.
</event>
<event>
 5   0  0.1617721E-02  0.9598649E+03  0.7818609E-02  0.9353694E-01
       -2   -1    0    0    0  501  0.00000000000E+00  0.00000000000E+00  0.45177222237E+03  0.45177222238E+03  0.25500000920E-02 0. -1.
        2   -1    0    0  501    0  0.00000000000E+00  0.00000000000E+00 -0.50984797734E+03  0.50984797735E+03  0.25500000920E-02 0.  1.
    10030    2    1    2    0    0  0.00000000000E+00  0.00000000000E+00 -0.58075754972E+02  0.96162019973E+03  0.95986489425E+03 0.  0.
        5    1    3    3  502    0  0.29004471827E+03 -0.12956745878E+02 -0.41186131880E+03  0.50393020527E+03  0.46999998093E+01 0.  1.
       -5    1    3    3    0  502 -0.29004471827E+03  0.12956745878E+02  0.35378556383E+03  0.45768999446E+03  0.46999998093E+01 0. -1.
</event>
<event>
 5   0  0.1656859E-02  0.1087230E+04  0.7818609E-02  0.9217728E-01
       -2   -1    0    0    0  501  0.00000000000E+00  0.00000000000E+00  0.12711656306E+03  0.12711656308E+03  0.25500000920E-02 0. -1.
        2   -1    0    0  501    0  0.00000000000E+00  0.00000000000E+00 -0.23247749639E+04  0.23247749639E+04  0.25500000920E-02 0.  1.
    10030    2    1    2    0    0  0.00000000000E+00  0.00000000000E+00 -0.21976584009E+04  0.24518915270E+04  0.10872302485E+04 0.  0.
        4    1    3    3  502    0  0.19840368718E+03 -0.31238219304E+03 -0.19968554920E+04  0.20308569931E+04  0.12699999809E+01 0.  1.
       -4    1    3    3    0  502 -0.19840368718E+03  0.31238219304E+03 -0.20080290885E+03  0.42103453388E+03  0.12699999809E+01 0. -1.
</event>
<event>
 5   0  0.1617721E-02  0.1084143E+04  0.7818609E-02  0.9220786E-01
       -2   -1    0    0    0  501  0.00000000000E+00  0.00000000000E+00  0.49059636370E+03  0.49059636370E+03  0.25500000920E-02 0. -1.
        2   -1    0    0  501    0  0.00000000000E+00  0.00000000000E+00 -0.59894770510E+03  0.59894770510E+03  0.25500000920E-02 0.  1.
    10030    2    1    2    0    0  0.00000000000E+00  0.00000000000E+00 -0.10835134140E+03  0.10895440688E+04  0.10841431016E+04 0.  0.
        5    1    3    3  502    0 -0.42745427970E+03 -0.28370700765E+03  0.12166067292E+03  0.52728572592E+03  0.46999998093E+01 0.  1.
       -5    1    3    3    0  502  0.42745427970E+03  0.28370700765E+03 -0.23001201432E+03  0.56225834289E+03  0.46999998093E+01 0. -1.
</event>
<event>
 5   0  0.1617721E-02  0.9944837E+03  0.7818609E-02  0.9314616E-01
       -2   -1    0    0    0  501  0.00000000000E+00  0.00000000000E+00  0.84973801315E+03  0.84973801316E+03  0.25500000920E-02 0. -1.
        2   -1    0    0  501    0  0.00000000000E+00  0.00000000000E+00 -0.29097137320E+03  0.29097137321E+03  0.25500000920E-02 0.  1.
    10030    2    1    2    0    0  0.00000000000E+00  0.00000000000E+00  0.55876663995E+03  0.11407093864E+04  0.99448365810E+03 0.  0.
        5    1    3    3  502    0 -0.46695145010E+03  0.14073472037E+03  0.39045906631E+03  0.62476418810E+03  0.46999998093E+01 0. -1.
       -5    1    3    3    0  502  0.46695145010E+03 -0.14073472037E+03  0.16830757364E+03  0.51594519827E+03  0.46999998093E+01 0.  1.
</event>
<event>
 5   0  0.6314750E-03  0.1017550E+04  0.7818609E-02  0.9289503E-01
       -4   -1    0    0    0  501  0.00000000000E+00  0.00000000000E+00  0.59389236475E+03  0.59389372265E+03  0.12699999809E+01 0.  1.
        4   -1    0    0  501    0  0.00000000000E+00  0.00000000000E+00 -0.43585426940E+03  0.43585611967E+03  0.12699999809E+01 0. -1.
    10030    2    1    2    0    0  0.00000000000E+00  0.00000000000E+00  0.15803809535E+03  0.10297498423E+04  0.10175503418E+04 0.  0.
        4    1    3    3  502    0  0.32631212098E+03 -0.37406479138E+03 -0.33882353720E+02  0.49754768138E+03  0.12699999809E+01 0. -1.
       -4    1    3    3    0  502 -0.32631212098E+03  0.37406479138E+03  0.19192044907E+03  0.53220216095E+03  0.12699999809E+01 0.  1.
</event>
<event>
 5   0  0.1663497E-02  0.1030850E+04  0.7818609E-02  0.9275342E-01
        2   -1    0    0  501    0  0.00000000000E+00  0.00000000000E+00  0.12669168635E+04  0.12669168635E+04  0.25500000920E-02 0. -1.
       -2   -1    0    0    0  501  0.00000000000E+00  0.00000000000E+00 -0.20969232549E+03  0.20969232551E+03  0.25500000920E-02 0.  1.
    10030    2    1    2    0    0  0.00000000000E+00  0.00000000000E+00  0.10572245380E+04  0.14766091890E+04  0.10308496366E+04 0.  0.
        1    1    3    3  502    0 -0.42062869790E+03 -0.28367758956E+03  0.65880704942E+03  0.83152162011E+03  0.50400001928E-02 0. -1.
       -1    1    3    3    0  502  0.42062869790E+03  0.28367758956E+03  0.39841748860E+03  0.64508756891E+03  0.50400001928E-02 0.  1.
</event>
<event>
 5   0  0.9759443E-03  0.1007599E+04  0.7818609E-02  0.9300249E-01
        1   -1    0    0  501    0  0.00000000000E+00  0.00000000000E+00  0.75124102382E+03  0.75124102384E+03  0.50400001928E-02 0.  1.
       -1   -1    0    0    0  501  0.00000000000E+00  0.00000000000E+00 -0.33785977350E+03  0.33785977354E+03  0.50400001928E-02 0. -1.
    10030    2    1    2    0    0  0.00000000000E+00  0.00000000000E+00  0.41338125032E+03  0.10891007974E+04  0.10075993692E+04 0.  0.
        2    1    3    3  502    0  0.92729416513E+02 -0.19350394617E+03 -0.28599884606E+03  0.35754420961E+03  0.25500000920E-02 0. -1.
       -2    1    3    3    0  502 -0.92729416513E+02  0.19350394617E+03  0.69938009639E+03  0.73155658776E+03  0.25500000920E-02 0.  1.
</event>
<event>
 5   0  0.1656859E-02  0.1008456E+04  0.7818609E-02  0.9299318E-01
        2   -1    0    0  501    0  0.00000000000E+00  0.00000000000E+00  0.65472342505E+03  0.65472342505E+03  0.25500000920E-02 0. -1.
       -2   -1    0    0    0  501  0.00000000000E+00  0.00000000000E+00 -0.38832591678E+03  0.38832591679E+03  0.25500000920E-02 0.  1.
    10030    2    1    2    0    0  0.00000000000E+00  0.00000000000E+00  0.26639750827E+03  0.10430493418E+04  0.10084563933E+04 0.  0.
        4    1    3    3  502    0 -0.90288357326E+02 -0.37196881050E+03 -0.20628534839E+03  0.43481955029E+03  0.12699999809E+01 0.  1.
       -4    1    3    3    0  502  0.90288357326E+02  0.37196881050E+03  0.47268285666E+03  0.60822979155E+03  0.12699999809E+01 0. -1.
</event>
<event>
 5   0  0.1000773E-02  0.1003222E+04  0.7818609E-02  0.9305018E-01
       -1   -1    0    0    0  501  0.00000000000E+00  0.00000000000E+00  0.70440524211E+03  0.70440524213E+03  0.50400001928E-02 0. -1.
        1   -1    0    0  501    0  0.00000000000E+00  0.00000000000E+00 -0.35720001422E+03  0.35720001426E+03  0.50400001928E-02 0.  1.
    10030    2    1    2    0    0  0.00000000000E+00  0.00000000000E+00  0.34720522789E+03  0.10616052564E+04  0.10032219346E+04 0.  0.
        3    1    3    3  502    0 -0.21037116006E+03  0.30714360617E+03  0.52935214109E+03  0.64715293345E+03  0.10100000352E+00 0. -1.
       -3    1    3    3    0  502  0.21037116006E+03 -0.30714360617E+03 -0.18214691320E+03  0.41445232294E+03  0.10100000352E+00 0.  1.
</event>
<event>
 5   0  0.1598986E-02  0.9406267E+03  0.7818609E-02  0.9376174E-01
       -2   -1    0    0    0  501  0.00000000000E+00  0.00000000000E+00  0.21353265161E+03  0.21353265163E+03  0.25500000920E-02 0.  1.
        2   -1    0    0  501    0  0.00000000000E+00  0.00000000000E+00 -0.10358819753E+04  0.10358819753E+04  0.25500000920E-02 0. -1.
    10030    2    1    2    0    0  0.00000000000E+00  0.00000000000E+00 -0.82234932370E+03  0.12494146269E+04  0.94062665273E+03 0.  0.
        3    1    3    3  502    0 -0.13146732015E+03  0.74814147922E+02 -0.10026896802E+04  0.10140352154E+04  0.10100000352E+00 0. -1.
       -3    1    3    3    0  502  0.13146732015E+03 -0.74814147922E+02  0.18034035652E+03  0.23537941156E+03  0.10100000352E+00 0.  1.
</event>
<event>
 5   0  0.9471140E-03  0.9891137E+03  0.7818609E-02  0.9320566E-01
       -1   -1    0    0    0  501  0.00000000000E+00  0.00000000000E+00  0.20273001036E+03  0.20273001042E+03  0.50400001928E-02 0. -1.
        1   -1    0    0  501    0  0.00000000000E+00  0.00000000000E+00 -0.12064641453E+04  0.12064641453E+04  0.50400001928E-02 0.  1.
    10030    2    1    2    0    0  0.00000000000E+00  0.00000000000E+00 -0.10037341350E+04  0.14091941558E+04  0.98911372193E+03 0.  0.
        4    1    3    3  502    0 -0.43096651048E+03  0.23852761439E+03 -0.56489825741E+03  0.74949263513E+03  0.12699999809E+01 0.  1.
       -4    1    3    3    0  502  0.43096651048E+03 -0.23852761439E+03 -0.43883587755E+03  0.65970152062E+03  0.12699999809E+01 0. -1.
</event>
<event>
 5   0  0.1663497E-02  0.9161969E+03  0.7818609E-02  0.9405558E-01
        2   -1    0    0  501    0  0.00000000000E+00  0.00000000000E+00  0.20239054767E+04  0.20239054767E+04  0.25500000920E-02 0. -1.
       -2   -1    0    0    0  501  0.00000000000E+00  0.00000000000E+00 -0.10368774620E+03  0.10368774623E+03  0.25500000920E-02 0.  1.
    10030    2    1    2    0    0  0.00000000000E+00  0.00000000000E+00  0.19202177305E+04  0.21275932229E+04  0.91619691647E+03 0.  0.
        1    1    3    3  502    0 -0.14079689408E+03  0.26914103775E+03  0.17564359611E+04  0.17825060867E+04  0.50400001928E-02 0. -1.
       -1    1    3    3    0  502  0.14079689408E+03 -0.26914103775E+03  0.16378176936E+03  0.34508713622E+03  0.50400001928E-02 0.  1.
</event>
<event>
 5   0  0.9396660E-03  0.1012971E+04  0.7818609E-02  0.9294432E-01
       -1   -1    0    0    0  501  0.00000000000E+00  0.00000000000E+00  0.36535250220E+03  0.36535250224E+03  0.50400001928E-02 0.  1.
        1   -1    0    0  501    0  0.00000000000E+00  0.00000000000E+00 -0.70213738776E+03  0.70213738778E+03  0.50400001928E-02 0. -1.
    10030    2    1    2    0    0  0.00000000000E+00  0.00000000000E+00 -0.33678488556E+03  0.10674898900E+04  0.10129711774E+04 0.  0.
        5    1    3    3  502    0 -0.36383120295E+03 -0.18342514474E+03  0.14860904294E+03  0.43373340383E+03  0.46999998093E+01 0.  1.
       -5    1    3    3    0  502  0.36383120295E+03  0.18342514474E+03 -0.48539392849E+03  0.63375648618E+03  0.46999998093E+01 0. -1.
</event>
<event>
 5   0  0.9471140E-03  0.9852203E+03  0.7818609E-02  0.9324905E-01
       -1   -1    0    0    0  501  0.00000000000E+00  0.00000000000E+00  0.18720467968E+03  0.18720467975E+03  0.50400001928E-02 0. -1.
        1   -1    0    0  501    0  0.00000000000E+00  0.00000000000E+00 -0.12962538031E+04  0.12962538031E+04  0.50400001928E-02 0.  1.
    10030    2    1    2    0    0  0.00000000000E+00  0.00000000000E+00 -0.11090491234E+04  0.14834584828E+04  0.98522033687E+03 0.  0.
        4    1    3    3  502    0  0.61326103800E+02  0.15103998092E+03 -0.12544609263E+04  0.12650090100E+04  0.12699999809E+01 0.  1.
       -4    1    3    3    0  502 -0.61326103800E+02 -0.15103998092E+03  0.14541180293E+03  0.21844947281E+03  0.12699999809E+01 0. -1.
</event>
<event>
 5   0  0.1598986E-02  0.9928782E+03  0.7818609E-02  0.9316391E-01
       -2   -1    0    0    0  501  0.00000000000E+00  0.00000000000E+00  0.39660291401E+03  0.39660291402E+03  0.25500000920E-02 0. -1.
        2   -1    0    0  501    0  0.00000000000E+00  0.00000000000E+00 -0.62140684605E+03  0.62140684605E+03  0.25500000920E-02 0.  1.
    10030    2    1    2    0    0  0.00000000000E+00  0.00000000000E+00 -0.22480393204E+03  0.10180097601E+04  0.99287817165E+03 0.  0.
        3    1    3    3  502    0  0.12926009062E+03 -0.94965013958E+02  0.36930393742E+03  0.40263126219E+03  0.10100000352E+00 0. -1.
       -3    1    3    3    0  502 -0.12926009062E+03  0.94965013958E+02 -0.59410786945E+03  0.61537849788E+03  0.10100000352E+00 0.  1.
</event>
<event>
 5   0  0.9396660E-03  0.1003688E+04  0.7818609E-02  0.9304509E-01
       -1   -1    0    0    0  501  0.00000000000E+00  0.00000000000E+00  0.27674163150E+03  0.27674163155E+03  0.50400001928E-02 0. -1.
        1   -1    0    0  501    0  0.00000000000E+00  0.00000000000E+00 -0.91004538868E+03  0.91004538870E+03  0.50400001928E-02 0.  1.
    10030    2    1    2    0    0  0.00000000000E+00  0.00000000000E+00 -0.63330375718E+03  0.11867870202E+04  0.10036880903E+04 0.  0.
        5    1    3    3  502    0 -0.44781009392E+03 -0.21874421581E+03 -0.38602758624E+03  0.63041438713E+03  0.46999998093E+01 0.  1.
       -5    1    3    3    0  502  0.44781009392E+03  0.21874421581E+03 -0.24727617095E+03  0.55637263312E+03  0.46999998093E+01 0. -1.
</event>
<event>
 5   0  0.1000773E-02  0.1007122E+04  0.7818609E-02  0.9300768E-01
       -1   -1    0    0    0  501  0.00000000000E+00  0.00000000000E+00  0.31491388460E+03  0.31491388464E+03  0.50400001928E-02 0.  1.
        1   -1    0    0  501    0  0.00000000000E+00  0.00000000000E+00 -0.80521614595E+03  0.80521614596E+03  0.50400001928E-02 0. -1.
    10030    2    1    2    0    0  0.00000000000E+00  0.00000000000E+00 -0.49030226135E+03  0.11201300306E+04  0.10071221266E+04 0.  0.
        3    1    3    3  502    0  0.11238444437E+03 -0.49008462850E+03 -0.21447900545E+03  0.54663924155E+03  0.10100000352E+00 0.  1.
       -3    1    3    3    0  502 -0.11238444437E+03  0.49008462850E+03 -0.27582325590E+03  0.57349078905E+03  0.10100000352E+00 0. -1.
</event>
<event>
 5   0  0.9759443E-03  0.9857995E+03  0.7818609E-02  0.9324258E-01
        1   -1    0    0  501    0  0.00000000000E+00  0.00000000000E+00  0.14044824022E+04  0.14044824022E+04  0.50400001928E-02 0.  1.
       -1   -1    0    0    0  501  0.00000000000E+00  0.00000000000E+00 -0.17298198655E+03  0.17298198662E+03  0.50400001928E-02 0. -1.
    10030    2    1    2    0    0  0.00000000000E+00  0.00000000000E+00  0.12315004156E+04  0.15774643888E+04  0.98579948482E+03 0.  0.
        2    1    3    3  502    0  0.89975870605E+02  0.46378731542E+03  0.39083513533E+03  0.61314470907E+03  0.25500000920E-02 0. -1.
       -2    1    3    3    0  502 -0.89975870605E+02 -0.46378731542E+03  0.84066528029E+03  0.96431967974E+03  0.25500000920E-02 0.  1.
</event>
<event>
 5   0  0.1571895E-02  0.1001141E+04  0.7818609E-02  0.9307294E-01
        2   -1    0    0  501    0  0.00000000000E+00  0.00000000000E+00  0.31985232376E+03  0.31985232377E+03  0.25500000920E-02 0.  1.
       -2   -1    0    0    0  501  0.00000000000E+00  0.00000000000E+00 -0.78339503644E+03  0.78339503644E+03  0.25500000920E-02 0. -1.
    10030    2    1    2    0    0  0.00000000000E+00  0.00000000000E+00 -0.46354271268E+03  0.11032473602E+04  0.10011407950E+04 0.  0.
        2    1    3    3  502    0 -0.11762765418E+03  0.23422069701E+03  0.23819242369E+03  0.35416271776E+03  0.25500000920E-02 0.  1.
       -2    1    3    3    0  502  0.11762765418E+03 -0.23422069701E+03 -0.70173513638E+03  0.74908464246E+03  0.25500000920E-02 0. -1.
</event>
<event>
 5   0  0.9759443E-03  0.1007918E+04  0.7818609E-02  0.9299903E-01
       -1   -1    0    0    0  501  0.00000000000E+00  0.00000000000E+00  0.71414391430E+03  0.71414391432E+03  0.50400001928E-02 0. -1.
        1   -1    0    0  501    0  0.00000000000E+00  0.00000000000E+00 -0.35563537176E+03  0.35563537179E+03  0.50400001928E-02 0.  1.
    10030    2    1    2    0    0  0.00000000000E+00  0.00000000000E+00  0.35850854255E+03  0.10697792861E+04  0.10079183230E+04 0.  0.
        2    1    3    3  502    0 -0.14395701254E+03  0.25599793054E+03 -0.25541250645E+03  0.38922244329E+03  0.25500000920E-02 0.  1.
       -2    1    3    3    0  502  0.14395701254E+03 -0.25599793054E+03  0.61392104900E+03  0.68055684282E+03  0.25500000920E-02 0. -1.
</event>
<event>
 5   0  0.9759443E-03  0.1013292E+04  0.7818609E-02  0.9294085E-01
        1   -1    0    0  501    0  0.00000000000E+00  0.00000000000E+00  0.76520283998E+03  0.76520283999E+03  0.50400001928E-02 0. -1.
       -1   -1    0    0    0  501  0.00000000000E+00  0.00000000000E+00 -0.33545393795E+03  0.33545393799E+03  0.50400001928E-02 0.  1.
    10030    2    1    2    0    0  0.00000000000E+00  0.00000000000E+00  0.42974890202E+03  0.11006567780E+04  0.10132922698E+04 0.  0.
        2    1    3    3  502    0  0.40399601345E+03  0.53630785600E+01  0.54692481821E+03  0.67997668951E+03  0.25500000920E-02 0. -1.
       -2    1    3    3    0  502 -0.40399601345E+03 -0.53630785600E+01 -0.11717591619E+03  0.42068008847E+03  0.25500000920E-02 0.  1.
</event>
<event>
 5   0  0.1000773E-02  0.9930857E+03  0.7818609E-02  0.9316161E-01
        1   -1    0    0  501    0  0.00000000000E+00  0.00000000000E+00  0.86309384229E+03  0.86309384231E+03  0.50400001928E-02 0. -1.
       -1   -1    0    0    0  501  0.00000000000E+00  0.00000000000E+00 -0.28566397103E+03  0.28566397107E+03  0.50400001928E-02 0.  1.
    10030    2    1    2    0    0  0.00000000000E+00  0.00000000000E+00  0.57742987126E+03  0.11487578134E+04  0.99308572519E+03 0.  0.
        3    1    3    3  502    0  0.27648651030E+02 -0.82825007809E+02 -0.27671320736E+03  0.29016312507E+03  0.10100000352E+00 0.  1.
       -3    1    3    3    0  502 -0.27648651030E+02  0.82825007809E+02  0.85414307862E+03  0.85859468830E+03  0.10100000352E+00 0. -1.
</event>
<event>
 5   0  0.1663497E-02  0.1018240E+04  0.7818609E-02  0.9288763E-01
        2   -1    0    0  501    0  0.00000000000E+00  0.00000000000E+00  0.13610907883E+04  0.13610907883E+04  0.25500000920E-02 0.  1.
       -2   -1    0    0    0  501  0.00000000000E+00  0.00000000000E+00 -0.19043788983E+03  0.19043788984E+03  0.25500000920E-02 0. -1.
    10030    2    1    2    0    0  0.00000000000E+00  0.00000000000E+00  0.11706528985E+04  0.15515286782E+04  0.10182401634E+04 0.  0.
        1    1    3    3  502    0 -0.29724745863E+03  0.27645120108E+03  0.10535422247E+04  0.11290405385E+04  0.50400001928E-02 0.  1.
       -1    1    3    3    0  502  0.29724745863E+03 -0.27645120108E+03  0.11711067377E+03  0.42248813968E+03  0.50400001928E-02 0. -1.
</event>
<event>
 5   0  0.1656859E-02  0.9236625E+03  0.7818609E-02  0.9396476E-01
        2   -1    0    0  501    0  0.00000000000E+00  0.00000000000E+00  0.55533136921E+03  0.55533136922E+03  0.25500000920E-02 0.  1.
       -2   -1    0    0    0  501  0.00000000000E+00  0.00000000000E+00 -0.38407356658E+03  0.38407356659E+03  0.25500000920E-02 0. -1.
    10030    2    1    2    0    0  0.00000000000E+00  0.00000000000E+00  0.17125780263E+03  0.93940493581E+03  0.92366249164E+03 0.  0.
        4    1    3    3  502    0  0.31149153902E+03  0.32269478060E+03  0.19763114390E+03  0.49012098736E+03  0.12699999809E+01 0. -1.
       -4    1    3    3    0  502 -0.31149153902E+03 -0.32269478060E+03 -0.26373341276E+02  0.44928394845E+03  0.12699999809E+01 0.  1.
</event>
<event>
 5   0  0.9507815E-03  0.1002179E+04  0.7818609E-02  0.9306158E-01
       -1   -1    0    0    0  501  0.00000000000E+00  0.00000000000E+00  0.45993687076E+03  0.45993687078E+03  0.50400001928E-02 0. -1.
        1   -1    0    0  501    0  0.00000000000E+00  0.00000000000E+00 -0.54592414801E+03  0.54592414803E+03  0.50400001928E-02 0.  1.
    10030    2    1    2    0    0  0.00000000000E+00  0.00000000000E+00 -0.85987277255E+02  0.10058610188E+04  0.10021789148E+04 0.  0.
        1    1    3    3  502    0 -0.36602312000E+03  0.31046478093E+03 -0.18749949605E+03  0.51528377193E+03  0.50400001928E-02 0.  1.
       -1    1    3    3    0  502  0.36602312000E+03 -0.31046478093E+03  0.10151221879E+03  0.49057724689E+03  0.50400001928E-02 0. -1.
</event>
<event>
 5   0  0.1663497E-02  0.7568409E+03  0.7818609E-02  0.9624679E-01
       -2   -1    0    0    0  501  0.00000000000E+00  0.00000000000E+00  0.24431581151E+03  0.24431581152E+03  0.25500000920E-02 0. -1.
        2   -1    0    0  501    0  0.00000000000E+00  0.00000000000E+00 -0.58613488117E+03  0.58613488118E+03  0.25500000920E-02 0.  1.
    10030    2    1    2    0    0  0.00000000000E+00  0.00000000000E+00 -0.34181906966E+03  0.83045069270E+03  0.75684085290E+03 0.  0.
        1    1    3    3  502    0 -0.63215769164E+02 -0.16160450778E+03 -0.53990492721E+03  0.56710632236E+03  0.50400001928E-02 0.  1.
       -1    1    3    3    0  502  0.63215769164E+02  0.16160450778E+03  0.19808585755E+03  0.26334437034E+03  0.50400001928E-02 0. -1.
</event>
<event>
 5   0  0.1656859E-02  0.9873541E+03  0.7818609E-02  0.9322524E-01
       -2   -1    0    0    0  501  0.00000000000E+00  0.00000000000E+00  0.62581890732E+03  0.62581890732E+03  0.25500000920E-02 0. -1.
        2   -1    0    0  501    0  0.00000000000E+00  0.00000000000E+00 -0.38943697399E+03  0.38943697400E+03  0.25500000920E-02 0.  1.
    10030    2    1    2    0    0  0.00000000000E+00  0.00000000000E+00  0.23638193332E+03  0.10152558813E+04  0.98735408348E+03 0.  0.
        4    1    3    3  502    0  0.28827425666E+01 -0.27770141150E+03 -0.30149628743E+03  0.40991219595E+03  0.12699999809E+01 0.  1.
       -4    1    3    3    0  502 -0.28827425666E+01  0.27770141150E+03  0.53787822075E+03  0.60534368537E+03  0.12699999809E+01 0. -1.
</event>
<event>
 5   0  0.1617721E-02  0.6702878E+03  0.7818609E-02  0.9769438E-01
        2   -1    0    0  501    0  0.00000000000E+00  0.00000000000E+00  0.53546037469E+03  0.53546037470E+03  0.25500000920E-02 0.  1.
       -2   -1    0    0    0  501  0.00000000000E+00  0.00000000000E+00 -0.20976609762E+03  0.20976609764E+03  0.25500000920E-02 0. -1.
    10030    2    1    2    0    0  0.00000000000E+00  0.00000000000E+00  0.32569427707E+03  0.74522647233E+03  0.67028779860E+03 0.  0.
        5    1    3    3  502    0  0.25674210253E+03  0.47945557524E+02 -0.70588816931E+02  0.27059222969E+03  0.46999998093E+01 0. -1.
       -5    1    3    3    0  502 -0.25674210253E+03 -0.47945557524E+02  0.39628309400E+03  0.47463424264E+03  0.46999998093E+01 0.  1.
</event>
<event>
 5   0  0.1663497E-02  0.9645977E+03  0.7818609E-02  0.9348249E-01
        2   -1    0    0  501    0  0.00000000000E+00  0.00000000000E+00  0.12474650398E+04  0.12474650398E+04  0.25500000920E-02 0.  1.
       -2   -1    0    0    0  501  0.00000000000E+00  0.00000000000E+00 -0.18646789118E+03  0.18646789120E+03  0.25500000920E-02 0. -1.
    10030    2    1    2    0    0  0.00000000000E+00  0.00000000000E+00  0.10609971486E+04  0.14339329310E+04  0.96459768879E+03 0.  0.
        1    1    3    3  502    0 -0.23418864013E+03  0.36310911848E+02  0.11549414030E+04  0.11790048540E+04  0.50400001928E-02 0.  1.
       -1    1    3    3    0  502  0.23418864013E+03 -0.36310911848E+02 -0.93944254342E+02  0.25492807698E+03  0.50400001928E-02 0. -1.
</event>
<event>
 5   0  0.1617721E-02  0.1000746E+04  0.7818609E-02  0.9307727E-01
       -2   -1    0    0    0  501  0.00000000000E+00  0.00000000000E+00  0.16558145412E+03  0.16558145414E+03  0.25500000920E-02 0.  1.
        2   -1    0    0  501    0  0.00000000000E+00  0.00000000000E+00 -0.15120831977E+04  0.15120831977E+04  0.25500000920E-02 0. -1.
    10030    2    1    2    0    0  0.00000000000E+00  0.00000000000E+00 -0.13465017436E+04  0.16776646518E+04  0.10007455913E+04 0.  0.
        5    1    3    3  502    0  0.26338099266E+03 -0.29898332294E+03 -0.16590265523E+03  0.43163219957E+03  0.46999998093E+01 0.  1.
       -5    1    3    3    0  502 -0.26338099266E+03  0.29898332294E+03 -0.11805990883E+04  0.12460324522E+04  0.46999998093E+01 0. -1.
</event>
<event>
 5   0  0.1663497E-02  0.9938349E+03  0.7818609E-02  0.9315333E-01
       -2   -1    0    0    0  501  0.00000000000E+00  0.00000000000E+00  0.37276125980E+03  0.37276125980E+03  0.25500000920E-02 0. -1.
        2   -1    0    0  501    0  0.00000000000E+00  0.00000000000E+00 -0.66242653851E+03  0.66242653852E+03  0.25500000920E-02 0.  1.
    10030    2    1    2    0    0  0.00000000000E+00  0.00000000000E+00 -0.28966527872E+03  0.10351877983E+04  0.99383489781E+03 0.  0.
        1    1    3    3  502    0  0.11963415369E+03 -0.21846553977E+03 -0.59270946603E+03  0.64291837269E+03  0.50400001928E-02 0.  1.
       -1    1    3    3    0  502 -0.11963415369E+03  0.21846553977E+03  0.30304418731E+03  0.39226942563E+03  0.50400001928E-02 0. -1.
</event>
<event>
 5   0  0.9471140E-03  0.9169031E+03  0.7818609E-02  0.9404695E-01
       -1   -1    0    0    0  501  0.00000000000E+00  0.00000000000E+00  0.68400702736E+03  0.68400702737E+03  0.50400001928E-02 0. -1.
        1   -1    0    0  501    0  0.00000000000E+00  0.00000000000E+00 -0.30727438466E+03  0.30727438470E+03  0.50400001928E-02 0.  1.
    10030    2    1    2    0    0  0.00000000000E+00  0.00000000000E+00  0.37673264270E+03  0.99128141207E+03  0.91690313221E+03 0.  0.
        4    1    3    3  502    0  0.38890116647E+02 -0.36198568894E+02  0.68066552930E+03  0.68273710404E+03  0.12699999809E+01 0. -1.
       -4    1    3    3    0  502 -0.38890116647E+02  0.36198568894E+02 -0.30393288660E+03  0.30854430803E+03  0.12699999809E+01 0.  1.
</event>
<event>
 5   0  0.1000773E-02  0.9951981E+03  0.7818609E-02  0.9313827E-01
       -1   -1    0    0    0  501  0.00000000000E+00  0.00000000000E+00  0.43751068871E+03  0.43751068874E+03  0.50400001928E-02 0.  1.
        1   -1    0    0  501    0  0.00000000000E+00  0.00000000000E+00 -0.56594001224E+03  0.56594001227E+03  0.50400001928E-02 0. -1.
    10030    2    1    2    0    0  0.00000000000E+00  0.00000000000E+00 -0.12842932353E+03  0.10034507010E+04  0.99519807988E+03 0.  0.
        3    1    3    3  502    0  0.39077467517E+03  0.30315512740E+03 -0.90166010531E+01  0.49466067897E+03  0.10100000352E+00 0.  1.
       -3    1    3    3    0  502 -0.39077467517E+03 -0.30315512740E+03 -0.11941272248E+03  0.50879002203E+03  0.10100000352E+00 0. -1.
</event>
<event>
 5   0  0.1663497E-02  0.9351550E+03  0.7818609E-02  0.9382672E-01
       -2   -1    0    0    0  501  0.00000000000E+00  0.00000000000E+00  0.21887486459E+03  0.21887486460E+03  0.25500000920E-02 0.  1.
        2   -1    0    0  501    0  0.00000000000E+00  0.00000000000E+00 -0.99887544260E+03  0.99887544260E+03  0.25500000920E-02 0. -1.
    10030    2    1    2    0    0  0.00000000000E+00  0.00000000000E+00 -0.78000057801E+03  0.12177503072E+04  0.93515501870E+03 0.  0.
        1    1    3    3  502    0 -0.11412982953E+03  0.24244347397E+03 -0.88896929032E+03  0.92847770852E+03  0.50400001928E-02 0. -1.
       -1    1    3    3    0  502  0.11412982953E+03 -0.24244347397E+03  0.10896871232E+03  0.28927259868E+03  0.50400001928E-02 0.  1.
</event>
<event>
 5   0  0.9759443E-03  0.1034228E+04  0.7818609E-02  0.9271781E-01
       -1   -1    0    0    0  501  0.00000000000E+00  0.00000000000E+00  0.42226586090E+03  0.42226586093E+03  0.50400001928E-02 0. -1.
        1   -1    0    0  501    0  0.00000000000E+00  0.00000000000E+00 -0.63326687455E+03  0.63326687457E+03  0.50400001928E-02 0.  1.
    10030    2    1    2    0    0  0.00000000000E+00  0.00000000000E+00 -0.21100101365E+03  0.10555327355E+04  0.10342281798E+04 0.  0.
        2    1    3    3  502    0  0.40526529127E+03  0.17276299749E+03 -0.38185497207E+03  0.58300963054E+03  0.25500000920E-02 0.  1.
       -2    1    3    3    0  502 -0.40526529127E+03 -0.17276299749E+03  0.17085395842E+03  0.47252310496E+03  0.25500000920E-02 0. -1.
</event>
<event>
 5   0  0.1571895E-02  0.9863860E+03  0.7818609E-02  0.9323604E-01
        2   -1    0    0  501    0  0.00000000000E+00  0.00000000000E+00  0.13543632909E+04  0.13543632909E+04  0.25500000920E-02 0. -1.
       -2   -1    0    0    0  501  0.00000000000E+00  0.00000000000E+00 -0.17959680505E+03  0.17959680507E+03  0.25500000920E-02 0.  1.
    10030    2    1    2    0    0  0.00000000000E+00  0.00000000000E+00  0.11747664858E+04  0.15339600959E+04  0.98638596895E+03 0.  0.
        2    1    3    3  502    0  0.13120807271E+03 -0.42905029965E+03  0.26890532278E+03  0.52307723197E+03  0.25500000920E-02 0. -1.
       -2    1    3    3    0  502 -0.13120807271E+03  0.42905029965E+03  0.90586116303E+03  0.10108828640E+04  0.25500000920E-02 0.  1.
</event>
<event>
 5   0  0.9471140E-03  0.1007757E+04  0.7818609E-02  0.9300077E-01
        1   -1    0    0  501    0  0.00000000000E+00  0.00000000000E+00  0.40703485611E+03  0.40703485614E+03  0.50400001928E-02 0.  1.
       -1   -1    0    0    0  501  0.00000000000E+00  0.00000000000E+00 -0.62376401823E+03  0.62376401825E+03  0.50400001928E-02 0. -1.
    10030    2    1    2    0    0  0.00000000000E+00  0.00000000000E+00 -0.21672916212E+03  0.10307988744E+04  0.10077573070E+04 0.  0.
        4    1    3    3  502    0 -0.36690427041E+03 -0.29975522415E+03  0.67080176331E+02  0.47851154741E+03  0.12699999809E+01 0.  1.
       -4    1    3    3    0  502  0.36690427041E+03  0.29975522415E+03 -0.28380933845E+03  0.55228732698E+03  0.12699999809E+01 0. -1.
</event>
<event>
 5   0  0.1617721E-02  0.9954965E+03  0.7818609E-02  0.9313498E-01
       -2   -1    0    0    0  501  0.00000000000E+00  0.00000000000E+00  0.20304008074E+03  0.20304008076E+03  0.25500000920E-02 0. -1.
        2   -1    0    0  501    0  0.00000000000E+00  0.00000000000E+00 -0.12202188582E+04  0.12202188582E+04  0.25500000920E-02 0.  1.
    10030    2    1    2    0    0  0.00000000000E+00  0.00000000000E+00 -0.10171787775E+04  0.14232589390E+04  0.99549653040E+03 0.  0.
        5    1    3    3  502    0 -0.15923482239E+03  0.18958764837E+03  0.10872222246E+03  0.27044743802E+03  0.46999998093E+01 0. -1.
       -5    1    3    3    0  502  0.15923482239E+03 -0.18958764837E+03 -0.11259009999E+04  0.11528115010E+04  0.46999998093E+01 0.  1.
</event>
<event>
 5   0  0.9471140E-03  0.1016358E+04  0.7818609E-02  0.9290783E-01
       -1   -1    0    0    0  501  0.00000000000E+00  0.00000000000E+00  0.34835343791E+03  0.34835343794E+03  0.50400001928E-02 0. -1.
        1   -1    0    0  501    0  0.00000000000E+00  0.00000000000E+00 -0.74133370717E+03  0.74133370718E+03  0.50400001928E-02 0.  1.
    10030    2    1    2    0    0  0.00000000000E+00  0.00000000000E+00 -0.39298026926E+03  0.10896871451E+04  0.10163584910E+04 0.  0.
        4    1    3    3  502    0  0.23270079174E+03  0.37232477071E+03 -0.47082008415E+03  0.64377679198E+03  0.12699999809E+01 0.  1.
       -4    1    3    3    0  502 -0.23270079174E+03 -0.37232477071E+03  0.77839814890E+02  0.44591035314E+03  0.12699999809E+01 0. -1.
</event>
<event>
 5   0  0.1663497E-02  0.1015207E+04  0.7818609E-02  0.9292021E-01
       -2   -1    0    0    0  501  0.00000000000E+00  0.00000000000E+00  0.11677593761E+03  0.11677593764E+03  0.25500000920E-02 0.  1.
        2   -1    0    0  501    0  0.00000000000E+00  0.00000000000E+00 -0.22064609871E+04  0.22064609871E+04  0.25500000920E-02 0. -1.
    10030    2    1    2    0    0  0.00000000000E+00  0.00000000000E+00 -0.20896850495E+04  0.23232369247E+04  0.10152074677E+04 0.  0.
        1    1    3    3  502    0  0.29062090458E+02 -0.27198013962E+03 -0.66302133435E+02  0.28144941708E+03  0.50400001928E-02 0.  1.
       -1    1    3    3    0  502 -0.29062090458E+02  0.27198013962E+03 -0.20233829160E+04  0.20417875077E+04  0.50400001928E-02 0. -1.
</event>
<event>
 5   0  0.9759443E-03  0.9971747E+03  0.7818609E-02  0.9311649E-01
        1   -1    0    0  501    0  0.00000000000E+00  0.00000000000E+00  0.40908729312E+03  0.40908729315E+03  0.50400001928E-02 0. -1.
       -1   -1    0    0    0  501  0.00000000000E+00  0.00000000000E+00 -0.60766825044E+03  0.60766825046E+03  0.50400001928E-02 0.  1.
    10030    2    1    2    0    0  0.00000000000E+00  0.00000000000E+00 -0.19858095732E+03  0.10167555436E+04  0.99717472835E+03 0.  0.
        2    1    3    3  502    0  0.44705368127E+01  0.40379752246E+03 -0.39746556150E+03  0.56661388743E+03  0.25500000920E-02 0.  1.
       -2    1    3    3    0  502 -0.44705368127E+01 -0.40379752246E+03  0.19888460418E+03  0.45014165618E+03  0.25500000920E-02 0. -1.
</event>
<event>
 5   0  0.9759443E-03  0.5341803E+03  0.7818609E-02  0.1005223E+00
       -1   -1    0    0    0  501  0.00000000000E+00  0.00000000000E+00  0.44115842229E+02  0.44115842516E+02  0.50400001928E-02 0.  1.
        1   -1    0    0  501    0  0.00000000000E+00  0.00000000000E+00 -0.16170416882E+04  0.16170416882E+04  0.50400001928E-02 0. -1.
    10030    2    1    2    0    0  0.00000000000E+00  0.00000000000E+00 -0.15729258459E+04  0.16611575307E+04  0.53418032999E+03 0.  0.
        2    1    3    3  502    0  0.10898996563E+03 -0.17500275250E+03 -0.13144984892E+04  0.13305679442E+04  0.25500000920E-02 0. -1.
       -2    1    3    3    0  502 -0.10898996563E+03  0.17500275250E+03 -0.25842735676E+03  0.33058958652E+03  0.25500000920E-02 0.  1.
</event>
<event>
 5   0  0.1000773E-02  0.1011107E+04  0.7818609E-02  0.9296446E-01
       -1   -1    0    0    0  501  0.00000000000E+00  0.00000000000E+00  0.23301647159E+03  0.23301647165E+03  0.50400001928E-02 0. -1.
        1   -1    0    0  501    0  0.00000000000E+00  0.00000000000E+00 -0.10968512067E+04  0.10968512067E+04  0.50400001928E-02 0.  1.
    10030    2    1    2    0    0  0.00000000000E+00  0.00000000000E+00 -0.86383473509E+03  0.13298676783E+04  0.10111071122E+04 0.  0.
        3    1    3    3  502    0  0.35044501752E+03  0.14832398677E+03  0.58340715521E+01  0.38058607692E+03  0.10100000352E+00 0. -1.
       -3    1    3    3    0  502 -0.35044501752E+03 -0.14832398677E+03 -0.86966880664E+03  0.94928160142E+03  0.10100000352E+00 0.  1.
</event>
<event>
 5   0  0.9396660E-03  0.1115947E+04  0.7818609E-02  0.9189787E-01
       -1   -1    0    0    0  501  0.00000000000E+00  0.00000000000E+00  0.26904294425E+03  0.26904294429E+03  0.50400001928E-02 0.  1.
        1   -1    0    0  501    0  0.00000000000E+00  0.00000000000E+00 -0.11571917015E+04  0.11571917016E+04  0.50400001928E-02 0. -1.
    10030    2    1    2    0    0  0.00000000000E+00  0.00000000000E+00 -0.88814875730E+03  0.14262346458E+04  0.11159467057E+04 0.  0.
        5    1    3    3  502    0  0.10931570985E+03  0.47578704833E+03 -0.78935804469E+03  0.92813331612E+03  0.46999998093E+01 0.  1.
       -5    1    3    3    0  502 -0.10931570985E+03 -0.47578704833E+03 -0.98790712605E+02  0.49810132972E+03  0.46999998093E+01 0. -1.
</event>
<event>
 5   0  0.9471140E-03  0.1037011E+04  0.7818609E-02  0.9268858E-01
        1   -1    0    0  501    0  0.00000000000E+00  0.00000000000E+00  0.20422049726E+04  0.20422049726E+04  0.50400001928E-02 0.  1.
       -1   -1    0    0    0  501  0.00000000000E+00  0.00000000000E+00 -0.13164588523E+03  0.13164588532E+03  0.50400001928E-02 0. -1.
    10030    2    1    2    0    0  0.00000000000E+00  0.00000000000E+00  0.19105590874E+04  0.21738508579E+04  0.10370108612E+04 0.  0.
        4    1    3    3  502    0 -0.58848256745E+02 -0.41683994141E+03  0.32073862924E+03  0.52923863735E+03  0.12699999809E+01 0. -1.
       -4    1    3    3    0  502  0.58848256745E+02  0.41683994141E+03  0.15898204581E+04  0.16446122206E+04  0.12699999809E+01 0.  1.
</event>
<event>
 5   0  0.1656859E-02  0.9879696E+03  0.7818609E-02  0.9321839E-01
        2   -1    0    0  501    0  0.00000000000E+00  0.00000000000E+00  0.31062166921E+03  0.31062166922E+03  0.25500000920E-02 0. -1.
       -2   -1    0    0    0  501  0.00000000000E+00  0.00000000000E+00 -0.78558898552E+03  0.78558898553E+03  0.25500000920E-02 0.  1.
    10030    2    1    2    0    0  0.00000000000E+00  0.00000000000E+00 -0.47496731632E+03  0.10962106547E+04  0.98796955824E+03 0.  0.
        4    1    3    3  502    0  0.47354475003E+03 -0.13669454389E+03 -0.20086281900E+03  0.53223821130E+03  0.12699999809E+01 0.  1.
       -4    1    3    3    0  502 -0.47354475003E+03  0.13669454389E+03 -0.27410449732E+03  0.56397244344E+03  0.12699999809E+01 0. -1.
</event>
<event>
 5   0  0.1663497E-02  0.1091875E+04  0.7818609E-02  0.9213147E-01
       -2   -1    0    0    0  501  0.00000000000E+00  0.00000000000E+00  0.67160442757E+03  0.67160442758E+03  0.25500000920E-02 0. -1.
        2   -1    0    0  501    0  0.00000000000E+00  0.00000000000E+00 -0.44378468286E+03  0.44378468287E+03  0.25500000920E-02 0.  1.
    10030    2    1    2    0    0  0.00000000000E+00  0.00000000000E+00  0.22781974471E+03  0.11153891104E+04  0.10918750073E+04 0.  0.
        1    1    3    3  502    0  0.22681967864E+03 -0.28401218864E+03 -0.30221719530E+03  0.47270003499E+03  0.50400001928E-02 0.  1.
       -1    1    3    3    0  502 -0.22681967864E+03  0.28401218864E+03  0.53003694001E+03  0.64268907546E+03  0.50400001928E-02 0. -1.
</event>
<event>
 5   0  0.1617721E-02  0.1003553E+04  0.7818609E-02  0.9304657E-01
        2   -1    0    0  501    0  0.00000000000E+00  0.00000000000E+00  0.11425267145E+04  0.11425267145E+04  0.25500000920E-02 0. -1.
       -2   -1    0    0    0  501  0.00000000000E+00  0.00000000000E+00 -0.22037088984E+03  0.22037088986E+03  0.25500000920E-02 0.  1.
    10030    2    1    2    0    0  0.00000000000E+00  0.00000000000E+00  0.92215582466E+03  0.13628976044E+04  0.10035529458E+04 0.  0.
        5    1    3    3  502    0  0.13661167187E+03 -0.43562058718E+03  0.74377071152E+03  0.87272275448E+03  0.46999998093E+01 0. -1.
       -5    1    3    3    0  502 -0.13661167187E+03  0.43562058718E+03  0.17838511313E+03  0.49017484988E+03  0.46999998093E+01 0.  1.
</event>
<event>
 5   0  0.1571895E-02  0.9051287E+03  0.7818609E-02  0.9419193E-01
        2   -1    0    0  501    0  0.00000000000E+00  0.00000000000E+00  0.20327523903E+04  0.20327523903E+04  0.25500000920E-02 0.  1.
       -2   -1    0    0    0  501  0.00000000000E+00  0.00000000000E+00 -0.10075722839E+03  0.10075722842E+03  0.25500000920E-02 0. -1.
    10030    2    1    2    0    0  0.00000000000E+00  0.00000000000E+00  0.19319951619E+04  0.21335096187E+04  0.90512871324E+03 0.  0.
        2    1    3    3  502    0  0.11265251755E+03  0.22238500988E+02  0.19978445275E+04  0.20011416483E+04  0.25500000920E-02 0.  1.
       -2    1    3    3    0  502 -0.11265251755E+03 -0.22238500988E+02 -0.65849365569E+02  0.13236797041E+03  0.25500000920E-02 0. -1.
</event>
<event>
 5   0  0.9759443E-03  0.1000109E+04  0.7818609E-02  0.9308425E-01
        1   -1    0    0  501    0  0.00000000000E+00  0.00000000000E+00  0.18433246577E+04  0.18433246577E+04  0.50400001928E-02 0. -1.
       -1   -1    0    0    0  501  0.00000000000E+00  0.00000000000E+00 -0.13565405131E+03  0.13565405140E+03  0.50400001928E-02 0.  1.
    10030    2    1    2    0    0  0.00000000000E+00  0.00000000000E+00  0.17076706064E+04  0.19789787091E+04  0.10001089097E+04 0.  0.
        2    1    3    3  502    0 -0.32879061244E+03  0.37675951587E+03  0.85015556924E+03  0.98631409375E+03  0.25500000920E-02 0.  1.
       -2    1    3    3    0  502  0.32879061244E+03 -0.37675951587E+03  0.85751503713E+03  0.99266461533E+03  0.25500000920E-02 0. -1.
</event>
<event>
 5   0  0.9507815E-03  0.1058924E+04  0.7818609E-02  0.9246178E-01
       -1   -1    0    0    0  501  0.00000000000E+00  0.00000000000E+00  0.41021994627E+03  0.41021994630E+03  0.50400001928E-02 0.  1.
        1   -1    0    0  501    0  0.00000000000E+00  0.00000000000E+00 -0.68336551542E+03  0.68336551544E+03  0.50400001928E-02 0. -1.
    10030    2    1    2    0    0  0.00000000000E+00  0.00000000000E+00 -0.27314556915E+03  0.10935854617E+04  0.10589242939E+04 0.  0.
        1    1    3    3  502    0  0.25879350039E+03  0.37432426388E+03 -0.41605512907E+03  0.61659922220E+03  0.50400001928E-02 0. -1.
       -1    1    3    3    0  502 -0.25879350039E+03 -0.37432426388E+03  0.14290955992E+03  0.47698623954E+03  0.50400001928E-02 0.  1.
</event>
<event>
 5   0  0.1617721E-02  0.1013213E+04  0.7818609E-02  0.9294170E-01
       -2   -1    0    0    0  501  0.00000000000E+00  0.00000000000E+00  0.59657906928E+03  0.59657906929E+03  0.25500000920E-02 0.  1.
        2   -1    0    0  501    0  0.00000000000E+00  0.00000000000E+00 -0.43020348259E+03  0.43020348259E+03  0.25500000920E-02 0. -1.
    10030    2    1    2    0    0  0.00000000000E+00  0.00000000000E+00  0.16637558669E+03  0.10267825519E+04  0.10132134884E+04 0.  0.
        5    1    3    3  502    0 -0.19544725781E+03  0.42042420981E+03  0.29005921786E+03  0.54691186368E+03  0.46999998093E+01 0.  1.
       -5    1    3    3    0  502  0.19544725781E+03 -0.42042420981E+03 -0.12368363116E+03  0.47987068820E+03  0.46999998093E+01 0. -1.
</event>
<event>
 5   0  0.1663497E-02  0.9672451E+03  0.7818609E-02  0.9345218E-01
       -2   -1    0    0    0  501  0.00000000000E+00  0.00000000000E+00  0.53966142490E+03  0.53966142490E+03  0.25500000920E-02 0.  1.
        2   -1    0    0  501    0  0.00000000000E+00  0.00000000000E+00 -0.43340277245E+03  0.43340277246E+03  0.25500000920E-02 0. -1.
    10030    2    1    2    0    0  0.00000000000E+00  0.00000000000E+00  0.10625865245E+03  0.97306419736E+03  0.96724507286E+03 0.  0.
        1    1    3    3  502    0 -0.81396637369E+02 -0.33521878489E+03  0.39412831944E+03  0.52376920349E+03  0.50400001928E-02 0.  1.
       -1    1    3    3    0  502  0.81396637369E+02  0.33521878489E+03 -0.28786966699E+03  0.44929499387E+03  0.50400001928E-02 0. -1.
</event>
<event>
 5   0  0.9396660E-03  0.1032598E+04  0.7818609E-02  0.9273497E-01
        1   -1    0    0  501    0  0.00000000000E+00  0.00000000000E+00  0.73570371923E+03  0.73570371925E+03  0.50400001928E-02 0.  1.
       -1   -1    0    0    0  501  0.00000000000E+00  0.00000000000E+00 -0.36232600841E+03  0.36232600845E+03  0.50400001928E-02 0. -1.
    10030    2    1    2    0    0  0.00000000000E+00  0.00000000000E+00  0.37337771082E+03  0.10980297277E+04  0.10325978733E+04 0.  0.
        5    1    3    3  502    0  0.47922514662E+03 -0.98584791397E+02  0.11421064553E+02  0.48941621649E+03  0.46999998093E+01 0. -1.
       -5    1    3    3    0  502 -0.47922514662E+03  0.98584791397E+02  0.36195664627E+03  0.60861351121E+03  0.46999998093E+01 0.  1.
</event>
<event>
 5   0  0.1000773E-02  0.9812223E+03  0.7818609E-02  0.9329383E-01
        1   -1    0    0  501    0  0.00000000000E+00  0.00000000000E+00  0.47587822548E+03  0.47587822551E+03  0.50400001928E-02 0.  1.
       -1   -1    0    0    0  501  0.00000000000E+00  0.00000000000E+00 -0.50580023982E+03  0.50580023984E+03  0.50400001928E-02 0. -1.
    10030    2    1    2    0    0  0.00000000000E+00  0.00000000000E+00 -0.29922014338E+02  0.98167846535E+03  0.98122234096E+03 0.  0.
        3    1    3    3  502    0  0.35363526697E+03 -0.31123667687E+03  0.12211779094E+03  0.48666100741E+03  0.10100000352E+00 0.  1.
       -3    1    3    3    0  502 -0.35363526697E+03  0.31123667687E+03 -0.15203980527E+03  0.49501745794E+03  0.10100000352E+00 0. -1.
</event>
<event>
 5   0  0.1617721E-02  0.1030186E+04  0.7818609E-02  0.9276043E-01
        2   -1    0    0  501    0  0.00000000000E+00  0.00000000000E+00  0.15204198116E+04  0.15204198116E+04  0.25500000920E-02 0.  1.
       -2   -1    0    0    0  501  0.00000000000E+00  0.00000000000E+00 -0.17450497122E+03  0.17450497124E+03  0.25500000920E-02 0. -1.
    10030    2    1    2    0    0  0.00000000000E+00  0.00000000000E+00  0.13459148403E+04  0.16949247828E+04  0.10301860327E+04 0.  0.
        5    1    3    3  502    0 -0.50716764325E+02 -0.42616845784E+03  0.20439884524E+03  0.47538691881E+03  0.46999998093E+01 0. -1.
       -5    1    3    3    0  502  0.50716764325E+02  0.42616845784E+03  0.11415159951E+04  0.12195378640E+04  0.46999998093E+01 0.  1.
</event>
<event>
 5   0  0.1000773E-02  0.1003811E+04  0.7818609E-02  0.9304375E-01
       -1   -1    0    0    0  501  0.00000000000E+00  0.00000000000E+00  0.17825060487E+03  0.17825060494E+03  0.50400001928E-02 0.  1.
        1   -1    0    0  501    0  0.00000000000E+00  0.00000000000E+00 -0.14132296914E+04  0.14132296914E+04  0.50400001928E-02 0. -1.
    10030    2    1    2    0    0  0.00000000000E+00  0.00000000000E+00 -0.12349790865E+04  0.15914802963E+04  0.10038108335E+04 0.  0.
        3    1    3    3  502    0  0.24719324105E+03 -0.42419080306E+03 -0.78276115150E+03  0.92398991678E+03  0.10100000352E+00 0. -1.
       -3    1    3    3    0  502 -0.24719324105E+03  0.42419080306E+03 -0.45221793499E+03  0.66749037952E+03  0.10100000352E+00 0.  1.
</event>
<event>
 5   0  0.1617721E-02  0.9931433E+03  0.7818609E-02  0.9316097E-01
       -2   -1    0    0    0  501  0.00000000000E+00  0.00000000000E+00  0.20319089131E+03  0.20319089133E+03  0.25500000920E-02 0. -1.
        2   -1    0    0  501    0  0.00000000000E+00  0.00000000000E+00 -0.12135554297E+04  0.12135554297E+04  0.25500000920E-02 0.  1.
    10030    2    1    2    0    0  0.00000000000E+00  0.00000000000E+00 -0.10103645384E+04  0.14167463211E+04  0.99314331179E+03 0.  0.
        5    1    3    3  502    0 -0.15842788047E+03 -0.57822570585E+02 -0.11714156660E+04  0.11835031033E+04  0.46999998093E+01 0.  1.
       -5    1    3    3    0  502  0.15842788047E+03  0.57822570585E+02  0.16105112753E+03  0.23324321781E+03  0.46999998093E+01 0. -1.
</event>
<event>
 5   0  0.9759443E-03  0.1031704E+04  0.7818609E-02  0.9274440E-01
       -1   -1    0    0    0  501  0.00000000000E+00  0.00000000000E+00  0.27391479071E+03  0.27391479076E+03  0.50400001928E-02 0. -1.
        1   -1    0    0  501    0  0.00000000000E+00  0.00000000000E+00 -0.97148274705E+03  0.97148274706E+03  0.50400001928E-02 0.  1.
    10030    2    1    2    0    0  0.00000000000E+00  0.00000000000E+00 -0.69756795634E+03  0.12453975378E+04  0.10317044022E+04 0.  0.
        2    1    3    3  502    0  0.29011300758E+03  0.31461687248E+03 -0.69645764938E+03  0.81743659754E+03  0.25500000920E-02 0.  1.
       -2    1    3    3    0  502 -0.29011300758E+03 -0.31461687248E+03 -0.11103069581E+01  0.42796094028E+03  0.25500000920E-02 0. -1.
</event>
<event>
 5   0  0.1663497E-02  0.1033329E+04  0.7818609E-02  0.9272727E-01
        2   -1    0    0  501    0  0.00000000000E+00  0.00000000000E+00  0.13096296633E+04  0.13096296633E+04  0.25500000920E-02 0.  1.
       -2   -1    0    0    0  501  0.00000000000E+00  0.00000000000E+00 -0.20383047122E+03  0.20383047124E+03  0.25500000920E-02 0. -1.
    10030    2    1    2    0    0  0.00000000000E+00  0.00000000000E+00  0.11057991920E+04  0.15134601345E+04  0.10333294371E+04 0.  0.
        1    1    3    3  502    0 -0.43579654363E+03  0.11953359355E+03  0.91974995551E+03  0.10247667482E+04  0.50400001928E-02 0.  1.
       -1    1    3    3    0  502  0.43579654363E+03 -0.11953359355E+03  0.18604923654E+03  0.48869338636E+03  0.50400001928E-02 0. -1.
</event>
<event>
 5   0  0.9759443E-03  0.1014339E+04  0.7818609E-02  0.9292956E-01
       -1   -1    0    0    0  501  0.00000000000E+00  0.00000000000E+00  0.27046169825E+03  0.27046169830E+03  0.50400001928E-02 0. -1.
        1   -1    0    0  501    0  0.00000000000E+00  0.00000000000E+00 -0.95104434734E+03  0.95104434735E+03  0.50400001928E-02 0.  1.
    10030    2    1    2    0    0  0.00000000000E+00  0.00000000000E+00 -0.68058264908E+03  0.12215060457E+04  0.10143393305E+04 0.  0.
        2    1    3    3  502    0  0.40986044052E+03 -0.18149563161E+03 -0.62601523780E+03  0.76994890932E+03  0.25500000920E-02 0. -1.
       -2    1    3    3    0  502 -0.40986044052E+03  0.18149563161E+03 -0.54567411279E+02  0.45155713633E+03  0.25500000920E-02 0.  1.
</event>
<event>
 5   0  0.1656859E-02  0.1003307E+04  0.7818609E-02  0.9304925E-01
        2   -1    0    0  501    0  0.00000000000E+00  0.00000000000E+00  0.40600894752E+03  0.40600894752E+03  0.25500000920E-02 0. -1.
       -2   -1    0    0    0  501  0.00000000000E+00  0.00000000000E+00 -0.61982899499E+03  0.61982899499E+03  0.25500000920E-02 0.  1.
    10030    2    1    2    0    0  0.00000000000E+00  0.00000000000E+00 -0.21382004747E+03  0.10258379425E+04  0.10033067684E+04 0.  0.
        4    1    3    3  502    0 -0.49306963638E+03  0.72776191394E+01 -0.20108643679E+03  0.53254858747E+03  0.12699999809E+01 0.  1.
       -4    1    3    3    0  502  0.49306963638E+03 -0.72776191394E+01 -0.12733610679E+02  0.49328935504E+03  0.12699999809E+01 0. -1.
</event>
<event>
 5   0  0.9471140E-03  0.1008179E+04  0.7818609E-02  0.9299620E-01
       -1   -1    0    0    0  501  0.00000000000E+00  0.00000000000E+00  0.39055207937E+03  0.39055207940E+03  0.50400001928E-02 0.  1.
        1   -1    0    0  501    0  0.00000000000E+00  0.00000000000E+00 -0.65063283055E+03  0.65063283057E+03  0.50400001928E-02 0. -1.
    10030    2    1    2    0    0  0.00000000000E+00  0.00000000000E+00 -0.26008075118E+03  0.10411849100E+04  0.10081785653E+04 0.  0.
        4    1    3    3  502    0 -0.32958230132E+03  0.29893353780E+03 -0.37468967080E+03  0.58170414789E+03  0.12699999809E+01 0. -1.
       -4    1    3    3    0  502  0.32958230132E+03 -0.29893353780E+03  0.11460891962E+03  0.45948076208E+03  0.12699999809E+01 0.  1.
</event>
<event>
 5   0  0.6314750E-03  0.1181123E+04  0.7818609E-02  0.9129542E-01
        4   -1    0    0  501    0  0.00000000000E+00  0.00000000000E+00  0.98357878811E+03  0.98357960803E+03  0.12699999809E+01 0.  1.
       -4   -1    0    0    0  501  0.00000000000E+00  0.00000000000E+00 -0.35458362926E+03  0.35458590361E+03  0.12699999809E+01 0. -1.
    10030    2    1    2    0    0  0.00000000000E+00  0.00000000000E+00  0.62899515885E+03  0.13381655116E+04  0.11811232055E+04 0.  0.
        1    1    3    3  502    0 -0.27571941500E+02  0.48895219815E+03  0.68842341865E+03  0.84484393080E+03  0.50400001928E-02 0.  1.
       -1    1    3    3    0  502  0.27571941500E+02 -0.48895219815E+03 -0.59428259799E+02  0.49332158084E+03  0.50400001928E-02 0. -1.
</event>
<event>
 5   0  0.9396660E-03  0.1000464E+04  0.7818609E-02  0.9308036E-01
        1   -1    0    0  501    0  0.00000000000E+00  0.00000000000E+00  0.75346438973E+03  0.75346438975E+03  0.50400001928E-02 0.  1.
       -1   -1    0    0    0  501  0.00000000000E+00  0.00000000000E+00 -0.33210862386E+03  0.33210862390E+03  0.50400001928E-02 0. -1.
    10030    2    1    2    0    0  0.00000000000E+00  0.00000000000E+00  0.42135576587E+03  0.10855730136E+04  0.10004639356E+04 0.  0.
        5    1    3    3  502    0  0.28137850237E+03 -0.41470219007E+02  0.65716298655E+03  0.71608583392E+03  0.46999998093E+01 0.  1.
       -5    1    3    3    0  502 -0.28137850237E+03  0.41470219007E+02 -0.23580722067E+03  0.36948717972E+03  0.46999998093E+01 0. -1.
</event>
<event>
 5   0  0.9759443E-03  0.9939031E+03  0.7818609E-02  0.9315257E-01
       -1   -1    0    0    0  501  0.00000000000E+00  0.00000000000E+00  0.31338138661E+03  0.31338138665E+03  0.50400001928E-02 0. -1.
        1   -1    0    0  501    0  0.00000000000E+00  0.00000000000E+00 -0.78805209865E+03  0.78805209866E+03  0.50400001928E-02 0.  1.
    10030    2    1    2    0    0  0.00000000000E+00  0.00000000000E+00 -0.47467071203E+03  0.11014334853E+04  0.99390313296E+03 0.  0.
        2    1    3    3  502    0  0.37902072748E+02  0.10547609453E+03  0.29919237363E+03  0.31949624423E+03  0.25500000920E-02 0. -1.
       -2    1    3    3    0  502 -0.37902072748E+02 -0.10547609453E+03 -0.77386308566E+03  0.78193724108E+03  0.25500000920E-02 0.  1.
</event>
<event>
 5   0  0.1000773E-02  0.9907542E+03  0.7818609E-02  0.9318744E-01
       -1   -1    0    0    0  501  0.00000000000E+00  0.00000000000E+00  0.19623075151E+03  0.19623075157E+03  0.50400001928E-02 0. -1.
        1   -1    0    0  501    0  0.00000000000E+00  0.00000000000E+00 -0.12505606902E+04  0.12505606902E+04  0.50400001928E-02 0.  1.
    10030    2    1    2    0    0  0.00000000000E+00  0.00000000000E+00 -0.10543299387E+04  0.14467914418E+04  0.99075418565E+03 0.  0.
        3    1    3    3  502    0  0.27460816819E+03 -0.19553914786E+03  0.28897223834E+01  0.33712544413E+03  0.10100000352E+00 0. -1.
       -3    1    3    3    0  502 -0.27460816819E+03  0.19553914786E+03 -0.10572196610E+04  0.11096659976E+04  0.10100000352E+00 0.  1.
</event>
<event>
 5   0  0.9396660E-03  0.1019451E+04  0.7818609E-02  0.9287465E-01
       -1   -1    0    0    0  501  0.00000000000E+00  0.00000000000E+00  0.14448194398E+03  0.14448194407E+03  0.50400001928E-02 0.  1.
        1   -1    0    0  501    0  0.00000000000E+00  0.00000000000E+00 -0.17982867036E+04  0.17982867037E+04  0.50400001928E-02 0. -1.
    10030    2    1    2    0    0  0.00000000000E+00  0.00000000000E+00 -0.16538047597E+04  0.19427686477E+04  0.10194507519E+04 0.  0.
        5    1    3    3  502    0  0.50745451209E+03 -0.47779494396E+02 -0.83112382175E+03  0.97497787616E+03  0.46999998093E+01 0. -1.
       -5    1    3    3    0  502 -0.50745451209E+03  0.47779494396E+02 -0.82268093791E+03  0.96779077156E+03  0.46999998093E+01 0.  1.
</event>
<event>
 5   0  0.9396660E-03  0.1012960E+04  0.7818609E-02  0.9294444E-01
       -1   -1    0    0    0  501  0.00000000000E+00  0.00000000000E+00  0.77535940250E+03  0.77535940252E+03  0.50400001928E-02 0. -1.
        1   -1    0    0  501    0  0.00000000000E+00  0.00000000000E+00 -0.33084249419E+03  0.33084249422E+03  0.50400001928E-02 0.  1.
    10030    2    1    2    0    0  0.00000000000E+00  0.00000000000E+00  0.44451690832E+03  0.11062018967E+04  0.10129597004E+04 0.  0.
        5    1    3    3  502    0  0.22671412717E+03  0.45251344869E+03  0.20235941240E+03  0.54510470415E+03  0.46999998093E+01 0. -1.
       -5    1    3    3    0  502 -0.22671412717E+03 -0.45251344869E+03  0.24215749592E+03  0.56109719259E+03  0.46999998093E+01 0.  1.
</event>
<event>
 5   0  0.9396660E-03  0.1044470E+04  0.7818609E-02  0.9261073E-01
       -1   -1    0    0    0  501  0.00000000000E+00  0.00000000000E+00  0.79044707855E+03  0.79044707857E+03  0.50400001928E-02 0. -1.
        1   -1    0    0  501    0  0.00000000000E+00  0.00000000000E+00 -0.34503152601E+03  0.34503152605E+03  0.50400001928E-02 0.  1.
    10030    2    1    2    0    0  0.00000000000E+00  0.00000000000E+00  0.44541555254E+03  0.11354786046E+04  0.10444695530E+04 0.  0.
        5    1    3    3  502    0 -0.78927658643E+02 -0.15907443449E+03  0.75659232540E+03  0.77716683399E+03  0.46999998093E+01 0. -1.
       -5    1    3    3    0  502  0.78927658643E+02  0.15907443449E+03 -0.31117677286E+03  0.35831177063E+03  0.46999998093E+01 0.  1.
</event>
<event>
 5   0  0.1656859E-02  0.1053397E+04  0.7818609E-02  0.9251844E-01
        2   -1    0    0  501    0  0.00000000000E+00  0.00000000000E+00  0.16438581858E+04  0.16438581858E+04  0.25500000920E-02 0.  1.
       -2   -1    0    0    0  501  0.00000000000E+00  0.00000000000E+00 -0.16875609811E+03  0.16875609813E+03  0.25500000920E-02 0. -1.
    10030    2    1    2    0    0  0.00000000000E+00  0.00000000000E+00  0.14751020877E+04  0.18126142839E+04  0.10533965887E+04 0.  0.
        4    1    3    3  502    0 -0.38092931924E+03 -0.16279817665E+03  0.12972499421E+04  0.13617890504E+04  0.12699999809E+01 0.  1.
       -4    1    3    3    0  502  0.38092931924E+03  0.16279817665E+03  0.17785214554E+03  0.45082523349E+03  0.12699999809E+01 0. -1.
</event>
<event>
 5   0  0.9471140E-03  0.9966121E+03  0.7818609E-02  0.9312268E-01
        1   -1    0    0  501    0  0.00000000000E+00  0.00000000000E+00  0.57414678863E+03  0.57414678866E+03  0.50400001928E-02 0. -1.
       -1   -1    0    0    0  501  0.00000000000E+00  0.00000000000E+00 -0.43248335300E+03  0.43248335303E+03  0.50400001928E-02 0.  1.
    10030    2    1    2    0    0  0.00000000000E+00  0.00000000000E+00  0.14166343564E+03  0.10066301417E+04  0.99661211770E+03 0.  0.
        4    1    3    3  502    0 -0.13859926448E+03  0.32321442594E+03  0.42741013618E+03  0.55349648478E+03  0.12699999809E+01 0. -1.
       -4    1    3    3    0  502  0.13859926448E+03 -0.32321442594E+03 -0.28574670055E+03  0.45313365691E+03  0.12699999809E+01 0.  1.
</event>
<event>
 5   0  0.1598986E-02  0.1025849E+04  0.7818609E-02  0.9280640E-01
        2   -1    0    0  501    0  0.00000000000E+00  0.00000000000E+00  0.45092910147E+03  0.45092910148E+03  0.25500000920E-02 0. -1.
       -2   -1    0    0    0  501  0.00000000000E+00  0.00000000000E+00 -0.58344282230E+03  0.58344282230E+03  0.25500000920E-02 0.  1.
    10030    2    1    2    0    0  0.00000000000E+00  0.00000000000E+00 -0.13251372083E+03  0.10343719238E+04  0.10258486197E+04 0.  0.
        3    1    3    3  502    0  0.23284179751E+03  0.43482557203E+03  0.75634603986E+02  0.49900820062E+03  0.10100000352E+00 0. -1.
       -3    1    3    3    0  502 -0.23284179751E+03 -0.43482557203E+03 -0.20814832481E+03  0.53536372317E+03  0.10100000352E+00 0.  1.
</event>
<event>
 5   0  0.1663497E-02  0.9575264E+03  0.7818609E-02  0.9356396E-01
        2   -1    0    0  501    0  0.00000000000E+00  0.00000000000E+00  0.33231833275E+03  0.33231833276E+03  0.25500000920E-02 0. -1.
       -2   -1    0    0    0  501  0.00000000000E+00  0.00000000000E+00 -0.68974288612E+03  0.68974288612E+03  0.25500000920E-02 0.  1.
    10030    2    1    2    0    0  0.00000000000E+00  0.00000000000E+00 -0.35742455336E+03  0.10220612189E+04  0.95752640893E+03 0.  0.
        1    1    3    3  502    0 -0.14324758609E+03 -0.25448352276E+03 -0.58366613441E+03  0.65264683463E+03  0.50400001928E-02 0.  1.
       -1    1    3    3    0  502  0.14324758609E+03  0.25448352276E+03  0.22624158104E+03  0.36941438425E+03  0.50400001928E-02 0. -1.
</event>
<event>
 5   0  0.9471140E-03  0.9922197E+03  0.7818609E-02  0.9317119E-01
        1   -1    0    0  501    0  0.00000000000E+00  0.00000000000E+00  0.69917447291E+03  0.69917447293E+03  0.50400001928E-02 0. -1.
       -1   -1    0    0    0  501  0.00000000000E+00  0.00000000000E+00 -0.35202229285E+03  0.35202229289E+03  0.50400001928E-02 0.  1.
    10030    2    1    2    0    0  0.00000000000E+00  0.00000000000E+00  0.34715218006E+03  0.10511967658E+04  0.99221973592E+03 0.  0.
        4    1    3    3  502    0  0.11806191236E+03  0.47989697839E+03  0.21955702290E+03  0.54078334314E+03  0.12699999809E+01 0.  1.
       -4    1    3    3    0  502 -0.11806191236E+03 -0.47989697839E+03  0.12759515716E+03  0.51041342268E+03  0.12699999809E+01 0. -1.
</event>
<event>
 5   0  0.1663497E-02  0.9489617E+03  0.7818609E-02  0.9366365E-01
        2   -1    0    0  501    0  0.00000000000E+00  0.00000000000E+00  0.82868651718E+03  0.82868651718E+03  0.25500000920E-02 0. -1.
       -2   -1    0    0    0  501  0.00000000000E+00  0.00000000000E+00 -0.27167338634E+03  0.27167338635E+03  0.25500000920E-02 0.  1.
    10030    2    1    2    0    0  0.00000000000E+00  0.00000000000E+00  0.55701313084E+03  0.11003599035E+04  0.94896169015E+03 0.  0.
        1    1    3    3  502    0  0.13628196395E+03  0.42133227285E+03  0.47610000729E+03  0.65020371793E+03  0.50400001928E-02 0. -1.
       -1    1    3    3    0  502 -0.13628196395E+03 -0.42133227285E+03  0.80913123547E+02  0.45015618560E+03  0.50400001928E-02 0.  1.
</event>
<event>
 5   0  0.1598986E-02  0.9924736E+03  0.7818609E-02  0.9316838E-01
        2   -1    0    0  501    0  0.00000000000E+00  0.00000000000E+00  0.69740693718E+03  0.69740693719E+03  0.25500000920E-02 0. -1.
       -2   -1    0    0    0  501  0.00000000000E+00  0.00000000000E+00 -0.35309505650E+03  0.35309505651E+03  0.25500000920E-02 0.  1.
    10030    2    1    2    0    0  0.00000000000E+00  0.00000000000E+00  0.34431188068E+03  0.10505019937E+04  0.99247356014E+03 0.  0.
        3    1    3    3  502    0 -0.31404435988E+03  0.19223818563E+03 -0.17996830946E+03  0.40983897154E+03  0.10100000352E+00 0.  1.
       -3    1    3    3    0  502  0.31404435988E+03 -0.19223818563E+03  0.52428019014E+03  0.64066302215E+03  0.10100000352E+00 0. -1.
</event>
<event>
 5   0  0.9759443E-03  0.9914742E+03  0.7818609E-02  0.9317945E-01
       -1   -1    0    0    0  501  0.00000000000E+00  0.00000000000E+00  0.20753352307E+03  0.20753352313E+03  0.50400001928E-02 0.  1.
        1   -1    0    0  501    0  0.00000000000E+00  0.00000000000E+00 -0.11841715440E+04  0.11841715441E+04  0.50400001928E-02 0. -1.
    10030    2    1    2    0    0  0.00000000000E+00  0.00000000000E+00 -0.97663802097E+03  0.13917050672E+04  0.99147424073E+03 0.  0.
        2    1    3    3  502    0  0.14078676722E+03  0.44140157313E+03 -0.24078254001E+03  0.52214221641E+03  0.25500000920E-02 0.  1.
       -2    1    3    3    0  502 -0.14078676722E+03 -0.44140157313E+03 -0.73585548096E+03  0.86956285077E+03  0.25500000920E-02 0. -1.
</event>
<event>
 5   0  0.1598986E-02  0.9677374E+03  0.7818609E-02  0.9344655E-01
       -2   -1    0    0    0  501  0.00000000000E+00  0.00000000000E+00  0.51141975106E+03  0.51141975107E+03  0.25500000920E-02 0. -1.
        2   -1    0    0  501    0  0.00000000000E+00  0.00000000000E+00 -0.45780188441E+03  0.45780188442E+03  0.25500000920E-02 0.  1.
    10030    2    1    2    0    0  0.00000000000E+00  0.00000000000E+00  0.53617866651E+02  0.96922163548E+03  0.96773741431E+03 0.  0.
        3    1    3    3  502    0 -0.16141142391E+03  0.45074348742E+03  0.96956173238E+02  0.48849140111E+03  0.10100000352E+00 0. -1.
       -3    1    3    3    0  502  0.16141142391E+03 -0.45074348742E+03 -0.43338306587E+02  0.48073023438E+03  0.10100000352E+00 0.  1.
</event>
<event>
 5   0  0.9471140E-03  0.1005681E+04  0.7818609E-02  0.9302335E-01
        1   -1    0    0  501    0  0.00000000000E+00  0.00000000000E+00  0.13960318783E+04  0.13960318783E+04  0.50400001928E-02 0.  1.
       -1   -1    0    0    0  501  0.00000000000E+00  0.00000000000E+00 -0.18111961691E+03  0.18111961698E+03  0.50400001928E-02 0. -1.
    10030    2    1    2    0    0  0.00000000000E+00  0.00000000000E+00  0.12149122614E+04  0.15771514953E+04  0.10056813791E+04 0.  0.
        4    1    3    3  502    0  0.38358926740E+03 -0.31931351034E+03  0.70343075863E+03  0.86250697912E+03  0.12699999809E+01 0. -1.
       -4    1    3    3    0  502 -0.38358926740E+03  0.31931351034E+03  0.51148150278E+03  0.71464451620E+03  0.12699999809E+01 0.  1.
</event>
<event>
 5   0  0.6314750E-03  0.1001840E+04  0.7818609E-02  0.9306529E-01
        4   -1    0    0  501    0  0.00000000000E+00  0.00000000000E+00  0.34282997281E+03  0.34283232513E+03  0.12699999809E+01 0.  1.
       -4   -1    0    0    0  501  0.00000000000E+00  0.00000000000E+00 -0.73190485990E+03  0.73190596175E+03  0.12699999809E+01 0. -1.
    10030    2    1    2    0    0  0.00000000000E+00  0.00000000000E+00 -0.38907488709E+03  0.10747382869E+04  0.10018398662E+04 0.  0.
        5    1    3    3  502    0 -0.25962249353E+03 -0.29520753234E+03 -0.52752218081E+03  0.65791569941E+03  0.46999998093E+01 0. -1.
       -5    1    3    3    0  502  0.25962249353E+03  0.29520753234E+03  0.13844729371E+03  0.41682258747E+03  0.46999998093E+01 0.  1.
</event>
<event>
 5   0  0.9471140E-03  0.9908755E+03  0.7818609E-02  0.9318609E-01
        1   -1    0    0  501    0  0.00000000000E+00  0.00000000000E+00  0.61211707978E+03  0.61211707981E+03  0.50400001928E-02 0. -1.
       -1   -1    0    0    0  501  0.00000000000E+00  0.00000000000E+00 -0.40099938486E+03  0.40099938489E+03  0.50400001928E-02 0.  1.
    10030    2    1    2    0    0  0.00000000000E+00  0.00000000000E+00  0.21111769493E+03  0.10131164647E+04  0.99087551687E+03 0.  0.
        4    1    3    3  502    0 -0.74536504952E+02  0.28439353880E+03  0.51328475992E+03  0.59152196337E+03  0.12699999809E+01 0. -1.
       -4    1    3    3    0  502  0.74536504952E+02 -0.28439353880E+03 -0.30216706500E+03  0.42159450133E+03  0.12699999809E+01 0.  1.
</event>
<event>
 5   0  0.1663497E-02  0.1002565E+04  0.7818609E-02  0.9305736E-01
       -2   -1    0    0    0  501  0.00000000000E+00  0.00000000000E+00  0.22075008831E+03  0.22075008832E+03  0.25500000920E-02 0. -1.
        2   -1    0    0  501    0  0.00000000000E+00  0.00000000000E+00 -0.11383204355E+04  0.11383204355E+04  0.25500000920E-02 0.  1.
    10030    2    1    2    0    0  0.00000000000E+00  0.00000000000E+00 -0.91757034718E+03  0.13590705238E+04  0.10025653827E+04 0.  0.
        1    1    3    3  502    0  0.27708265708E+03 -0.36417442109E+03 -0.18134683560E+03  0.49222401672E+03  0.50400001928E-02 0. -1.
       -1    1    3    3    0  502 -0.27708265708E+03  0.36417442109E+03 -0.73622351159E+03  0.86684650710E+03  0.50400001928E-02 0.  1.
</event>
<event>
 5   0  0.9507815E-03  0.1026358E+04  0.7818609E-02  0.9280100E-01
        1   -1    0    0  501    0  0.00000000000E+00  0.00000000000E+00  0.47240217828E+03  0.47240217831E+03  0.50400001928E-02 0.  1.
       -1   -1    0    0    0  501  0.00000000000E+00  0.00000000000E+00 -0.55747509342E+03  0.55747509344E+03  0.50400001928E-02 0. -1.
    10030    2    1    2    0    0  0.00000000000E+00  0.00000000000E+00 -0.85072915134E+02  0.10298772717E+04  0.10263575371E+04 0.  0.
        1    1    3    3  502    0  0.41159152962E+03  0.21756512532E+03 -0.25917096798E+03  0.53283370922E+03  0.50400001928E-02 0. -1.
       -1    1    3    3    0  502 -0.41159152962E+03 -0.21756512532E+03  0.17409805285E+03  0.49704356252E+03  0.50400001928E-02 0.  1.
</event>
<event>
 5   0  0.9759443E-03  0.9615488E+03  0.7818609E-02  0.9351753E-01
        1   -1    0    0  501    0  0.00000000000E+00  0.00000000000E+00  0.12386130121E+04  0.12386130121E+04  0.50400001928E-02 0. -1.
       -1   -1    0    0    0  501  0.00000000000E+00  0.00000000000E+00 -0.18661521425E+03  0.18661521432E+03  0.50400001928E-02 0.  1.
    10030    2    1    2    0    0  0.00000000000E+00  0.00000000000E+00  0.10519977978E+04  0.14252282264E+04  0.96154881867E+03 0.  0.
        2    1    3    3  502    0 -0.25896842032E+03  0.33037195915E+02  0.11243978218E+04  0.11543078275E+04  0.25500000920E-02 0. -1.
       -2    1    3    3    0  502  0.25896842032E+03 -0.33037195915E+02 -0.72400023982E+02  0.27092039886E+03  0.25500000920E-02 0.  1.
</event>
<event>
 5   0  0.1571895E-02  0.8831028E+03  0.7818609E-02  0.9446954E-01
        2   -1    0    0  501    0  0.00000000000E+00  0.00000000000E+00  0.19353076028E+04  0.19353076028E+04  0.25500000920E-02 0. -1.
       -2   -1    0    0    0  501  0.00000000000E+00  0.00000000000E+00 -0.10074246413E+03  0.10074246417E+03  0.25500000920E-02 0.  1.
    10030    2    1    2    0    0  0.00000000000E+00  0.00000000000E+00  0.18345651386E+04  0.20360500669E+04  0.88310284065E+03 0.  0.
        2    1    3    3  502    0  0.55082399485E+02  0.23470765306E+03  0.17701726673E+04  0.17865142108E+04  0.25500000920E-02 0. -1.
       -2    1    3    3    0  502 -0.55082399485E+02 -0.23470765306E+03  0.64392471302E+02  0.24953585615E+03  0.25500000920E-02 0.  1.
</event>
<event>
 5   0  0.1571895E-02  0.1004844E+04  0.7818609E-02  0.9303248E-01
       -2   -1    0    0    0  501  0.00000000000E+00  0.00000000000E+00  0.10524444396E+03  0.10524444399E+03  0.25500000920E-02 0. -1.
        2   -1    0    0  501    0  0.00000000000E+00  0.00000000000E+00 -0.23984896699E+04  0.23984896699E+04  0.25500000920E-02 0.  1.
    10030    2    1    2    0    0  0.00000000000E+00  0.00000000000E+00 -0.22932452260E+04  0.25037341139E+04  0.10048436927E+04 0.  0.
        2    1    3    3  502    0 -0.30739310126E+03 -0.94006601004E+02 -0.18450437410E+03  0.37063408343E+03  0.25500000920E-02 0. -1.
       -2    1    3    3    0  502  0.30739310126E+03  0.94006601004E+02 -0.21087408519E+04  0.21331000305E+04  0.25500000920E-02 0.  1.
</event>
<event>
 5   0  0.1617721E-02  0.1012204E+04  0.7818609E-02  0.9295260E-01
        2   -1    0    0  501    0  0.00000000000E+00  0.00000000000E+00  0.68122594747E+03  0.68122594748E+03  0.25500000920E-02 0.  1.
       -2   -1    0    0    0  501  0.00000000000E+00  0.00000000000E+00 -0.37599761859E+03  0.37599761860E+03  0.25500000920E-02 0. -1.
    10030    2    1    2    0    0  0.00000000000E+00  0.00000000000E+00  0.30522832888E+03  0.10572235661E+04  0.10122041968E+04 0.  0.
        5    1    3    3  502    0 -0.22420209803E+03 -0.47342603539E+02 -0.31868595612E+03  0.39254392302E+03  0.46999998093E+01 0. -1.
       -5    1    3    3    0  502  0.22420209803E+03  0.47342603539E+02  0.62391428500E+03  0.66467964306E+03  0.46999998093E+01 0.  1.
</event>
<event>
 5   0  0.1663497E-02  0.1006795E+04  0.7818609E-02  0.9301123E-01
       -2   -1    0    0    0  501  0.00000000000E+00  0.00000000000E+00  0.37174774263E+03  0.37174774264E+03  0.25500000920E-02 0. -1.
        2   -1    0    0  501    0  0.00000000000E+00  0.00000000000E+00 -0.68166990441E+03  0.68166990441E+03  0.25500000920E-02 0.  1.
    10030    2    1    2    0    0  0.00000000000E+00  0.00000000000E+00 -0.30992216178E+03  0.10534176470E+04  0.10067954076E+04 0.  0.
        1    1    3    3  502    0  0.17218751328E+03  0.11793802503E+03  0.32434752563E+03  0.38569318750E+03  0.50400001928E-02 0. -1.
       -1    1    3    3    0  502 -0.17218751328E+03 -0.11793802503E+03 -0.63426968741E+03  0.66772445955E+03  0.50400001928E-02 0.  1.
</event>
<event>
 5   0  0.1000773E-02  0.9970918E+03  0.7818609E-02  0.9311740E-01
        1   -1    0    0  501    0  0.00000000000E+00  0.00000000000E+00  0.20649872517E+04  0.20649872517E+04  0.50400001928E-02 0. -1.
       -1   -1    0    0    0  501  0.00000000000E+00  0.00000000000E+00 -0.12036298279E+03  0.12036298290E+03  0.50400001928E-02 0.  1.
    10030    2    1    2    0    0  0.00000000000E+00  0.00000000000E+00  0.19446242689E+04  0.21853502346E+04  0.99709182158E+03 0.  0.
        3    1    3    3  502    0  0.30997404708E+03 -0.23273820498E+03  0.28515493718E+03  0.48121131566E+03  0.10100000352E+00 0.  1.
       -3    1    3    3    0  502 -0.30997404708E+03  0.23273820498E+03  0.16594693317E+04  0.17041389189E+04  0.10100000352E+00 0. -1.
</event>
<event>
 5   0  0.1656859E-02  0.9844387E+03  0.7818609E-02  0.9325779E-01
        2   -1    0    0  501    0  0.00000000000E+00  0.00000000000E+00  0.56625135589E+03  0.56625135590E+03  0.25500000920E-02 0.  1.
       -2   -1    0    0    0  501  0.00000000000E+00  0.00000000000E+00 -0.42786636402E+03  0.42786636403E+03  0.25500000920E-02 0. -1.
    10030    2    1    2    0    0  0.00000000000E+00  0.00000000000E+00  0.13838499187E+03  0.99411771993E+03  0.98443874116E+03 0.  0.
        4    1    3    3  502    0  0.70549111275E+02  0.32716437047E+03 -0.29527794560E+03  0.44632317939E+03  0.12699999809E+01 0. -1.
       -4    1    3    3    0  502 -0.70549111275E+02 -0.32716437047E+03  0.43366293747E+03  0.54779454053E+03  0.12699999809E+01 0.  1.
</event>
<event>
 5   0  0.1617721E-02  0.9898938E+03  0.7818609E-02  0.9319699E-01
       -2   -1    0    0    0  501  0.00000000000E+00  0.00000000000E+00  0.89933433766E+03  0.89933433766E+03  0.25500000920E-02 0.  1.
        2   -1    0    0  501    0  0.00000000000E+00  0.00000000000E+00 -0.27239304806E+03  0.27239304807E+03  0.25500000920E-02 0. -1.
    10030    2    1    2    0    0  0.00000000000E+00  0.00000000000E+00  0.62694128960E+03  0.11717273857E+04  0.98989377504E+03 0.  0.
        5    1    3    3  502    0  0.38185146852E+03  0.68649824796E+02  0.67720645339E+03  0.78048319198E+03  0.46999998093E+01 0.  1.
       -5    1    3    3    0  502 -0.38185146852E+03 -0.68649824796E+02 -0.50265163793E+02  0.39124419375E+03  0.46999998093E+01 0. -1.
</event>
<event>
 5   0  0.1598986E-02  0.1010223E+04  0.7818609E-02  0.9297403E-01
        2   -1    0    0  501    0  0.00000000000E+00  0.00000000000E+00  0.14673076852E+04  0.14673076852E+04  0.25500000920E-02 0.  1.
       -2   -1    0    0    0  501  0.00000000000E+00  0.00000000000E+00 -0.17388154688E+03  0.17388154690E+03  0.25500000920E-02 0. -1.
    10030    2    1    2    0    0  0.00000000000E+00  0.00000000000E+00  0.12934261383E+04  0.16411892321E+04  0.10102232032E+04 0.  0.
        3    1    3    3  502    0  0.47215119745E+03  0.16852882509E+03  0.54644863567E+03  0.74157591639E+03  0.10100000352E+00 0.  1.
       -3    1    3    3    0  502 -0.47215119745E+03 -0.16852882509E+03  0.74697750265E+03  0.89961331571E+03  0.10100000352E+00 0. -1.
</event>
<event>
 5   0  0.9507815E-03  0.1019983E+04  0.7818609E-02  0.9286895E-01
       -1   -1    0    0    0  501  0.00000000000E+00  0.00000000000E+00  0.12870625779E+03  0.12870625789E+03  0.50400001928E-02 0. -1.
        1   -1    0    0  501    0  0.00000000000E+00  0.00000000000E+00 -0.20208141117E+04  0.20208141117E+04  0.50400001928E-02 0.  1.
    10030    2    1    2    0    0  0.00000000000E+00  0.00000000000E+00 -0.18921078539E+04  0.21495203696E+04  0.10199831805E+04 0.  0.
        1    1    3    3  502    0 -0.35360361868E+03  0.34250981691E+03 -0.66534178171E+03  0.82766429206E+03  0.50400001928E-02 0. -1.
       -1    1    3    3    0  502  0.35360361868E+03 -0.34250981691E+03 -0.12267660722E+04  0.13218560776E+04  0.50400001928E-02 0.  1.
</event>
<event>
 5   0  0.6314750E-03  0.1017366E+04  0.7818609E-02  0.9289701E-01
        4   -1    0    0  501    0  0.00000000000E+00  0.00000000000E+00  0.20116214019E+03  0.20116614910E+03  0.12699999809E+01 0. -1.
       -4   -1    0    0    0  501  0.00000000000E+00  0.00000000000E+00 -0.12863000622E+04  0.12863006892E+04  0.12699999809E+01 0.  1.
    10030    2    1    2    0    0  0.00000000000E+00  0.00000000000E+00 -0.10851379220E+04  0.14874668383E+04  0.10173658561E+04 0.  0.
        1    1    3    3  502    0 -0.10575326704E+03 -0.18666102231E+03  0.13178324264E+03  0.25177949441E+03  0.50400001928E-02 0. -1.
       -1    1    3    3    0  502  0.10575326704E+03  0.18666102231E+03 -0.12169211647E+04  0.12356873439E+04  0.50400001928E-02 0.  1.
</event>
<event>
 5   0  0.9759443E-03  0.1028971E+04  0.7818609E-02  0.9277328E-01
        1   -1    0    0  501    0  0.00000000000E+00  0.00000000000E+00  0.98550957699E+03  0.98550957700E+03  0.50400001928E-02 0. -1.
       -1   -1    0    0    0  501  0.00000000000E+00  0.00000000000E+00 -0.26858744515E+03  0.26858744520E+03  0.50400001928E-02 0.  1.
    10030    2    1    2    0    0  0.00000000000E+00  0.00000000000E+00  0.71692213183E+03  0.12540970222E+04  0.10289713300E+04 0.  0.
        2    1    3    3  502    0 -0.42702762639E+03 -0.28114747340E+03  0.42846448993E+03  0.66706694914E+03  0.25500000920E-02 0. -1.
       -2    1    3    3    0  502  0.42702762639E+03  0.28114747340E+03  0.28845764191E+03  0.58703007306E+03  0.25500000920E-02 0.  1.
</event>
<event>
 5   0  0.1571895E-02  0.9696112E+03  0.7818609E-02  0.9342517E-01
       -2   -1    0    0    0  501  0.00000000000E+00  0.00000000000E+00  0.17620284862E+03  0.17620284864E+03  0.25500000920E-02 0. -1.
        2   -1    0    0  501    0  0.00000000000E+00  0.00000000000E+00 -0.13338971241E+04  0.13338971241E+04  0.25500000920E-02 0.  1.
    10030    2    1    2    0    0  0.00000000000E+00  0.00000000000E+00 -0.11576942755E+04  0.15100999728E+04  0.96961120674E+03 0.  0.
        2    1    3    3  502    0  0.43727323271E+03  0.62177936048E+02 -0.26750752337E+03  0.51636639205E+03  0.25500000920E-02 0. -1.
       -2    1    3    3    0  502 -0.43727323271E+03 -0.62177936048E+02 -0.89018675215E+03  0.99373358073E+03  0.25500000920E-02 0.  1.
</event>
<event>
 5   0  0.1656859E-02  0.9814813E+03  0.7818609E-02  0.9329092E-01
        2   -1    0    0  501    0  0.00000000000E+00  0.00000000000E+00  0.34971064646E+03  0.34971064647E+03  0.25500000920E-02 0. -1.
       -2   -1    0    0    0  501  0.00000000000E+00  0.00000000000E+00 -0.68864477614E+03  0.68864477614E+03  0.25500000920E-02 0.  1.
    10030    2    1    2    0    0  0.00000000000E+00  0.00000000000E+00 -0.33893412967E+03  0.10383554226E+04  0.98148134950E+03 0.  0.
        4    1    3    3  502    0 -0.19224630684E+03  0.22406558727E+03  0.24524386578E+03  0.38381010473E+03  0.12699999809E+01 0. -1.
       -4    1    3    3    0  502  0.19224630684E+03 -0.22406558727E+03 -0.58417799545E+03  0.65454531788E+03  0.12699999809E+01 0.  1.
</event>
<event>
 5   0  0.1617721E-02  0.8912166E+03  0.7818609E-02  0.9436628E-01
       -2   -1    0    0    0  501  0.00000000000E+00  0.00000000000E+00  0.12304523287E+03  0.12304523290E+03  0.25500000920E-02 0. -1.
        2   -1    0    0  501    0  0.00000000000E+00  0.00000000000E+00 -0.16137704785E+04  0.16137704785E+04  0.25500000920E-02 0.  1.
    10030    2    1    2    0    0  0.00000000000E+00  0.00000000000E+00 -0.14907252456E+04  0.17368157114E+04  0.89121661643E+03 0.  0.
        5    1    3    3  502    0 -0.11317067300E+03 -0.25405169983E+03 -0.66921023026E+02  0.28609505542E+03  0.46999998093E+01 0. -1.
       -5    1    3    3    0  502  0.11317067300E+03  0.25405169983E+03 -0.14238042226E+04  0.14507206559E+04  0.46999998093E+01 0.  1.
</event>
<event>
 5   0  0.9471140E-03  0.1024730E+04  0.7818609E-02  0.9281829E-01
       -1   -1    0    0    0  501  0.00000000000E+00  0.00000000000E+00  0.59776945475E+03  0.59776945477E+03  0.50400001928E-02 0. -1.
        1   -1    0    0  501    0  0.00000000000E+00  0.00000000000E+00 -0.43916261849E+03  0.43916261852E+03  0.50400001928E-02 0.  1.
    10030    2    1    2    0    0  0.00000000000E+00  0.00000000000E+00  0.15860683626E+03  0.10369320733E+04  0.10247302065E+04 0.  0.
        4    1    3    3  502    0 -0.25938894690E+03  0.23623345554E+03  0.45714957803E+03  0.57626054948E+03  0.12699999809E+01 0. -1.
       -4    1    3    3    0  502  0.25938894690E+03 -0.23623345554E+03 -0.29854274177E+03  0.46067152381E+03  0.12699999809E+01 0.  1.
</event>
<event>
 5   0  0.9471140E-03  0.9721578E+03  0.7818609E-02  0.9339620E-01
       -1   -1    0    0    0  501  0.00000000000E+00  0.00000000000E+00  0.61362944671E+03  0.61362944673E+03  0.50400001928E-02 0.  1.
        1   -1    0    0  501    0  0.00000000000E+00  0.00000000000E+00 -0.38504134500E+03  0.38504134503E+03  0.50400001928E-02 0. -1.
    10030    2    1    2    0    0  0.00000000000E+00  0.00000000000E+00  0.22858810171E+03  0.99867079176E+03  0.97215782159E+03 0.  0.
        4    1    3    3  502    0  0.13286106629E+03  0.59922255502E+02 -0.36206392343E+03  0.39030070099E+03  0.12699999809E+01 0. -1.
       -4    1    3    3    0  502 -0.13286106629E+03 -0.59922255502E+02  0.59065202514E+03  0.60837009077E+03  0.12699999809E+01 0.  1.
</event>
<event>
 5   0  0.1571895E-02  0.9603478E+03  0.7818609E-02  0.9353137E-01
        2   -1    0    0  501    0  0.00000000000E+00  0.00000000000E+00  0.51944105015E+03  0.51944105016E+03  0.25500000920E-02 0.  1.
       -2   -1    0    0    0  501  0.00000000000E+00  0.00000000000E+00 -0.44387515067E+03  0.44387515068E+03  0.25500000920E-02 0. -1.
    10030    2    1    2    0    0  0.00000000000E+00  0.00000000000E+00  0.75565899485E+02  0.96331620084E+03  0.96034780035E+03 0.  0.
        2    1    3    3  502    0  0.21053137612E+03  0.16857952078E+03 -0.36071626802E+03  0.45039842493E+03  0.25500000920E-02 0. -1.
       -2    1    3    3    0  502 -0.21053137612E+03 -0.16857952078E+03  0.43628216750E+03  0.51291777591E+03  0.25500000920E-02 0.  1.
</event>
<event>
 5   0  0.1663497E-02  0.5482539E+03  0.7818609E-02  0.1001899E+00
       -2   -1    0    0    0  501  0.00000000000E+00  0.00000000000E+00  0.68980579687E+02  0.68980579735E+02  0.25500000920E-02 0. -1.
        2   -1    0    0  501    0  0.00000000000E+00  0.00000000000E+00 -0.10893731059E+04  0.10893731059E+04  0.25500000920E-02 0.  1.
    10030    2    1    2    0    0  0.00000000000E+00  0.00000000000E+00 -0.10203925263E+04  0.11583536857E+04  0.54825391334E+03 0.  0.
        1    1    3    3  502    0  0.21377775220E+02  0.13077001901E+03 -0.10172157105E+04  0.10258097332E+04  0.50400001928E-02 0.  1.
       -1    1    3    3    0  502 -0.21377775220E+02 -0.13077001901E+03 -0.31768157844E+01  0.13254395245E+03  0.50400001928E-02 0. -1.
</event>
<event>
 5   0  0.1663497E-02  0.1034573E+04  0.7818609E-02  0.9271418E-01
        2   -1    0    0  501    0  0.00000000000E+00  0.00000000000E+00  0.13032841770E+04  0.13032841770E+04  0.25500000920E-02 0. -1.
       -2   -1    0    0    0  501  0.00000000000E+00  0.00000000000E+00 -0.20531630409E+03  0.20531630410E+03  0.25500000920E-02 0.  1.
    10030    2    1    2    0    0  0.00000000000E+00  0.00000000000E+00  0.10979678729E+04  0.15086004811E+04  0.10345733235E+04 0.  0.
        1    1    3    3  502    0  0.57467157083E+02 -0.16030226842E+03 -0.16327125783E+03  0.23591692407E+03  0.50400001928E-02 0.  1.
       -1    1    3    3    0  502 -0.57467157083E+02  0.16030226842E+03  0.12612391307E+04  0.12726835570E+04  0.50400001928E-02 0. -1.
</event>
<event>
 5   0  0.9759443E-03  0.1005987E+04  0.7818609E-02  0.9302003E-01
        1   -1    0    0  501    0  0.00000000000E+00  0.00000000000E+00  0.56812163857E+03  0.56812163860E+03  0.50400001928E-02 0.  1.
       -1   -1    0    0    0  501  0.00000000000E+00  0.00000000000E+00 -0.44533144908E+03  0.44533144911E+03  0.50400001928E-02 0. -1.
    10030    2    1    2    0    0  0.00000000000E+00  0.00000000000E+00  0.12279018949E+03  0.10134530877E+04  0.10059869434E+04 0.  0.
        2    1    3    3  502    0  0.20839180956E+01  0.50046150487E+03  0.11213127669E+03  0.51287375034E+03  0.25500000920E-02 0.  1.
       -2    1    3    3    0  502 -0.20839180956E+01 -0.50046150487E+03  0.10658912809E+02  0.50057933737E+03  0.25500000920E-02 0. -1.
</event>
<event>
 5   0  0.1617721E-02  0.9670731E+03  0.7818609E-02  0.9345414E-01
        2   -1    0    0  501    0  0.00000000000E+00  0.00000000000E+00  0.25822445370E+03  0.25822445371E+03  0.25500000920E-02 0.  1.
       -2   -1    0    0    0  501  0.00000000000E+00  0.00000000000E+00 -0.90544331463E+03  0.90544331463E+03  0.25500000920E-02 0. -1.
    10030    2    1    2    0    0  0.00000000000E+00  0.00000000000E+00 -0.64721886093E+03  0.11636677683E+04  0.96707312089E+03 0.  0.
        5    1    3    3  502    0 -0.14286758101E+03  0.15088136383E+03 -0.84895080172E+03  0.87402281744E+03  0.46999998093E+01 0. -1.
       -5    1    3    3    0  502  0.14286758101E+03 -0.15088136383E+03  0.20173194079E+03  0.28964495091E+03  0.46999998093E+01 0.  1.
</event>
<event>
 5   0  0.9471140E-03  0.9960865E+03  0.7818609E-02  0.9312847E-01
        1   -1    0    0  501    0  0.00000000000E+00  0.00000000000E+00  0.99309577524E+03  0.99309577525E+03  0.50400001928E-02 0.  1.
       -1   -1    0    0    0  501  0.00000000000E+00  0.00000000000E+00 -0.24977156084E+03  0.24977156089E+03  0.50400001928E-02 0. -1.
    10030    2    1    2    0    0  0.00000000000E+00  0.00000000000E+00  0.74332421440E+03  0.12428673361E+04  0.99608650604E+03 0.  0.
        4    1    3    3  502    0 -0.30504268434E+03 -0.12317124086E+03  0.83823279727E+03  0.90047655670E+03  0.12699999809E+01 0.  1.
       -4    1    3    3    0  502  0.30504268434E+03  0.12317124086E+03 -0.94908582863E+02  0.34239077944E+03  0.12699999809E+01 0. -1.
</event>
<event>
 5   0  0.9507815E-03  0.1016162E+04  0.7818609E-02  0.9290995E-01
        1   -1    0    0  501    0  0.00000000000E+00  0.00000000000E+00  0.95647658767E+03  0.95647658768E+03  0.50400001928E-02 0. -1.
       -1   -1    0    0    0  501  0.00000000000E+00  0.00000000000E+00 -0.26989270091E+03  0.26989270096E+03  0.50400001928E-02 0.  1.
    10030    2    1    2    0    0  0.00000000000E+00  0.00000000000E+00  0.68658388676E+03  0.12263692886E+04  0.10161615022E+04 0.  0.
        1    1    3    3  502    0 -0.96602798397E+02  0.45928946417E+03  0.57814151078E+03  0.74466537389E+03  0.50400001928E-02 0. -1.
       -1    1    3    3    0  502  0.96602798397E+02 -0.45928946417E+03  0.10844237598E+03  0.48170391475E+03  0.50400001928E-02 0.  1.
</event>
<event>
 5   0  0.9507815E-03  0.9892518E+03  0.7818609E-02  0.9320412E-01
        1   -1    0    0  501    0  0.00000000000E+00  0.00000000000E+00  0.66849827272E+03  0.66849827274E+03  0.50400001928E-02 0. -1.
       -1   -1    0    0    0  501  0.00000000000E+00  0.00000000000E+00 -0.36597670172E+03  0.36597670176E+03  0.50400001928E-02 0.  1.
    10030    2    1    2    0    0  0.00000000000E+00  0.00000000000E+00  0.30252157100E+03  0.10344749745E+04  0.98925182433E+03 0.  0.
        1    1    3    3  502    0  0.96608056778E+02 -0.32095874832E+03  0.53162950959E+03  0.62847241009E+03  0.50400001928E-02 0. -1.
       -1    1    3    3    0  502 -0.96608056778E+02  0.32095874832E+03 -0.22910793859E+03  0.40600256441E+03  0.50400001928E-02 0.  1.
</event>
<event>
 5   0  0.9759443E-03  0.1001616E+04  0.7818609E-02  0.9306774E-01
       -1   -1    0    0    0  501  0.00000000000E+00  0.00000000000E+00  0.26496795714E+03  0.26496795719E+03  0.50400001928E-02 0.  1.
        1   -1    0    0  501    0  0.00000000000E+00  0.00000000000E+00 -0.94656262543E+03  0.94656262544E+03  0.50400001928E-02 0. -1.
    10030    2    1    2    0    0  0.00000000000E+00  0.00000000000E+00 -0.68159466829E+03  0.12115305826E+04  0.10016162243E+04 0.  0.
        2    1    3    3  502    0  0.45764487578E+03  0.11903970771E+03 -0.54028375494E+03  0.71799430374E+03  0.25500000920E-02 0. -1.
       -2    1    3    3    0  502 -0.45764487578E+03 -0.11903970771E+03 -0.14131091335E+03  0.49353627889E+03  0.25500000920E-02 0.  1.
</event>
<event>
 5   0  0.6314750E-03  0.6952411E+03  0.7818609E-02  0.9725405E-01
        3   -1    0    0  501    0  0.00000000000E+00  0.00000000000E+00  0.28203693815E+03  0.28203695623E+03  0.10100000352E+00 0.  1.
       -3   -1    0    0    0  501  0.00000000000E+00  0.00000000000E+00 -0.42845468598E+03  0.42845469788E+03  0.10100000352E+00 0. -1.
    10030    2    1    2    0    0  0.00000000000E+00  0.00000000000E+00 -0.14641774783E+03  0.71049165412E+03  0.69524113348E+03 0.  0.
        5    1    3    3  502    0  0.97466678241E+02  0.32061730990E+03 -0.16755271205E+03  0.37468815579E+03  0.46999998093E+01 0. -1.
       -5    1    3    3    0  502 -0.97466678241E+02 -0.32061730990E+03  0.21134964214E+02  0.33580349833E+03  0.46999998093E+01 0.  1.
</event>
<event>
 5   0  0.9507815E-03  0.9954943E+03  0.7818609E-02  0.9313500E-01
        1   -1    0    0  501    0  0.00000000000E+00  0.00000000000E+00  0.34849876774E+03  0.34849876778E+03  0.50400001928E-02 0.  1.
       -1   -1    0    0    0  501  0.00000000000E+00  0.00000000000E+00 -0.71091280934E+03  0.71091280935E+03  0.50400001928E-02 0. -1.
    10030    2    1    2    0    0  0.00000000000E+00  0.00000000000E+00 -0.36241404160E+03  0.10594115771E+04  0.99549432555E+03 0.  0.
        1    1    3    3  502    0  0.37902125758E+03  0.49038381765E+02 -0.52057106071E+03  0.64579881221E+03  0.50400001928E-02 0. -1.
       -1    1    3    3    0  502 -0.37902125758E+03 -0.49038381765E+02  0.15815701911E+03  0.41361276492E+03  0.50400001928E-02 0.  1.
</event>
<event>
 5   0  0.1598986E-02  0.1028480E+04  0.7818609E-02  0.9277848E-01
       -2   -1    0    0    0  501  0.00000000000E+00  0.00000000000E+00  0.21915716659E+03  0.21915716661E+03  0.25500000920E-02 0.  1.
        2   -1    0    0  501    0  0.00000000000E+00  0.00000000000E+00 -0.12066352935E+04  0.12066352935E+04  0.25500000920E-02 0. -1.
    10030    2    1    2    0    0  0.00000000000E+00  0.00000000000E+00 -0.98747812686E+03  0.14257924601E+04  0.10284799892E+04 0.  0.
        3    1    3    3  502    0 -0.47998682704E+03  0.98471957553E+01 -0.23827234111E+03  0.53596458851E+03  0.10100000352E+00 0.  1.
       -3    1    3    3    0  502  0.47998682704E+03 -0.98471957553E+01 -0.74920578575E+03  0.88982787155E+03  0.10100000352E+00 0. -1.
</event>
<event>
 5   0  0.1000773E-02  0.1003978E+04  0.7818609E-02  0.9304193E-01
       -1   -1    0    0    0  501  0.00000000000E+00  0.00000000000E+00  0.50658181446E+03  0.50658181449E+03  0.50400001928E-02 0. -1.
        1   -1    0    0  501    0  0.00000000000E+00  0.00000000000E+00 -0.49743771732E+03  0.49743771735E+03  0.50400001928E-02 0.  1.
    10030    2    1    2    0    0  0.00000000000E+00  0.00000000000E+00  0.91440971406E+01  0.10040195318E+04  0.10039778911E+04 0.  0.
        3    1    3    3  502    0 -0.13510319430E+03  0.51868919187E+02 -0.47612411293E+03  0.49763183077E+03  0.10100000352E+00 0.  1.
       -3    1    3    3    0  502  0.13510319430E+03 -0.51868919187E+02  0.48526821007E+03  0.50638770107E+03  0.10100000352E+00 0. -1.
</event>
<event>
 5   0  0.1656859E-02  0.9820523E+03  0.7818609E-02  0.9328452E-01
        2   -1    0    0  501    0  0.00000000000E+00  0.00000000000E+00  0.14261859417E+04  0.14261859417E+04  0.25500000920E-02 0. -1.
       -2   -1    0    0    0  501  0.00000000000E+00  0.00000000000E+00 -0.16905696943E+03  0.16905696945E+03  0.25500000920E-02 0.  1.
    10030    2    1    2    0    0  0.00000000000E+00  0.00000000000E+00  0.12571289722E+04  0.15952429111E+04  0.98205228609E+03 0.  0.
        4    1    3    3  502    0 -0.24421096173E+02 -0.36049560905E+03  0.88463834187E+02  0.37199588297E+03  0.12699999809E+01 0.  1.
       -4    1    3    3    0  502  0.24421096173E+02  0.36049560905E+03  0.11686651380E+04  0.12232470281E+04  0.12699999809E+01 0. -1.
</event>
<event>
 5   0  0.1598986E-02  0.1000404E+04  0.7818609E-02  0.9308102E-01
        2   -1    0    0  501    0  0.00000000000E+00  0.00000000000E+00  0.20210928592E+03  0.20210928593E+03  0.25500000920E-02 0.  1.
       -2   -1    0    0    0  501  0.00000000000E+00  0.00000000000E+00 -0.12379544801E+04  0.12379544801E+04  0.25500000920E-02 0. -1.
    10030    2    1    2    0    0  0.00000000000E+00  0.00000000000E+00 -0.10358451942E+04  0.14400637661E+04  0.10004041103E+04 0.  0.
        3    1    3    3  502    0 -0.94366810320E+02  0.30886160606E+03 -0.10677623464E+04  0.11155344124E+04  0.10100000352E+00 0. -1.
       -3    1    3    3    0  502  0.94366810320E+02 -0.30886160606E+03  0.31917152212E+02  0.32452935367E+03  0.10100000352E+00 0.  1.
</event>
<event>
 5   0  0.1571895E-02  0.9954627E+03  0.7818609E-02  0.9313535E-01
       -2   -1    0    0    0  501  0.00000000000E+00  0.00000000000E+00  0.42774023109E+03  0.42774023110E+03  0.25500000920E-02 0. -1.
        2   -1    0    0  501    0  0.00000000000E+00  0.00000000000E+00 -0.57917508319E+03  0.57917508320E+03  0.25500000920E-02 0.  1.
    10030    2    1    2    0    0  0.00000000000E+00  0.00000000000E+00 -0.15143485210E+03  0.10069153143E+04  0.99546267421E+03 0.  0.
        2    1    3    3  502    0  0.33296184513E+03 -0.20928605234E+03 -0.38430472945E+03  0.54986759052E+03  0.25500000920E-02 0.  1.
       -2    1    3    3    0  502 -0.33296184513E+03  0.20928605234E+03  0.23286987736E+03  0.45704772377E+03  0.25500000920E-02 0. -1.
</event>
<event>
 5   0  0.9396660E-03  0.9708907E+03  0.7818609E-02  0.9341060E-01
       -1   -1    0    0    0  501  0.00000000000E+00  0.00000000000E+00  0.21550305008E+03  0.21550305014E+03  0.50400001928E-02 0. -1.
        1   -1    0    0  501    0  0.00000000000E+00  0.00000000000E+00 -0.10935212773E+04  0.10935212773E+04  0.50400001928E-02 0.  1.
    10030    2    1    2    0    0  0.00000000000E+00  0.00000000000E+00 -0.87801822723E+03  0.13090243275E+04  0.97089066456E+03 0.  0.
        5    1    3    3  502    0  0.20658525366E+02  0.46816219105E+03 -0.26829178957E+03  0.54000480197E+03  0.46999998093E+01 0. -1.
       -5    1    3    3    0  502 -0.20658525366E+02 -0.46816219105E+03 -0.60972643766E+03  0.76901952549E+03  0.46999998093E+01 0.  1.
</event>
<event>
 5   0  0.9507815E-03  0.1007005E+04  0.7818609E-02  0.9300896E-01
        1   -1    0    0  501    0  0.00000000000E+00  0.00000000000E+00  0.51445042535E+03  0.51445042538E+03  0.50400001928E-02 0. -1.
       -1   -1    0    0    0  501  0.00000000000E+00  0.00000000000E+00 -0.49278713662E+03  0.49278713665E+03  0.50400001928E-02 0.  1.
    10030    2    1    2    0    0  0.00000000000E+00  0.00000000000E+00  0.21663288733E+02  0.10072375620E+04  0.10070045721E+04 0.  0.
        1    1    3    3  502    0 -0.20731261449E+03 -0.32385602492E+03 -0.31428710709E+03  0.49662624851E+03  0.50400001928E-02 0.  1.
       -1    1    3    3    0  502  0.20731261449E+03  0.32385602492E+03  0.33595039582E+03  0.51061131351E+03  0.50400001928E-02 0. -1.
</event>
<event>
 5   0  0.1656859E-02  0.9804830E+03  0.7818609E-02  0.9330214E-01
        2   -1    0    0  501    0  0.00000000000E+00  0.00000000000E+00  0.43519545949E+03  0.43519545949E+03  0.25500000920E-02 0. -1.
       -2   -1    0    0    0  501  0.00000000000E+00  0.00000000000E+00 -0.55225011168E+03  0.55225011169E+03  0.25500000920E-02 0.  1.
    10030    2    1    2    0    0  0.00000000000E+00  0.00000000000E+00 -0.11705465219E+03  0.98744557118E+03  0.98048302609E+03 0.  0.
        4    1    3    3  502    0  0.85772939581E+02 -0.30588691518E+03 -0.43455699810E+03  0.53829842981E+03  0.12699999809E+01 0.  1.
       -4    1    3    3    0  502 -0.85772939581E+02  0.30588691518E+03  0.31750234591E+03  0.44914714137E+03  0.12699999809E+01 0. -1.
</event>
<event>
 5   0  0.1656859E-02  0.9507811E+03  0.7818609E-02  0.9364238E-01
        2   -1    0    0  501    0  0.00000000000E+00  0.00000000000E+00  0.11336364080E+04  0.11336364080E+04  0.25500000920E-02 0.  1.
       -2   -1    0    0    0  501  0.00000000000E+00  0.00000000000E+00 -0.19935506991E+03  0.19935506993E+03  0.25500000920E-02 0. -1.
    10030    2    1    2    0    0  0.00000000000E+00  0.00000000000E+00  0.93428133813E+03  0.13329914780E+04  0.95078107972E+03 0.  0.
        4    1    3    3  502    0  0.26083912125E+03  0.21074202298E+03  0.93956410384E+03  0.99761293373E+03  0.12699999809E+01 0.  1.
       -4    1    3    3    0  502 -0.26083912125E+03 -0.21074202298E+03 -0.52827657024E+01  0.33537854424E+03  0.12699999809E+01 0. -1.
</event>
<event>
 5   0  0.1617721E-02  0.1005222E+04  0.7818609E-02  0.9302836E-01
        2   -1    0    0  501    0  0.00000000000E+00  0.00000000000E+00  0.22911641058E+03  0.22911641059E+03  0.25500000920E-02 0.  1.
       -2   -1    0    0    0  501  0.00000000000E+00  0.00000000000E+00 -0.11025740360E+04  0.11025740360E+04  0.25500000920E-02 0. -1.
    10030    2    1    2    0    0  0.00000000000E+00  0.00000000000E+00 -0.87345762539E+03  0.13316904466E+04  0.10052219765E+04 0.  0.
        5    1    3    3  502    0  0.74531987198E+02 -0.31626238779E+03  0.71229119924E+02  0.33267490523E+03  0.46999998093E+01 0.  1.
       -5    1    3    3    0  502 -0.74531987198E+02  0.31626238779E+03 -0.94468674531E+03  0.99901554133E+03  0.46999998093E+01 0. -1.
</event>
<event>
 5   0  0.1598986E-02  0.9418470E+03  0.7818609E-02  0.9374731E-01
        2   -1    0    0  501    0  0.00000000000E+00  0.00000000000E+00  0.86286967447E+03  0.86286967447E+03  0.25500000920E-02 0. -1.
       -2   -1    0    0    0  501  0.00000000000E+00  0.00000000000E+00 -0.25701322755E+03  0.25701322756E+03  0.25500000920E-02 0.  1.
    10030    2    1    2    0    0  0.00000000000E+00  0.00000000000E+00  0.60585644692E+03  0.11198829020E+04  0.94184695147E+03 0.  0.
        3    1    3    3  502    0  0.45235876999E+03 -0.13077195963E+03  0.29548870616E+03  0.55591667351E+03  0.10100000352E+00 0.  1.
       -3    1    3    3    0  502 -0.45235876999E+03  0.13077195963E+03  0.31036774076E+03  0.56396622853E+03  0.10100000352E+00 0. -1.
</event>
<event>
 5   0  0.1656859E-02  0.9814350E+03  0.7818609E-02  0.9329144E-01
        2   -1    0    0  501    0  0.00000000000E+00  0.00000000000E+00  0.23600373380E+03  0.23600373382E+03  0.25500000920E-02 0.  1.
       -2   -1    0    0    0  501  0.00000000000E+00  0.00000000000E+00 -0.10203383071E+04  0.10203383071E+04  0.25500000920E-02 0. -1.
    10030    2    1    2    0    0  0.00000000000E+00  0.00000000000E+00 -0.78433457327E+03  0.12563420409E+04  0.98143497028E+03 0.  0.
        4    1    3    3  502    0 -0.31186815164E+03  0.32733058354E+03 -0.14795521881E+03  0.47570938040E+03  0.12699999809E+01 0.  1.
       -4    1    3    3    0  502  0.31186815164E+03 -0.32733058354E+03 -0.63637935446E+03  0.78063266049E+03  0.12699999809E+01 0. -1.
</event>
<event>
 5   0  0.9396660E-03  0.9896763E+03  0.7818609E-02  0.9319941E-01
        1   -1    0    0  501    0  0.00000000000E+00  0.00000000000E+00  0.60917205033E+03  0.60917205035E+03  0.50400001928E-02 0. -1.
       -1   -1    0    0    0  501  0.00000000000E+00  0.00000000000E+00 -0.40196330568E+03  0.40196330571E+03  0.50400001928E-02 0.  1.
    10030    2    1    2    0    0  0.00000000000E+00  0.00000000000E+00  0.20720874466E+03  0.10111353561E+04  0.98967633316E+03 0.  0.
        5    1    3    3  502    0  0.34929053008E+03 -0.23359421795E+02 -0.25368264703E+03  0.43234998831E+03  0.46999998093E+01 0.  1.
       -5    1    3    3    0  502 -0.34929053008E+03  0.23359421795E+02  0.46089139169E+03  0.57878536775E+03  0.46999998093E+01 0. -1.
</event>
<event>
 5   0  0.9759443E-03  0.9343515E+03  0.7818609E-02  0.9383631E-01
        1   -1    0    0  501    0  0.00000000000E+00  0.00000000000E+00  0.86321591811E+03  0.86321591813E+03  0.50400001928E-02 0.  1.
       -1   -1    0    0    0  501  0.00000000000E+00  0.00000000000E+00 -0.25283728231E+03  0.25283728236E+03  0.50400001928E-02 0. -1.
    10030    2    1    2    0    0  0.00000000000E+00  0.00000000000E+00  0.61037863581E+03  0.11160532005E+04  0.93435146881E+03 0.  0.
        2    1    3    3  502    0 -0.15319691491E+03  0.18692420105E+03 -0.17236384722E+03  0.29684886308E+03  0.25500000920E-02 0. -1.
       -2    1    3    3    0  502  0.15319691491E+03 -0.18692420105E+03  0.78274248303E+03  0.81920433740E+03  0.25500000920E-02 0.  1.
</event>
<event>
 5   0  0.6314750E-03  0.9088154E+03  0.7818609E-02  0.9414628E-01
        3   -1    0    0  501    0  0.00000000000E+00  0.00000000000E+00  0.68684984480E+03  0.68684985223E+03  0.10100000352E+00 0. -1.
       -3   -1    0    0    0  501  0.00000000000E+00  0.00000000000E+00 -0.30062808672E+03  0.30062810369E+03  0.10100000352E+00 0.  1.
    10030    2    1    2    0    0  0.00000000000E+00  0.00000000000E+00  0.38622175808E+03  0.98747795591E+03  0.90881541966E+03 0.  0.
        5    1    3    3  502    0 -0.28205311037E+03 -0.35509487063E+03  0.22418621079E+03  0.50589314220E+03  0.46999998093E+01 0. -1.
       -5    1    3    3    0  502  0.28205311037E+03  0.35509487063E+03  0.16203554729E+03  0.48158481372E+03  0.46999998093E+01 0.  1.
</event>
<event>
 5   0  0.1656859E-02  0.9990282E+03  0.7818609E-02  0.9309611E-01
        2   -1    0    0  501    0  0.00000000000E+00  0.00000000000E+00  0.15944122964E+04  0.15944122964E+04  0.25500000920E-02 0. -1.
       -2   -1    0    0    0  501  0.00000000000E+00  0.00000000000E+00 -0.15649297859E+03  0.15649297862E+03  0.25500000920E-02 0.  1.
    10030    2    1    2    0    0  0.00000000000E+00  0.00000000000E+00  0.14379193178E+04  0.17509052750E+04  0.99902818657E+03 0.  0.
        4    1    3    3  502    0 -0.31430956788E+03  0.38694881330E+03  0.77418290099E+03  0.92080435797E+03  0.12699999809E+01 0.  1.
       -4    1    3    3    0  502  0.31430956788E+03 -0.38694881330E+03  0.66373641681E+03  0.83010091704E+03  0.12699999809E+01 0. -1.
</event>
<event>
 5   0  0.1598986E-02  0.1022568E+04  0.7818609E-02  0.9284133E-01
        2   -1    0    0  501    0  0.00000000000E+00  0.00000000000E+00  0.72193118319E+03  0.72193118320E+03  0.25500000920E-02 0. -1.
       -2   -1    0    0    0  501  0.00000000000E+00  0.00000000000E+00 -0.36210040873E+03  0.36210040874E+03  0.25500000920E-02 0.  1.
    10030    2    1    2    0    0  0.00000000000E+00  0.00000000000E+00  0.35983077446E+03  0.10840315919E+04  0.10225684848E+04 0.  0.
        3    1    3    3  502    0  0.29910666632E+03 -0.38127024056E+03  0.35274778775E+03  0.59938535696E+03  0.10100000352E+00 0. -1.
       -3    1    3    3    0  502 -0.29910666632E+03  0.38127024056E+03  0.70829867106E+01  0.48464623497E+03  0.10100000352E+00 0.  1.
</event>
<event>
 5   0  0.6314750E-03  0.1011445E+04  0.7818609E-02  0.9296081E-01
        3   -1    0    0  501    0  0.00000000000E+00  0.00000000000E+00  0.15203920400E+04  0.15203920434E+04  0.10100000352E+00 0. -1.
       -3   -1    0    0    0  501  0.00000000000E+00  0.00000000000E+00 -0.16821657619E+03  0.16821660651E+03  0.10100000352E+00 0.  1.
    10030    2    1    2    0    0  0.00000000000E+00  0.00000000000E+00  0.13521754639E+04  0.16886086499E+04  0.10114448514E+04 0.  0.
        2    1    3    3  502    0  0.32059032742E+03  0.24099613178E+03  0.11903859895E+04  0.12561353818E+04  0.25500000920E-02 0. -1.
       -2    1    3    3    0  502 -0.32059032742E+03 -0.24099613178E+03  0.16178947439E+03  0.43247326808E+03  0.25500000920E-02 0.  1.
</event>
<event>
 5   0  0.1571895E-02  0.1001791E+04  0.7818609E-02  0.9306582E-01
       -2   -1    0    0    0  501  0.00000000000E+00  0.00000000000E+00  0.91591554462E+03  0.91591554463E+03  0.25500000920E-02 0. -1.
        2   -1    0    0  501    0  0.00000000000E+00  0.00000000000E+00 -0.27392975268E+03  0.27392975270E+03  0.25500000920E-02 0.  1.
    10030    2    1    2    0    0  0.00000000000E+00  0.00000000000E+00  0.64198579194E+03  0.11898452973E+04  0.10017914326E+04 0.  0.
        2    1    3    3  502    0 -0.49366849662E+03 -0.65720822253E+02  0.38460742642E+03  0.62924612315E+03  0.25500000920E-02 0.  1.
       -2    1    3    3    0  502  0.49366849662E+03  0.65720822253E+02  0.25737836552E+03  0.56059917417E+03  0.25500000920E-02 0. -1.
</event>
<event>
 5   0  0.1656859E-02  0.1003779E+04  0.7818609E-02  0.9304410E-01
       -2   -1    0    0    0  501  0.00000000000E+00  0.00000000000E+00  0.17573645180E+03  0.17573645181E+03  0.25500000920E-02 0.  1.
        2   -1    0    0  501    0  0.00000000000E+00  0.00000000000E+00 -0.14333560078E+04  0.14333560078E+04  0.25500000920E-02 0. -1.
    10030    2    1    2    0    0  0.00000000000E+00  0.00000000000E+00 -0.12576195560E+04  0.16090924596E+04  0.10037786588E+04 0.  0.
        4    1    3    3  502    0 -0.44432271659E+03 -0.22578845888E+03 -0.53413319495E+03  0.73054978440E+03  0.12699999809E+01 0.  1.
       -4    1    3    3    0  502  0.44432271659E+03  0.22578845888E+03 -0.72348636104E+03  0.87854267520E+03  0.12699999809E+01 0. -1.
</event>
<event>
 5   0  0.9507815E-03  0.1035498E+04  0.7818609E-02  0.9270445E-01
       -1   -1    0    0    0  501  0.00000000000E+00  0.00000000000E+00  0.38621240523E+03  0.38621240526E+03  0.50400001928E-02 0.  1.
        1   -1    0    0  501    0  0.00000000000E+00  0.00000000000E+00 -0.69408493950E+03  0.69408493951E+03  0.50400001928E-02 0. -1.
    10030    2    1    2    0    0  0.00000000000E+00  0.00000000000E+00 -0.30787253426E+03  0.10802973448E+04  0.10354983611E+04 0.  0.
        1    1    3    3  502    0 -0.21132477640E+03 -0.18164045615E+03 -0.60917788658E+03  0.66988738901E+03  0.50400001928E-02 0. -1.
       -1    1    3    3    0  502  0.21132477640E+03  0.18164045615E+03  0.30130535232E+03  0.41040995577E+03  0.50400001928E-02 0.  1.
</event>
<event>
 5   0  0.1571895E-02  0.1045517E+04  0.7818609E-02  0.9259985E-01
       -2   -1    0    0    0  501  0.00000000000E+00  0.00000000000E+00  0.30463191898E+03  0.30463191899E+03  0.25500000920E-02 0. -1.
        2   -1    0    0  501    0  0.00000000000E+00  0.00000000000E+00 -0.89707099562E+03  0.89707099562E+03  0.25500000920E-02 0.  1.
    10030    2    1    2    0    0  0.00000000000E+00  0.00000000000E+00 -0.59243907664E+03  0.12017029146E+04  0.10455170182E+04 0.  0.
        2    1    3    3  502    0  0.29092067004E+03 -0.18980905432E+03 -0.74523717820E+03  0.82221698179E+03  0.25500000920E-02 0.  1.
       -2    1    3    3    0  502 -0.29092067004E+03  0.18980905432E+03  0.15279810156E+03  0.37948593282E+03  0.25500000920E-02 0. -1.
</event>
<event>
 5   0  0.9396660E-03  0.9888280E+03  0.7818609E-02  0.9320884E-01
       -1   -1    0    0    0  501  0.00000000000E+00  0.00000000000E+00  0.10792358164E+03  0.10792358176E+03  0.50400001928E-02 0. -1.
        1   -1    0    0  501    0  0.00000000000E+00  0.00000000000E+00 -0.22649842659E+04  0.22649842659E+04  0.50400001928E-02 0.  1.
    10030    2    1    2    0    0  0.00000000000E+00  0.00000000000E+00 -0.21570606843E+04  0.23729078477E+04  0.98882802244E+03 0.  0.
        5    1    3    3  502    0 -0.38806435532E+03  0.57828483632E+02 -0.35667775784E+03  0.53026332169E+03  0.46999998093E+01 0. -1.
       -5    1    3    3    0  502  0.38806435532E+03 -0.57828483632E+02 -0.18003829264E+04  0.18426445260E+04  0.46999998093E+01 0.  1.
</event>
<event>
 5   0  0.6314750E-03  0.1008276E+04  0.7818609E-02  0.9299514E-01
       -3   -1    0    0    0  501  0.00000000000E+00  0.00000000000E+00  0.79791353296E+03  0.79791353935E+03  0.10100000352E+00 0.  1.
        3   -1    0    0  501    0  0.00000000000E+00  0.00000000000E+00 -0.31852457280E+03  0.31852458881E+03  0.10100000352E+00 0. -1.
    10030    2    1    2    0    0  0.00000000000E+00  0.00000000000E+00  0.47938896015E+03  0.11164381282E+04  0.10082759141E+04 0.  0.
        3    1    3    3  502    0  0.21241947370E+03  0.39148527872E+03 -0.21801246644E+02  0.44593504103E+03  0.10100000352E+00 0.  1.
       -3    1    3    3    0  502 -0.21241947370E+03 -0.39148527872E+03  0.50119020680E+03  0.67050308713E+03  0.10100000352E+00 0. -1.
</event>
<event>
 5   0  0.9507815E-03  0.9811822E+03  0.7818609E-02  0.9329428E-01
        1   -1    0    0  501    0  0.00000000000E+00  0.00000000000E+00  0.10455773946E+04  0.10455773946E+04  0.50400001928E-02 0. -1.
       -1   -1    0    0    0  501  0.00000000000E+00  0.00000000000E+00 -0.23018822816E+03  0.23018822821E+03  0.50400001928E-02 0.  1.
    10030    2    1    2    0    0  0.00000000000E+00  0.00000000000E+00  0.81538916648E+03  0.12757656229E+04  0.98118216028E+03 0.  0.
        1    1    3    3  502    0  0.15346052098E+02 -0.38693245023E+03  0.79933765669E+03  0.88819643761E+03  0.50400001928E-02 0. -1.
       -1    1    3    3    0  502 -0.15346052098E+02  0.38693245023E+03  0.16051509788E+02  0.38756918524E+03  0.50400001928E-02 0.  1.
</event>
<event>
 5   0  0.1617721E-02  0.1007664E+04  0.7818609E-02  0.9300179E-01
       -2   -1    0    0    0  501  0.00000000000E+00  0.00000000000E+00  0.19401380546E+03  0.19401380548E+03  0.25500000920E-02 0.  1.
        2   -1    0    0  501    0  0.00000000000E+00  0.00000000000E+00 -0.13083955156E+04  0.13083955156E+04  0.25500000920E-02 0. -1.
    10030    2    1    2    0    0  0.00000000000E+00  0.00000000000E+00 -0.11143817101E+04  0.15024093211E+04  0.10076642160E+04 0.  0.
        5    1    3    3  502    0 -0.12911966065E+03  0.32747200868E+03 -0.10945961170E+04  0.11498141383E+04  0.46999998093E+01 0. -1.
       -5    1    3    3    0  502  0.12911966065E+03 -0.32747200868E+03 -0.19785593135E+02  0.35259518279E+03  0.46999998093E+01 0.  1.
</event>
<event>
 5   0  0.9396660E-03  0.9841989E+03  0.7818609E-02  0.9326047E-01
       -1   -1    0    0    0  501  0.00000000000E+00  0.00000000000E+00  0.46228551058E+03  0.46228551061E+03  0.50400001928E-02 0.  1.
        1   -1    0    0  501    0  0.00000000000E+00  0.00000000000E+00 -0.52383612854E+03  0.52383612856E+03  0.50400001928E-02 0. -1.
    10030    2    1    2    0    0  0.00000000000E+00  0.00000000000E+00 -0.61550617959E+02  0.98612163917E+03  0.98419886642E+03 0.  0.
        5    1    3    3  502    0  0.15084838825E+03  0.13581042494E+03  0.41836381357E+03  0.46502696509E+03  0.46999998093E+01 0.  1.
       -5    1    3    3    0  502 -0.15084838825E+03 -0.13581042494E+03 -0.47991443153E+03  0.52109467407E+03  0.46999998093E+01 0. -1.
</event>
<event>
 5   0  0.1598986E-02  0.9319427E+03  0.7818609E-02  0.9386509E-01
        2   -1    0    0  501    0  0.00000000000E+00  0.00000000000E+00  0.37725785092E+03  0.37725785093E+03  0.25500000920E-02 0. -1.
       -2   -1    0    0    0  501  0.00000000000E+00  0.00000000000E+00 -0.57554617460E+03  0.57554617460E+03  0.25500000920E-02 0.  1.
    10030    2    1    2    0    0  0.00000000000E+00  0.00000000000E+00 -0.19828832368E+03  0.95280402553E+03  0.93194272987E+03 0.  0.
        3    1    3    3  502    0  0.64378237605E+02 -0.36642967708E+03  0.18769632566E+03  0.41670755524E+03  0.10100000352E+00 0. -1.
       -3    1    3    3    0  502 -0.64378237605E+02  0.36642967708E+03 -0.38598464934E+03  0.53609647029E+03  0.10100000352E+00 0.  1.
</event>
<event>
 5   0  0.9507815E-03  0.1013393E+04  0.7818609E-02  0.9293976E-01
       -1   -1    0    0    0  501  0.00000000000E+00  0.00000000000E+00  0.34509952303E+03  0.34509952307E+03  0.50400001928E-02 0.  1.
        1   -1    0    0  501    0  0.00000000000E+00  0.00000000000E+00 -0.74396391296E+03  0.74396391298E+03  0.50400001928E-02 0. -1.
    10030    2    1    2    0    0  0.00000000000E+00  0.00000000000E+00 -0.39886438993E+03  0.10890634360E+04  0.10133934903E+04 0.  0.
        1    1    3    3  502    0 -0.27855523243E+02 -0.23307140450E+03  0.28314528741E+03  0.36778997211E+03  0.50400001928E-02 0.  1.
       -1    1    3    3    0  502  0.27855523243E+02  0.23307140450E+03 -0.68200967734E+03  0.72127346394E+03  0.50400001928E-02 0. -1.
</event>
<event>
 5   0  0.1000773E-02  0.9981737E+03  0.7818609E-02  0.9310550E-01
        1   -1    0    0  501    0  0.00000000000E+00  0.00000000000E+00  0.28120197810E+03  0.28120197814E+03  0.50400001928E-02 0. -1.
       -1   -1    0    0    0  501  0.00000000000E+00  0.00000000000E+00 -0.88579635332E+03  0.88579635334E+03  0.50400001928E-02 0.  1.
    10030    2    1    2    0    0  0.00000000000E+00  0.00000000000E+00 -0.60459437523E+03  0.11669983315E+04  0.99817370588E+03 0.  0.
        3    1    3    3  502    0 -0.28278519588E+03  0.26226403512E+03  0.68039182499E+02  0.39163660667E+03  0.10100000352E+00 0. -1.
       -3    1    3    3    0  502  0.28278519588E+03 -0.26226403512E+03 -0.67263355773E+03  0.77536172481E+03  0.10100000352E+00 0.  1.
</event>
<event>
 5   0  0.1598986E-02  0.7342865E+03  0.7818609E-02  0.9660330E-01
       -2   -1    0    0    0  501  0.00000000000E+00  0.00000000000E+00  0.76221845173E+02  0.76221845216E+02  0.25500000920E-02 0.  1.
        2   -1    0    0  501    0  0.00000000000E+00  0.00000000000E+00 -0.17684451096E+04  0.17684451096E+04  0.25500000920E-02 0. -1.
    10030    2    1    2    0    0  0.00000000000E+00  0.00000000000E+00 -0.16922232644E+04  0.18446669548E+04  0.73428645468E+03 0.  0.
        3    1    3    3  502    0  0.19024132265E+03  0.20088833939E+03 -0.23981319501E+03  0.36613967888E+03  0.10100000352E+00 0.  1.
       -3    1    3    3    0  502 -0.19024132265E+03 -0.20088833939E+03 -0.14524100694E+04  0.14785272759E+04  0.10100000352E+00 0. -1.
</event>
<event>
 5   0  0.1617721E-02  0.1011883E+04  0.7818609E-02  0.9295607E-01
        2   -1    0    0  501    0  0.00000000000E+00  0.00000000000E+00  0.14382213580E+04  0.14382213580E+04  0.25500000920E-02 0. -1.
       -2   -1    0    0    0  501  0.00000000000E+00  0.00000000000E+00 -0.17798141348E+03  0.17798141350E+03  0.25500000920E-02 0.  1.
    10030    2    1    2    0    0  0.00000000000E+00  0.00000000000E+00  0.12602399445E+04  0.16162027715E+04  0.10118827407E+04 0.  0.
        5    1    3    3  502    0 -0.27435941452E+03 -0.13529075898E+03 -0.13499422004E+02  0.30623684003E+03  0.46999998093E+01 0.  1.
       -5    1    3    3    0  502  0.27435941452E+03  0.13529075898E+03  0.12737393665E+04  0.13099659314E+04  0.46999998093E+01 0. -1.
</event>
<event>
 5   0  0.1617721E-02  0.1068101E+04  0.7818609E-02  0.9236853E-01
       -2   -1    0    0    0  501  0.00000000000E+00  0.00000000000E+00  0.47856579852E+03  0.47856579852E+03  0.25500000920E-02 0.  1.
        2   -1    0    0  501    0  0.00000000000E+00  0.00000000000E+00 -0.59596836968E+03  0.59596836969E+03  0.25500000920E-02 0. -1.
    10030    2    1    2    0    0  0.00000000000E+00  0.00000000000E+00 -0.11740257117E+03  0.10745341682E+04  0.10681012662E+04 0.  0.
        5    1    3    3  502    0 -0.30726618731E+03 -0.39113133825E+03  0.13687055847E+03  0.51589909227E+03  0.46999998093E+01 0.  1.
       -5    1    3    3    0  502  0.30726618731E+03  0.39113133825E+03 -0.25427312964E+03  0.55863507595E+03  0.46999998093E+01 0. -1.
</event>
<event>
 5   0  0.9471140E-03  0.1076653E+04  0.7818609E-02  0.9228250E-01
       -1   -1    0    0    0  501  0.00000000000E+00  0.00000000000E+00  0.46291394345E+03  0.46291394348E+03  0.50400001928E-02 0. -1.
        1   -1    0    0  501    0  0.00000000000E+00  0.00000000000E+00 -0.62602494454E+03  0.62602494456E+03  0.50400001928E-02 0.  1.
    10030    2    1    2    0    0  0.00000000000E+00  0.00000000000E+00 -0.16311100109E+03  0.10889388880E+04  0.10766534741E+04 0.  0.
        4    1    3    3  502    0 -0.23281431403E+03 -0.46775257851E+03  0.49534738196E+02  0.52483357620E+03  0.12699999809E+01 0. -1.
       -4    1    3    3    0  502  0.23281431403E+03  0.46775257851E+03 -0.21264573929E+03  0.56410531185E+03  0.12699999809E+01 0.  1.
</event>
<event>
 5   0  0.9396660E-03  0.1021349E+04  0.7818609E-02  0.9285435E-01
       -1   -1    0    0    0  501  0.00000000000E+00  0.00000000000E+00  0.34767940903E+03  0.34767940906E+03  0.50400001928E-02 0.  1.
        1   -1    0    0  501    0  0.00000000000E+00  0.00000000000E+00 -0.75008322196E+03  0.75008322198E+03  0.50400001928E-02 0. -1.
    10030    2    1    2    0    0  0.00000000000E+00  0.00000000000E+00 -0.40240381293E+03  0.10977626310E+04  0.10213490909E+04 0.  0.
        5    1    3    3  502    0  0.19344769041E+02  0.48279213788E+03 -0.37880349257E+03  0.61398423797E+03  0.46999998093E+01 0.  1.
       -5    1    3    3    0  502 -0.19344769041E+02 -0.48279213788E+03 -0.23600320361E+02  0.48377839308E+03  0.46999998093E+01 0. -1.
</event>
<event>
 5   0  0.9471140E-03  0.1007579E+04  0.7818609E-02  0.9300271E-01
       -1   -1    0    0    0  501  0.00000000000E+00  0.00000000000E+00  0.24883752772E+03  0.24883752777E+03  0.50400001928E-02 0.  1.
        1   -1    0    0  501    0  0.00000000000E+00  0.00000000000E+00 -0.10199577352E+04  0.10199577352E+04  0.50400001928E-02 0. -1.
    10030    2    1    2    0    0  0.00000000000E+00  0.00000000000E+00 -0.77112020744E+03  0.12687952629E+04  0.10075788033E+04 0.  0.
        4    1    3    3  502    0  0.44333981266E+03  0.31618422257E+02 -0.68422378523E+03  0.81591281108E+03  0.12699999809E+01 0. -1.
       -4    1    3    3    0  502 -0.44333981266E+03 -0.31618422257E+02 -0.86896422211E+02  0.45288245186E+03  0.12699999809E+01 0.  1.
</event>
<event>
 5   0  0.9507815E-03  0.9729466E+03  0.7818609E-02  0.9338725E-01
        1   -1    0    0  501    0  0.00000000000E+00  0.00000000000E+00  0.52420696322E+03  0.52420696324E+03  0.50400001928E-02 0. -1.
       -1   -1    0    0    0  501  0.00000000000E+00  0.00000000000E+00 -0.45145576365E+03  0.45145576368E+03  0.50400001928E-02 0.  1.
    10030    2    1    2    0    0  0.00000000000E+00  0.00000000000E+00  0.72751199568E+02  0.97566272693E+03  0.97294656568E+03 0.  0.
        1    1    3    3  502    0 -0.26906224900E+03  0.38316566326E+03 -0.96075818116E+02  0.47795500018E+03  0.50400001928E-02 0.  1.
       -1    1    3    3    0  502  0.26906224900E+03 -0.38316566326E+03  0.16882701768E+03  0.49770772675E+03  0.50400001928E-02 0. -1.
</event>
<event>
 5   0  0.6314750E-03  0.1015038E+04  0.7818609E-02  0.9292203E-01
        3   -1    0    0  501    0  0.00000000000E+00  0.00000000000E+00  0.74108461969E+03  0.74108462657E+03  0.10100000352E+00 0.  1.
       -3   -1    0    0    0  501  0.00000000000E+00  0.00000000000E+00 -0.34756580512E+03  0.34756581980E+03  0.10100000352E+00 0. -1.
    10030    2    1    2    0    0  0.00000000000E+00  0.00000000000E+00  0.39351881456E+03  0.10886504464E+04  0.10150382933E+04 0.  0.
        5    1    3    3  502    0  0.47545761911E+03  0.17219481240E+03  0.24279786503E+03  0.56096692794E+03  0.46999998093E+01 0. -1.
       -5    1    3    3    0  502 -0.47545761911E+03 -0.17219481240E+03  0.15072094953E+03  0.52768351842E+03  0.46999998093E+01 0.  1.
</event>
<event>
 5   0  0.9471140E-03  0.9909218E+03  0.7818609E-02  0.9318558E-01
        1   -1    0    0  501    0  0.00000000000E+00  0.00000000000E+00  0.46832974046E+03  0.46832974048E+03  0.50400001928E-02 0.  1.
       -1   -1    0    0    0  501  0.00000000000E+00  0.00000000000E+00 -0.52416384969E+03  0.52416384972E+03  0.50400001928E-02 0. -1.
    10030    2    1    2    0    0  0.00000000000E+00  0.00000000000E+00 -0.55834109239E+02  0.99249359020E+03  0.99092183286E+03 0.  0.
        4    1    3    3  502    0 -0.48812337108E+03  0.66433610278E+02 -0.80935474967E+02  0.49922942018E+03  0.12699999809E+01 0. -1.
       -4    1    3    3    0  502  0.48812337108E+03 -0.66433610278E+02  0.25101365729E+02  0.49326417002E+03  0.12699999809E+01 0.  1.
</event>
<event>
 5   0  0.1598986E-02  0.1013011E+04  0.7818609E-02  0.9294389E-01
        2   -1    0    0  501    0  0.00000000000E+00  0.00000000000E+00  0.22473113141E+04  0.22473113141E+04  0.25500000920E-02 0.  1.
       -2   -1    0    0    0  501  0.00000000000E+00  0.00000000000E+00 -0.11415757036E+03  0.11415757039E+03  0.25500000920E-02 0. -1.
    10030    2    1    2    0    0  0.00000000000E+00  0.00000000000E+00  0.21331537437E+04  0.23614688845E+04  0.10130105616E+04 0.  0.
        3    1    3    3  502    0 -0.29848487502E+03  0.31511010349E+03  0.16751783706E+04  0.17304942016E+04  0.10100000352E+00 0.  1.
       -3    1    3    3    0  502  0.29848487502E+03 -0.31511010349E+03  0.45797537305E+03  0.63097468290E+03  0.10100000352E+00 0. -1.
</event>
<event>
 5   0  0.1617721E-02  0.1023837E+04  0.7818609E-02  0.9282780E-01
       -2   -1    0    0    0  501  0.00000000000E+00  0.00000000000E+00  0.13200719137E+03  0.13200719139E+03  0.25500000920E-02 0. -1.
        2   -1    0    0  501    0  0.00000000000E+00  0.00000000000E+00 -0.19851998206E+04  0.19851998206E+04  0.25500000920E-02 0.  1.
    10030    2    1    2    0    0  0.00000000000E+00  0.00000000000E+00 -0.18531926293E+04  0.21172070120E+04  0.10238371993E+04 0.  0.
        5    1    3    3  502    0 -0.50450234478E+02  0.95259615157E+02 -0.19614191584E+04  0.19643845921E+04  0.46999998093E+01 0.  1.
       -5    1    3    3    0  502  0.50450234478E+02 -0.95259615157E+02  0.10822652916E+03  0.15282241999E+03  0.46999998093E+01 0. -1.
</event>
<event>
 5   0  0.1617721E-02  0.9935004E+03  0.7818609E-02  0.9315702E-01
       -2   -1    0    0    0  501  0.00000000000E+00  0.00000000000E+00  0.25560878259E+03  0.25560878260E+03  0.25500000920E-02 0.  1.
        2   -1    0    0  501    0  0.00000000000E+00  0.00000000000E+00 -0.96538453203E+03  0.96538453203E+03  0.25500000920E-02 0. -1.
    10030    2    1    2    0    0  0.00000000000E+00  0.00000000000E+00 -0.70977574944E+03  0.12209933146E+04  0.99350040759E+03 0.  0.
        5    1    3    3  502    0 -0.95608937526E+02  0.25174100547E+03  0.15809080640E+03  0.31229696738E+03  0.46999998093E+01 0.  1.
       -5    1    3    3    0  502  0.95608937526E+02 -0.25174100547E+03 -0.86786655584E+03  0.90869634725E+03  0.46999998093E+01 0. -1.
</event>
<event>
 5   0  0.9507815E-03  0.1076373E+04  0.7818609E-02  0.9228531E-01
        1   -1    0    0  501    0  0.00000000000E+00  0.00000000000E+00  0.31194775000E+03  0.31194775004E+03  0.50400001928E-02 0. -1.
       -1   -1    0    0    0  501  0.00000000000E+00  0.00000000000E+00 -0.92850405779E+03  0.92850405781E+03  0.50400001928E-02 0.  1.
    10030    2    1    2    0    0  0.00000000000E+00  0.00000000000E+00 -0.61655630780E+03  0.12404518078E+04  0.10763730798E+04 0.  0.
        1    1    3    3  502    0 -0.29489890313E+03 -0.17310502977E+03 -0.78721790813E+03  0.85827894610E+03  0.50400001928E-02 0.  1.
       -1    1    3    3    0  502  0.29489890313E+03  0.17310502977E+03  0.17066160034E+03  0.38217286175E+03  0.50400001928E-02 0. -1.
</event>
<event>
 5   0  0.1663497E-02  0.9584230E+03  0.7818609E-02  0.9355359E-01
        2   -1    0    0  501    0  0.00000000000E+00  0.00000000000E+00  0.29405314949E+03  0.29405314950E+03  0.25500000920E-02 0.  1.
       -2   -1    0    0    0  501  0.00000000000E+00  0.00000000000E+00 -0.78095975675E+03  0.78095975675E+03  0.25500000920E-02 0. -1.
    10030    2    1    2    0    0  0.00000000000E+00  0.00000000000E+00 -0.48690660725E+03  0.10750129063E+04  0.95842303000E+03 0.  0.
        1    1    3    3  502    0 -0.41241473422E+03 -0.24054036829E+03 -0.28967409101E+03  0.55844127785E+03  0.50400001928E-02 0. -1.
       -1    1    3    3    0  502  0.41241473422E+03  0.24054036829E+03 -0.19723251624E+03  0.51657162840E+03  0.50400001928E-02 0.  1.
</event>
<event>
 5   0  0.1663497E-02  0.9815355E+03  0.7818609E-02  0.9329031E-01
        2   -1    0    0  501    0  0.00000000000E+00  0.00000000000E+00  0.86752034516E+03  0.86752034517E+03  0.25500000920E-02 0. -1.
       -2   -1    0    0    0  501  0.00000000000E+00  0.00000000000E+00 -0.27763379581E+03  0.27763379582E+03  0.25500000920E-02 0.  1.
    10030    2    1    2    0    0  0.00000000000E+00  0.00000000000E+00  0.58988654935E+03  0.11451541410E+04  0.98153546320E+03 0.  0.
        1    1    3    3  502    0  0.11281992517E+03 -0.45633364450E+03  0.13042565999E+03  0.48783151131E+03  0.50400001928E-02 0.  1.
       -1    1    3    3    0  502 -0.11281992517E+03  0.45633364450E+03  0.45946088936E+03  0.65732262968E+03  0.50400001928E-02 0. -1.
</event>
<event>
 5   0  0.1000773E-02  0.1041533E+04  0.7818609E-02  0.9264130E-01
        1   -1    0    0  501    0  0.00000000000E+00  0.00000000000E+00  0.14954185643E+04  0.14954185643E+04  0.50400001928E-02 0. -1.
       -1   -1    0    0    0  501  0.00000000000E+00  0.00000000000E+00 -0.18135223814E+03  0.18135223821E+03  0.50400001928E-02 0.  1.
    10030    2    1    2    0    0  0.00000000000E+00  0.00000000000E+00  0.13140663261E+04  0.16767708025E+04  0.10415325317E+04 0.  0.
        3    1    3    3  502    0 -0.31952595465E+03 -0.26059007970E+03  0.14490683432E+03  0.43703778574E+03  0.10100000352E+00 0.  1.
       -3    1    3    3    0  502  0.31952595465E+03  0.26059007970E+03  0.11691594918E+04  0.12397330168E+04  0.10100000352E+00 0. -1.
</event>
<event>
 5   0  0.1656859E-02  0.1143543E+04  0.7818609E-02  0.9163761E-01
        2   -1    0    0  501    0  0.00000000000E+00  0.00000000000E+00  0.15297017712E+04  0.15297017712E+04  0.25500000920E-02 0.  1.
       -2   -1    0    0    0  501  0.00000000000E+00  0.00000000000E+00 -0.21371649618E+03  0.21371649619E+03  0.25500000920E-02 0. -1.
    10030    2    1    2    0    0  0.00000000000E+00  0.00000000000E+00  0.13159852750E+04  0.17434182673E+04  0.11435427456E+04 0.  0.
        4    1    3    3  502    0 -0.17325460651E+03 -0.26246076717E+02 -0.17176760224E+03  0.24538080059E+03  0.12699999809E+01 0. -1.
       -4    1    3    3    0  502  0.17325460651E+03  0.26246076717E+02  0.14877528772E+04  0.14980374668E+04  0.12699999809E+01 0.  1.
</event>
<event>
 5   0  0.9759443E-03  0.9835728E+03  0.7818609E-02  0.9326748E-01
        1   -1    0    0  501    0  0.00000000000E+00  0.00000000000E+00  0.14923091579E+04  0.14923091579E+04  0.50400001928E-02 0.  1.
       -1   -1    0    0    0  501  0.00000000000E+00  0.00000000000E+00 -0.16206685592E+03  0.16206685600E+03  0.50400001928E-02 0. -1.
    10030    2    1    2    0    0  0.00000000000E+00  0.00000000000E+00  0.13302423019E+04  0.16543760139E+04  0.98357277992E+03 0.  0.
        2    1    3    3  502    0 -0.46675551742E+03 -0.38546502879E+02  0.91746312431E+03  0.10300898652E+04  0.25500000920E-02 0. -1.
       -2    1    3    3    0  502  0.46675551742E+03  0.38546502879E+02  0.41277917763E+03  0.62428614866E+03  0.25500000920E-02 0.  1.
</event>
<event>
 5   0  0.1571895E-02  0.9914697E+03  0.7818609E-02  0.9317950E-01
        2   -1    0    0  501    0  0.00000000000E+00  0.00000000000E+00  0.67322066683E+03  0.67322066683E+03  0.25500000920E-02 0. -1.
       -2   -1    0    0    0  501  0.00000000000E+00  0.00000000000E+00 -0.36504085739E+03  0.36504085739E+03  0.25500000920E-02 0.  1.
    10030    2    1    2    0    0  0.00000000000E+00  0.00000000000E+00  0.30817980944E+03  0.10382615242E+04  0.99146971600E+03 0.  0.
        2    1    3    3  502    0 -0.19864298302E+03 -0.19235826024E+03 -0.27677976923E+03  0.39123877063E+03  0.25500000920E-02 0.  1.
       -2    1    3    3    0  502  0.19864298302E+03  0.19235826024E+03  0.58495957867E+03  0.64702275359E+03  0.25500000920E-02 0. -1.
</event>
<event>
 5   0  0.9507815E-03  0.9962517E+03  0.7818609E-02  0.9312665E-01
       -1   -1    0    0    0  501  0.00000000000E+00  0.00000000000E+00  0.30499426713E+03  0.30499426717E+03  0.50400001928E-02 0.  1.
        1   -1    0    0  501    0  0.00000000000E+00  0.00000000000E+00 -0.81355421554E+03  0.81355421556E+03  0.50400001928E-02 0. -1.
    10030    2    1    2    0    0  0.00000000000E+00  0.00000000000E+00 -0.50855994841E+03  0.11185484827E+04  0.99625171874E+03 0.  0.
        1    1    3    3  502    0  0.34572597594E+03  0.19061285583E+03  0.86767777387E+02  0.40421325864E+03  0.50400001928E-02 0.  1.
       -1    1    3    3    0  502 -0.34572597594E+03 -0.19061285583E+03 -0.59532772580E+03  0.71433522409E+03  0.50400001928E-02 0. -1.
</event>
<event>
 5   0  0.1571895E-02  0.1022514E+04  0.7818609E-02  0.9284190E-01
        2   -1    0    0  501    0  0.00000000000E+00  0.00000000000E+00  0.85861564578E+03  0.85861564579E+03  0.25500000920E-02 0. -1.
       -2   -1    0    0    0  501  0.00000000000E+00  0.00000000000E+00 -0.30442476163E+03  0.30442476164E+03  0.25500000920E-02 0.  1.
    10030    2    1    2    0    0  0.00000000000E+00  0.00000000000E+00  0.55419088415E+03  0.11630404074E+04  0.10225142802E+04 0.  0.
        2    1    3    3  502    0  0.68173539762E+02 -0.50664417340E+03  0.28496868449E+03  0.58527181814E+03  0.25500000920E-02 0. -1.
       -2    1    3    3    0  502 -0.68173539762E+02  0.50664417340E+03  0.26922219967E+03  0.57776858929E+03  0.25500000920E-02 0.  1.
</event>
<event>
 5   0  0.1617721E-02  0.8961353E+03  0.7818609E-02  0.9430425E-01
       -2   -1    0    0    0  501  0.00000000000E+00  0.00000000000E+00  0.20510224641E+03  0.20510224643E+03  0.25500000920E-02 0.  1.
        2   -1    0    0  501    0  0.00000000000E+00  0.00000000000E+00 -0.97885141614E+03  0.97885141615E+03  0.25500000920E-02 0. -1.
    10030    2    1    2    0    0  0.00000000000E+00  0.00000000000E+00 -0.77374916973E+03  0.11839536626E+04  0.89613531203E+03 0.  0.
        5    1    3    3  502    0 -0.37188874044E+03 -0.15691391356E+03 -0.64380646127E+03  0.75988950585E+03  0.46999998093E+01 0. -1.
       -5    1    3    3    0  502  0.37188874044E+03  0.15691391356E+03 -0.12994270846E+03  0.42406415672E+03  0.46999998093E+01 0.  1.
</event>
<event>
 5   0  0.1617721E-02  0.9996031E+03  0.7818609E-02  0.9308980E-01
        2   -1    0    0  501    0  0.00000000000E+00  0.00000000000E+00  0.32539647507E+03  0.32539647508E+03  0.25500000920E-02 0.  1.
       -2   -1    0    0    0  501  0.00000000000E+00  0.00000000000E+00 -0.76768379649E+03  0.76768379649E+03  0.25500000920E-02 0. -1.
    10030    2    1    2    0    0  0.00000000000E+00  0.00000000000E+00 -0.44228732141E+03  0.10930802716E+04  0.99960312396E+03 0.  0.
        5    1    3    3  502    0 -0.21451829199E+03  0.41519596423E+02 -0.71266285703E+03  0.74542096313E+03  0.46999998093E+01 0. -1.
       -5    1    3    3    0  502  0.21451829199E+03 -0.41519596423E+02  0.27037553562E+03  0.34765930844E+03  0.46999998093E+01 0.  1.
</event>
<event>
 5   0  0.1617721E-02  0.1037102E+04  0.7818609E-02  0.9268762E-01
        2   -1    0    0  501    0  0.00000000000E+00  0.00000000000E+00  0.13869438343E+04  0.13869438343E+04  0.25500000920E-02 0.  1.
       -2   -1    0    0    0  501  0.00000000000E+00  0.00000000000E+00 -0.19387610119E+03  0.19387610121E+03  0.25500000920E-02 0. -1.
    10030    2    1    2    0    0  0.00000000000E+00  0.00000000000E+00  0.11930677331E+04  0.15808199355E+04  0.10371022383E+04 0.  0.
        5    1    3    3  502    0  0.29512183602E+03  0.37038991630E+03  0.27467327316E+03  0.54749710974E+03  0.46999998093E+01 0. -1.
       -5    1    3    3    0  502 -0.29512183602E+03 -0.37038991630E+03  0.91839445995E+03  0.10333228258E+04  0.46999998093E+01 0.  1.
</event>
<event>
 5   0  0.9507815E-03  0.1116380E+04  0.7818609E-02  0.9189372E-01
        1   -1    0    0  501    0  0.00000000000E+00  0.00000000000E+00  0.15299602408E+04  0.15299602408E+04  0.50400001928E-02 0.  1.
       -1   -1    0    0    0  501  0.00000000000E+00  0.00000000000E+00 -0.20364977679E+03  0.20364977685E+03  0.50400001928E-02 0. -1.
    10030    2    1    2    0    0  0.00000000000E+00  0.00000000000E+00  0.13263104640E+04  0.17336100177E+04  0.11163799740E+04 0.  0.
        1    1    3    3  502    0 -0.32836857955E+02  0.23447568693E+02 -0.20138219533E+03  0.20538460590E+03  0.50400001928E-02 0. -1.
       -1    1    3    3    0  502  0.32836857955E+02 -0.23447568693E+02  0.15276926593E+04  0.15282254118E+04  0.50400001928E-02 0.  1.
</event>
<event>
 5   0  0.9507815E-03  0.1088951E+04  0.7818609E-02  0.9216028E-01
        1   -1    0    0  501    0  0.00000000000E+00  0.00000000000E+00  0.17793311289E+04  0.17793311289E+04  0.50400001928E-02 0. -1.
       -1   -1    0    0    0  501  0.00000000000E+00  0.00000000000E+00 -0.16660969656E+03  0.16660969664E+03  0.50400001928E-02 0.  1.
    10030    2    1    2    0    0  0.00000000000E+00  0.00000000000E+00  0.16127214323E+04  0.19459408255E+04  0.10889514581E+04 0.  0.
        1    1    3    3  502    0  0.43608260274E+03 -0.80890949644E+02  0.13707270478E+04  0.14406956728E+04  0.50400001928E-02 0. -1.
       -1    1    3    3    0  502 -0.43608260274E+03  0.80890949644E+02  0.24199438452E+03  0.50524515268E+03  0.50400001928E-02 0.  1.
</event>
<event>
 5   0  0.1000773E-02  0.1018884E+04  0.7818609E-02  0.9288072E-01
       -1   -1    0    0    0  501  0.00000000000E+00  0.00000000000E+00  0.12572850181E+04  0.12572850181E+04  0.50400001928E-02 0. -1.
        1   -1    0    0  501    0  0.00000000000E+00  0.00000000000E+00 -0.20642183062E+03  0.20642183068E+03  0.50400001928E-02 0.  1.
    10030    2    1    2    0    0  0.00000000000E+00  0.00000000000E+00  0.10508631875E+04  0.14637068488E+04  0.10188838503E+04 0.  0.
        3    1    3    3  502    0 -0.17255114929E+03 -0.18432329464E+03 -0.11021526518E+03  0.27549299619E+03  0.10100000352E+00 0.  1.
       -3    1    3    3    0  502  0.17255114929E+03  0.18432329464E+03  0.11610784527E+04  0.11882138526E+04  0.10100000352E+00 0. -1.
</event>
<event>
 5   0  0.1663497E-02  0.1027722E+04  0.7818609E-02  0.9278652E-01
        2   -1    0    0  501    0  0.00000000000E+00  0.00000000000E+00  0.17662061904E+04  0.17662061904E+04  0.25500000920E-02 0.  1.
       -2   -1    0    0    0  501  0.00000000000E+00  0.00000000000E+00 -0.14950289885E+03  0.14950289887E+03  0.25500000920E-02 0. -1.
    10030    2    1    2    0    0  0.00000000000E+00  0.00000000000E+00  0.16167032916E+04  0.19157090893E+04  0.10277216461E+04 0.  0.
        1    1    3    3  502    0  0.26919942449E+03  0.34271745743E+03  0.13158669936E+04  0.13861563875E+04  0.50400001928E-02 0.  1.
       -1    1    3    3    0  502 -0.26919942449E+03 -0.34271745743E+03  0.30083629798E+03  0.52955270179E+03  0.50400001928E-02 0. -1.
</event>
<event>
 5   0  0.9396660E-03  0.1002290E+04  0.7818609E-02  0.9306037E-01
        1   -1    0    0  501    0  0.00000000000E+00  0.00000000000E+00  0.60841401933E+03  0.60841401935E+03  0.50400001928E-02 0. -1.
       -1   -1    0    0    0  501  0.00000000000E+00  0.00000000000E+00 -0.41278837213E+03  0.41278837216E+03  0.50400001928E-02 0.  1.
    10030    2    1    2    0    0  0.00000000000E+00  0.00000000000E+00  0.19562564720E+03  0.10212023915E+04  0.10022898436E+04 0.  0.
        5    1    3    3  502    0  0.18375262468E+03  0.15288940256E+03  0.54655964824E+03  0.59656494665E+03  0.46999998093E+01 0. -1.
       -5    1    3    3    0  502 -0.18375262468E+03 -0.15288940256E+03 -0.35093400104E+03  0.42463744486E+03  0.46999998093E+01 0.  1.
</event>
<event>
 5   0  0.1663497E-02  0.1022757E+04  0.7818609E-02  0.9283932E-01
        2   -1    0    0  501    0  0.00000000000E+00  0.00000000000E+00  0.20327758837E+03  0.20327758839E+03  0.25500000920E-02 0.  1.
       -2   -1    0    0    0  501  0.00000000000E+00  0.00000000000E+00 -0.12864575638E+04  0.12864575638E+04  0.25500000920E-02 0. -1.
    10030    2    1    2    0    0  0.00000000000E+00  0.00000000000E+00 -0.10831799754E+04  0.14897351522E+04  0.10227570408E+04 0.  0.
        1    1    3    3  502    0 -0.20056111564E+03 -0.26915068920E+03  0.20360531000E+02  0.33627578838E+03  0.50400001928E-02 0.  1.
       -1    1    3    3    0  502  0.20056111564E+03  0.26915068920E+03 -0.11035405064E+04  0.11534593638E+04  0.50400001928E-02 0. -1.
</event>
<event>
 5   0  0.1598986E-02  0.1003323E+04  0.7818609E-02  0.9304908E-01
        2   -1    0    0  501    0  0.00000000000E+00  0.00000000000E+00  0.12607584174E+04  0.12607584174E+04  0.25500000920E-02 0. -1.
       -2   -1    0    0    0  501  0.00000000000E+00  0.00000000000E+00 -0.19961342781E+03  0.19961342783E+03  0.25500000920E-02 0.  1.
    10030    2    1    2    0    0  0.00000000000E+00  0.00000000000E+00  0.10611449896E+04  0.14603718452E+04  0.10033230972E+04 0.  0.
        3    1    3    3  502    0 -0.46898907578E+03  0.16877542797E+03  0.61327456271E+03  0.79027944283E+03  0.10100000352E+00 0. -1.
       -3    1    3    3    0  502  0.46898907578E+03 -0.16877542797E+03  0.44787042688E+03  0.67009240241E+03  0.10100000352E+00 0.  1.
</event>
<event>
 5   0  0.1571895E-02  0.9505457E+03  0.7818609E-02  0.9364513E-01
       -2   -1    0    0    0  501  0.00000000000E+00  0.00000000000E+00  0.39204955501E+03  0.39204955502E+03  0.25500000920E-02 0.  1.
        2   -1    0    0  501    0  0.00000000000E+00  0.00000000000E+00 -0.57616262349E+03  0.57616262349E+03  0.25500000920E-02 0. -1.
    10030    2    1    2    0    0  0.00000000000E+00  0.00000000000E+00 -0.18411306848E+03  0.96821217851E+03  0.95054573832E+03 0.  0.
        2    1    3    3  502    0 -0.54922270247E+02  0.52461384741E+02  0.38582800505E+03  0.39323263108E+03  0.25500000920E-02 0.  1.
       -2    1    3    3    0  502  0.54922270247E+02 -0.52461384741E+02 -0.56994107353E+03  0.57497954743E+03  0.25500000920E-02 0. -1.
</event>
<event>
 5   0  0.9759443E-03  0.9921447E+03  0.7818609E-02  0.9317203E-01
       -1   -1    0    0    0  501  0.00000000000E+00  0.00000000000E+00  0.73481137375E+03  0.73481137376E+03  0.50400001928E-02 0. -1.
        1   -1    0    0  501    0  0.00000000000E+00  0.00000000000E+00 -0.33489922126E+03  0.33489922130E+03  0.50400001928E-02 0.  1.
    10030    2    1    2    0    0  0.00000000000E+00  0.00000000000E+00  0.39991215248E+03  0.10697105951E+04  0.99214466057E+03 0.  0.
        2    1    3    3  502    0  0.29722370560E+03 -0.23937220166E+03  0.54166734124E+03  0.66260432437E+03  0.25500000920E-02 0. -1.
       -2    1    3    3    0  502 -0.29722370560E+03  0.23937220166E+03 -0.14175518875E+03  0.40710627070E+03  0.25500000920E-02 0.  1.
</event>
<event>
 5   0  0.1617721E-02  0.9743274E+03  0.7818609E-02  0.9337159E-01
        2   -1    0    0  501    0  0.00000000000E+00  0.00000000000E+00  0.66938016262E+03  0.66938016263E+03  0.25500000920E-02 0.  1.
       -2   -1    0    0    0  501  0.00000000000E+00  0.00000000000E+00 -0.35454960847E+03  0.35454960848E+03  0.25500000920E-02 0. -1.
    10030    2    1    2    0    0  0.00000000000E+00  0.00000000000E+00  0.31483055416E+03  0.10239297711E+04  0.97432740818E+03 0.  0.
        5    1    3    3  502    0  0.43684075453E+03  0.64642478273E+02  0.37355002873E+03  0.57842044291E+03  0.46999998093E+01 0.  1.
       -5    1    3    3    0  502 -0.43684075453E+03 -0.64642478273E+02 -0.58719474577E+02  0.44550932819E+03  0.46999998093E+01 0. -1.
</event>
<event>
 5   0  0.6314750E-03  0.1011576E+04  0.7818609E-02  0.9295938E-01
        3   -1    0    0  501    0  0.00000000000E+00  0.00000000000E+00  0.33173547959E+03  0.33173549496E+03  0.10100000352E+00 0.  1.
       -3   -1    0    0    0  501  0.00000000000E+00  0.00000000000E+00 -0.77116172239E+03  0.77116172900E+03  0.10100000352E+00 0. -1.
    10030    2    1    2    0    0  0.00000000000E+00  0.00000000000E+00 -0.43942624280E+03  0.11028972240E+04  0.10115764251E+04 0.  0.
        4    1    3    3  502    0 -0.12765196874E+03 -0.48771260571E+03 -0.26415429206E+03  0.56915526336E+03  0.12699999809E+01 0.  1.
       -4    1    3    3    0  502  0.12765196874E+03  0.48771260571E+03 -0.17527195074E+03  0.53374196061E+03  0.12699999809E+01 0. -1.
</event>
<event>
 5   0  0.1617721E-02  0.1034342E+04  0.7818609E-02  0.9271661E-01
        2   -1    0    0  501    0  0.00000000000E+00  0.00000000000E+00  0.72112245516E+03  0.72112245516E+03  0.25500000920E-02 0.  1.
       -2   -1    0    0    0  501  0.00000000000E+00  0.00000000000E+00 -0.37090223585E+03  0.37090223586E+03  0.25500000920E-02 0. -1.
    10030    2    1    2    0    0  0.00000000000E+00  0.00000000000E+00  0.35022021930E+03  0.10920246910E+04  0.10343421696E+04 0.  0.
        5    1    3    3  502    0  0.15360496067E+03  0.31373771545E+03  0.57771339545E+03  0.67513013214E+03  0.46999998093E+01 0.  1.
       -5    1    3    3    0  502 -0.15360496067E+03 -0.31373771545E+03 -0.22749317614E+03  0.41689455889E+03  0.46999998093E+01 0. -1.
</event>
<event>
 5   0  0.1663497E-02  0.1039234E+04  0.7818609E-02  0.9266530E-01
        2   -1    0    0  501    0  0.00000000000E+00  0.00000000000E+00  0.95445557863E+03  0.95445557863E+03  0.25500000920E-02 0. -1.
       -2   -1    0    0    0  501  0.00000000000E+00  0.00000000000E+00 -0.28288570962E+03  0.28288570963E+03  0.25500000920E-02 0.  1.
    10030    2    1    2    0    0  0.00000000000E+00  0.00000000000E+00  0.67156986901E+03  0.12373412883E+04  0.10392340327E+04 0.  0.
        1    1    3    3  502    0  0.27372899224E+03 -0.32630694829E+03 -0.18610603751E+02  0.42632163949E+03  0.50400001928E-02 0.  1.
       -1    1    3    3    0  502 -0.27372899224E+03  0.32630694829E+03  0.69018047276E+03  0.81101964877E+03  0.50400001928E-02 0. -1.
</event>
<event>
 5   0  0.1656859E-02  0.1050150E+04  0.7818609E-02  0.9255189E-01
        2   -1    0    0  501    0  0.00000000000E+00  0.00000000000E+00  0.92603841325E+03  0.92603841326E+03  0.25500000920E-02 0. -1.
       -2   -1    0    0    0  501  0.00000000000E+00  0.00000000000E+00 -0.29772395267E+03  0.29772395268E+03  0.25500000920E-02 0.  1.
    10030    2    1    2    0    0  0.00000000000E+00  0.00000000000E+00  0.62831446058E+03  0.12237623659E+04  0.10501501164E+04 0.  0.
        4    1    3    3  502    0  0.40860147238E+03  0.17082325570E+03  0.64286556446E+03  0.78064940580E+03  0.12699999809E+01 0. -1.
       -4    1    3    3    0  502 -0.40860147238E+03 -0.17082325570E+03 -0.14551103876E+02  0.44311296014E+03  0.12699999809E+01 0.  1.
</event>
<event>
 5   0  0.9759443E-03  0.9320451E+03  0.7818609E-02  0.9386387E-01
        1   -1    0    0  501    0  0.00000000000E+00  0.00000000000E+00  0.36762202493E+03  0.36762202497E+03  0.50400001928E-02 0.  1.
       -1   -1    0    0    0  501  0.00000000000E+00  0.00000000000E+00 -0.59076175730E+03  0.59076175732E+03  0.50400001928E-02 0. -1.
    10030    2    1    2    0    0  0.00000000000E+00  0.00000000000E+00 -0.22313973236E+03  0.95838378229E+03  0.93204513517E+03 0.  0.
        2    1    3    3  502    0 -0.20143004440E+03 -0.35032895644E+03 -0.35023361153E+03  0.53475978080E+03  0.25500000920E-02 0. -1.
       -2    1    3    3    0  502  0.20143004440E+03  0.35032895644E+03  0.12709387917E+03  0.42362400149E+03  0.25500000920E-02 0.  1.
</event>
<event>
 5   0  0.9759443E-03  0.9927237E+03  0.7818609E-02  0.9316561E-01
       -1   -1    0    0    0  501  0.00000000000E+00  0.00000000000E+00  0.19245135993E+03  0.19245135999E+03  0.50400001928E-02 0. -1.
        1   -1    0    0  501    0  0.00000000000E+00  0.00000000000E+00 -0.12801940683E+04  0.12801940683E+04  0.50400001928E-02 0.  1.
    10030    2    1    2    0    0  0.00000000000E+00  0.00000000000E+00 -0.10877427084E+04  0.14726454283E+04  0.99272370673E+03 0.  0.
        2    1    3    3  502    0 -0.15841436270E+03  0.14773123251E+03  0.11863914828E+03  0.24697140498E+03  0.25500000920E-02 0. -1.
       -2    1    3    3    0  502  0.15841436270E+03 -0.14773123251E+03 -0.12063818567E+04  0.12256740233E+04  0.25500000920E-02 0.  1.
</event>
<event>
 5   0  0.1617721E-02  0.1030139E+04  0.7818609E-02  0.9276093E-01
        2   -1    0    0  501    0  0.00000000000E+00  0.00000000000E+00  0.46187837044E+03  0.46187837045E+03  0.25500000920E-02 0. -1.
       -2   -1    0    0    0  501  0.00000000000E+00  0.00000000000E+00 -0.57438653135E+03  0.57438653136E+03  0.25500000920E-02 0.  1.
    10030    2    1    2    0    0  0.00000000000E+00  0.00000000000E+00 -0.11250816091E+03  0.10362649018E+04  0.10301392432E+04 0.  0.
        5    1    3    3  502    0 -0.36012058079E+03  0.58387512449E+02  0.30947170382E+03  0.47842529175E+03  0.46999998093E+01 0.  1.
       -5    1    3    3    0  502  0.36012058079E+03 -0.58387512449E+02 -0.42197986473E+03  0.55783961006E+03  0.46999998093E+01 0. -1.
</event>
<event>
 5   0  0.1598986E-02  0.9859904E+03  0.7818609E-02  0.9324045E-01
       -2   -1    0    0    0  501  0.00000000000E+00  0.00000000000E+00  0.10847798149E+03  0.10847798152E+03  0.25500000920E-02 0. -1.
        2   -1    0    0  501    0  0.00000000000E+00  0.00000000000E+00 -0.22404941641E+04  0.22404941641E+04  0.25500000920E-02 0.  1.
    10030    2    1    2    0    0  0.00000000000E+00  0.00000000000E+00 -0.21320161826E+04  0.23489721457E+04  0.98599043505E+03 0.  0.
        3    1    3    3  502    0 -0.58107095476E+02 -0.37474382849E+03 -0.31553108731E+03  0.49332468902E+03  0.10100000352E+00 0. -1.
       -3    1    3    3    0  502  0.58107095476E+02  0.37474382849E+03 -0.18164850953E+04  0.18556474566E+04  0.10100000352E+00 0.  1.
</event>
<event>
 5   0  0.9759443E-03  0.9965362E+03  0.7818609E-02  0.9312352E-01
       -1   -1    0    0    0  501  0.00000000000E+00  0.00000000000E+00  0.73500316008E+03  0.73500316009E+03  0.50400001928E-02 0. -1.
        1   -1    0    0  501    0  0.00000000000E+00  0.00000000000E+00 -0.33778233441E+03  0.33778233444E+03  0.50400001928E-02 0.  1.
    10030    2    1    2    0    0  0.00000000000E+00  0.00000000000E+00  0.39722082567E+03  0.10727854945E+04  0.99653616740E+03 0.  0.
        2    1    3    3  502    0 -0.35273637769E+02 -0.30227363449E+03  0.62333251116E+03  0.69365481264E+03  0.25500000920E-02 0. -1.
       -2    1    3    3    0  502  0.35273637769E+02  0.30227363449E+03 -0.22611168549E+03  0.37913068189E+03  0.25500000920E-02 0.  1.
</event>
<event>
 5   0  0.1571895E-02  0.1036989E+04  0.7818609E-02  0.9268881E-01
        2   -1    0    0  501    0  0.00000000000E+00  0.00000000000E+00  0.96798925787E+03  0.96798925788E+03  0.25500000920E-02 0. -1.
       -2   -1    0    0    0  501  0.00000000000E+00  0.00000000000E+00 -0.27772663030E+03  0.27772663031E+03  0.25500000920E-02 0.  1.
    10030    2    1    2    0    0  0.00000000000E+00  0.00000000000E+00  0.69026262757E+03  0.12457158882E+04  0.10369887073E+04 0.  0.
        2    1    3    3  502    0  0.21219369238E+02  0.49281390944E+03  0.15322455125E+03  0.51652064246E+03  0.25500000920E-02 0.  1.
       -2    1    3    3    0  502 -0.21219369238E+02 -0.49281390944E+03  0.53703807632E+03  0.72919524573E+03  0.25500000920E-02 0. -1.
</event>
<event>
 5   0  0.9759443E-03  0.7572684E+03  0.7818609E-02  0.9624016E-01
        1   -1    0    0  501    0  0.00000000000E+00  0.00000000000E+00  0.19955560292E+03  0.19955560299E+03  0.50400001928E-02 0.  1.
       -1   -1    0    0    0  501  0.00000000000E+00  0.00000000000E+00 -0.71841559426E+03  0.71841559427E+03  0.50400001928E-02 0. -1.
    10030    2    1    2    0    0  0.00000000000E+00  0.00000000000E+00 -0.51885999133E+03  0.91797119726E+03  0.75726839918E+03 0.  0.
        2    1    3    3  502    0  0.30202110476E+03  0.21328940723E+03 -0.35831824898E+03  0.51487968160E+03  0.25500000920E-02 0. -1.
       -2    1    3    3    0  502 -0.30202110476E+03 -0.21328940723E+03 -0.16054174235E+03  0.40309151566E+03  0.25500000920E-02 0.  1.
</event>
<event>
 5   0  0.1000773E-02  0.1067634E+04  0.7818609E-02  0.9237325E-01
        1   -1    0    0  501    0  0.00000000000E+00  0.00000000000E+00  0.11957419502E+04  0.11957419502E+04  0.50400001928E-02 0. -1.
       -1   -1    0    0    0  501  0.00000000000E+00  0.00000000000E+00 -0.23831293234E+03  0.23831293239E+03  0.50400001928E-02 0.  1.
    10030    2    1    2    0    0  0.00000000000E+00  0.00000000000E+00  0.95742901785E+03  0.14340548826E+04  0.10676343391E+04 0.  0.
        3    1    3    3  502    0  0.18002275647E+03  0.25503569773E+03  0.10603551103E+04  0.11053525999E+04  0.10100000352E+00 0. -1.
       -3    1    3    3    0  502 -0.18002275647E+03 -0.25503569773E+03 -0.10292609241E+03  0.32870228272E+03  0.10100000352E+00 0.  1.
</event>
<event>
 5   0  0.1663497E-02  0.9974331E+03  0.7818609E-02  0.9311365E-01
       -2   -1    0    0    0  501  0.00000000000E+00  0.00000000000E+00  0.78473347602E+03  0.78473347602E+03  0.25500000920E-02 0.  1.
        2   -1    0    0  501    0  0.00000000000E+00  0.00000000000E+00 -0.31694607640E+03  0.31694607641E+03  0.25500000920E-02 0. -1.
    10030    2    1    2    0    0  0.00000000000E+00  0.00000000000E+00  0.46778739962E+03  0.11016795524E+04  0.99743309801E+03 0.  0.
        1    1    3    3  502    0 -0.10135739958E+03  0.33469785783E+02  0.77196884982E+03  0.77931345050E+03  0.50400001928E-02 0.  1.
       -1    1    3    3    0  502  0.10135739958E+03 -0.33469785783E+02 -0.30418145020E+03  0.32236610194E+03  0.50400001928E-02 0. -1.
</event>
<event>
 5   0  0.9759443E-03  0.1018115E+04  0.7818609E-02  0.9288897E-01
        1   -1    0    0  501    0  0.00000000000E+00  0.00000000000E+00  0.93677644940E+03  0.93677644941E+03  0.50400001928E-02 0. -1.
       -1   -1    0    0    0  501  0.00000000000E+00  0.00000000000E+00 -0.27662885988E+03  0.27662885993E+03  0.50400001928E-02 0.  1.
    10030    2    1    2    0    0  0.00000000000E+00  0.00000000000E+00  0.66014758951E+03  0.12134053093E+04  0.10181147307E+04 0.  0.
        2    1    3    3  502    0  0.18791330680E+03 -0.43085631748E+02 -0.23143672141E+03  0.30121543546E+03  0.25500000920E-02 0.  1.
       -2    1    3    3    0  502 -0.18791330680E+03  0.43085631748E+02  0.89158431092E+03  0.91218987389E+03  0.25500000920E-02 0. -1.
</event>
<event>
 5   0  0.1663497E-02  0.8080060E+03  0.7818609E-02  0.9548500E-01
        2   -1    0    0  501    0  0.00000000000E+00  0.00000000000E+00  0.34918233971E+03  0.34918233972E+03  0.25500000920E-02 0.  1.
       -2   -1    0    0    0  501  0.00000000000E+00  0.00000000000E+00 -0.46743038873E+03  0.46743038874E+03  0.25500000920E-02 0. -1.
    10030    2    1    2    0    0  0.00000000000E+00  0.00000000000E+00 -0.11824804902E+03  0.81661272846E+03  0.80800603165E+03 0.  0.
        1    1    3    3  502    0 -0.10746549017E+02 -0.55860764236E+02  0.34511460572E+03  0.34977136018E+03  0.50400001928E-02 0.  1.
       -1    1    3    3    0  502  0.10746549017E+02  0.55860764236E+02 -0.46336265474E+03  0.46684136827E+03  0.50400001928E-02 0. -1.
</event>
<event>
 5   0  0.1598986E-02  0.1003683E+04  0.7818609E-02  0.9304514E-01
       -2   -1    0    0    0  501  0.00000000000E+00  0.00000000000E+00  0.20275166748E+03  0.20275166750E+03  0.25500000920E-02 0.  1.
        2   -1    0    0  501    0  0.00000000000E+00  0.00000000000E+00 -0.12421358919E+04  0.12421358919E+04  0.25500000920E-02 0. -1.
    10030    2    1    2    0    0  0.00000000000E+00  0.00000000000E+00 -0.10393842244E+04  0.14448875594E+04  0.10036834627E+04 0.  0.
        3    1    3    3  502    0  0.42179635322E+03  0.20821110355E+02 -0.12940943857E+03  0.44169276112E+03  0.10100000352E+00 0.  1.
       -3    1    3    3    0  502 -0.42179635322E+03 -0.20821110355E+02 -0.90997478585E+03  0.10031947983E+04  0.10100000352E+00 0. -1.
</event>
<event>
 5   0  0.9507815E-03  0.9885439E+03  0.7818609E-02  0.9321200E-01
       -1   -1    0    0    0  501  0.00000000000E+00  0.00000000000E+00  0.21170394273E+03  0.21170394279E+03  0.50400001928E-02 0. -1.
        1   -1    0    0  501    0  0.00000000000E+00  0.00000000000E+00 -0.11539924765E+04  0.11539924765E+04  0.50400001928E-02 0.  1.
    10030    2    1    2    0    0  0.00000000000E+00  0.00000000000E+00 -0.94228853377E+03  0.13656964193E+04  0.98854389322E+03 0.  0.
        1    1    3    3  502    0  0.31435693117E+03  0.12447543716E+02 -0.99781011366E+03  0.10462314488E+04  0.50400001928E-02 0.  1.
       -1    1    3    3    0  502 -0.31435693117E+03 -0.12447543716E+02  0.55521579887E+02  0.31946497050E+03  0.50400001928E-02 0. -1.
</event>
<event>
 5   0  0.9507815E-03  0.9994209E+03  0.7818609E-02  0.9309180E-01
        1   -1    0    0  501    0  0.00000000000E+00  0.00000000000E+00  0.35987788519E+03  0.35987788523E+03  0.50400001928E-02 0.  1.
       -1   -1    0    0    0  501  0.00000000000E+00  0.00000000000E+00 -0.69387574180E+03  0.69387574182E+03  0.50400001928E-02 0. -1.
    10030    2    1    2    0    0  0.00000000000E+00  0.00000000000E+00 -0.33399785661E+03  0.10537536271E+04  0.99942090147E+03 0.  0.
        1    1    3    3  502    0 -0.11225295199E+02 -0.49473671582E+03 -0.24020027964E+03  0.55007872128E+03  0.50400001928E-02 0.  1.
       -1    1    3    3    0  502  0.11225295199E+02  0.49473671582E+03 -0.93797576968E+02  0.50367490577E+03  0.50400001928E-02 0. -1.
</event>
<event>
 5   0  0.1663497E-02  0.1239276E+04  0.7818609E-02  0.9079156E-01
       -2   -1    0    0    0  501  0.00000000000E+00  0.00000000000E+00  0.57244094481E+03  0.57244094482E+03  0.25500000920E-02 0.  1.
        2   -1    0    0  501    0  0.00000000000E+00  0.00000000000E+00 -0.67072670220E+03  0.67072670220E+03  0.25500000920E-02 0. -1.
    10030    2    1    2    0    0  0.00000000000E+00  0.00000000000E+00 -0.98285757387E+02  0.12431676470E+04  0.12392762842E+04 0.  0.
        1    1    3    3  502    0 -0.24692528831E+03 -0.15725437545E+03  0.49869501761E+03  0.57827135259E+03  0.50400001928E-02 0.  1.
       -1    1    3    3    0  502  0.24692528831E+03  0.15725437545E+03 -0.59698077500E+03  0.66489629443E+03  0.50400001928E-02 0. -1.
</event>
<event>
 5   0  0.9759443E-03  0.9735279E+03  0.7818609E-02  0.9338065E-01
       -1   -1    0    0    0  501  0.00000000000E+00  0.00000000000E+00  0.17275152680E+03  0.17275152688E+03  0.50400001928E-02 0. -1.
        1   -1    0    0  501    0  0.00000000000E+00  0.00000000000E+00 -0.13715602632E+04  0.13715602632E+04  0.50400001928E-02 0.  1.
    10030    2    1    2    0    0  0.00000000000E+00  0.00000000000E+00 -0.11988087364E+04  0.15443117901E+04  0.97352787251E+03 0.  0.
        2    1    3    3  502    0  0.17806161616E+03 -0.39985226969E+03 -0.26158719719E+03  0.50991728590E+03  0.25500000920E-02 0. -1.
       -2    1    3    3    0  502 -0.17806161616E+03  0.39985226969E+03 -0.93722153923E+03  0.10343945042E+04  0.25500000920E-02 0.  1.
</event>
<event>
 5   0  0.9507815E-03  0.8642019E+03  0.7818609E-02  0.9471471E-01
        1   -1    0    0  501    0  0.00000000000E+00  0.00000000000E+00  0.41686899303E+03  0.41686899306E+03  0.50400001928E-02 0. -1.
       -1   -1    0    0    0  501  0.00000000000E+00  0.00000000000E+00 -0.44788942338E+03  0.44788942341E+03  0.50400001928E-02 0.  1.
    10030    2    1    2    0    0  0.00000000000E+00  0.00000000000E+00 -0.31020430348E+02  0.86475841647E+03  0.86420185822E+03 0.  0.
        1    1    3    3  502    0 -0.35729147639E+03 -0.21026537099E+03 -0.13741842360E+03  0.43675227361E+03  0.50400001928E-02 0.  1.
       -1    1    3    3    0  502  0.35729147639E+03  0.21026537099E+03  0.10639799325E+03  0.42800614286E+03  0.50400001928E-02 0. -1.
</event>
<event>
 5   0  0.1598986E-02  0.9865203E+03  0.7818609E-02  0.9323454E-01
       -2   -1    0    0    0  501  0.00000000000E+00  0.00000000000E+00  0.18036436548E+03  0.18036436550E+03  0.25500000920E-02 0. -1.
        2   -1    0    0  501    0  0.00000000000E+00  0.00000000000E+00 -0.13489669450E+04  0.13489669450E+04  0.25500000920E-02 0.  1.
    10030    2    1    2    0    0  0.00000000000E+00  0.00000000000E+00 -0.11686025795E+04  0.15293313105E+04  0.98652028283E+03 0.  0.
        3    1    3    3  502    0 -0.24511198664E+03  0.32583869508E+02 -0.12459489689E+04  0.12702481796E+04  0.10100000352E+00 0.  1.
       -3    1    3    3    0  502  0.24511198664E+03 -0.32583869508E+02  0.77346389388E+02  0.25908313086E+03  0.10100000352E+00 0. -1.
</event>
<event>
 5   0  0.9471140E-03  0.9792832E+03  0.7818609E-02  0.9331563E-01
        1   -1    0    0  501    0  0.00000000000E+00  0.00000000000E+00  0.70783719247E+03  0.70783719249E+03  0.50400001928E-02 0. -1.
       -1   -1    0    0    0  501  0.00000000000E+00  0.00000000000E+00 -0.33870628530E+03  0.33870628534E+03  0.50400001928E-02 0.  1.
    10030    2    1    2    0    0  0.00000000000E+00  0.00000000000E+00  0.36913090717E+03  0.10465434778E+04  0.97928321968E+03 0.  0.
        4    1    3    3  502    0  0.29914277386E+03 -0.12800287304E+03  0.57558690528E+03  0.66119061782E+03  0.12699999809E+01 0. -1.
       -4    1    3    3    0  502 -0.29914277386E+03  0.12800287304E+03 -0.20645599811E+03  0.38535286001E+03  0.12699999809E+01 0.  1.
</event>
<event>
 5   0  0.9471140E-03  0.9899828E+03  0.7818609E-02  0.9319600E-01
        1   -1    0    0  501    0  0.00000000000E+00  0.00000000000E+00  0.96973257516E+03  0.96973257517E+03  0.50400001928E-02 0.  1.
       -1   -1    0    0    0  501  0.00000000000E+00  0.00000000000E+00 -0.25266398895E+03  0.25266398900E+03  0.50400001928E-02 0. -1.
    10030    2    1    2    0    0  0.00000000000E+00  0.00000000000E+00  0.71706858621E+03  0.12223965642E+04  0.98998282953E+03 0.  0.
        4    1    3    3  502    0 -0.94799125544E+01  0.62388346786E+02  0.96474339551E+03  0.96680587847E+03  0.12699999809E+01 0.  1.
       -4    1    3    3    0  502  0.94799125544E+01 -0.62388346786E+02 -0.24767480930E+03  0.25559068570E+03  0.12699999809E+01 0. -1.
</event>
<event>
 5   0  0.9471140E-03  0.9795954E+03  0.7818609E-02  0.9331212E-01
        1   -1    0    0  501    0  0.00000000000E+00  0.00000000000E+00  0.17100802113E+04  0.17100802113E+04  0.50400001928E-02 0.  1.
       -1   -1    0    0    0  501  0.00000000000E+00  0.00000000000E+00 -0.14028687287E+03  0.14028687296E+03  0.50400001928E-02 0. -1.
    10030    2    1    2    0    0  0.00000000000E+00  0.00000000000E+00  0.15697933384E+04  0.18503670843E+04  0.97959543749E+03 0.  0.
        4    1    3    3  502    0 -0.18036070113E+01 -0.15891321749E+03  0.16600215677E+04  0.16676120298E+04  0.12699999809E+01 0.  1.
       -4    1    3    3    0  502  0.18036070113E+01  0.15891321749E+03 -0.90228229262E+02  0.18275505451E+03  0.12699999809E+01 0. -1.
</event>
<event>
 5   0  0.1571895E-02  0.6997743E+03  0.7818609E-02  0.9717618E-01
        2   -1    0    0  501    0  0.00000000000E+00  0.00000000000E+00  0.51346867170E+03  0.51346867171E+03  0.25500000920E-02 0. -1.
       -2   -1    0    0    0  501  0.00000000000E+00  0.00000000000E+00 -0.23841962651E+03  0.23841962652E+03  0.25500000920E-02 0.  1.
    10030    2    1    2    0    0  0.00000000000E+00  0.00000000000E+00  0.27504904520E+03  0.75188829823E+03  0.69977427486E+03 0.  0.
        2    1    3    3  502    0 -0.45278315225E+02  0.32906046256E+03  0.25566812555E+03  0.41916238415E+03  0.25500000920E-02 0. -1.
       -2    1    3    3    0  502  0.45278315225E+02 -0.32906046256E+03  0.19380919643E+02  0.33272591409E+03  0.25500000920E-02 0.  1.
</event>
<event>
 5   0  0.1656859E-02  0.9826246E+03  0.7818609E-02  0.9327810E-01
       -2   -1    0    0    0  501  0.00000000000E+00  0.00000000000E+00  0.32532303080E+03  0.32532303081E+03  0.25500000920E-02 0.  1.
        2   -1    0    0  501    0  0.00000000000E+00  0.00000000000E+00 -0.74199410115E+03  0.74199410115E+03  0.25500000920E-02 0. -1.
    10030    2    1    2    0    0  0.00000000000E+00  0.00000000000E+00 -0.41667107035E+03  0.10673171320E+04  0.98262458718E+03 0.  0.
        4    1    3    3  502    0 -0.20634220853E+03 -0.10494932924E+03 -0.67903911984E+03  0.71741703904E+03  0.12699999809E+01 0. -1.
       -4    1    3    3    0  502  0.20634220853E+03  0.10494932924E+03  0.26236804950E+03  0.34990009292E+03  0.12699999809E+01 0.  1.
</event>
<event>
 5   0  0.1598986E-02  0.1027729E+04  0.7818609E-02  0.9278644E-01
        2   -1    0    0  501    0  0.00000000000E+00  0.00000000000E+00  0.59687082030E+03  0.59687082031E+03  0.25500000920E-02 0. -1.
       -2   -1    0    0    0  501  0.00000000000E+00  0.00000000000E+00 -0.44240211916E+03  0.44240211917E+03  0.25500000920E-02 0.  1.
    10030    2    1    2    0    0  0.00000000000E+00  0.00000000000E+00  0.15446870114E+03  0.10392729395E+04  0.10277293725E+04 0.  0.
        3    1    3    3  502    0 -0.10561667539E+03  0.19899413488E+03  0.54426963907E+03  0.58905262757E+03  0.10100000352E+00 0. -1.
       -3    1    3    3    0  502  0.10561667539E+03 -0.19899413488E+03 -0.38980093793E+03  0.45022031190E+03  0.10100000352E+00 0.  1.
</event>
<event>
 5   0  0.1000773E-02  0.9337140E+03  0.7818609E-02  0.9384392E-01
       -1   -1    0    0    0  501  0.00000000000E+00  0.00000000000E+00  0.16588071549E+03  0.16588071556E+03  0.50400001928E-02 0. -1.
        1   -1    0    0  501    0  0.00000000000E+00  0.00000000000E+00 -0.13139289786E+04  0.13139289786E+04  0.50400001928E-02 0.  1.
    10030    2    1    2    0    0  0.00000000000E+00  0.00000000000E+00 -0.11480482631E+04  0.14798096942E+04  0.93371404430E+03 0.  0.
        3    1    3    3  502    0 -0.12926974763E+03 -0.93612290518E+02  0.12129874719E+03  0.20046776514E+03  0.10100000352E+00 0. -1.
       -3    1    3    3    0  502  0.12926974763E+03  0.93612290518E+02 -0.12693470103E+04  0.12793419290E+04  0.10100000352E+00 0.  1.
</event>
<event>
 5   0  0.1617721E-02  0.9884653E+03  0.7818609E-02  0.9321287E-01
       -2   -1    0    0    0  501  0.00000000000E+00  0.00000000000E+00  0.15883103837E+03  0.15883103839E+03  0.25500000920E-02 0. -1.
        2   -1    0    0  501    0  0.00000000000E+00  0.00000000000E+00 -0.15378978341E+04  0.15378978341E+04  0.25500000920E-02 0.  1.
    10030    2    1    2    0    0  0.00000000000E+00  0.00000000000E+00 -0.13790667958E+04  0.16967288725E+04  0.98846529513E+03 0.  0.
        5    1    3    3  502    0  0.47891746079E+03  0.62423561329E+02 -0.86944314998E+03  0.99459143184E+03  0.46999998093E+01 0.  1.
       -5    1    3    3    0  502 -0.47891746079E+03 -0.62423561329E+02 -0.50962364579E+03  0.70213744068E+03  0.46999998093E+01 0. -1.
</event>
<event>
 5   0  0.6314750E-03  0.9992497E+03  0.7818609E-02  0.9309368E-01
        3   -1    0    0  501    0  0.00000000000E+00  0.00000000000E+00  0.82875656866E+03  0.82875657482E+03  0.10100000352E+00 0. -1.
       -3   -1    0    0    0  501  0.00000000000E+00  0.00000000000E+00 -0.30120424895E+03  0.30120426588E+03  0.10100000352E+00 0.  1.
    10030    2    1    2    0    0  0.00000000000E+00  0.00000000000E+00  0.52755231972E+03  0.11299608407E+04  0.99924974430E+03 0.  0.
        5    1    3    3  502    0 -0.31335969544E+03  0.15730095573E+03  0.66623152225E+03  0.75287742736E+03  0.46999998093E+01 0. -1.
       -5    1    3    3    0  502  0.31335969544E+03 -0.15730095573E+03 -0.13867920253E+03  0.37708341334E+03  0.46999998093E+01 0.  1.
</event>
<event>
 5   0  0.1571895E-02  0.1036569E+04  0.7818609E-02  0.9269322E-01
        2   -1    0    0  501    0  0.00000000000E+00  0.00000000000E+00  0.17454287160E+04  0.17454287160E+04  0.25500000920E-02 0. -1.
       -2   -1    0    0    0  501  0.00000000000E+00  0.00000000000E+00 -0.15389833832E+03  0.15389833834E+03  0.25500000920E-02 0.  1.
    10030    2    1    2    0    0  0.00000000000E+00  0.00000000000E+00  0.15915303777E+04  0.18993270543E+04  0.10365685295E+04 0.  0.
        2    1    3    3  502    0 -0.26849116008E+03 -0.35635413889E+03  0.31256417927E+03  0.54476797034E+03  0.25500000920E-02 0. -1.
       -2    1    3    3    0  502  0.26849116008E+03  0.35635413889E+03  0.12789661984E+04  0.13545590840E+04  0.25500000920E-02 0.  1.
</event>
<event>
 5   0  0.1000773E-02  0.9953984E+03  0.7818609E-02  0.9313606E-01
       -1   -1    0    0    0  501  0.00000000000E+00  0.00000000000E+00  0.15860560512E+03  0.15860560520E+03  0.50400001928E-02 0.  1.
        1   -1    0    0  501    0  0.00000000000E+00  0.00000000000E+00 -0.15617639078E+04  0.15617639078E+04  0.50400001928E-02 0. -1.
    10030    2    1    2    0    0  0.00000000000E+00  0.00000000000E+00 -0.14031583026E+04  0.17203695130E+04  0.99539843222E+03 0.  0.
        3    1    3    3  502    0  0.69884422300E+02 -0.34897025129E+03 -0.13028775062E+04  0.13506124074E+04  0.10100000352E+00 0. -1.
       -3    1    3    3    0  502 -0.69884422300E+02  0.34897025129E+03 -0.10028079647E+03  0.36975710555E+03  0.10100000352E+00 0.  1.
</event>
<event>
 5   0  0.1617721E-02  0.1001168E+04  0.7818609E-02  0.9307265E-01
        2   -1    0    0  501    0  0.00000000000E+00  0.00000000000E+00  0.15501045892E+04  0.15501045892E+04  0.25500000920E-02 0.  1.
       -2   -1    0    0    0  501  0.00000000000E+00  0.00000000000E+00 -0.16165642732E+03  0.16165642734E+03  0.25500000920E-02 0. -1.
    10030    2    1    2    0    0  0.00000000000E+00  0.00000000000E+00  0.13884481619E+04  0.17117610166E+04  0.10011680576E+04 0.  0.
        5    1    3    3  502    0 -0.47357972935E+03  0.13891234360E+03  0.55129885570E+03  0.73995061832E+03  0.46999998093E+01 0. -1.
       -5    1    3    3    0  502  0.47357972935E+03 -0.13891234360E+03  0.83714930620E+03  0.97181039824E+03  0.46999998093E+01 0.  1.
</event>
<event>
 5   0  0.9396660E-03  0.9437099E+03  0.7818609E-02  0.9372533E-01
        1   -1    0    0  501    0  0.00000000000E+00  0.00000000000E+00  0.76596225803E+03  0.76596225804E+03  0.50400001928E-02 0. -1.
       -1   -1    0    0    0  501  0.00000000000E+00  0.00000000000E+00 -0.29067634567E+03  0.29067634571E+03  0.50400001928E-02 0.  1.
    10030    2    1    2    0    0  0.00000000000E+00  0.00000000000E+00  0.47528591236E+03  0.10566386038E+04  0.94370993450E+03 0.  0.
        5    1    3    3  502    0 -0.19250168546E+03 -0.15674315869E+03  0.68690578200E+03  0.73040191679E+03  0.46999998093E+01 0. -1.
       -5    1    3    3    0  502  0.19250168546E+03  0.15674315869E+03 -0.21161986964E+03  0.32623668697E+03  0.46999998093E+01 0.  1.
</event>
<event>
 5   0  0.1617721E-02  0.1029148E+04  0.7818609E-02  0.9277141E-01
        2   -1    0    0  501    0  0.00000000000E+00  0.00000000000E+00  0.77048282864E+03  0.77048282864E+03  0.25500000920E-02 0.  1.
       -2   -1    0    0    0  501  0.00000000000E+00  0.00000000000E+00 -0.34366294288E+03  0.34366294289E+03  0.25500000920E-02 0. -1.
    10030    2    1    2    0    0  0.00000000000E+00  0.00000000000E+00  0.42681988576E+03  0.11141457715E+04  0.10291479900E+04 0.  0.
        5    1    3    3  502    0  0.36508007581E+03  0.24655796097E+03 -0.74424809028E+02  0.44680581025E+03  0.46999998093E+01 0. -1.
       -5    1    3    3    0  502 -0.36508007581E+03 -0.24655796097E+03  0.50124469479E+03  0.66733996128E+03  0.46999998093E+01 0.  1.
</event>
<event>
 5   0  0.1663497E-02  0.9894122E+03  0.7818609E-02  0.9320234E-01
        2   -1    0    0  501    0  0.00000000000E+00  0.00000000000E+00  0.15158313014E+04  0.15158313014E+04  0.25500000920E-02 0. -1.
       -2   -1    0    0    0  501  0.00000000000E+00  0.00000000000E+00 -0.16145207252E+03  0.16145207254E+03  0.25500000920E-02 0.  1.
    10030    2    1    2    0    0  0.00000000000E+00  0.00000000000E+00  0.13543792289E+04  0.16772833739E+04  0.98941215927E+03 0.  0.
        1    1    3    3  502    0 -0.11917159128E+03  0.35405557193E+03  0.12740907989E+03  0.39470278673E+03  0.50400001928E-02 0.  1.
       -1    1    3    3    0  502  0.11917159128E+03 -0.35405557193E+03  0.12269701490E+04  0.12825805872E+04  0.50400001928E-02 0. -1.
</event>
<event>
 5   0  0.1656859E-02  0.9980300E+03  0.7818609E-02  0.9310708E-01
        2   -1    0    0  501    0  0.00000000000E+00  0.00000000000E+00  0.67836817885E+03  0.67836817885E+03  0.25500000920E-02 0.  1.
       -2   -1    0    0    0  501  0.00000000000E+00  0.00000000000E+00 -0.36708083036E+03  0.36708083037E+03  0.25500000920E-02 0. -1.
    10030    2    1    2    0    0  0.00000000000E+00  0.00000000000E+00  0.31128734849E+03  0.10454490092E+04  0.99802996826E+03 0.  0.
        4    1    3    3  502    0  0.13735600325E+03  0.47333306797E+03  0.23748033794E+03  0.54709175526E+03  0.12699999809E+01 0.  1.
       -4    1    3    3    0  502 -0.13735600325E+03 -0.47333306797E+03  0.73807010549E+02  0.49835725396E+03  0.12699999809E+01 0. -1.
</event>
<event>
 5   0  0.1000773E-02  0.1232044E+04  0.7818609E-02  0.9085262E-01
        1   -1    0    0  501    0  0.00000000000E+00  0.00000000000E+00  0.82866967556E+03  0.82866967558E+03  0.50400001928E-02 0.  1.
       -1   -1    0    0    0  501  0.00000000000E+00  0.00000000000E+00 -0.45794228164E+03  0.45794228167E+03  0.50400001928E-02 0. -1.
    10030    2    1    2    0    0  0.00000000000E+00  0.00000000000E+00  0.37072739392E+03  0.12866119572E+04  0.12320436388E+04 0.  0.
        3    1    3    3  502    0 -0.33703400042E+03 -0.38204830518E+03 -0.17628382545E+03  0.53910001136E+03  0.10100000352E+00 0. -1.
       -3    1    3    3    0  502  0.33703400042E+03  0.38204830518E+03  0.54701121937E+03  0.74751194589E+03  0.10100000352E+00 0.  1.
</event>
<event>
 5   0  0.9471140E-03  0.9877334E+03  0.7818609E-02  0.9322102E-01
       -1   -1    0    0    0  501  0.00000000000E+00  0.00000000000E+00  0.47147651480E+03  0.47147651483E+03  0.50400001928E-02 0. -1.
        1   -1    0    0  501    0  0.00000000000E+00  0.00000000000E+00 -0.51732021061E+03  0.51732021064E+03  0.50400001928E-02 0.  1.
    10030    2    1    2    0    0  0.00000000000E+00  0.00000000000E+00 -0.45843695812E+02  0.98879672547E+03  0.98773342550E+03 0.  0.
        4    1    3    3  502    0 -0.48489109820E+03  0.73067918818E+02  0.35830505642E+02  0.49167442064E+03  0.12699999809E+01 0.  1.
       -4    1    3    3    0  502  0.48489109820E+03 -0.73067918818E+02 -0.81674201453E+02  0.49712230483E+03  0.12699999809E+01 0. -1.
</event>
<event>
 5   0  0.1663497E-02  0.8981481E+03  0.7818609E-02  0.9427899E-01
       -2   -1    0    0    0  501  0.00000000000E+00  0.00000000000E+00  0.29557335051E+03  0.29557335052E+03  0.25500000920E-02 0.  1.
        2   -1    0    0  501    0  0.00000000000E+00  0.00000000000E+00 -0.68229254188E+03  0.68229254189E+03  0.25500000920E-02 0. -1.
    10030    2    1    2    0    0  0.00000000000E+00  0.00000000000E+00 -0.38671919138E+03  0.97786589240E+03  0.89814807829E+03 0.  0.
        1    1    3    3  502    0  0.37949828553E+03  0.10961424652E+03 -0.42593945590E+03  0.58091191404E+03  0.50400001928E-02 0. -1.
       -1    1    3    3    0  502 -0.37949828553E+03 -0.10961424652E+03  0.39220264522E+02  0.39695397836E+03  0.50400001928E-02 0.  1.
</event>
<event>
 5   0  0.9471140E-03  0.9753253E+03  0.7818609E-02  0.9336029E-01
        1   -1    0    0  501    0  0.00000000000E+00  0.00000000000E+00  0.10174323551E+04  0.10174323551E+04  0.50400001928E-02 0.  1.
       -1   -1    0    0    0  501  0.00000000000E+00  0.00000000000E+00 -0.23374021366E+03  0.23374021371E+03  0.50400001928E-02 0. -1.
    10030    2    1    2    0    0  0.00000000000E+00  0.00000000000E+00  0.78369214146E+03  0.12511725688E+04  0.97532529160E+03 0.  0.
        4    1    3    3  502    0 -0.44686283904E+03 -0.10886869094E+03  0.18390772654E+03  0.49534074491E+03  0.12699999809E+01 0. -1.
       -4    1    3    3    0  502  0.44686283904E+03  0.10886869094E+03  0.59978441492E+03  0.75583182393E+03  0.12699999809E+01 0.  1.
</event>
<event>
 5   0  0.1656859E-02  0.1011719E+04  0.7818609E-02  0.9295785E-01
       -2   -1    0    0    0  501  0.00000000000E+00  0.00000000000E+00  0.31895784590E+03  0.31895784591E+03  0.25500000920E-02 0.  1.
        2   -1    0    0  501    0  0.00000000000E+00  0.00000000000E+00 -0.80228051513E+03  0.80228051513E+03  0.25500000920E-02 0. -1.
    10030    2    1    2    0    0  0.00000000000E+00  0.00000000000E+00 -0.48332266923E+03  0.11212383610E+04  0.10117186663E+04 0.  0.
        4    1    3    3  502    0  0.29362862143E+03 -0.29391901754E+03  0.78172139686E+02  0.42275128920E+03  0.12699999809E+01 0.  1.
       -4    1    3    3    0  502 -0.29362862143E+03  0.29391901754E+03 -0.56149480892E+03  0.69848707185E+03  0.12699999809E+01 0. -1.
</event>
<event>
 5   0  0.1617721E-02  0.9841165E+03  0.7818609E-02  0.9326139E-01
        2   -1    0    0  501    0  0.00000000000E+00  0.00000000000E+00  0.20699755075E+04  0.20699755075E+04  0.25500000920E-02 0.  1.
       -2   -1    0    0    0  501  0.00000000000E+00  0.00000000000E+00 -0.11696820090E+03  0.11696820093E+03  0.25500000920E-02 0. -1.
    10030    2    1    2    0    0  0.00000000000E+00  0.00000000000E+00  0.19530073066E+04  0.21869437084E+04  0.98411647897E+03 0.  0.
        5    1    3    3  502    0 -0.82024458269E+02 -0.27726355487E+03  0.18612126267E+04  0.18835438998E+04  0.46999998093E+01 0.  1.
       -5    1    3    3    0  502  0.82024458269E+02  0.27726355487E+03  0.91794679855E+02  0.30339980860E+03  0.46999998093E+01 0. -1.
</event>
<event>
 5   0  0.1617721E-02  0.9953300E+03  0.7818609E-02  0.9313682E-01
        2   -1    0    0  501    0  0.00000000000E+00  0.00000000000E+00  0.10706439692E+04  0.10706439692E+04  0.25500000920E-02 0.  1.
       -2   -1    0    0    0  501  0.00000000000E+00  0.00000000000E+00 -0.23132847929E+03  0.23132847930E+03  0.25500000920E-02 0. -1.
    10030    2    1    2    0    0  0.00000000000E+00  0.00000000000E+00  0.83931548995E+03  0.13019724485E+04  0.99532997800E+03 0.  0.
        5    1    3    3  502    0  0.17378744290E+02  0.19931131409E+03  0.10156912787E+04  0.10352187616E+04  0.46999998093E+01 0.  1.
       -5    1    3    3    0  502 -0.17378744290E+02 -0.19931131409E+03 -0.17637578873E+03  0.26675368699E+03  0.46999998093E+01 0. -1.
</event>
<event>
 5   0  0.9471140E-03  0.1030272E+04  0.7818609E-02  0.9275952E-01
        1   -1    0    0  501    0  0.00000000000E+00  0.00000000000E+00  0.94228376642E+03  0.94228376644E+03  0.50400001928E-02 0.  1.
       -1   -1    0    0    0  501  0.00000000000E+00  0.00000000000E+00 -0.28161906035E+03  0.28161906039E+03  0.50400001928E-02 0. -1.
    10030    2    1    2    0    0  0.00000000000E+00  0.00000000000E+00  0.66066470608E+03  0.12239028268E+04  0.10302719426E+04 0.  0.
        4    1    3    3  502    0 -0.32057644337E+03 -0.17960270534E+03 -0.98540975938E+02  0.38044490357E+03  0.12699999809E+01 0. -1.
       -4    1    3    3    0  502  0.32057644337E+03  0.17960270534E+03  0.75920568201E+03  0.84345792326E+03  0.12699999809E+01 0.  1.
</event>
<event>
 5   0  0.9471140E-03  0.9936529E+03  0.7818609E-02  0.9315534E-01
       -1   -1    0    0    0  501  0.00000000000E+00  0.00000000000E+00  0.35969254071E+03  0.35969254074E+03  0.50400001928E-02 0.  1.
        1   -1    0    0  501    0  0.00000000000E+00  0.00000000000E+00 -0.68624314432E+03  0.68624314433E+03  0.50400001928E-02 0. -1.
    10030    2    1    2    0    0  0.00000000000E+00  0.00000000000E+00 -0.32655060361E+03  0.10459356851E+04  0.99365293770E+03 0.  0.
        4    1    3    3  502    0 -0.28633770846E+03  0.15061193911E+03 -0.56015743197E+03  0.64687804181E+03  0.12699999809E+01 0. -1.
       -4    1    3    3    0  502  0.28633770846E+03 -0.15061193911E+03  0.23360682836E+03  0.39905764326E+03  0.12699999809E+01 0.  1.
</event>
<event>
 5   0  0.6314750E-03  0.9900472E+03  0.7818609E-02  0.9319529E-01
       -3   -1    0    0    0  501  0.00000000000E+00  0.00000000000E+00  0.31324546455E+03  0.31324548083E+03  0.10100000352E+00 0. -1.
        3   -1    0    0  501    0  0.00000000000E+00  0.00000000000E+00 -0.78228854900E+03  0.78228855552E+03  0.10100000352E+00 0.  1.
    10030    2    1    2    0    0  0.00000000000E+00  0.00000000000E+00 -0.46904308446E+03  0.10955340364E+04  0.99004717551E+03 0.  0.
        3    1    3    3  502    0  0.26456838595E+03 -0.41835394986E+03 -0.24076976536E+03  0.55044213894E+03  0.10100000352E+00 0. -1.
       -3    1    3    3    0  502 -0.26456838595E+03  0.41835394986E+03 -0.22827331909E+03  0.54509189741E+03  0.10100000352E+00 0.  1.
</event>
<event>
 5   0  0.9507815E-03  0.1047084E+04  0.7818609E-02  0.9258360E-01
       -1   -1    0    0    0  501  0.00000000000E+00  0.00000000000E+00  0.47553513581E+03  0.47553513583E+03  0.50400001928E-02 0.  1.
        1   -1    0    0  501    0  0.00000000000E+00  0.00000000000E+00 -0.57639501842E+03  0.57639501844E+03  0.50400001928E-02 0. -1.
    10030    2    1    2    0    0  0.00000000000E+00  0.00000000000E+00 -0.10085988262E+03  0.10519301543E+04  0.10470837281E+04 0.  0.
        1    1    3    3  502    0  0.48112487758E+03  0.19360800797E+03  0.21531723531E+02  0.51906533666E+03  0.50400001928E-02 0.  1.
       -1    1    3    3    0  502 -0.48112487758E+03 -0.19360800797E+03 -0.12239160615E+03  0.53286481762E+03  0.50400001928E-02 0. -1.
</event>
<event>
 5   0  0.1617721E-02  0.1024828E+04  0.7818609E-02  0.9281725E-01
        2   -1    0    0  501    0  0.00000000000E+00  0.00000000000E+00  0.67278003182E+03  0.67278003182E+03  0.25500000920E-02 0.  1.
       -2   -1    0    0    0  501  0.00000000000E+00  0.00000000000E+00 -0.39027360421E+03  0.39027360422E+03  0.25500000920E-02 0. -1.
    10030    2    1    2    0    0  0.00000000000E+00  0.00000000000E+00  0.28250642761E+03  0.10630536360E+04  0.10248283522E+04 0.  0.
        5    1    3    3  502    0  0.49524617955E+03 -0.13076398934E+03  0.12740619804E+03  0.52784697457E+03  0.46999998093E+01 0. -1.
       -5    1    3    3    0  502 -0.49524617955E+03  0.13076398934E+03  0.15510022957E+03  0.53520666147E+03  0.46999998093E+01 0.  1.
</event>
<event>
 5   0  0.1656859E-02  0.9804640E+03  0.7818609E-02  0.9330235E-01
        2   -1    0    0  501    0  0.00000000000E+00  0.00000000000E+00  0.69823323569E+03  0.69823323570E+03  0.25500000920E-02 0. -1.
       -2   -1    0    0    0  501  0.00000000000E+00  0.00000000000E+00 -0.34419363647E+03  0.34419363648E+03  0.25500000920E-02 0.  1.
    10030    2    1    2    0    0  0.00000000000E+00  0.00000000000E+00  0.35403959922E+03  0.10424268722E+04  0.98046404627E+03 0.  0.
        4    1    3    3  502    0  0.29004109534E+03  0.32778877286E+03 -0.57743507029E+02  0.44148073808E+03  0.12699999809E+01 0.  1.
       -4    1    3    3    0  502 -0.29004109534E+03 -0.32778877286E+03  0.41178310625E+03  0.60094613410E+03  0.12699999809E+01 0. -1.
</event>
<event>
 5   0  0.1663497E-02  0.9584136E+03  0.7818609E-02  0.9355370E-01
        2   -1    0    0  501    0  0.00000000000E+00  0.00000000000E+00  0.52393604359E+03  0.52393604359E+03  0.25500000920E-02 0. -1.
       -2   -1    0    0    0  501  0.00000000000E+00  0.00000000000E+00 -0.43829620634E+03  0.43829620635E+03  0.25500000920E-02 0.  1.
    10030    2    1    2    0    0  0.00000000000E+00  0.00000000000E+00  0.85639837244E+02  0.96223224994E+03  0.95841364823E+03 0.  0.
        1    1    3    3  502    0  0.28276011986E+02 -0.34743399782E+03 -0.28732038279E+03  0.45173323775E+03  0.50400001928E-02 0.  1.
       -1    1    3    3    0  502 -0.28276011986E+02  0.34743399782E+03  0.37296022003E+03  0.51049901219E+03  0.50400001928E-02 0. -1.
</event>
<event>
 5   0  0.1663497E-02  0.1021815E+04  0.7818609E-02  0.9284937E-01
       -2   -1    0    0    0  501  0.00000000000E+00  0.00000000000E+00  0.16337948385E+03  0.16337948387E+03  0.25500000920E-02 0. -1.
        2   -1    0    0  501    0  0.00000000000E+00  0.00000000000E+00 -0.15976698277E+04  0.15976698277E+04  0.25500000920E-02 0.  1.
    10030    2    1    2    0    0  0.00000000000E+00  0.00000000000E+00 -0.14342903438E+04  0.17610493116E+04  0.10218149966E+04 0.  0.
        1    1    3    3  502    0 -0.24961267069E+03  0.14874653161E+03  0.71036158401E+01  0.29065869576E+03  0.50400001928E-02 0. -1.
       -1    1    3    3    0  502  0.24961267069E+03 -0.14874653161E+03 -0.14413939597E+04  0.14703906158E+04  0.50400001928E-02 0.  1.
</event>
<event>
 5   0  0.9759443E-03  0.9710576E+03  0.7818609E-02  0.9340871E-01
        1   -1    0    0  501    0  0.00000000000E+00  0.00000000000E+00  0.59969626054E+03  0.59969626056E+03  0.50400001928E-02 0. -1.
       -1   -1    0    0    0  501  0.00000000000E+00  0.00000000000E+00 -0.39309602556E+03  0.39309602559E+03  0.50400001928E-02 0.  1.
    10030    2    1    2    0    0  0.00000000000E+00  0.00000000000E+00  0.20660023498E+03  0.99279228615E+03  0.97105760197E+03 0.  0.
        2    1    3    3  502    0  0.17588605425E+03  0.44640329048E+03  0.17930388820E+03  0.51221254003E+03  0.25500000920E-02 0. -1.
       -2    1    3    3    0  502 -0.17588605425E+03 -0.44640329048E+03  0.27296346782E+02  0.48057974613E+03  0.25500000920E-02 0.  1.
</event>
<event>
 5   0  0.9396660E-03  0.9742407E+03  0.7818609E-02  0.9337257E-01
        1   -1    0    0  501    0  0.00000000000E+00  0.00000000000E+00  0.34717524186E+03  0.34717524189E+03  0.50400001928E-02 0.  1.
       -1   -1    0    0    0  501  0.00000000000E+00  0.00000000000E+00 -0.68347679543E+03  0.68347679544E+03  0.50400001928E-02 0. -1.
    10030    2    1    2    0    0  0.00000000000E+00  0.00000000000E+00 -0.33630155357E+03  0.10306520373E+04  0.97424067208E+03 0.  0.
        5    1    3    3  502    0 -0.29155814432E+03 -0.38182392068E+02  0.24266451714E+03  0.38127707046E+03  0.46999998093E+01 0.  1.
       -5    1    3    3    0  502  0.29155814432E+03  0.38182392068E+02 -0.57896607071E+03  0.64937496688E+03  0.46999998093E+01 0. -1.
</event>
<event>
 5   0  0.1617721E-02  0.9958177E+03  0.7818609E-02  0.9313144E-01
       -2   -1    0    0    0  501  0.00000000000E+00  0.00000000000E+00  0.13818272249E+03  0.13818272252E+03  0.25500000920E-02 0.  1.
        2   -1    0    0  501    0  0.00000000000E+00  0.00000000000E+00 -0.17940971802E+04  0.17940971802E+04  0.25500000920E-02 0. -1.
    10030    2    1    2    0    0  0.00000000000E+00  0.00000000000E+00 -0.16559144577E+04  0.19322799027E+04  0.99581771987E+03 0.  0.
        5    1    3    3  502    0  0.39722487583E+03  0.19852006683E+03 -0.39107380105E+03  0.59174202722E+03  0.46999998093E+01 0.  1.
       -5    1    3    3    0  502 -0.39722487583E+03 -0.19852006683E+03 -0.12648406567E+04  0.13405378755E+04  0.46999998093E+01 0. -1.
</event>
<event>
 5   0  0.9471140E-03  0.9985092E+03  0.7818609E-02  0.9310181E-01
       -1   -1    0    0    0  501  0.00000000000E+00  0.00000000000E+00  0.29948213326E+03  0.29948213330E+03  0.50400001928E-02 0. -1.
        1   -1    0    0  501    0  0.00000000000E+00  0.00000000000E+00 -0.83228720947E+03  0.83228720949E+03  0.50400001928E-02 0.  1.
    10030    2    1    2    0    0  0.00000000000E+00  0.00000000000E+00 -0.53280507622E+03  0.11317693428E+04  0.99850918675E+03 0.  0.
        4    1    3    3  502    0  0.70798807905E+01 -0.27744066946E+03  0.20398994204E+03  0.34443716282E+03  0.12699999809E+01 0. -1.
       -4    1    3    3    0  502 -0.70798807905E+01  0.27744066946E+03 -0.73679501825E+03  0.78733217996E+03  0.12699999809E+01 0.  1.
</event>
<event>
 5   0  0.1571895E-02  0.9405171E+03  0.7818609E-02  0.9376304E-01
        2   -1    0    0  501    0  0.00000000000E+00  0.00000000000E+00  0.31376908440E+03  0.31376908442E+03  0.25500000920E-02 0. -1.
       -2   -1    0    0    0  501  0.00000000000E+00  0.00000000000E+00 -0.70479575330E+03  0.70479575330E+03  0.25500000920E-02 0.  1.
    10030    2    1    2    0    0  0.00000000000E+00  0.00000000000E+00 -0.39102666889E+03  0.10185648377E+04  0.94051713054E+03 0.  0.
        2    1    3    3  502    0 -0.29584448512E+03  0.33823663475E+03 -0.34563511971E+03  0.56691411735E+03  0.25500000920E-02 0. -1.
       -2    1    3    3    0  502  0.29584448512E+03 -0.33823663475E+03 -0.45391549180E+02  0.45165072037E+03  0.25500000920E-02 0.  1.
</event>
<event>
 5   0  0.9507815E-03  0.8287215E+03  0.7818609E-02  0.9519350E-01
       -1   -1    0    0    0  501  0.00000000000E+00  0.00000000000E+00  0.95223849149E+02  0.95223849282E+02  0.50400001928E-02 0. -1.
        1   -1    0    0  501    0  0.00000000000E+00  0.00000000000E+00 -0.18030655939E+04  0.18030655939E+04  0.50400001928E-02 0.  1.
    10030    2    1    2    0    0  0.00000000000E+00  0.00000000000E+00 -0.17078417447E+04  0.18982894432E+04  0.82872153647E+03 0.  0.
        1    1    3    3  502    0 -0.33890692531E+03  0.22503752469E+03 -0.10342128404E+04  0.11113487260E+04  0.50400001928E-02 0.  1.
       -1    1    3    3    0  502  0.33890692531E+03 -0.22503752469E+03 -0.67362890436E+03  0.78694071718E+03  0.50400001928E-02 0. -1.
</event>
<event>
 5   0  0.1598986E-02  0.1088734E+04  0.7818609E-02  0.9216242E-01
        2   -1    0    0  501    0  0.00000000000E+00  0.00000000000E+00  0.80663264679E+03  0.80663264679E+03  0.25500000920E-02 0. -1.
       -2   -1    0    0    0  501  0.00000000000E+00  0.00000000000E+00 -0.36737377876E+03  0.36737377877E+03  0.25500000920E-02 0.  1.
    10030    2    1    2    0    0  0.00000000000E+00  0.00000000000E+00  0.43925886802E+03  0.11740064256E+04  0.10887344645E+04 0.  0.
        3    1    3    3  502    0  0.34085872359E+03  0.32034476265E+03 -0.80621286680E+02  0.47466328957E+03  0.10100000352E+00 0.  1.
       -3    1    3    3    0  502 -0.34085872359E+03 -0.32034476265E+03  0.51988015470E+03  0.69934313599E+03  0.10100000352E+00 0. -1.
</event>
<event>
 5   0  0.1617721E-02  0.9820170E+03  0.7818609E-02  0.9328491E-01
       -2   -1    0    0    0  501  0.00000000000E+00  0.00000000000E+00  0.14464882482E+03  0.14464882485E+03  0.25500000920E-02 0.  1.
        2   -1    0    0  501    0  0.00000000000E+00  0.00000000000E+00 -0.16667219218E+04  0.16667219218E+04  0.25500000920E-02 0. -1.
    10030    2    1    2    0    0  0.00000000000E+00  0.00000000000E+00 -0.15220730970E+04  0.18113707466E+04  0.98201704123E+03 0.  0.
        5    1    3    3  502    0 -0.38878387203E+03  0.65554922636E+02 -0.13007561011E+04  0.13592052352E+04  0.46999998093E+01 0. -1.
       -5    1    3    3    0  502  0.38878387203E+03 -0.65554922636E+02 -0.22131699590E+03  0.45216551140E+03  0.46999998093E+01 0.  1.
</event>
<event>
 5   0  0.9507815E-03  0.8008234E+03  0.7818609E-02  0.9558826E-01
       -1   -1    0    0    0  501  0.00000000000E+00  0.00000000000E+00  0.19061996808E+03  0.19061996814E+03  0.50400001928E-02 0. -1.
        1   -1    0    0  501    0  0.00000000000E+00  0.00000000000E+00 -0.84109507934E+03  0.84109507935E+03  0.50400001928E-02 0.  1.
    10030    2    1    2    0    0  0.00000000000E+00  0.00000000000E+00 -0.65047511126E+03  0.10317150475E+04  0.80082336932E+03 0.  0.
        1    1    3    3  502    0  0.38979083466E+03  0.50155199287E+02 -0.22647239637E+03  0.45358812279E+03  0.50400001928E-02 0.  1.
       -1    1    3    3    0  502 -0.38979083466E+03 -0.50155199287E+02 -0.42400271489E+03  0.57812692470E+03  0.50400001928E-02 0. -1.
</event>
<event>
 5   0  0.9471140E-03  0.1029875E+04  0.7818609E-02  0.9276372E-01
        1   -1    0    0  501    0  0.00000000000E+00  0.00000000000E+00  0.93785320349E+03  0.93785320351E+03  0.50400001928E-02 0.  1.
       -1   -1    0    0    0  501  0.00000000000E+00  0.00000000000E+00 -0.28273153957E+03  0.28273153961E+03  0.50400001928E-02 0. -1.
    10030    2    1    2    0    0  0.00000000000E+00  0.00000000000E+00  0.65512166393E+03  0.12205847431E+04  0.10298750995E+04 0.  0.
        4    1    3    3  502    0  0.24274516433E+03 -0.43063562170E+03  0.15668629849E+03  0.51857927313E+03  0.12699999809E+01 0. -1.
       -4    1    3    3    0  502 -0.24274516433E+03  0.43063562170E+03  0.49843536544E+03  0.70200546999E+03  0.12699999809E+01 0.  1.
</event>
<event>
 5   0  0.9396660E-03  0.1007675E+04  0.7818609E-02  0.9300167E-01
       -1   -1    0    0    0  501  0.00000000000E+00  0.00000000000E+00  0.59601770040E+03  0.59601770042E+03  0.50400001928E-02 0. -1.
        1   -1    0    0  501    0  0.00000000000E+00  0.00000000000E+00 -0.42591350979E+03  0.42591350982E+03  0.50400001928E-02 0.  1.
    10030    2    1    2    0    0  0.00000000000E+00  0.00000000000E+00  0.17010419061E+03  0.10219312102E+04  0.10076745322E+04 0.  0.
        5    1    3    3  502    0  0.16580292342E+03 -0.11059036676E+03 -0.38421370570E+03  0.43285459485E+03  0.46999998093E+01 0.  1.
       -5    1    3    3    0  502 -0.16580292342E+03  0.11059036676E+03  0.55431789631E+03  0.58907661539E+03  0.46999998093E+01 0. -1.
</event>
<event>
 5   0  0.9396660E-03  0.1000826E+04  0.7818609E-02  0.9307640E-01
       -1   -1    0    0    0  501  0.00000000000E+00  0.00000000000E+00  0.16704914409E+03  0.16704914417E+03  0.50400001928E-02 0.  1.
        1   -1    0    0  501    0  0.00000000000E+00  0.00000000000E+00 -0.14990382601E+04  0.14990382601E+04  0.50400001928E-02 0. -1.
    10030    2    1    2    0    0  0.00000000000E+00  0.00000000000E+00 -0.13319891160E+04  0.16660874043E+04  0.10008257758E+04 0.  0.
        5    1    3    3  502    0  0.27110422142E+03 -0.15812220360E+03 -0.13147859642E+04  0.13517338318E+04  0.46999998093E+01 0. -1.
       -5    1    3    3    0  502 -0.27110422142E+03  0.15812220360E+03 -0.17203151794E+02  0.31435357255E+03  0.46999998093E+01 0.  1.
</event>
<event>
 5   0  0.1617721E-02  0.9775097E+03  0.7818609E-02  0.9333562E-01
       -2   -1    0    0    0  501  0.00000000000E+00  0.00000000000E+00  0.58002151507E+03  0.58002151507E+03  0.25500000920E-02 0. -1.
        2   -1    0    0  501    0  0.00000000000E+00  0.00000000000E+00 -0.41184905050E+03  0.41184905051E+03  0.25500000920E-02 0.  1.
    10030    2    1    2    0    0  0.00000000000E+00  0.00000000000E+00  0.16817246457E+03  0.99187056558E+03  0.97750971403E+03 0.  0.
        5    1    3    3  502    0  0.15602522008E+03 -0.37091977207E+03 -0.19735823818E+03  0.44821614293E+03  0.46999998093E+01 0.  1.
       -5    1    3    3    0  502 -0.15602522008E+03  0.37091977207E+03  0.36553070274E+03  0.54365442264E+03  0.46999998093E+01 0. -1.
</event>
<event>
 5   0  0.1617721E-02  0.9918377E+03  0.7818609E-02  0.9317543E-01
       -2   -1    0    0    0  501  0.00000000000E+00  0.00000000000E+00  0.22439180683E+03  0.22439180685E+03  0.25500000920E-02 0. -1.
        2   -1    0    0  501    0  0.00000000000E+00  0.00000000000E+00 -0.10960093891E+04  0.10960093891E+04  0.25500000920E-02 0.  1.
    10030    2    1    2    0    0  0.00000000000E+00  0.00000000000E+00 -0.87161758226E+03  0.13204011959E+04  0.99183774305E+03 0.  0.
        5    1    3    3  502    0 -0.40563057560E+03  0.22776698528E+03 -0.20715815600E+03  0.50926472000E+03  0.46999998093E+01 0. -1.
       -5    1    3    3    0  502  0.40563057560E+03 -0.22776698528E+03 -0.66445942626E+03  0.81113647593E+03  0.46999998093E+01 0.  1.
</event>
<event>
 5   0  0.1598986E-02  0.1006779E+04  0.7818609E-02  0.9301140E-01
       -2   -1    0    0    0  501  0.00000000000E+00  0.00000000000E+00  0.56004583423E+03  0.56004583423E+03  0.25500000920E-02 0. -1.
        2   -1    0    0  501    0  0.00000000000E+00  0.00000000000E+00 -0.45246501817E+03  0.45246501817E+03  0.25500000920E-02 0.  1.
    10030    2    1    2    0    0  0.00000000000E+00  0.00000000000E+00  0.10758081606E+03  0.10125108524E+04  0.10067793176E+04 0.  0.
        3    1    3    3  502    0 -0.48982859786E+03 -0.90293867893E+02 -0.19536267090E+02  0.49846435559E+03  0.10100000352E+00 0.  1.
       -3    1    3    3    0  502  0.48982859786E+03  0.90293867893E+02  0.12711708315E+03  0.51404649682E+03  0.10100000352E+00 0. -1.
</event>
<event>
 5   0  0.1617721E-02  0.1024916E+04  0.7818609E-02  0.9281632E-01
        2   -1    0    0  501    0  0.00000000000E+00  0.00000000000E+00  0.26779602414E+03  0.26779602416E+03  0.25500000920E-02 0. -1.
       -2   -1    0    0    0  501  0.00000000000E+00  0.00000000000E+00 -0.98064616179E+03  0.98064616179E+03  0.25500000920E-02 0.  1.
    10030    2    1    2    0    0  0.00000000000E+00  0.00000000000E+00 -0.71285013764E+03  0.12484421859E+04  0.10249158858E+04 0.  0.
        5    1    3    3  502    0 -0.11166435302E+01  0.48264835739E+03 -0.56613645800E+03  0.74396455753E+03  0.46999998093E+01 0.  1.
       -5    1    3    3    0  502  0.11166435302E+01 -0.48264835739E+03 -0.14671367964E+03  0.50447762842E+03  0.46999998093E+01 0. -1.
</event>
<event>
 5   0  0.9759443E-03  0.1005404E+04  0.7818609E-02  0.9302638E-01
       -1   -1    0    0    0  501  0.00000000000E+00  0.00000000000E+00  0.38113081483E+03  0.38113081486E+03  0.50400001928E-02 0.  1.
        1   -1    0    0  501    0  0.00000000000E+00  0.00000000000E+00 -0.66305078371E+03  0.66305078373E+03  0.50400001928E-02 0. -1.
    10030    2    1    2    0    0  0.00000000000E+00  0.00000000000E+00 -0.28191996888E+03  0.10441815986E+04  0.10054035717E+04 0.  0.
        2    1    3    3  502    0 -0.17478441357E+03  0.15537115945E+03  0.32119683846E+03  0.39731246829E+03  0.25500000920E-02 0.  1.
       -2    1    3    3    0  502  0.17478441357E+03 -0.15537115945E+03 -0.60311680734E+03  0.64686913029E+03  0.25500000920E-02 0. -1.
</event>
<event>
 5   0  0.1598986E-02  0.9629827E+03  0.7818609E-02  0.9350103E-01
        2   -1    0    0  501    0  0.00000000000E+00  0.00000000000E+00  0.87031297608E+03  0.87031297608E+03  0.25500000920E-02 0. -1.
       -2   -1    0    0    0  501  0.00000000000E+00  0.00000000000E+00 -0.26637995298E+03  0.26637995299E+03  0.25500000920E-02 0.  1.
    10030    2    1    2    0    0  0.00000000000E+00  0.00000000000E+00  0.60393302310E+03  0.11366929291E+04  0.96298271980E+03 0.  0.
        3    1    3    3  502    0 -0.22659673339E+03 -0.39839768346E+02  0.80123091484E+03  0.83360918650E+03  0.10100000352E+00 0. -1.
       -3    1    3    3    0  502  0.22659673339E+03  0.39839768346E+02 -0.19729789174E+03  0.30308374257E+03  0.10100000352E+00 0.  1.
</event>
<event>
 5   0  0.1571895E-02  0.1006594E+04  0.7818609E-02  0.9301342E-01
        2   -1    0    0  501    0  0.00000000000E+00  0.00000000000E+00  0.15546029811E+04  0.15546029811E+04  0.25500000920E-02 0.  1.
       -2   -1    0    0    0  501  0.00000000000E+00  0.00000000000E+00 -0.16294043854E+03  0.16294043856E+03  0.25500000920E-02 0. -1.
    10030    2    1    2    0    0  0.00000000000E+00  0.00000000000E+00  0.13916625426E+04  0.17175434197E+04  0.10065936450E+04 0.  0.
        2    1    3    3  502    0 -0.19828760925E+03  0.26641960866E+03  0.50567605362E+02  0.33593818863E+03  0.25500000920E-02 0. -1.
       -2    1    3    3    0  502  0.19828760925E+03 -0.26641960866E+03  0.13410949372E+04  0.13816052311E+04  0.25500000920E-02 0.  1.
</event>
<event>
 5   0  0.1598986E-02  0.1015919E+04  0.7818609E-02  0.9291256E-01
       -2   -1    0    0    0  501  0.00000000000E+00  0.00000000000E+00  0.88042806439E+03  0.88042806440E+03  0.25500000920E-02 0. -1.
        2   -1    0    0  501    0  0.00000000000E+00  0.00000000000E+00 -0.29306513374E+03  0.29306513375E+03  0.25500000920E-02 0.  1.
    10030    2    1    2    0    0  0.00000000000E+00  0.00000000000E+00  0.58736293065E+03  0.11734931981E+04  0.10159188323E+04 0.  0.
        3    1    3    3  502    0  0.40679326022E+03 -0.18684286176E+03  0.57098311731E+03  0.72554306695E+03  0.10100000352E+00 0. -1.
       -3    1    3    3    0  502 -0.40679326022E+03  0.18684286176E+03  0.16379813345E+02  0.44795013120E+03  0.10100000352E+00 0.  1.
</event>
<event>
 5   0  0.9759443E-03  0.1013752E+04  0.7818609E-02  0.9293589E-01
        1   -1    0    0  501    0  0.00000000000E+00  0.00000000000E+00  0.29464833341E+03  0.29464833345E+03  0.50400001928E-02 0. -1.
       -1   -1    0    0    0  501  0.00000000000E+00  0.00000000000E+00 -0.87196555360E+03  0.87196555361E+03  0.50400001928E-02 0.  1.
    10030    2    1    2    0    0  0.00000000000E+00  0.00000000000E+00 -0.57731722019E+03  0.11666138871E+04  0.10137518379E+04 0.  0.
        2    1    3    3  502    0 -0.24083242617E+03  0.44470138096E+03 -0.24940303462E+03  0.56388070494E+03  0.25500000920E-02 0.  1.
       -2    1    3    3    0  502  0.24083242617E+03 -0.44470138096E+03 -0.32791418557E+03  0.60273318212E+03  0.25500000920E-02 0. -1.
</event>
<event>
 5   0  0.1571895E-02  0.9870874E+03  0.7818609E-02  0.9322822E-01
        2   -1    0    0  501    0  0.00000000000E+00  0.00000000000E+00  0.99512252221E+03  0.99512252221E+03  0.25500000920E-02 0.  1.
       -2   -1    0    0    0  501  0.00000000000E+00  0.00000000000E+00 -0.24477927967E+03  0.24477927969E+03  0.25500000920E-02 0. -1.
    10030    2    1    2    0    0  0.00000000000E+00  0.00000000000E+00  0.75034324253E+03  0.12399018019E+04  0.98708738050E+03 0.  0.
        2    1    3    3  502    0  0.12289293126E+03 -0.43937748110E+03  0.13873319021E+03  0.47686700612E+03  0.25500000920E-02 0. -1.
       -2    1    3    3    0  502 -0.12289293126E+03  0.43937748110E+03  0.61161005232E+03  0.76303479577E+03  0.25500000920E-02 0.  1.
</event>
<event>
 5   0  0.9471140E-03  0.1004856E+04  0.7818609E-02  0.9303235E-01
        1   -1    0    0  501    0  0.00000000000E+00  0.00000000000E+00  0.60824042265E+03  0.60824042267E+03  0.50400001928E-02 0.  1.
       -1   -1    0    0    0  501  0.00000000000E+00  0.00000000000E+00 -0.41502310082E+03  0.41502310085E+03  0.50400001928E-02 0. -1.
    10030    2    1    2    0    0  0.00000000000E+00  0.00000000000E+00  0.19321732183E+03  0.10232635235E+04  0.10048558628E+04 0.  0.
        4    1    3    3  502    0 -0.79088780875E+02  0.17767168306E+03  0.56835512116E+03  0.60070909671E+03  0.12699999809E+01 0.  1.
       -4    1    3    3    0  502  0.79088780875E+02 -0.17767168306E+03 -0.37513779933E+03  0.42255442680E+03  0.12699999809E+01 0. -1.
</event>
<event>
 5   0  0.9471140E-03  0.9901059E+03  0.7818609E-02  0.9319464E-01
       -1   -1    0    0    0  501  0.00000000000E+00  0.00000000000E+00  0.36877217696E+03  0.36877217700E+03  0.50400001928E-02 0.  1.
        1   -1    0    0  501    0  0.00000000000E+00  0.00000000000E+00 -0.66457671619E+03  0.66457671621E+03  0.50400001928E-02 0. -1.
    10030    2    1    2    0    0  0.00000000000E+00  0.00000000000E+00 -0.29580453923E+03  0.10333488932E+04  0.99010585781E+03 0.  0.
        4    1    3    3  502    0  0.27088706950E+03  0.19999928797E+03  0.23084724584E+03  0.40825431219E+03  0.12699999809E+01 0.  1.
       -4    1    3    3    0  502 -0.27088706950E+03 -0.19999928797E+03 -0.52665178506E+03  0.62509458102E+03  0.12699999809E+01 0. -1.
</event>
<event>
 5   0  0.1656859E-02  0.1002106E+04  0.7818609E-02  0.9306238E-01
       -2   -1    0    0    0  501  0.00000000000E+00  0.00000000000E+00  0.22507463346E+03  0.22507463348E+03  0.25500000920E-02 0. -1.
        2   -1    0    0  501    0  0.00000000000E+00  0.00000000000E+00 -0.11154259271E+04  0.11154259271E+04  0.25500000920E-02 0.  1.
    10030    2    1    2    0    0  0.00000000000E+00  0.00000000000E+00 -0.89035129367E+03  0.13405005606E+04  0.10021059459E+04 0.  0.
        4    1    3    3  502    0  0.16259125895E+03  0.47200910670E+03 -0.38804615463E+03  0.63230526277E+03  0.12699999809E+01 0.  1.
       -4    1    3    3    0  502 -0.16259125895E+03 -0.47200910670E+03 -0.50230513903E+03  0.70819529785E+03  0.12699999809E+01 0. -1.
</event>
<event>
 5   0  0.1000773E-02  0.9819418E+03  0.7818609E-02  0.9328575E-01
       -1   -1    0    0    0  501  0.00000000000E+00  0.00000000000E+00  0.24426859393E+03  0.24426859398E+03  0.50400001928E-02 0.  1.
        1   -1    0    0  501    0  0.00000000000E+00  0.00000000000E+00 -0.98683348632E+03  0.98683348634E+03  0.50400001928E-02 0. -1.
    10030    2    1    2    0    0  0.00000000000E+00  0.00000000000E+00 -0.74256489240E+03  0.12311020803E+04  0.98194180720E+03 0.  0.
        3    1    3    3  502    0 -0.38156615048E+03  0.20890428169E+03 -0.65668084809E+03  0.78769503778E+03  0.10100000352E+00 0. -1.
       -3    1    3    3    0  502  0.38156615048E+03 -0.20890428169E+03 -0.85884044309E+02  0.44340704253E+03  0.10100000352E+00 0.  1.
</event>
<event>
 5   0  0.6314750E-03  0.1009873E+04  0.7818609E-02  0.9297782E-01
       -4   -1    0    0    0  501  0.00000000000E+00  0.00000000000E+00  0.43829547805E+03  0.43829731802E+03  0.12699999809E+01 0. -1.
        4   -1    0    0  501    0  0.00000000000E+00  0.00000000000E+00 -0.58170636841E+03  0.58170775476E+03  0.12699999809E+01 0.  1.
    10030    2    1    2    0    0  0.00000000000E+00  0.00000000000E+00 -0.14341089036E+03  0.10200050728E+04  0.10098730935E+04 0.  0.
        1    1    3    3  502    0 -0.16068495597E+03 -0.41871749846E+03 -0.30601766602E+03  0.54294641590E+03  0.50400001928E-02 0.  1.
       -1    1    3    3    0  502  0.16068495597E+03  0.41871749846E+03  0.16260677566E+03  0.47705865689E+03  0.50400001928E-02 0. -1.
</event>
<event>
 5   0  0.1598986E-02  0.9879525E+03  0.7818609E-02  0.9321858E-01
        2   -1    0    0  501    0  0.00000000000E+00  0.00000000000E+00  0.12033470836E+04  0.12033470836E+04  0.25500000920E-02 0.  1.
       -2   -1    0    0    0  501  0.00000000000E+00  0.00000000000E+00 -0.20277819276E+03  0.20277819277E+03  0.25500000920E-02 0. -1.
    10030    2    1    2    0    0  0.00000000000E+00  0.00000000000E+00  0.10005688908E+04  0.14061252764E+04  0.98795252291E+03 0.  0.
        3    1    3    3  502    0  0.44892522094E+03 -0.16886008414E+03  0.66847736359E+03  0.82274514757E+03  0.10100000352E+00 0.  1.
       -3    1    3    3    0  502 -0.44892522094E+03  0.16886008414E+03  0.33209152724E+03  0.58338012880E+03  0.10100000352E+00 0. -1.
</event>
<event>
 5   0  0.1598986E-02  0.9818625E+03  0.7818609E-02  0.9328664E-01
       -2   -1    0    0    0  501  0.00000000000E+00  0.00000000000E+00  0.41855149470E+03  0.41855149471E+03  0.25500000920E-02 0.  1.
        2   -1    0    0  501    0  0.00000000000E+00  0.00000000000E+00 -0.57582761315E+03  0.57582761316E+03  0.25500000920E-02 0. -1.
    10030    2    1    2    0    0  0.00000000000E+00  0.00000000000E+00 -0.15727611845E+03  0.99437910787E+03  0.98186253250E+03 0.  0.
        3    1    3    3  502    0 -0.24057266848E+03  0.41833463090E+03  0.12702728557E+02  0.48274262474E+03  0.10100000352E+00 0. -1.
       -3    1    3    3    0  502  0.24057266848E+03 -0.41833463090E+03 -0.16997884701E+03  0.51163648312E+03  0.10100000352E+00 0.  1.
</event>
<event>
 5   0  0.1571895E-02  0.9730421E+03  0.7818609E-02  0.9338616E-01
        2   -1    0    0  501    0  0.00000000000E+00  0.00000000000E+00  0.11401108741E+04  0.11401108741E+04  0.25500000920E-02 0. -1.
       -2   -1    0    0    0  501  0.00000000000E+00  0.00000000000E+00 -0.20761380069E+03  0.20761380071E+03  0.25500000920E-02 0.  1.
    10030    2    1    2    0    0  0.00000000000E+00  0.00000000000E+00  0.93249707336E+03  0.13477246748E+04  0.97304214048E+03 0.  0.
        2    1    3    3  502    0  0.28766692590E+03  0.39043181676E+03  0.41236463701E+03  0.63657981248E+03  0.25500000920E-02 0.  1.
       -2    1    3    3    0  502 -0.28766692590E+03 -0.39043181676E+03  0.52013243636E+03  0.71114486229E+03  0.25500000920E-02 0. -1.
</event>
<event>
 5   0  0.9507815E-03  0.5202410E+03  0.7818609E-02  0.1008627E+00
        1   -1    0    0  501    0  0.00000000000E+00  0.00000000000E+00  0.23282113553E+03  0.23282113559E+03  0.50400001928E-02 0. -1.
       -1   -1    0    0    0  501  0.00000000000E+00  0.00000000000E+00 -0.29062078921E+03  0.29062078925E+03  0.50400001928E-02 0.  1.
    10030    2    1    2    0    0  0.00000000000E+00  0.00000000000E+00 -0.57799653676E+02  0.52344192484E+03  0.52024095255E+03 0.  0.
        1    1    3    3  502    0 -0.21684914460E+03 -0.29107139112E+02 -0.17044906900E+03  0.27735115325E+03  0.50400001928E-02 0.  1.
       -1    1    3    3    0  502  0.21684914460E+03  0.29107139112E+02  0.11264941533E+03  0.24609077159E+03  0.50400001928E-02 0. -1.
</event>
<event>
 5   0  0.1656859E-02  0.9841904E+03  0.7818609E-02  0.9326056E-01
       -2   -1    0    0    0  501  0.00000000000E+00  0.00000000000E+00  0.13494072381E+03  0.13494072383E+03  0.25500000920E-02 0.  1.
        2   -1    0    0  501    0  0.00000000000E+00  0.00000000000E+00 -0.17945487101E+04  0.17945487101E+04  0.25500000920E-02 0. -1.
    10030    2    1    2    0    0  0.00000000000E+00  0.00000000000E+00 -0.16596079863E+04  0.19294894339E+04  0.98419043253E+03 0.  0.
        4    1    3    3  502    0  0.47702311936E+03 -0.11654428441E+03 -0.89249235565E+03  0.10186647360E+04  0.12699999809E+01 0. -1.
       -4    1    3    3    0  502 -0.47702311936E+03  0.11654428441E+03 -0.76711563063E+03  0.91082469789E+03  0.12699999809E+01 0.  1.
</event>
<event>
 5   0  0.1000773E-02  0.9968801E+03  0.7818609E-02  0.9311973E-01
        1   -1    0    0  501    0  0.00000000000E+00  0.00000000000E+00  0.22083146257E+04  0.22083146257E+04  0.50400001928E-02 0.  1.
       -1   -1    0    0    0  501  0.00000000000E+00  0.00000000000E+00 -0.11250320825E+03  0.11250320837E+03  0.50400001928E-02 0. -1.
    10030    2    1    2    0    0  0.00000000000E+00  0.00000000000E+00  0.20958114174E+04  0.23208178341E+04  0.99688009381E+03 0.  0.
        3    1    3    3  502    0  0.33788658059E+03 -0.47835981356E+02  0.18936974837E+04  0.19242000396E+04  0.10100000352E+00 0.  1.
       -3    1    3    3    0  502 -0.33788658059E+03  0.47835981356E+02  0.20211393371E+03  0.39661779443E+03  0.10100000352E+00 0. -1.
</event>
<event>
 5   0  0.1598986E-02  0.9963709E+03  0.7818609E-02  0.9312534E-01
       -2   -1    0    0    0  501  0.00000000000E+00  0.00000000000E+00  0.62864069466E+03  0.62864069466E+03  0.25500000920E-02 0.  1.
        2   -1    0    0  501    0  0.00000000000E+00  0.00000000000E+00 -0.39480225398E+03  0.39480225399E+03  0.25500000920E-02 0. -1.
    10030    2    1    2    0    0  0.00000000000E+00  0.00000000000E+00  0.23383844067E+03  0.10234429487E+04  0.99637094137E+03 0.  0.
        3    1    3    3  502    0  0.44446800192E+03  0.51515889393E+02 -0.10808287459E+03  0.46031251294E+03  0.10100000352E+00 0.  1.
       -3    1    3    3    0  502 -0.44446800192E+03 -0.51515889393E+02  0.34192131527E+03  0.56313043571E+03  0.10100000352E+00 0. -1.
</event>
<event>
 5   0  0.1598986E-02  0.9740184E+03  0.7818609E-02  0.9337509E-01
       -2   -1    0    0    0  501  0.00000000000E+00  0.00000000000E+00  0.50660091361E+03  0.50660091362E+03  0.25500000920E-02 0. -1.
        2   -1    0    0  501    0  0.00000000000E+00  0.00000000000E+00 -0.46817519450E+03  0.46817519451E+03  0.25500000920E-02 0.  1.
    10030    2    1    2    0    0  0.00000000000E+00  0.00000000000E+00  0.38425719115E+02  0.97477610813E+03  0.97401844186E+03 0.  0.
        3    1    3    3  502    0 -0.41113719602E+02 -0.48244169773E+03  0.71576035274E+02  0.48945221286E+03  0.10100000352E+00 0.  1.
       -3    1    3    3    0  502  0.41113719602E+02  0.48244169773E+03 -0.33150316159E+02  0.48532389526E+03  0.10100000352E+00 0. -1.
</event>
<event>
 5   0  0.9471140E-03  0.1003600E+04  0.7818609E-02  0.9304606E-01
       -1   -1    0    0    0  501  0.00000000000E+00  0.00000000000E+00  0.22912955248E+03  0.22912955254E+03  0.50400001928E-02 0. -1.
        1   -1    0    0  501    0  0.00000000000E+00  0.00000000000E+00 -0.10989548471E+04  0.10989548471E+04  0.50400001928E-02 0.  1.
    10030    2    1    2    0    0  0.00000000000E+00  0.00000000000E+00 -0.86982529460E+03  0.13280843996E+04  0.10035995862E+04 0.  0.
        4    1    3    3  502    0 -0.35899956209E+03  0.34840304968E+03 -0.48677685116E+03  0.69801052021E+03  0.12699999809E+01 0.  1.
       -4    1    3    3    0  502  0.35899956209E+03 -0.34840304968E+03 -0.38304844345E+03  0.63007387942E+03  0.12699999809E+01 0. -1.
</event>
<event>
 5   0  0.9507815E-03  0.1001650E+04  0.7818609E-02  0.9306736E-01
       -1   -1    0    0    0  501  0.00000000000E+00  0.00000000000E+00  0.61950414142E+03  0.61950414144E+03  0.50400001928E-02 0. -1.
        1   -1    0    0  501    0  0.00000000000E+00  0.00000000000E+00 -0.40488172915E+03  0.40488172918E+03  0.50400001928E-02 0.  1.
    10030    2    1    2    0    0  0.00000000000E+00  0.00000000000E+00  0.21462241227E+03  0.10243858706E+04  0.10016504540E+04 0.  0.
        1    1    3    3  502    0 -0.15364562385E+03  0.95680621401E+01  0.59470740215E+03  0.61430889603E+03  0.50400001928E-02 0. -1.
       -1    1    3    3    0  502  0.15364562385E+03 -0.95680621401E+01 -0.38008498987E+03  0.41007697460E+03  0.50400001928E-02 0.  1.
</event>
<event>
 5   0  0.1663497E-02  0.1068540E+04  0.7818609E-02  0.9236409E-01
       -2   -1    0    0    0  501  0.00000000000E+00  0.00000000000E+00  0.24589770412E+03  0.24589770414E+03  0.25500000920E-02 0.  1.
        2   -1    0    0  501    0  0.00000000000E+00  0.00000000000E+00 -0.11608255444E+04  0.11608255444E+04  0.25500000920E-02 0. -1.
    10030    2    1    2    0    0  0.00000000000E+00  0.00000000000E+00 -0.91492784024E+03  0.14067232485E+04  0.10685398191E+04 0.  0.
        1    1    3    3  502    0 -0.49400146390E+03  0.19931681420E+03 -0.51141914281E+03  0.73845391082E+03  0.50400001928E-02 0. -1.
       -1    1    3    3    0  502  0.49400146390E+03 -0.19931681420E+03 -0.40350869744E+03  0.66826933768E+03  0.50400001928E-02 0.  1.
</event>
<event>
 5   0  0.9471140E-03  0.1029021E+04  0.7818609E-02  0.9277275E-01
        1   -1    0    0  501    0  0.00000000000E+00  0.00000000000E+00  0.59553517955E+03  0.59553517957E+03  0.50400001928E-02 0.  1.
       -1   -1    0    0    0  501  0.00000000000E+00  0.00000000000E+00 -0.44450978806E+03  0.44450978809E+03  0.50400001928E-02 0. -1.
    10030    2    1    2    0    0  0.00000000000E+00  0.00000000000E+00  0.15102539149E+03  0.10400449677E+04  0.10290213146E+04 0.  0.
        4    1    3    3  502    0  0.82914639358E+01 -0.47236747161E+03 -0.13043432501E+03  0.49011682551E+03  0.12699999809E+01 0. -1.
       -4    1    3    3    0  502 -0.82914639358E+01  0.47236747161E+03  0.28145971650E+03  0.54992814214E+03  0.12699999809E+01 0.  1.
</event>
<event>
 5   0  0.1617721E-02  0.1027241E+04  0.7818609E-02  0.9279162E-01
        2   -1    0    0  501    0  0.00000000000E+00  0.00000000000E+00  0.29455458079E+04  0.29455458079E+04  0.25500000920E-02 0. -1.
       -2   -1    0    0    0  501  0.00000000000E+00  0.00000000000E+00 -0.89560931414E+02  0.89560931450E+02  0.25500000920E-02 0.  1.
    10030    2    1    2    0    0  0.00000000000E+00  0.00000000000E+00  0.28559848765E+04  0.30351067394E+04  0.10272406264E+04 0.  0.
        5    1    3    3  502    0 -0.25673153358E+03  0.23863574027E+03  0.31882582422E+03  0.47384606473E+03  0.46999998093E+01 0.  1.
       -5    1    3    3    0  502  0.25673153358E+03 -0.23863574027E+03  0.25371590523E+04  0.25612606746E+04  0.46999998093E+01 0. -1.
</event>
<event>
 5   0  0.9759443E-03  0.9503760E+03  0.7818609E-02  0.9364711E-01
        1   -1    0    0  501    0  0.00000000000E+00  0.00000000000E+00  0.12068885114E+04  0.12068885115E+04  0.50400001928E-02 0.  1.
       -1   -1    0    0    0  501  0.00000000000E+00  0.00000000000E+00 -0.18709568620E+03  0.18709568627E+03  0.50400001928E-02 0. -1.
    10030    2    1    2    0    0  0.00000000000E+00  0.00000000000E+00  0.10197928253E+04  0.13939841977E+04  0.95037599774E+03 0.  0.
        2    1    3    3  502    0  0.16653834340E+03  0.38044045596E+03  0.17115901882E+03  0.44918300288E+03  0.25500000920E-02 0. -1.
       -2    1    3    3    0  502 -0.16653834340E+03 -0.38044045596E+03  0.84863380643E+03  0.94480119484E+03  0.25500000920E-02 0.  1.
</event>
<event>
 5   0  0.9396660E-03  0.1005689E+04  0.7818609E-02  0.9302327E-01
       -1   -1    0    0    0  501  0.00000000000E+00  0.00000000000E+00  0.11955557673E+03  0.11955557684E+03  0.50400001928E-02 0. -1.
        1   -1    0    0  501    0  0.00000000000E+00  0.00000000000E+00 -0.21149389593E+04  0.21149389593E+04  0.50400001928E-02 0.  1.
    10030    2    1    2    0    0  0.00000000000E+00  0.00000000000E+00 -0.19953833825E+04  0.22344945361E+04  0.10056893102E+04 0.  0.
        5    1    3    3  502    0 -0.23194267402E+03  0.76219001763E+01 -0.19887857991E+04  0.20022853298E+04  0.46999998093E+01 0.  1.
       -5    1    3    3    0  502  0.23194267402E+03 -0.76219001763E+01 -0.65975834768E+01  0.23220920632E+03  0.46999998093E+01 0. -1.
</event>
<event>
 5   0  0.9507815E-03  0.1024167E+04  0.7818609E-02  0.9282429E-01
       -1   -1    0    0    0  501  0.00000000000E+00  0.00000000000E+00  0.21245592589E+03  0.21245592595E+03  0.50400001928E-02 0. -1.
        1   -1    0    0  501    0  0.00000000000E+00  0.00000000000E+00 -0.12342779806E+04  0.12342779806E+04  0.50400001928E-02 0.  1.
    10030    2    1    2    0    0  0.00000000000E+00  0.00000000000E+00 -0.10218220547E+04  0.14467339066E+04  0.10241673129E+04 0.  0.
        1    1    3    3  502    0  0.55844121823E+02 -0.98137166541E+02 -0.12164740181E+04  0.12217031170E+04  0.50400001928E-02 0.  1.
       -1    1    3    3    0  502 -0.55844121823E+02  0.98137166541E+02  0.19465196335E+03  0.22503078958E+03  0.50400001928E-02 0. -1.
</event>
<event>
 5   0  0.1617721E-02  0.9997167E+03  0.7818609E-02  0.9308856E-01
       -2   -1    0    0    0  501  0.00000000000E+00  0.00000000000E+00  0.24639043993E+03  0.24639043994E+03  0.25500000920E-02 0.  1.
        2   -1    0    0  501    0  0.00000000000E+00  0.00000000000E+00 -0.10140748840E+04  0.10140748840E+04  0.25500000920E-02 0. -1.
    10030    2    1    2    0    0  0.00000000000E+00  0.00000000000E+00 -0.76768444410E+03  0.12604653240E+04  0.99971667347E+03 0.  0.
        5    1    3    3  502    0  0.13949741121E+03  0.30257273210E+03  0.85933019460E+02  0.34411678218E+03  0.46999998093E+01 0.  1.
       -5    1    3    3    0  502 -0.13949741121E+03 -0.30257273210E+03 -0.85361746356E+03  0.91634854179E+03  0.46999998093E+01 0. -1.
</event>
<event>
 5   0  0.9759443E-03  0.1011995E+04  0.7818609E-02  0.9295486E-01
        1   -1    0    0  501    0  0.00000000000E+00  0.00000000000E+00  0.85406793723E+03  0.85406793724E+03  0.50400001928E-02 0.  1.
       -1   -1    0    0    0  501  0.00000000000E+00  0.00000000000E+00 -0.29978119117E+03  0.29978119122E+03  0.50400001928E-02 0. -1.
    10030    2    1    2    0    0  0.00000000000E+00  0.00000000000E+00  0.55428674605E+03  0.11538491285E+04  0.10119950664E+04 0.  0.
        2    1    3    3  502    0  0.27859795403E+02  0.38461611187E+03  0.65067442255E+03  0.75636163697E+03  0.25500000920E-02 0.  1.
       -2    1    3    3    0  502 -0.27859795403E+02 -0.38461611187E+03 -0.96387676495E+02  0.39748749149E+03  0.25500000920E-02 0. -1.
</event>
<event>
 5   0  0.1000773E-02  0.9169370E+03  0.7818609E-02  0.9404654E-01
       -1   -1    0    0    0  501  0.00000000000E+00  0.00000000000E+00  0.18471338604E+03  0.18471338611E+03  0.50400001928E-02 0.  1.
        1   -1    0    0  501    0  0.00000000000E+00  0.00000000000E+00 -0.11379433905E+04  0.11379433905E+04  0.50400001928E-02 0. -1.
    10030    2    1    2    0    0  0.00000000000E+00  0.00000000000E+00 -0.95323000446E+03  0.13226567766E+04  0.91693702473E+03 0.  0.
        3    1    3    3  502    0  0.99526764714E+02 -0.25280625586E+02 -0.11211416433E+04  0.11258344822E+04  0.10100000352E+00 0. -1.
       -3    1    3    3    0  502 -0.99526764714E+02  0.25280625586E+02  0.16791163880E+03  0.19682229439E+03  0.10100000352E+00 0.  1.
</event>
<event>
 5   0  0.1598986E-02  0.9934726E+03  0.7818609E-02  0.9315733E-01
       -2   -1    0    0    0  501  0.00000000000E+00  0.00000000000E+00  0.35467201285E+03  0.35467201286E+03  0.25500000920E-02 0.  1.
        2   -1    0    0  501    0  0.00000000000E+00  0.00000000000E+00 -0.69570459295E+03  0.69570459295E+03  0.25500000920E-02 0. -1.
    10030    2    1    2    0    0  0.00000000000E+00  0.00000000000E+00 -0.34103258010E+03  0.10503766058E+04  0.99347259315E+03 0.  0.
        3    1    3    3  502    0  0.18128137450E+03 -0.43667823054E+03 -0.94899714862E+01  0.47290684445E+03  0.10100000352E+00 0.  1.
       -3    1    3    3    0  502 -0.18128137450E+03  0.43667823054E+03 -0.33154260861E+03  0.57746976136E+03  0.10100000352E+00 0. -1.
</event>
<event>
 5   0  0.1617721E-02  0.9827759E+03  0.7818609E-02  0.9327640E-01
       -2   -1    0    0    0  501  0.00000000000E+00  0.00000000000E+00  0.63125626421E+03  0.63125626422E+03  0.25500000920E-02 0. -1.
        2   -1    0    0  501    0  0.00000000000E+00  0.00000000000E+00 -0.38251043294E+03  0.38251043295E+03  0.25500000920E-02 0.  1.
    10030    2    1    2    0    0  0.00000000000E+00  0.00000000000E+00  0.24874583127E+03  0.10137666972E+04  0.98277587868E+03 0.  0.
        5    1    3    3  502    0 -0.42843089511E+03  0.21873150434E+03  0.22775049947E+03  0.53224889186E+03  0.46999998093E+01 0.  1.
       -5    1    3    3    0  502  0.42843089511E+03 -0.21873150434E+03  0.20995331794E+02  0.48151780531E+03  0.46999998093E+01 0. -1.
</event>
<event>
 5   0  0.1663497E-02  0.9595115E+03  0.7818609E-02  0.9354102E-01
       -2   -1    0    0    0  501  0.00000000000E+00  0.00000000000E+00  0.23922265480E+03  0.23922265481E+03  0.25500000920E-02 0. -1.
        2   -1    0    0  501    0  0.00000000000E+00  0.00000000000E+00 -0.96213949427E+03  0.96213949428E+03  0.25500000920E-02 0.  1.
    10030    2    1    2    0    0  0.00000000000E+00  0.00000000000E+00 -0.72291683947E+03  0.12013621491E+04  0.95951146760E+03 0.  0.
        1    1    3    3  502    0  0.13593826340E+03  0.25318438748E+03  0.11953976888E+03  0.31124154911E+03  0.50400001928E-02 0. -1.
       -1    1    3    3    0  502 -0.13593826340E+03 -0.25318438748E+03 -0.84245660836E+03  0.89012059998E+03  0.50400001928E-02 0.  1.
</event>
<event>
 5   0  0.9471140E-03  0.1011805E+04  0.7818609E-02  0.9295691E-01
       -1   -1    0    0    0  501  0.00000000000E+00  0.00000000000E+00  0.19227677083E+03  0.19227677089E+03  0.50400001928E-02 0.  1.
        1   -1    0    0  501    0  0.00000000000E+00  0.00000000000E+00 -0.13310893367E+04  0.13310893367E+04  0.50400001928E-02 0. -1.
    10030    2    1    2    0    0  0.00000000000E+00  0.00000000000E+00 -0.11388125658E+04  0.15233661076E+04  0.10118054346E+04 0.  0.
        4    1    3    3  502    0 -0.21818456097E+03 -0.24635014123E+03  0.91076033751E+01  0.32920731473E+03  0.12699999809E+01 0.  1.
       -4    1    3    3    0  502  0.21818456097E+03  0.24635014123E+03 -0.11479201692E+04  0.11941587928E+04  0.12699999809E+01 0. -1.
</event>
<event>
 5   0  0.1000773E-02  0.8101232E+03  0.7818609E-02  0.9545479E-01
       -1   -1    0    0    0  501  0.00000000000E+00  0.00000000000E+00  0.68509433239E+03  0.68509433241E+03  0.50400001928E-02 0. -1.
        1   -1    0    0  501    0  0.00000000000E+00  0.00000000000E+00 -0.23949244771E+03  0.23949244777E+03  0.50400001928E-02 0.  1.
    10030    2    1    2    0    0  0.00000000000E+00  0.00000000000E+00  0.44560188468E+03  0.92458678017E+03  0.81012324645E+03 0.  0.
        3    1    3    3  502    0 -0.31346767767E+03 -0.25293191704E+03  0.27173518895E+03  0.48587710660E+03  0.10100000352E+00 0.  1.
       -3    1    3    3    0  502  0.31346767767E+03  0.25293191704E+03  0.17386669573E+03  0.43870967357E+03  0.10100000352E+00 0. -1.
</event>
<event>
 5   0  0.9507815E-03  0.1000297E+04  0.7818609E-02  0.9308220E-01
        1   -1    0    0  501    0  0.00000000000E+00  0.00000000000E+00  0.35460574163E+03  0.35460574167E+03  0.50400001928E-02 0.  1.
       -1   -1    0    0    0  501  0.00000000000E+00  0.00000000000E+00 -0.70542648492E+03  0.70542648494E+03  0.50400001928E-02 0. -1.
    10030    2    1    2    0    0  0.00000000000E+00  0.00000000000E+00 -0.35082074328E+03  0.10600322266E+04  0.10002965198E+04 0.  0.
        1    1    3    3  502    0  0.28591708989E+03  0.36575636963E+03 -0.37259190822E+03  0.59527391537E+03  0.50400001928E-02 0. -1.
       -1    1    3    3    0  502 -0.28591708989E+03 -0.36575636963E+03  0.21771164940E+02  0.46475831124E+03  0.50400001928E-02 0.  1.
</event>
<event>
 5   0  0.1571895E-02  0.9562012E+03  0.7818609E-02  0.9357932E-01
        2   -1    0    0  501    0  0.00000000000E+00  0.00000000000E+00  0.81646377084E+03  0.81646377084E+03  0.25500000920E-02 0.  1.
       -2   -1    0    0    0  501  0.00000000000E+00  0.00000000000E+00 -0.27996363101E+03  0.27996363102E+03  0.25500000920E-02 0. -1.
    10030    2    1    2    0    0  0.00000000000E+00  0.00000000000E+00  0.53650013982E+03  0.10964274019E+04  0.95620115432E+03 0.  0.
        2    1    3    3  502    0  0.35465622095E+03  0.39542165531E+02  0.63308560121E+03  0.72673378646E+03  0.25500000920E-02 0.  1.
       -2    1    3    3    0  502 -0.35465622095E+03 -0.39542165531E+02 -0.96585461384E+02  0.36969361541E+03  0.25500000920E-02 0. -1.
</event>
<event>
 5   0  0.9507815E-03  0.1000083E+04  0.7818609E-02  0.9308453E-01
       -1   -1    0    0    0  501  0.00000000000E+00  0.00000000000E+00  0.21343414500E+03  0.21343414506E+03  0.50400001928E-02 0. -1.
        1   -1    0    0  501    0  0.00000000000E+00  0.00000000000E+00 -0.11715166380E+04  0.11715166380E+04  0.50400001928E-02 0.  1.
    10030    2    1    2    0    0  0.00000000000E+00  0.00000000000E+00 -0.95808249300E+03  0.13849507831E+04  0.10000833006E+04 0.  0.
        1    1    3    3  502    0 -0.30950398732E+03  0.13620376318E+03 -0.98917497410E+03  0.10453761585E+04  0.50400001928E-02 0.  1.
       -1    1    3    3    0  502  0.30950398732E+03 -0.13620376318E+03  0.31092481105E+02  0.33957462461E+03  0.50400001928E-02 0. -1.
</event>
<event>
 5   0  0.6314750E-03  0.6498332E+03  0.7818609E-02  0.9807092E-01
       -4   -1    0    0    0  501  0.00000000000E+00  0.00000000000E+00  0.75317580734E+03  0.75317687807E+03  0.12699999809E+01 0.  1.
        4   -1    0    0  501    0  0.00000000000E+00  0.00000000000E+00 -0.14016350383E+03  0.14016925735E+03  0.12699999809E+01 0. -1.
    10030    2    1    2    0    0  0.00000000000E+00  0.00000000000E+00  0.61301230350E+03  0.89334613542E+03  0.64983323508E+03 0.  0.
        4    1    3    3  502    0 -0.15231212704E+03  0.20926866601E+03  0.36495342195E+02  0.26139219865E+03  0.12699999809E+01 0. -1.
       -4    1    3    3    0  502  0.15231212704E+03 -0.20926866601E+03  0.57651696131E+03  0.63195393676E+03  0.12699999809E+01 0.  1.
</event>
<event>
 5   0  0.9471140E-03  0.9721587E+03  0.7818609E-02  0.9339619E-01
        1   -1    0    0  501    0  0.00000000000E+00  0.00000000000E+00  0.18467550260E+04  0.18467550260E+04  0.50400001928E-02 0.  1.
       -1   -1    0    0    0  501  0.00000000000E+00  0.00000000000E+00 -0.12793962158E+03  0.12793962168E+03  0.50400001928E-02 0. -1.
    10030    2    1    2    0    0  0.00000000000E+00  0.00000000000E+00  0.17188154044E+04  0.19746946477E+04  0.97215870986E+03 0.  0.
        4    1    3    3  502    0  0.34597419316E+03 -0.27621790925E+03  0.12670616085E+04  0.13421777856E+04  0.12699999809E+01 0.  1.
       -4    1    3    3    0  502 -0.34597419316E+03  0.27621790925E+03  0.45175379596E+03  0.63251686205E+03  0.12699999809E+01 0. -1.
</event>
<event>
 5   0  0.1663497E-02  0.9944510E+03  0.7818609E-02  0.9314652E-01
       -2   -1    0    0    0  501  0.00000000000E+00  0.00000000000E+00  0.22676217563E+03  0.22676217564E+03  0.25500000920E-02 0. -1.
        2   -1    0    0  501    0  0.00000000000E+00  0.00000000000E+00 -0.10902753205E+04  0.10902753205E+04  0.25500000920E-02 0.  1.
    10030    2    1    2    0    0  0.00000000000E+00  0.00000000000E+00 -0.86351314488E+03  0.13170374962E+04  0.99445101182E+03 0.  0.
        1    1    3    3  502    0 -0.35403316389E+03  0.19030925705E+03 -0.81941087946E+03  0.91268356173E+03  0.50400001928E-02 0.  1.
       -1    1    3    3    0  502  0.35403316389E+03 -0.19030925705E+03 -0.44102265424E+02  0.40435393443E+03  0.50400001928E-02 0. -1.
</event>
<event>
 5   0  0.1598986E-02  0.9869289E+03  0.7818609E-02  0.9322998E-01
        2   -1    0    0  501    0  0.00000000000E+00  0.00000000000E+00  0.95546135805E+03  0.95546135806E+03  0.25500000920E-02 0. -1.
       -2   -1    0    0    0  501  0.00000000000E+00  0.00000000000E+00 -0.25485819101E+03  0.25485819102E+03  0.25500000920E-02 0.  1.
    10030    2    1    2    0    0  0.00000000000E+00  0.00000000000E+00  0.70060316705E+03  0.12103195491E+04  0.98692887950E+03 0.  0.
        3    1    3    3  502    0  0.25496559409E+03 -0.34359145994E+03  0.65180548469E+03  0.77968772313E+03  0.10100000352E+00 0. -1.
       -3    1    3    3    0  502 -0.25496559409E+03  0.34359145994E+03  0.48797682355E+02  0.43063182595E+03  0.10100000352E+00 0.  1.
</event>
<event>
 5   0  0.9759443E-03  0.7843924E+03  0.7818609E-02  0.9582887E-01
        1   -1    0    0  501    0  0.00000000000E+00  0.00000000000E+00  0.41623968541E+03  0.41623968544E+03  0.50400001928E-02 0. -1.
       -1   -1    0    0    0  501  0.00000000000E+00  0.00000000000E+00 -0.36954153823E+03  0.36954153826E+03  0.50400001928E-02 0.  1.
    10030    2    1    2    0    0  0.00000000000E+00  0.00000000000E+00  0.46698147179E+02  0.78578122370E+03  0.78439238559E+03 0.  0.
        2    1    3    3  502    0 -0.33548407820E+03 -0.11731044396E+03  0.18949370507E+03  0.40276441161E+03  0.25500000920E-02 0.  1.
       -2    1    3    3    0  502  0.33548407820E+03  0.11731044396E+03 -0.14279555789E+03  0.38301681210E+03  0.25500000920E-02 0. -1.
</event>
<event>
 5   0  0.6314750E-03  0.9980039E+03  0.7818609E-02  0.9310737E-01
       -3   -1    0    0    0  501  0.00000000000E+00  0.00000000000E+00  0.27699876887E+03  0.27699878728E+03  0.10100000352E+00 0. -1.
        3   -1    0    0  501    0  0.00000000000E+00  0.00000000000E+00 -0.89893148583E+03  0.89893149150E+03  0.10100000352E+00 0.  1.
    10030    2    1    2    0    0  0.00000000000E+00  0.00000000000E+00 -0.62193271696E+03  0.11759302788E+04  0.99800386579E+03 0.  0.
        1    1    3    3  502    0  0.14710311297E+03  0.21105345175E+03 -0.81476994365E+03  0.85441965476E+03  0.50400001928E-02 0.  1.
       -1    1    3    3    0  502 -0.14710311297E+03 -0.21105345175E+03  0.19283722669E+03  0.32151062402E+03  0.50400001928E-02 0. -1.
</event>
<event>
 5   0  0.9396660E-03  0.1008197E+04  0.7818609E-02  0.9299600E-01
       -1   -1    0    0    0  501  0.00000000000E+00  0.00000000000E+00  0.28734234176E+03  0.28734234180E+03  0.50400001928E-02 0. -1.
        1   -1    0    0  501    0  0.00000000000E+00  0.00000000000E+00 -0.88436478699E+03  0.88436478700E+03  0.50400001928E-02 0.  1.
    10030    2    1    2    0    0  0.00000000000E+00  0.00000000000E+00 -0.59702244523E+03  0.11717071288E+04  0.10081972999E+04 0.  0.
        5    1    3    3  502    0  0.84392480418E+02 -0.22462267825E+03 -0.81370713932E+03  0.84836244431E+03  0.46999998093E+01 0.  1.
       -5    1    3    3    0  502 -0.84392480418E+02  0.22462267825E+03  0.21668469410E+03  0.32334468449E+03  0.46999998093E+01 0. -1.
</event>
<event>
 5   0  0.1617721E-02  0.9870586E+03  0.7818609E-02  0.9322854E-01
        2   -1    0    0  501    0  0.00000000000E+00  0.00000000000E+00  0.34148079690E+03  0.34148079691E+03  0.25500000920E-02 0. -1.
       -2   -1    0    0    0  501  0.00000000000E+00  0.00000000000E+00 -0.71327923388E+03  0.71327923388E+03  0.25500000920E-02 0.  1.
    10030    2    1    2    0    0  0.00000000000E+00  0.00000000000E+00 -0.37179843698E+03  0.10547600308E+04  0.98705858226E+03 0.  0.
        5    1    3    3  502    0  0.19730490046E+03 -0.28813826934E+02  0.29649462359E+03  0.35733823219E+03  0.46999998093E+01 0. -1.
       -5    1    3    3    0  502 -0.19730490046E+03  0.28813826934E+02 -0.66829306057E+03  0.69742179860E+03  0.46999998093E+01 0.  1.
</event>
<event>
 5   0  0.1663497E-02  0.9895074E+03  0.7818609E-02  0.9320128E-01
        2   -1    0    0  501    0  0.00000000000E+00  0.00000000000E+00  0.48317030738E+03  0.48317030739E+03  0.25500000920E-02 0.  1.
       -2   -1    0    0    0  501  0.00000000000E+00  0.00000000000E+00 -0.50661478885E+03  0.50661478886E+03  0.25500000920E-02 0. -1.
    10030    2    1    2    0    0  0.00000000000E+00  0.00000000000E+00 -0.23444481468E+02  0.98978509624E+03  0.98950739918E+03 0.  0.
        1    1    3    3  502    0 -0.24529183026E+03  0.67389719680E+02  0.41274548761E+03  0.48483842038E+03  0.50400001928E-02 0.  1.
       -1    1    3    3    0  502  0.24529183026E+03 -0.67389719680E+02 -0.43618996908E+03  0.50494667586E+03  0.50400001928E-02 0. -1.
</event>
<event>
 5   0  0.9396660E-03  0.9920471E+03  0.7818609E-02  0.9317311E-01
       -1   -1    0    0    0  501  0.00000000000E+00  0.00000000000E+00  0.30145505281E+03  0.30145505285E+03  0.50400001928E-02 0. -1.
        1   -1    0    0  501    0  0.00000000000E+00  0.00000000000E+00 -0.81617255434E+03  0.81617255435E+03  0.50400001928E-02 0.  1.
    10030    2    1    2    0    0  0.00000000000E+00  0.00000000000E+00 -0.51471750153E+03  0.11176276072E+04  0.99204705634E+03 0.  0.
        5    1    3    3  502    0 -0.16565053003E+03 -0.13064278961E+03  0.24836428202E+03  0.32590572740E+03  0.46999998093E+01 0. -1.
       -5    1    3    3    0  502  0.16565053003E+03  0.13064278961E+03 -0.76308178354E+03  0.79172187980E+03  0.46999998093E+01 0.  1.
</event>
<event>
 5   0  0.9471140E-03  0.5221602E+03  0.7818609E-02  0.1008151E+00
        1   -1    0    0  501    0  0.00000000000E+00  0.00000000000E+00  0.55403882040E+03  0.55403882042E+03  0.50400001928E-02 0. -1.
       -1   -1    0    0    0  501  0.00000000000E+00  0.00000000000E+00 -0.12302897607E+03  0.12302897618E+03  0.50400001928E-02 0.  1.
    10030    2    1    2    0    0  0.00000000000E+00  0.00000000000E+00  0.43100984433E+03  0.67706779660E+03  0.52216023909E+03 0.  0.
        4    1    3    3  502    0  0.65442472662E+02 -0.24650776393E+03  0.28784475965E+03  0.38458420855E+03  0.12699999809E+01 0. -1.
       -4    1    3    3    0  502 -0.65442472662E+02  0.24650776393E+03  0.14316508467E+03  0.29248358805E+03  0.12699999809E+01 0.  1.
</event>
<event>
 5   0  0.1656859E-02  0.8777717E+03  0.7818609E-02  0.9453803E-01
        2   -1    0    0  501    0  0.00000000000E+00  0.00000000000E+00  0.16213949529E+03  0.16213949531E+03  0.25500000920E-02 0.  1.
       -2   -1    0    0    0  501  0.00000000000E+00  0.00000000000E+00 -0.11879941517E+04  0.11879941517E+04  0.25500000920E-02 0. -1.
    10030    2    1    2    0    0  0.00000000000E+00  0.00000000000E+00 -0.10258546564E+04  0.13501336470E+04  0.87777166093E+03 0.  0.
        4    1    3    3  502    0 -0.17572888213E+03 -0.18661740156E+03 -0.10608854196E+04  0.10914147612E+04  0.12699999809E+01 0. -1.
       -4    1    3    3    0  502  0.17572888213E+03  0.18661740156E+03  0.35030763219E+02  0.25871888577E+03  0.12699999809E+01 0.  1.
</event>
<event>
 5   0  0.1598986E-02  0.1000410E+04  0.7818609E-02  0.9308095E-01
        2   -1    0    0  501    0  0.00000000000E+00  0.00000000000E+00  0.12401422231E+04  0.12401422231E+04  0.25500000920E-02 0. -1.
       -2   -1    0    0    0  501  0.00000000000E+00  0.00000000000E+00 -0.20175529280E+03  0.20175529281E+03  0.25500000920E-02 0.  1.
    10030    2    1    2    0    0  0.00000000000E+00  0.00000000000E+00  0.10383869303E+04  0.14418975159E+04  0.10004104305E+04 0.  0.
        3    1    3    3  502    0 -0.42866901686E+03 -0.23890828400E+03  0.37966974046E+03  0.62047031855E+03  0.10100000352E+00 0.  1.
       -3    1    3    3    0  502  0.42866901686E+03  0.23890828400E+03  0.65871718984E+03  0.82142719737E+03  0.10100000352E+00 0. -1.
</event>
<event>
 5   0  0.1617721E-02  0.9752581E+03  0.7818609E-02  0.9336105E-01
        2   -1    0    0  501    0  0.00000000000E+00  0.00000000000E+00  0.12113740159E+04  0.12113740159E+04  0.25500000920E-02 0. -1.
       -2   -1    0    0    0  501  0.00000000000E+00  0.00000000000E+00 -0.19629124018E+03  0.19629124020E+03  0.25500000920E-02 0.  1.
    10030    2    1    2    0    0  0.00000000000E+00  0.00000000000E+00  0.10150827757E+04  0.14076652561E+04  0.97525813591E+03 0.  0.
        5    1    3    3  502    0 -0.47362277798E+02  0.40501122738E+03  0.12163639304E+03  0.42555232554E+03  0.46999998093E+01 0.  1.
       -5    1    3    3    0  502  0.47362277798E+02 -0.40501122738E+03  0.89344638265E+03  0.98211293054E+03  0.46999998093E+01 0. -1.
</event>
<event>
 5   0  0.1617721E-02  0.1017209E+04  0.7818609E-02  0.9289869E-01
       -2   -1    0    0    0  501  0.00000000000E+00  0.00000000000E+00  0.15622542828E+03  0.15622542831E+03  0.25500000920E-02 0.  1.
        2   -1    0    0  501    0  0.00000000000E+00  0.00000000000E+00 -0.16558044544E+04  0.16558044544E+04  0.25500000920E-02 0. -1.
    10030    2    1    2    0    0  0.00000000000E+00  0.00000000000E+00 -0.14995790261E+04  0.18120298827E+04  0.10172094377E+04 0.  0.
        5    1    3    3  502    0  0.46351236501E+03  0.18992714642E+03 -0.59306269584E+03  0.77631274926E+03  0.46999998093E+01 0.  1.
       -5    1    3    3    0  502 -0.46351236501E+03 -0.18992714642E+03 -0.90651633026E+03  0.10357171334E+04  0.46999998093E+01 0. -1.
</event>
<event>
 5   0  0.1617721E-02  0.9937812E+03  0.7818609E-02  0.9315392E-01
        2   -1    0    0  501    0  0.00000000000E+00  0.00000000000E+00  0.83265477886E+03  0.83265477886E+03  0.25500000920E-02 0. -1.
       -2   -1    0    0    0  501  0.00000000000E+00  0.00000000000E+00 -0.29652178432E+03  0.29652178433E+03  0.25500000920E-02 0.  1.
    10030    2    1    2    0    0  0.00000000000E+00  0.00000000000E+00  0.53613299454E+03  0.11291765632E+04  0.99378122493E+03 0.  0.
        5    1    3    3  502    0  0.10347025549E+02  0.41265333388E+03  0.58231175380E+03  0.71379191891E+03  0.46999998093E+01 0. -1.
       -5    1    3    3    0  502 -0.10347025549E+02 -0.41265333388E+03 -0.46178759256E+02  0.41538464428E+03  0.46999998093E+01 0.  1.
</event>
<event>
 5   0  0.9396660E-03  0.1016474E+04  0.7818609E-02  0.9290659E-01
       -1   -1    0    0    0  501  0.00000000000E+00  0.00000000000E+00  0.28663160079E+03  0.28663160084E+03  0.50400001928E-02 0. -1.
        1   -1    0    0  501    0  0.00000000000E+00  0.00000000000E+00 -0.90117388415E+03  0.90117388416E+03  0.50400001928E-02 0.  1.
    10030    2    1    2    0    0  0.00000000000E+00  0.00000000000E+00 -0.61454228335E+03  0.11878054850E+04  0.10164741276E+04 0.  0.
        5    1    3    3  502    0 -0.32630406682E+03  0.18203262712E+03  0.95282935090E+02  0.38563084560E+03  0.46999998093E+01 0. -1.
       -5    1    3    3    0  502  0.32630406682E+03 -0.18203262712E+03 -0.70982521844E+03  0.80217463940E+03  0.46999998093E+01 0.  1.
</event>
<event>
 5   0  0.1663497E-02  0.1018348E+04  0.7818609E-02  0.9288647E-01
        2   -1    0    0  501    0  0.00000000000E+00  0.00000000000E+00  0.12872420445E+04  0.12872420445E+04  0.25500000920E-02 0.  1.
       -2   -1    0    0    0  501  0.00000000000E+00  0.00000000000E+00 -0.20140585296E+03  0.20140585297E+03  0.25500000920E-02 0. -1.
    10030    2    1    2    0    0  0.00000000000E+00  0.00000000000E+00  0.10858361915E+04  0.14886478975E+04  0.10183478422E+04 0.  0.
        1    1    3    3  502    0 -0.26355043188E+03 -0.37805497000E+03  0.85940840686E+03  0.97517547154E+03  0.50400001928E-02 0.  1.
       -1    1    3    3    0  502  0.26355043188E+03  0.37805497000E+03  0.22642778465E+03  0.51347242591E+03  0.50400001928E-02 0. -1.
</event>
<event>
 5   0  0.9759443E-03  0.9977961E+03  0.7818609E-02  0.9310965E-01
       -1   -1    0    0    0  501  0.00000000000E+00  0.00000000000E+00  0.43994038882E+03  0.43994038885E+03  0.50400001928E-02 0. -1.
        1   -1    0    0  501    0  0.00000000000E+00  0.00000000000E+00 -0.56575674075E+03  0.56575674077E+03  0.50400001928E-02 0.  1.
    10030    2    1    2    0    0  0.00000000000E+00  0.00000000000E+00 -0.12581635193E+03  0.10056971296E+04  0.99779605236E+03 0.  0.
        2    1    3    3  502    0 -0.38994532065E+03  0.28632944240E+03 -0.18576405074E+03  0.51821827953E+03  0.25500000920E-02 0. -1.
       -2    1    3    3    0  502  0.38994532065E+03 -0.28632944240E+03  0.59947698804E+02  0.48747885009E+03  0.25500000920E-02 0.  1.
</event>
<event>
 5   0  0.9759443E-03  0.9632380E+03  0.7818609E-02  0.9349810E-01
       -1   -1    0    0    0  501  0.00000000000E+00  0.00000000000E+00  0.11713006090E+03  0.11713006101E+03  0.50400001928E-02 0.  1.
        1   -1    0    0  501    0  0.00000000000E+00  0.00000000000E+00 -0.19803358589E+04  0.19803358589E+04  0.50400001928E-02 0. -1.
    10030    2    1    2    0    0  0.00000000000E+00  0.00000000000E+00 -0.18632057980E+04  0.20974659199E+04  0.96323799733E+03 0.  0.
        2    1    3    3  502    0  0.42599897726E+03 -0.21606122098E+03 -0.79738452933E+03  0.92950506586E+03  0.25500000920E-02 0.  1.
       -2    1    3    3    0  502 -0.42599897726E+03  0.21606122098E+03 -0.10658212686E+04  0.11679608540E+04  0.25500000920E-02 0. -1.
</event>
<event>
 5   0  0.1000773E-02  0.1032501E+04  0.7818609E-02  0.9273600E-01
       -1   -1    0    0    0  501  0.00000000000E+00  0.00000000000E+00  0.63713230333E+03  0.63713230335E+03  0.50400001928E-02 0.  1.
        1   -1    0    0  501    0  0.00000000000E+00  0.00000000000E+00 -0.41830307223E+03  0.41830307226E+03  0.50400001928E-02 0. -1.
    10030    2    1    2    0    0  0.00000000000E+00  0.00000000000E+00  0.21882923110E+03  0.10554353756E+04  0.10325006536E+04 0.  0.
        3    1    3    3  502    0  0.34828023959E+03  0.31606746985E+03 -0.10819098128E+03  0.48260032057E+03  0.10100000352E+00 0. -1.
       -3    1    3    3    0  502 -0.34828023959E+03 -0.31606746985E+03  0.32702021238E+03  0.57283505505E+03  0.10100000352E+00 0.  1.
</event>
<event>
 5   0  0.1663497E-02  0.1007766E+04  0.7818609E-02  0.9300068E-01
       -2   -1    0    0    0  501  0.00000000000E+00  0.00000000000E+00  0.14633274456E+03  0.14633274458E+03  0.25500000920E-02 0.  1.
        2   -1    0    0  501    0  0.00000000000E+00  0.00000000000E+00 -0.17350746598E+04  0.17350746598E+04  0.25500000920E-02 0. -1.
    10030    2    1    2    0    0  0.00000000000E+00  0.00000000000E+00 -0.15887419152E+04  0.18814074044E+04  0.10077663162E+04 0.  0.
        1    1    3    3  502    0  0.60861842890E+02 -0.15357029102E+03  0.94344583430E+02  0.19023379998E+03  0.50400001928E-02 0.  1.
       -1    1    3    3    0  502 -0.60861842890E+02  0.15357029102E+03 -0.16830864987E+04  0.16911736044E+04  0.50400001928E-02 0. -1.
</event>
<event>
 5   0  0.9471140E-03  0.9800793E+03  0.7818609E-02  0.9330667E-01
        1   -1    0    0  501    0  0.00000000000E+00  0.00000000000E+00  0.39810663839E+03  0.39810663842E+03  0.50400001928E-02 0. -1.
       -1   -1    0    0    0  501  0.00000000000E+00  0.00000000000E+00 -0.60320234966E+03  0.60320234968E+03  0.50400001928E-02 0.  1.
    10030    2    1    2    0    0  0.00000000000E+00  0.00000000000E+00 -0.20509571128E+03  0.10013089881E+04  0.98007930234E+03 0.  0.
        4    1    3    3  502    0  0.67004147156E+01 -0.47883197288E+03 -0.20878240991E+03  0.52241426224E+03  0.12699999809E+01 0.  1.
       -4    1    3    3    0  502 -0.67004147156E+01  0.47883197288E+03  0.36866986330E+01  0.47889472586E+03  0.12699999809E+01 0. -1.
</event>
<event>
 5   0  0.9471140E-03  0.1010600E+04  0.7818609E-02  0.9296994E-01
       -1   -1    0    0    0  501  0.00000000000E+00  0.00000000000E+00  0.43852636476E+03  0.43852636479E+03  0.50400001928E-02 0.  1.
        1   -1    0    0  501    0  0.00000000000E+00  0.00000000000E+00 -0.58224160390E+03  0.58224160392E+03  0.50400001928E-02 0. -1.
    10030    2    1    2    0    0  0.00000000000E+00  0.00000000000E+00 -0.14371523914E+03  0.10207679687E+04  0.10106004037E+04 0.  0.
        4    1    3    3  502    0  0.45993521839E+03 -0.13046590596E+03  0.93388233079E+02  0.48711880759E+03  0.12699999809E+01 0.  1.
       -4    1    3    3    0  502 -0.45993521839E+03  0.13046590596E+03 -0.23710347222E+03  0.53364916112E+03  0.12699999809E+01 0. -1.
</event>
<event>
 5   0  0.9396660E-03  0.1114425E+04  0.7818609E-02  0.9191245E-01
       -1   -1    0    0    0  501  0.00000000000E+00  0.00000000000E+00  0.12572027624E+04  0.12572027624E+04  0.50400001928E-02 0. -1.
        1   -1    0    0  501    0  0.00000000000E+00  0.00000000000E+00 -0.24696559730E+03  0.24696559735E+03  0.50400001928E-02 0.  1.
    10030    2    1    2    0    0  0.00000000000E+00  0.00000000000E+00  0.10102371651E+04  0.15041683598E+04  0.11144251095E+04 0.  0.
        5    1    3    3  502    0 -0.11258823314E+02  0.55485448196E+03  0.43799113913E+03  0.70699970666E+03  0.46999998093E+01 0.  1.
       -5    1    3    3    0  502  0.11258823314E+02 -0.55485448196E+03  0.57224602597E+03  0.79716865310E+03  0.46999998093E+01 0. -1.
</event>
<event>
 5   0  0.1571895E-02  0.8292302E+03  0.7818609E-02  0.9518645E-01
        2   -1    0    0  501    0  0.00000000000E+00  0.00000000000E+00  0.95673851409E+03  0.95673851410E+03  0.25500000920E-02 0. -1.
       -2   -1    0    0    0  501  0.00000000000E+00  0.00000000000E+00 -0.17967885172E+03  0.17967885174E+03  0.25500000920E-02 0.  1.
    10030    2    1    2    0    0  0.00000000000E+00  0.00000000000E+00  0.77705966237E+03  0.11364173658E+04  0.82923019150E+03 0.  0.
        2    1    3    3  502    0 -0.28610454487E+03  0.56664261425E+02 -0.15320305109E+02  0.29206396709E+03  0.25500000920E-02 0.  1.
       -2    1    3    3    0  502  0.28610454487E+03 -0.56664261425E+02  0.79237996748E+03  0.84435339875E+03  0.25500000920E-02 0. -1.
</event>
<event>
 5   0  0.1656859E-02  0.9868883E+03  0.7818609E-02  0.9323044E-01
        2   -1    0    0  501    0  0.00000000000E+00  0.00000000000E+00  0.37673874750E+03  0.37673874751E+03  0.25500000920E-02 0. -1.
       -2   -1    0    0    0  501  0.00000000000E+00  0.00000000000E+00 -0.64630231816E+03  0.64630231817E+03  0.25500000920E-02 0.  1.
    10030    2    1    2    0    0  0.00000000000E+00  0.00000000000E+00 -0.26956357066E+03  0.10230410657E+04  0.98688829329E+03 0.  0.
        4    1    3    3  502    0 -0.23460069628E+03 -0.34350404992E+03  0.14037155942E+03  0.43901971095E+03  0.12699999809E+01 0.  1.
       -4    1    3    3    0  502  0.23460069628E+03  0.34350404992E+03 -0.40993513008E+03  0.58402135473E+03  0.12699999809E+01 0. -1.
</event>
<event>
 5   0  0.1617721E-02  0.1004023E+04  0.7818609E-02  0.9304143E-01
        2   -1    0    0  501    0  0.00000000000E+00  0.00000000000E+00  0.21645455765E+04  0.21645455765E+04  0.25500000920E-02 0. -1.
       -2   -1    0    0    0  501  0.00000000000E+00  0.00000000000E+00 -0.11642892046E+03  0.11642892049E+03  0.25500000920E-02 0.  1.
    10030    2    1    2    0    0  0.00000000000E+00  0.00000000000E+00  0.20481166560E+04  0.22809744970E+04  0.10040233161E+04 0.  0.
        5    1    3    3  502    0  0.73431176807E+02  0.32364814827E+03  0.18797088789E+04  0.19087870026E+04  0.46999998093E+01 0. -1.
       -5    1    3    3    0  502 -0.73431176807E+02 -0.32364814827E+03  0.16840777706E+03  0.37218749439E+03  0.46999998093E+01 0.  1.
</event>
<event>
 5   0  0.1598986E-02  0.9800070E+03  0.7818609E-02  0.9330749E-01
       -2   -1    0    0    0  501  0.00000000000E+00  0.00000000000E+00  0.33964065816E+03  0.33964065817E+03  0.25500000920E-02 0. -1.
        2   -1    0    0  501    0  0.00000000000E+00  0.00000000000E+00 -0.70693375402E+03  0.70693375402E+03  0.25500000920E-02 0.  1.
    10030    2    1    2    0    0  0.00000000000E+00  0.00000000000E+00 -0.36729309586E+03  0.10465744122E+04  0.98000703161E+03 0.  0.
        3    1    3    3  502    0  0.25124874096E+03  0.74765213941E+02 -0.62575692203E+03  0.67844491502E+03  0.10100000352E+00 0.  1.
       -3    1    3    3    0  502 -0.25124874096E+03 -0.74765213941E+02  0.25846382618E+03  0.36812949718E+03  0.10100000352E+00 0. -1.
</event>
<event>
 5   0  0.1617721E-02  0.1003520E+04  0.7818609E-02  0.9304693E-01
        2   -1    0    0  501    0  0.00000000000E+00  0.00000000000E+00  0.55618907433E+03  0.55618907434E+03  0.25500000920E-02 0. -1.
       -2   -1    0    0    0  501  0.00000000000E+00  0.00000000000E+00 -0.45265734225E+03  0.45265734226E+03  0.25500000920E-02 0.  1.
    10030    2    1    2    0    0  0.00000000000E+00  0.00000000000E+00  0.10353173208E+03  0.10088464166E+04  0.10035199414E+04 0.  0.
        5    1    3    3  502    0  0.30996432132E+03 -0.22094335562E+02  0.44777922736E+03  0.54506363537E+03  0.46999998093E+01 0. -1.
       -5    1    3    3    0  502 -0.30996432132E+03  0.22094335562E+02 -0.34424749527E+03  0.46378278122E+03  0.46999998093E+01 0.  1.
</event>
<event>
 5   0  0.1571895E-02  0.1016902E+04  0.7818609E-02  0.9290199E-01
       -2   -1    0    0    0  501  0.00000000000E+00  0.00000000000E+00  0.18810894478E+03  0.18810894479E+03  0.25500000920E-02 0. -1.
        2   -1    0    0  501    0  0.00000000000E+00  0.00000000000E+00 -0.13743223515E+04  0.13743223515E+04  0.25500000920E-02 0.  1.
    10030    2    1    2    0    0  0.00000000000E+00  0.00000000000E+00 -0.11862134068E+04  0.15624312963E+04  0.10169018189E+04 0.  0.
        2    1    3    3  502    0 -0.39234735994E+03 -0.29101585616E+02 -0.98234705673E+02  0.40550389707E+03  0.25500000920E-02 0. -1.
       -2    1    3    3    0  502  0.39234735994E+03  0.29101585616E+02 -0.10879787011E+04  0.11569273993E+04  0.25500000920E-02 0.  1.
</event>
<event>
 5   0  0.9507815E-03  0.9990893E+03  0.7818609E-02  0.9309544E-01
       -1   -1    0    0    0  501  0.00000000000E+00  0.00000000000E+00  0.10272850137E+04  0.10272850137E+04  0.50400001928E-02 0. -1.
        1   -1    0    0  501    0  0.00000000000E+00  0.00000000000E+00 -0.24291685713E+03  0.24291685718E+03  0.50400001928E-02 0.  1.
    10030    2    1    2    0    0  0.00000000000E+00  0.00000000000E+00  0.78436815660E+03  0.12702018709E+04  0.99908927919E+03 0.  0.
        1    1    3    3  502    0 -0.15906760390E+03 -0.66128086377E+02 -0.20395949333E+03  0.26697359676E+03  0.50400001928E-02 0.  1.
       -1    1    3    3    0  502  0.15906760390E+03  0.66128086377E+02  0.98832764994E+03  0.10032282742E+04  0.50400001928E-02 0. -1.
</event>
<event>
 5   0  0.9471140E-03  0.1037780E+04  0.7818609E-02  0.9268052E-01
        1   -1    0    0  501    0  0.00000000000E+00  0.00000000000E+00  0.11282879184E+04  0.11282879184E+04  0.50400001928E-02 0.  1.
       -1   -1    0    0    0  501  0.00000000000E+00  0.00000000000E+00 -0.23863319030E+03  0.23863319035E+03  0.50400001928E-02 0. -1.
    10030    2    1    2    0    0  0.00000000000E+00  0.00000000000E+00  0.88965472810E+03  0.13669211088E+04  0.10377802187E+04 0.  0.
        4    1    3    3  502    0  0.28960177160E+03 -0.42380077638E+03  0.54487115906E+03  0.74857362834E+03  0.12699999809E+01 0.  1.
       -4    1    3    3    0  502 -0.28960177160E+03  0.42380077638E+03  0.34478356904E+03  0.61834748043E+03  0.12699999809E+01 0. -1.
</event>
<event>
 5   0  0.1656859E-02  0.1002976E+04  0.7818609E-02  0.9305287E-01
       -2   -1    0    0    0  501  0.00000000000E+00  0.00000000000E+00  0.16629338189E+03  0.16629338191E+03  0.25500000920E-02 0. -1.
        2   -1    0    0  501    0  0.00000000000E+00  0.00000000000E+00 -0.15123283402E+04  0.15123283402E+04  0.25500000920E-02 0.  1.
    10030    2    1    2    0    0  0.00000000000E+00  0.00000000000E+00 -0.13460349583E+04  0.16786217221E+04  0.10029759603E+04 0.  0.
        4    1    3    3  502    0 -0.45050364511E+03  0.21742307296E+03 -0.73247896648E+03  0.88699119283E+03  0.12699999809E+01 0. -1.
       -4    1    3    3    0  502  0.45050364511E+03 -0.21742307296E+03 -0.61355599185E+03  0.79163052932E+03  0.12699999809E+01 0.  1.
</event>
<event>
 5   0  0.1656859E-02  0.8710526E+03  0.7818609E-02  0.9462509E-01
       -2   -1    0    0    0  501  0.00000000000E+00  0.00000000000E+00  0.63504411861E+03  0.63504411862E+03  0.25500000920E-02 0.  1.
        2   -1    0    0  501    0  0.00000000000E+00  0.00000000000E+00 -0.29869287542E+03  0.29869287543E+03  0.25500000920E-02 0. -1.
    10030    2    1    2    0    0  0.00000000000E+00  0.00000000000E+00  0.33635124319E+03  0.93373699405E+03  0.87105259041E+03 0.  0.
        4    1    3    3  502    0  0.27059863566E+03  0.18571597309E+03  0.47507854459E+03  0.57742123334E+03  0.12699999809E+01 0.  1.
       -4    1    3    3    0  502 -0.27059863566E+03 -0.18571597309E+03 -0.13872730140E+03  0.35631576071E+03  0.12699999809E+01 0. -1.
</event>
<event>
 5   0  0.9759443E-03  0.9520139E+03  0.7818609E-02  0.9362800E-01
        1   -1    0    0  501    0  0.00000000000E+00  0.00000000000E+00  0.74906835859E+03  0.74906835861E+03  0.50400001928E-02 0.  1.
       -1   -1    0    0    0  501  0.00000000000E+00  0.00000000000E+00 -0.30248590526E+03  0.30248590530E+03  0.50400001928E-02 0. -1.
    10030    2    1    2    0    0  0.00000000000E+00  0.00000000000E+00  0.44658245334E+03  0.10515542639E+04  0.95201390868E+03 0.  0.
        2    1    3    3  502    0 -0.18357634243E+03 -0.36310018828E+03 -0.49605165136E+02  0.40988131531E+03  0.25500000920E-02 0. -1.
       -2    1    3    3    0  502  0.18357634243E+03  0.36310018828E+03  0.49618761847E+03  0.64167294860E+03  0.25500000920E-02 0.  1.
</event>
<event>
 5   0  0.6314750E-03  0.1011530E+04  0.7818609E-02  0.9295989E-01
        4   -1    0    0  501    0  0.00000000000E+00  0.00000000000E+00  0.64876991241E+03  0.64877115546E+03  0.12699999809E+01 0.  1.
       -4   -1    0    0    0  501  0.00000000000E+00  0.00000000000E+00 -0.39427894952E+03  0.39428099490E+03  0.12699999809E+01 0. -1.
    10030    2    1    2    0    0  0.00000000000E+00  0.00000000000E+00  0.25449096289E+03  0.10430521504E+04  0.10115296032E+04 0.  0.
        5    1    3    3  502    0  0.32349149836E+03 -0.17240508926E+03 -0.23204600687E+03  0.43386369244E+03  0.46999998093E+01 0.  1.
       -5    1    3    3    0  502 -0.32349149836E+03  0.17240508926E+03  0.48653696976E+03  0.60918845791E+03  0.46999998093E+01 0. -1.
</event>
<event>
 5   0  0.1571895E-02  0.7829557E+03  0.7818609E-02  0.9585021E-01
        2   -1    0    0  501    0  0.00000000000E+00  0.00000000000E+00  0.53646159246E+03  0.53646159247E+03  0.25500000920E-02 0.  1.
       -2   -1    0    0    0  501  0.00000000000E+00  0.00000000000E+00 -0.28567729224E+03  0.28567729225E+03  0.25500000920E-02 0. -1.
    10030    2    1    2    0    0  0.00000000000E+00  0.00000000000E+00  0.25078430022E+03  0.82213888472E+03  0.78295566958E+03 0.  0.
        2    1    3    3  502    0 -0.21744859918E+03  0.11480549074E+03  0.44525237951E+03  0.50863923901E+03  0.25500000920E-02 0.  1.
       -2    1    3    3    0  502  0.21744859918E+03 -0.11480549074E+03 -0.19446807929E+03  0.31349964571E+03  0.25500000920E-02 0. -1.
</event>
<event>
 5   0  0.1598986E-02  0.1003775E+04  0.7818609E-02  0.9304414E-01
        2   -1    0    0  501    0  0.00000000000E+00  0.00000000000E+00  0.87244327249E+03  0.87244327249E+03  0.25500000920E-02 0. -1.
       -2   -1    0    0    0  501  0.00000000000E+00  0.00000000000E+00 -0.28871911767E+03  0.28871911768E+03  0.25500000920E-02 0.  1.
    10030    2    1    2    0    0  0.00000000000E+00  0.00000000000E+00  0.58372415482E+03  0.11611623902E+04  0.10037749785E+04 0.  0.
        3    1    3    3  502    0  0.46260791729E+03 -0.16808958767E+03  0.40538637867E+03  0.63765062600E+03  0.10100000352E+00 0. -1.
       -3    1    3    3    0  502 -0.46260791729E+03  0.16808958767E+03  0.17833777615E+03  0.52351176417E+03  0.10100000352E+00 0.  1.
</event>
<event>
 5   0  0.6314750E-03  0.9882915E+03  0.7818609E-02  0.9321481E-01
       -3   -1    0    0    0  501  0.00000000000E+00  0.00000000000E+00  0.12133728911E+04  0.12133728953E+04  0.10100000352E+00 0.  1.
        3   -1    0    0  501    0  0.00000000000E+00  0.00000000000E+00 -0.20124067461E+03  0.20124069995E+03  0.10100000352E+00 0. -1.
    10030    2    1    2    0    0  0.00000000000E+00  0.00000000000E+00  0.10121322165E+04  0.14146135953E+04  0.98829145511E+03 0.  0.
        5    1    3    3  502    0  0.20456201184E+03 -0.66668907815E+02 -0.13064155283E+03  0.25175318326E+03  0.46999998093E+01 0. -1.
       -5    1    3    3    0  502 -0.20456201184E+03  0.66668907815E+02  0.11427737693E+04  0.11628604120E+04  0.46999998093E+01 0.  1.
</event>
<event>
 5   0  0.1571895E-02  0.1004795E+04  0.7818609E-02  0.9303301E-01
       -2   -1    0    0    0  501  0.00000000000E+00  0.00000000000E+00  0.18928872354E+03  0.18928872356E+03  0.25500000920E-02 0.  1.
        2   -1    0    0  501    0  0.00000000000E+00  0.00000000000E+00 -0.13334296800E+04  0.13334296800E+04  0.25500000920E-02 0. -1.
    10030    2    1    2    0    0  0.00000000000E+00  0.00000000000E+00 -0.11441409565E+04  0.15227184036E+04  0.10047949086E+04 0.  0.
        2    1    3    3  502    0  0.49671434427E+03 -0.45414440520E+02 -0.66319427581E+03  0.82982784883E+03  0.25500000920E-02 0. -1.
       -2    1    3    3    0  502 -0.49671434427E+03  0.45414440520E+02 -0.48094668068E+03  0.69289055477E+03  0.25500000920E-02 0.  1.
</event>
<event>
 5   0  0.1663497E-02  0.1005390E+04  0.7818609E-02  0.9302653E-01
       -2   -1    0    0    0  501  0.00000000000E+00  0.00000000000E+00  0.16563435798E+03  0.16563435800E+03  0.25500000920E-02 0. -1.
        2   -1    0    0  501    0  0.00000000000E+00  0.00000000000E+00 -0.15256637550E+04  0.15256637550E+04  0.25500000920E-02 0.  1.
    10030    2    1    2    0    0  0.00000000000E+00  0.00000000000E+00 -0.13600293970E+04  0.16912981130E+04  0.10053901463E+04 0.  0.
        1    1    3    3  502    0 -0.33890133201E+03  0.22972647163E+03 -0.18935103777E+03  0.45108999118E+03  0.50400001928E-02 0. -1.
       -1    1    3    3    0  502  0.33890133201E+03 -0.22972647163E+03 -0.11706783592E+04  0.12402081218E+04  0.50400001928E-02 0.  1.
</event>
<event>
 5   0  0.1000773E-02  0.9770675E+03  0.7818609E-02  0.9334061E-01
       -1   -1    0    0    0  501  0.00000000000E+00  0.00000000000E+00  0.90446734346E+03  0.90446734347E+03  0.50400001928E-02 0.  1.
        1   -1    0    0  501    0  0.00000000000E+00  0.00000000000E+00 -0.26387377099E+03  0.26387377104E+03  0.50400001928E-02 0. -1.
    10030    2    1    2    0    0  0.00000000000E+00  0.00000000000E+00  0.64059357247E+03  0.11683411145E+04  0.97706746685E+03 0.  0.
        3    1    3    3  502    0  0.41853962636E+03  0.24872840929E+03  0.27210949507E+03  0.55774978971E+03  0.10100000352E+00 0.  1.
       -3    1    3    3    0  502 -0.41853962636E+03 -0.24872840929E+03  0.36848407740E+03  0.61059132480E+03  0.10100000352E+00 0. -1.
</event>
<event>
 5   0  0.1617721E-02  0.9927200E+03  0.7818609E-02  0.9316566E-01
       -2   -1    0    0    0  501  0.00000000000E+00  0.00000000000E+00  0.30884948038E+03  0.30884948039E+03  0.25500000920E-02 0.  1.
        2   -1    0    0  501    0  0.00000000000E+00  0.00000000000E+00 -0.79771296156E+03  0.79771296156E+03  0.25500000920E-02 0. -1.
    10030    2    1    2    0    0  0.00000000000E+00  0.00000000000E+00 -0.48886348118E+03  0.11065624420E+04  0.99271996792E+03 0.  0.
        5    1    3    3  502    0  0.19262401032E+03  0.37096812275E+03 -0.54276110006E+03  0.68507887078E+03  0.46999998093E+01 0. -1.
       -5    1    3    3    0  502 -0.19262401032E+03 -0.37096812275E+03  0.53897618885E+02  0.42148357117E+03  0.46999998093E+01 0.  1.
</event>
<event>
 5   0  0.1656859E-02  0.1126767E+04  0.7818609E-02  0.9179489E-01
        2   -1    0    0  501    0  0.00000000000E+00  0.00000000000E+00  0.22572836622E+04  0.22572836622E+04  0.25500000920E-02 0.  1.
       -2   -1    0    0    0  501  0.00000000000E+00  0.00000000000E+00 -0.14061179479E+03  0.14061179482E+03  0.25500000920E-02 0. -1.
    10030    2    1    2    0    0  0.00000000000E+00  0.00000000000E+00  0.21166718674E+04  0.23978954570E+04  0.11267665368E+04 0.  0.
        4    1    3    3  502    0  0.12978636321E+03  0.71842382188E+02 -0.98299784671E+02  0.17796148044E+03  0.12699999809E+01 0. -1.
       -4    1    3    3    0  502 -0.12978636321E+03 -0.71842382188E+02  0.22149716521E+04  0.22199339766E+04  0.12699999809E+01 0.  1.
</event>
<event>
 5   0  0.1571895E-02  0.9682379E+03  0.7818609E-02  0.9344084E-01
       -2   -1    0    0    0  501  0.00000000000E+00  0.00000000000E+00  0.35543074320E+03  0.35543074321E+03  0.25500000920E-02 0. -1.
        2   -1    0    0  501    0  0.00000000000E+00  0.00000000000E+00 -0.65940029093E+03  0.65940029093E+03  0.25500000920E-02 0.  1.
    10030    2    1    2    0    0  0.00000000000E+00  0.00000000000E+00 -0.30396954773E+03  0.10148310341E+04  0.96823785400E+03 0.  0.
        2    1    3    3  502    0  0.12519424620E+03  0.45259488402E+03 -0.27535811556E+03  0.54436919469E+03  0.25500000920E-02 0.  1.
       -2    1    3    3    0  502 -0.12519424620E+03 -0.45259488402E+03 -0.28611432161E+02  0.47046183945E+03  0.25500000920E-02 0. -1.
</event>
<event>
 5   0  0.1000773E-02  0.1007791E+04  0.7818609E-02  0.9300040E-01
        1   -1    0    0  501    0  0.00000000000E+00  0.00000000000E+00  0.18667343366E+04  0.18667343367E+04  0.50400001928E-02 0.  1.
       -1   -1    0    0    0  501  0.00000000000E+00  0.00000000000E+00 -0.13601875347E+03  0.13601875357E+03  0.50400001928E-02 0. -1.
    10030    2    1    2    0    0  0.00000000000E+00  0.00000000000E+00  0.17307155832E+04  0.20027530902E+04  0.10077914023E+04 0.  0.
        3    1    3    3  502    0  0.21526565317E+03 -0.20296493477E+03  0.16759513473E+04  0.17018657393E+04  0.10100000352E+00 0.  1.
       -3    1    3    3    0  502 -0.21526565317E+03  0.20296493477E+03  0.54764235916E+02  0.30088735088E+03  0.10100000352E+00 0. -1.
</event>
<event>
 5   0  0.9396660E-03  0.1004041E+04  0.7818609E-02  0.9304124E-01
       -1   -1    0    0    0  501  0.00000000000E+00  0.00000000000E+00  0.26365515236E+03  0.26365515241E+03  0.50400001928E-02 0. -1.
        1   -1    0    0  501    0  0.00000000000E+00  0.00000000000E+00 -0.95588718829E+03  0.95588718831E+03  0.50400001928E-02 0.  1.
    10030    2    1    2    0    0  0.00000000000E+00  0.00000000000E+00 -0.69223203593E+03  0.12195423407E+04  0.10040409998E+04 0.  0.
        5    1    3    3  502    0  0.45510154441E+03 -0.13539882671E+03 -0.54403888414E+03  0.72211540314E+03  0.46999998093E+01 0.  1.
       -5    1    3    3    0  502 -0.45510154441E+03  0.13539882671E+03 -0.14819315179E+03  0.49742693758E+03  0.46999998093E+01 0. -1.
</event>
<event>
 5   0  0.1663497E-02  0.9742756E+03  0.7818609E-02  0.9337218E-01
       -2   -1    0    0    0  501  0.00000000000E+00  0.00000000000E+00  0.70540949662E+03  0.70540949663E+03  0.25500000920E-02 0.  1.
        2   -1    0    0  501    0  0.00000000000E+00  0.00000000000E+00 -0.33640495554E+03  0.33640495554E+03  0.25500000920E-02 0. -1.
    10030    2    1    2    0    0  0.00000000000E+00  0.00000000000E+00  0.36900454109E+03  0.10418144522E+04  0.97427562908E+03 0.  0.
        1    1    3    3  502    0  0.26052283043E+03  0.19827303430E+03 -0.20122357995E+03  0.38428540235E+03  0.50400001928E-02 0. -1.
       -1    1    3    3    0  502 -0.26052283043E+03 -0.19827303430E+03  0.57022812104E+03  0.65752904982E+03  0.50400001928E-02 0.  1.
</event>
<event>
 5   0  0.1617721E-02  0.1031282E+04  0.7818609E-02  0.9274885E-01
       -2   -1    0    0    0  501  0.00000000000E+00  0.00000000000E+00  0.17915567758E+03  0.17915567760E+03  0.25500000920E-02 0. -1.
        2   -1    0    0  501    0  0.00000000000E+00  0.00000000000E+00 -0.14841048287E+04  0.14841048287E+04  0.25500000920E-02 0.  1.
    10030    2    1    2    0    0  0.00000000000E+00  0.00000000000E+00 -0.13049491511E+04  0.16632605063E+04  0.10312823206E+04 0.  0.
        5    1    3    3  502    0 -0.18678917959E+03 -0.32632146298E+02  0.12084743147E+03  0.22490274848E+03  0.46999998093E+01 0. -1.
       -5    1    3    3    0  502  0.18678917959E+03  0.32632146298E+02 -0.14257965825E+04  0.14383577578E+04  0.46999998093E+01 0.  1.
</event>
<event>
 5   0  0.1617721E-02  0.1020427E+04  0.7818609E-02  0.9286421E-01
        2   -1    0    0  501    0  0.00000000000E+00  0.00000000000E+00  0.12810228690E+04  0.12810228690E+04  0.25500000920E-02 0.  1.
       -2   -1    0    0    0  501  0.00000000000E+00  0.00000000000E+00 -0.20321081280E+03  0.20321081282E+03  0.25500000920E-02 0. -1.
    10030    2    1    2    0    0  0.00000000000E+00  0.00000000000E+00  0.10778120562E+04  0.14842336818E+04  0.10204267704E+04 0.  0.
        5    1    3    3  502    0  0.11709949789E+03  0.36561731234E+03  0.50162021873E+02  0.38720360268E+03  0.46999998093E+01 0. -1.
       -5    1    3    3    0  502 -0.11709949789E+03 -0.36561731234E+03  0.10276500343E+04  0.10970300791E+04  0.46999998093E+01 0.  1.
</event>
<event>
 5   0  0.9471140E-03  0.9833684E+03  0.7818609E-02  0.9326976E-01
       -1   -1    0    0    0  501  0.00000000000E+00  0.00000000000E+00  0.39340150104E+03  0.39340150107E+03  0.50400001928E-02 0. -1.
        1   -1    0    0  501    0  0.00000000000E+00  0.00000000000E+00 -0.61452071673E+03  0.61452071675E+03  0.50400001928E-02 0.  1.
    10030    2    1    2    0    0  0.00000000000E+00  0.00000000000E+00 -0.22111921569E+03  0.10079222178E+04  0.98336844043E+03 0.  0.
        4    1    3    3  502    0  0.20863133483E+03 -0.43640312061E+03 -0.20094910563E+03  0.52379086809E+03  0.12699999809E+01 0. -1.
       -4    1    3    3    0  502 -0.20863133483E+03  0.43640312061E+03 -0.20170110067E+02  0.48413134973E+03  0.12699999809E+01 0.  1.
</event>
<event>
 5   0  0.9471140E-03  0.9783540E+03  0.7818609E-02  0.9332610E-01
        1   -1    0    0  501    0  0.00000000000E+00  0.00000000000E+00  0.11084207828E+04  0.11084207829E+04  0.50400001928E-02 0.  1.
       -1   -1    0    0    0  501  0.00000000000E+00  0.00000000000E+00 -0.21588743917E+03  0.21588743923E+03  0.50400001928E-02 0. -1.
    10030    2    1    2    0    0  0.00000000000E+00  0.00000000000E+00  0.89253334367E+03  0.13243082221E+04  0.97835397352E+03 0.  0.
        4    1    3    3  502    0  0.67058865704E+02  0.44935039724E+03  0.20081956725E+03  0.49673210331E+03  0.12699999809E+01 0. -1.
       -4    1    3    3    0  502 -0.67058865704E+02 -0.44935039724E+03  0.69171377642E+03  0.82757611877E+03  0.12699999809E+01 0.  1.
</event>
<event>
 5   0  0.9759443E-03  0.9748884E+03  0.7818609E-02  0.9336524E-01
        1   -1    0    0  501    0  0.00000000000E+00  0.00000000000E+00  0.13663685985E+04  0.13663685985E+04  0.50400001928E-02 0.  1.
       -1   -1    0    0    0  501  0.00000000000E+00  0.00000000000E+00 -0.17389292863E+03  0.17389292871E+03  0.50400001928E-02 0. -1.
    10030    2    1    2    0    0  0.00000000000E+00  0.00000000000E+00  0.11924756698E+04  0.15402615272E+04  0.97488837770E+03 0.  0.
        2    1    3    3  502    0 -0.36989745696E+03 -0.22309384327E+03  0.95306163028E+03  0.10463849496E+04  0.25500000920E-02 0.  1.
       -2    1    3    3    0  502  0.36989745696E+03  0.22309384327E+03  0.23941403954E+03  0.49387657760E+03  0.25500000920E-02 0. -1.
</event>
<event>
 5   0  0.1663497E-02  0.1019846E+04  0.7818609E-02  0.9287041E-01
       -2   -1    0    0    0  501  0.00000000000E+00  0.00000000000E+00  0.23202204093E+03  0.23202204095E+03  0.25500000920E-02 0. -1.
        2   -1    0    0  501    0  0.00000000000E+00  0.00000000000E+00 -0.11206766943E+04  0.11206766943E+04  0.25500000920E-02 0.  1.
    10030    2    1    2    0    0  0.00000000000E+00  0.00000000000E+00 -0.88865465337E+03  0.13526987353E+04  0.10198464470E+04 0.  0.
        1    1    3    3  502    0 -0.98014940574E+02 -0.11053884382E+03 -0.10916688484E+04  0.11016200067E+04  0.50400001928E-02 0.  1.
       -1    1    3    3    0  502  0.98014940574E+02  0.11053884382E+03  0.20301419498E+03  0.25107872860E+03  0.50400001928E-02 0. -1.
</event>
<event>
 5   0  0.1617721E-02  0.1059739E+04  0.7818609E-02  0.9245347E-01
       -2   -1    0    0    0  501  0.00000000000E+00  0.00000000000E+00  0.75845831982E+03  0.75845831983E+03  0.25500000920E-02 0. -1.
        2   -1    0    0  501    0  0.00000000000E+00  0.00000000000E+00 -0.37017391749E+03  0.37017391750E+03  0.25500000920E-02 0.  1.
    10030    2    1    2    0    0  0.00000000000E+00  0.00000000000E+00  0.38828440233E+03  0.11286322373E+04  0.10597386235E+04 0.  0.
        5    1    3    3  502    0 -0.36062385905E+03 -0.21959361214E+02 -0.21861975781E+03  0.42231323655E+03  0.46999998093E+01 0.  1.
       -5    1    3    3    0  502  0.36062385905E+03  0.21959361214E+02  0.60690416014E+03  0.70631900077E+03  0.46999998093E+01 0. -1.
</event>
<event>
 5   0  0.1598986E-02  0.9668224E+03  0.7818609E-02  0.9345701E-01
       -2   -1    0    0    0  501  0.00000000000E+00  0.00000000000E+00  0.67821368871E+03  0.67821368872E+03  0.25500000920E-02 0. -1.
        2   -1    0    0  501    0  0.00000000000E+00  0.00000000000E+00 -0.34456157849E+03  0.34456157849E+03  0.25500000920E-02 0.  1.
    10030    2    1    2    0    0  0.00000000000E+00  0.00000000000E+00  0.33365211022E+03  0.10227752672E+04  0.96682238108E+03 0.  0.
        3    1    3    3  502    0  0.22143383664E+03 -0.30133708476E+03  0.49090382411E+03  0.61710903201E+03  0.10100000352E+00 0. -1.
       -3    1    3    3    0  502 -0.22143383664E+03  0.30133708476E+03 -0.15725171389E+03  0.40566623520E+03  0.10100000352E+00 0.  1.
</event>
<event>
 5   0  0.9471140E-03  0.9336474E+03  0.7818609E-02  0.9384471E-01
       -1   -1    0    0    0  501  0.00000000000E+00  0.00000000000E+00  0.77379214448E+03  0.77379214449E+03  0.50400001928E-02 0.  1.
        1   -1    0    0  501    0  0.00000000000E+00  0.00000000000E+00 -0.28163165803E+03  0.28163165807E+03  0.50400001928E-02 0. -1.
    10030    2    1    2    0    0  0.00000000000E+00  0.00000000000E+00  0.49216048645E+03  0.10554238026E+04  0.93364739522E+03 0.  0.
        4    1    3    3  502    0 -0.20726146279E+03 -0.28566284600E+03  0.59148592531E+03  0.68877992733E+03  0.12699999809E+01 0.  1.
       -4    1    3    3    0  502  0.20726146279E+03  0.28566284600E+03 -0.99325438863E+02  0.36664387524E+03  0.12699999809E+01 0. -1.
</event>
<event>
 5   0  0.1663497E-02  0.9894364E+03  0.7818609E-02  0.9320207E-01
        2   -1    0    0  501    0  0.00000000000E+00  0.00000000000E+00  0.21693446938E+04  0.21693446938E+04  0.25500000920E-02 0.  1.
       -2   -1    0    0    0  501  0.00000000000E+00  0.00000000000E+00 -0.11282029162E+03  0.11282029165E+03  0.25500000920E-02 0. -1.
    10030    2    1    2    0    0  0.00000000000E+00  0.00000000000E+00  0.20565244022E+04  0.22821649854E+04  0.98943640726E+03 0.  0.
        1    1    3    3  502    0 -0.28384823145E+03  0.22213966295E+03  0.24665723270E+03  0.43675581143E+03  0.50400001928E-02 0. -1.
       -1    1    3    3    0  502  0.28384823145E+03 -0.22213966295E+03  0.18098671695E+04  0.18454091740E+04  0.50400001928E-02 0.  1.
</event>
<event>
 5   0  0.9471140E-03  0.9836802E+03  0.7818609E-02  0.9326627E-01
       -1   -1    0    0    0  501  0.00000000000E+00  0.00000000000E+00  0.46414794286E+03  0.46414794289E+03  0.50400001928E-02 0.  1.
        1   -1    0    0  501    0  0.00000000000E+00  0.00000000000E+00 -0.52118443842E+03  0.52118443845E+03  0.50400001928E-02 0. -1.
    10030    2    1    2    0    0  0.00000000000E+00  0.00000000000E+00 -0.57036495563E+02  0.98533238134E+03  0.98368020204E+03 0.  0.
        4    1    3    3  502    0 -0.24366374728E+03  0.34640745605E+03 -0.27900810225E+03  0.50716593080E+03  0.12699999809E+01 0. -1.
       -4    1    3    3    0  502  0.24366374728E+03 -0.34640745605E+03  0.22197160669E+03  0.47816645054E+03  0.12699999809E+01 0.  1.
</event>
<event>
 5   0  0.1598986E-02  0.1020942E+04  0.7818609E-02  0.9285870E-01
        2   -1    0    0  501    0  0.00000000000E+00  0.00000000000E+00  0.20656798359E+04  0.20656798359E+04  0.25500000920E-02 0. -1.
       -2   -1    0    0    0  501  0.00000000000E+00  0.00000000000E+00 -0.12614756235E+03  0.12614756238E+03  0.25500000920E-02 0.  1.
    10030    2    1    2    0    0  0.00000000000E+00  0.00000000000E+00  0.19395322735E+04  0.21918273982E+04  0.10209416750E+04 0.  0.
        3    1    3    3  502    0 -0.38882781609E+02 -0.50654369425E+03  0.86280811062E+03  0.10012673124E+04  0.10100000352E+00 0.  1.
       -3    1    3    3    0  502  0.38882781609E+02  0.50654369425E+03  0.10767241629E+04  0.11905600859E+04  0.10100000352E+00 0. -1.
</event>
<event>
 5   0  0.1656859E-02  0.5394449E+03  0.7818609E-02  0.1003967E+00
        2   -1    0    0  501    0  0.00000000000E+00  0.00000000000E+00  0.73639154156E+03  0.73639154156E+03  0.25500000920E-02 0. -1.
       -2   -1    0    0    0  501  0.00000000000E+00  0.00000000000E+00 -0.98792841876E+02  0.98792841909E+02  0.25500000920E-02 0.  1.
    10030    2    1    2    0    0  0.00000000000E+00  0.00000000000E+00  0.63759869968E+03  0.83518438347E+03  0.53944494859E+03 0.  0.
        4    1    3    3  502    0 -0.13690178626E+03  0.22227135639E+03  0.42382755890E+03  0.49777310849E+03  0.12699999809E+01 0. -1.
       -4    1    3    3    0  502  0.13690178626E+03 -0.22227135639E+03  0.21377114078E+03  0.33741127498E+03  0.12699999809E+01 0.  1.
</event>
<event>
 5   0  0.9507815E-03  0.9898830E+03  0.7818609E-02  0.9319711E-01
       -1   -1    0    0    0  501  0.00000000000E+00  0.00000000000E+00  0.16967790141E+03  0.16967790148E+03  0.50400001928E-02 0.  1.
        1   -1    0    0  501    0  0.00000000000E+00  0.00000000000E+00 -0.14437181719E+04  0.14437181719E+04  0.50400001928E-02 0. -1.
    10030    2    1    2    0    0  0.00000000000E+00  0.00000000000E+00 -0.12740402705E+04  0.16133960734E+04  0.98988296216E+03 0.  0.
        1    1    3    3  502    0  0.10547830507E+03 -0.57322153240E+01  0.15109075740E+03  0.18435549390E+03  0.50400001928E-02 0.  1.
       -1    1    3    3    0  502 -0.10547830507E+03  0.57322153240E+01 -0.14251310279E+04  0.14290405795E+04  0.50400001928E-02 0. -1.
</event>
<event>
 5   0  0.1663497E-02  0.1028621E+04  0.7818609E-02  0.9277699E-01
       -2   -1    0    0    0  501  0.00000000000E+00  0.00000000000E+00  0.49218392479E+03  0.49218392480E+03  0.25500000920E-02 0. -1.
        2   -1    0    0  501    0  0.00000000000E+00  0.00000000000E+00 -0.53743140576E+03  0.53743140577E+03  0.25500000920E-02 0.  1.
    10030    2    1    2    0    0  0.00000000000E+00  0.00000000000E+00 -0.45247480974E+02  0.10296153306E+04  0.10286206271E+04 0.  0.
        1    1    3    3  502    0  0.14200023148E+01 -0.89882932303E+02  0.48425922206E+03  0.49253218383E+03  0.50400001928E-02 0. -1.
       -1    1    3    3    0  502 -0.14200023148E+01  0.89882932303E+02 -0.52950670304E+03  0.53708314674E+03  0.50400001928E-02 0.  1.
</event>
<event>
 5   0  0.9396660E-03  0.1008583E+04  0.7818609E-02  0.9299181E-01
        1   -1    0    0  501    0  0.00000000000E+00  0.00000000000E+00  0.10960411234E+04  0.10960411235E+04  0.50400001928E-02 0. -1.
       -1   -1    0    0    0  501  0.00000000000E+00  0.00000000000E+00 -0.23202600051E+03  0.23202600056E+03  0.50400001928E-02 0.  1.
    10030    2    1    2    0    0  0.00000000000E+00  0.00000000000E+00  0.86401512294E+03  0.13280671240E+04  0.10085832406E+04 0.  0.
        5    1    3    3  502    0 -0.88763915367E+02 -0.47666431114E+03  0.61446411198E+03  0.78273631134E+03  0.46999998093E+01 0. -1.
       -5    1    3    3    0  502  0.88763915367E+02  0.47666431114E+03  0.24955101096E+03  0.54533081268E+03  0.46999998093E+01 0.  1.
</event>
<event>
 5   0  0.9396660E-03  0.1163690E+04  0.7818609E-02  0.9145246E-01
        1   -1    0    0  501    0  0.00000000000E+00  0.00000000000E+00  0.81290678148E+03  0.81290678150E+03  0.50400001928E-02 0. -1.
       -1   -1    0    0    0  501  0.00000000000E+00  0.00000000000E+00 -0.41646072631E+03  0.41646072635E+03  0.50400001928E-02 0.  1.
    10030    2    1    2    0    0  0.00000000000E+00  0.00000000000E+00  0.39644605516E+03  0.12293675078E+04  0.11636902486E+04 0.  0.
        5    1    3    3  502    0 -0.41346808261E+03 -0.50846615990E+02  0.62732503323E+03  0.75306043650E+03  0.46999998093E+01 0. -1.
       -5    1    3    3    0  502  0.41346808261E+03  0.50846615990E+02 -0.23087897807E+03  0.47630707134E+03  0.46999998093E+01 0.  1.
</event>
<event>
 5   0  0.9471140E-03  0.9838060E+03  0.7818609E-02  0.9326487E-01
        1   -1    0    0  501    0  0.00000000000E+00  0.00000000000E+00  0.46884926215E+03  0.46884926217E+03  0.50400001928E-02 0. -1.
       -1   -1    0    0    0  501  0.00000000000E+00  0.00000000000E+00 -0.51609033718E+03  0.51609033721E+03  0.50400001928E-02 0.  1.
    10030    2    1    2    0    0  0.00000000000E+00  0.00000000000E+00 -0.47241075037E+02  0.98493959938E+03  0.98380602522E+03 0.  0.
        4    1    3    3  502    0  0.19027875890E+03 -0.44994679296E+03  0.33968244694E+02  0.48970764455E+03  0.12699999809E+01 0. -1.
       -4    1    3    3    0  502 -0.19027875890E+03  0.44994679296E+03 -0.81209319731E+02  0.49523195484E+03  0.12699999809E+01 0.  1.
</event>
<event>
 5   0  0.1000773E-02  0.1003297E+04  0.7818609E-02  0.9304936E-01
        1   -1    0    0  501    0  0.00000000000E+00  0.00000000000E+00  0.15265003843E+04  0.15265003843E+04  0.50400001928E-02 0. -1.
       -1   -1    0    0    0  501  0.00000000000E+00  0.00000000000E+00 -0.16485498429E+03  0.16485498437E+03  0.50400001928E-02 0.  1.
    10030    2    1    2    0    0  0.00000000000E+00  0.00000000000E+00  0.13616454000E+04  0.16913553687E+04  0.10032969589E+04 0.  0.
        3    1    3    3  502    0  0.74385491518E+02 -0.29517715592E+03  0.86387575725E+01  0.30452814822E+03  0.10100000352E+00 0.  1.
       -3    1    3    3    0  502 -0.74385491518E+02  0.29517715592E+03  0.13530066425E+04  0.13868272205E+04  0.10100000352E+00 0. -1.
</event>
<event>
 5   0  0.1000773E-02  0.9660496E+03  0.7818609E-02  0.9346585E-01
       -1   -1    0    0    0  501  0.00000000000E+00  0.00000000000E+00  0.38111052598E+03  0.38111052602E+03  0.50400001928E-02 0.  1.
        1   -1    0    0  501    0  0.00000000000E+00  0.00000000000E+00 -0.61219238937E+03  0.61219238939E+03  0.50400001928E-02 0. -1.
    10030    2    1    2    0    0  0.00000000000E+00  0.00000000000E+00 -0.23108186339E+03  0.99330291541E+03  0.96604961269E+03 0.  0.
        3    1    3    3  502    0 -0.59113022702E+02 -0.16030088482E+03  0.34900368512E+03  0.38857985737E+03  0.10100000352E+00 0.  1.
       -3    1    3    3    0  502  0.59113022702E+02  0.16030088482E+03 -0.58008554851E+03  0.60472305803E+03  0.10100000352E+00 0. -1.
</event>
<event>
 5   0  0.9471140E-03  0.1025870E+04  0.7818609E-02  0.9280617E-01
        1   -1    0    0  501    0  0.00000000000E+00  0.00000000000E+00  0.48219003314E+03  0.48219003317E+03  0.50400001928E-02 0.  1.
       -1   -1    0    0    0  501  0.00000000000E+00  0.00000000000E+00 -0.54564067439E+03  0.54564067441E+03  0.50400001928E-02 0. -1.
    10030    2    1    2    0    0  0.00000000000E+00  0.00000000000E+00 -0.63450641245E+02  0.10278307076E+04  0.10258703522E+04 0.  0.
        4    1    3    3  502    0 -0.16323932184E+03 -0.45411393250E+03 -0.20593784393E+03  0.52466994230E+03  0.12699999809E+01 0. -1.
       -4    1    3    3    0  502  0.16323932184E+03  0.45411393250E+03  0.14248720268E+03  0.50316076528E+03  0.12699999809E+01 0.  1.
</event>
<event>
 5   0  0.1000773E-02  0.9635129E+03  0.7818609E-02  0.9349494E-01
       -1   -1    0    0    0  501  0.00000000000E+00  0.00000000000E+00  0.80193011494E+03  0.80193011495E+03  0.50400001928E-02 0.  1.
        1   -1    0    0  501    0  0.00000000000E+00  0.00000000000E+00 -0.28941336828E+03  0.28941336832E+03  0.50400001928E-02 0. -1.
    10030    2    1    2    0    0  0.00000000000E+00  0.00000000000E+00  0.51251674666E+03  0.10913434833E+04  0.96351293861E+03 0.  0.
        3    1    3    3  502    0  0.59299097978E+02  0.41899379607E+03 -0.45442156154E+01  0.42319362503E+03  0.10100000352E+00 0. -1.
       -3    1    3    3    0  502 -0.59299097978E+02 -0.41899379607E+03  0.51706096228E+03  0.66814985825E+03  0.10100000352E+00 0.  1.
</event>
<event>
 5   0  0.9507815E-03  0.1061677E+04  0.7818609E-02  0.9243370E-01
        1   -1    0    0  501    0  0.00000000000E+00  0.00000000000E+00  0.13780694876E+04  0.13780694876E+04  0.50400001928E-02 0.  1.
       -1   -1    0    0    0  501  0.00000000000E+00  0.00000000000E+00 -0.20448153763E+03  0.20448153770E+03  0.50400001928E-02 0. -1.
    10030    2    1    2    0    0  0.00000000000E+00  0.00000000000E+00  0.11735879500E+04  0.15825510253E+04  0.10616774799E+04 0.  0.
        1    1    3    3  502    0  0.19100412812E+02 -0.39127370016E+03  0.11207788205E+04  0.11872679136E+04  0.50400001928E-02 0.  1.
       -1    1    3    3    0  502 -0.19100412812E+02  0.39127370016E+03  0.52809129473E+02  0.39528311169E+03  0.50400001928E-02 0. -1.
</event>
<event>
 5   0  0.9396660E-03  0.1278917E+04  0.7818609E-02  0.9046453E-01
        1   -1    0    0  501    0  0.00000000000E+00  0.00000000000E+00  0.55208260597E+03  0.55208260600E+03  0.50400001928E-02 0.  1.
       -1   -1    0    0    0  501  0.00000000000E+00  0.00000000000E+00 -0.74066342232E+03  0.74066342234E+03  0.50400001928E-02 0. -1.
    10030    2    1    2    0    0  0.00000000000E+00  0.00000000000E+00 -0.18858081635E+03  0.12927460283E+04  0.12789173427E+04 0.  0.
        5    1    3    3  502    0 -0.11186555863E+03  0.46928962374E+03 -0.51851717298E+03  0.70825758227E+03  0.46999998093E+01 0. -1.
       -5    1    3    3    0  502  0.11186555863E+03 -0.46928962374E+03  0.32993635664E+03  0.58448844607E+03  0.46999998093E+01 0.  1.
</event>
<event>
 5   0  0.1598986E-02  0.9995181E+03  0.7818609E-02  0.9309073E-01
       -2   -1    0    0    0  501  0.00000000000E+00  0.00000000000E+00  0.28445890027E+03  0.28445890028E+03  0.25500000920E-02 0. -1.
        2   -1    0    0  501    0  0.00000000000E+00  0.00000000000E+00 -0.87801473997E+03  0.87801473997E+03  0.25500000920E-02 0.  1.
    10030    2    1    2    0    0  0.00000000000E+00  0.00000000000E+00 -0.59355583970E+03  0.11624736403E+04  0.99951809861E+03 0.  0.
        3    1    3    3  502    0 -0.49204809090E+03 -0.74648335257E+02 -0.34976174387E+03  0.60829021478E+03  0.10100000352E+00 0.  1.
       -3    1    3    3    0  502  0.49204809090E+03  0.74648335257E+02 -0.24379409582E+03  0.55418342548E+03  0.10100000352E+00 0. -1.
</event>
<event>
 5   0  0.1571895E-02  0.9833424E+03  0.7818609E-02  0.9327006E-01
        2   -1    0    0  501    0  0.00000000000E+00  0.00000000000E+00  0.51487602664E+03  0.51487602664E+03  0.25500000920E-02 0.  1.
       -2   -1    0    0    0  501  0.00000000000E+00  0.00000000000E+00 -0.46951220415E+03  0.46951220416E+03  0.25500000920E-02 0. -1.
    10030    2    1    2    0    0  0.00000000000E+00  0.00000000000E+00  0.45363822485E+02  0.98438823080E+03  0.98334241877E+03 0.  0.
        2    1    3    3  502    0 -0.16352190753E+03  0.23455910249E+03  0.42308628864E+03  0.51064605594E+03  0.25500000920E-02 0.  1.
       -2    1    3    3    0  502  0.16352190753E+03 -0.23455910249E+03 -0.37772246616E+03  0.47374217487E+03  0.25500000920E-02 0. -1.
</event>
<event>
 5   0  0.9396660E-03  0.1020105E+04  0.7818609E-02  0.9286764E-01
        1   -1    0    0  501    0  0.00000000000E+00  0.00000000000E+00  0.84618694601E+03  0.84618694603E+03  0.50400001928E-02 0. -1.
       -1   -1    0    0    0  501  0.00000000000E+00  0.00000000000E+00 -0.30744245345E+03  0.30744245349E+03  0.50400001928E-02 0.  1.
    10030    2    1    2    0    0  0.00000000000E+00  0.00000000000E+00  0.53874449257E+03  0.11536293995E+04  0.10201054667E+04 0.  0.
        5    1    3    3  502    0 -0.28178029056E+03 -0.25977734853E+03 -0.11119829191E+03  0.39908840259E+03  0.46999998093E+01 0.  1.
       -5    1    3    3    0  502  0.28178029056E+03  0.25977734853E+03  0.64994278448E+03  0.75454099693E+03  0.46999998093E+01 0. -1.
</event>
<event>
 5   0  0.1598986E-02  0.1002211E+04  0.7818609E-02  0.9306124E-01
        2   -1    0    0  501    0  0.00000000000E+00  0.00000000000E+00  0.23498385949E+04  0.23498385949E+04  0.25500000920E-02 0. -1.
       -2   -1    0    0    0  501  0.00000000000E+00  0.00000000000E+00 -0.10686116636E+03  0.10686116639E+03  0.25500000920E-02 0.  1.
    10030    2    1    2    0    0  0.00000000000E+00  0.00000000000E+00  0.22429774286E+04  0.24566997613E+04  0.10022105428E+04 0.  0.
        3    1    3    3  502    0 -0.27309073968E+03  0.25770448212E+03  0.19349164605E+04  0.19710129049E+04  0.10100000352E+00 0. -1.
       -3    1    3    3    0  502  0.27309073968E+03 -0.25770448212E+03  0.30806096811E+03  0.48568685640E+03  0.10100000352E+00 0.  1.
</event>
<event>
 5   0  0.1663497E-02  0.1018853E+04  0.7818609E-02  0.9288105E-01
       -2   -1    0    0    0  501  0.00000000000E+00  0.00000000000E+00  0.21287866079E+03  0.21287866081E+03  0.25500000920E-02 0. -1.
        2   -1    0    0  501    0  0.00000000000E+00  0.00000000000E+00 -0.12190773014E+04  0.12190773014E+04  0.25500000920E-02 0.  1.
    10030    2    1    2    0    0  0.00000000000E+00  0.00000000000E+00 -0.10061986406E+04  0.14319559622E+04  0.10188533620E+04 0.  0.
        1    1    3    3  502    0 -0.16359901247E+03 -0.46213580457E+03 -0.30844762892E+03  0.57920124185E+03  0.50400001928E-02 0. -1.
       -1    1    3    3    0  502  0.16359901247E+03  0.46213580457E+03 -0.69775101168E+03  0.85275472035E+03  0.50400001928E-02 0.  1.
</event>
<event>
 5   0  0.1656859E-02  0.9714498E+03  0.7818609E-02  0.9340425E-01
        2   -1    0    0  501    0  0.00000000000E+00  0.00000000000E+00  0.15081869061E+04  0.15081869061E+04  0.25500000920E-02 0. -1.
       -2   -1    0    0    0  501  0.00000000000E+00  0.00000000000E+00 -0.15643199967E+03  0.15643199969E+03  0.25500000920E-02 0.  1.
    10030    2    1    2    0    0  0.00000000000E+00  0.00000000000E+00  0.13517549064E+04  0.16646189057E+04  0.97144983114E+03 0.  0.
        4    1    3    3  502    0 -0.40420844737E+02 -0.38089117794E+02  0.15027251683E+04  0.15037516982E+04  0.12699999809E+01 0. -1.
       -4    1    3    3    0  502  0.40420844737E+02  0.38089117794E+02 -0.15097026189E+03  0.16086720753E+03  0.12699999809E+01 0.  1.
</event>
<event>
 5   0  0.1571895E-02  0.9931202E+03  0.7818609E-02  0.9316123E-01
        2   -1    0    0  501    0  0.00000000000E+00  0.00000000000E+00  0.66958964194E+03  0.66958964195E+03  0.25500000920E-02 0.  1.
       -2   -1    0    0    0  501  0.00000000000E+00  0.00000000000E+00 -0.36824337503E+03  0.36824337504E+03  0.25500000920E-02 0. -1.
    10030    2    1    2    0    0  0.00000000000E+00  0.00000000000E+00  0.30134626691E+03  0.10378330170E+04  0.99312023369E+03 0.  0.
        2    1    3    3  502    0 -0.41206685386E+03 -0.26525620015E+03  0.23435331394E+03  0.54321397214E+03  0.25500000920E-02 0.  1.
       -2    1    3    3    0  502  0.41206685386E+03  0.26525620015E+03  0.66992952970E+02  0.49461904485E+03  0.25500000920E-02 0. -1.
</event>
<event>
 5   0  0.9396660E-03  0.1161454E+04  0.7818609E-02  0.9147281E-01
        1   -1    0    0  501    0  0.00000000000E+00  0.00000000000E+00  0.10318928585E+04  0.10318928585E+04  0.50400001928E-02 0. -1.
       -1   -1    0    0    0  501  0.00000000000E+00  0.00000000000E+00 -0.32682049566E+03  0.32682049570E+03  0.50400001928E-02 0.  1.
    10030    2    1    2    0    0  0.00000000000E+00  0.00000000000E+00  0.70507236281E+03  0.13587133542E+04  0.11614538054E+04 0.  0.
        5    1    3    3  502    0 -0.11590252527E+03  0.36105676617E+03 -0.16196173691E+03  0.41237007406E+03  0.46999998093E+01 0.  1.
       -5    1    3    3    0  502  0.11590252527E+03 -0.36105676617E+03  0.86703409971E+03  0.94634328012E+03  0.46999998093E+01 0. -1.
</event>
<event>
 5   0  0.1571895E-02  0.9579797E+03  0.7818609E-02  0.9355872E-01
       -2   -1    0    0    0  501  0.00000000000E+00  0.00000000000E+00  0.83663989080E+03  0.83663989081E+03  0.25500000920E-02 0. -1.
        2   -1    0    0  501    0  0.00000000000E+00  0.00000000000E+00 -0.27422940679E+03  0.27422940680E+03  0.25500000920E-02 0.  1.
    10030    2    1    2    0    0  0.00000000000E+00  0.00000000000E+00  0.56241048401E+03  0.11108692976E+04  0.95797966776E+03 0.  0.
        2    1    3    3  502    0  0.29101815686E+03  0.24695594740E+01  0.72236038475E+03  0.77878250610E+03  0.25500000920E-02 0. -1.
       -2    1    3    3    0  502 -0.29101815686E+03 -0.24695594740E+01 -0.15994990074E+03  0.33208679151E+03  0.25500000920E-02 0.  1.
</event>
<event>
 5   0  0.9396660E-03  0.9779449E+03  0.7818609E-02  0.9333071E-01
        1   -1    0    0  501    0  0.00000000000E+00  0.00000000000E+00  0.12934537360E+04  0.12934537360E+04  0.50400001928E-02 0.  1.
       -1   -1    0    0    0  501  0.00000000000E+00  0.00000000000E+00 -0.18484933832E+03  0.18484933839E+03  0.50400001928E-02 0. -1.
    10030    2    1    2    0    0  0.00000000000E+00  0.00000000000E+00  0.11086043976E+04  0.14783030744E+04  0.97794492136E+03 0.  0.
        5    1    3    3  502    0  0.33993954280E+03  0.18618374915E+03  0.10371939436E+03  0.40125189591E+03  0.46999998093E+01 0. -1.
       -5    1    3    3    0  502 -0.33993954280E+03 -0.18618374915E+03  0.10048850033E+04  0.10770511785E+04  0.46999998093E+01 0.  1.
</event>
<event>
 5   0  0.9759443E-03  0.9654345E+03  0.7818609E-02  0.9347290E-01
        1   -1    0    0  501    0  0.00000000000E+00  0.00000000000E+00  0.89073480228E+03  0.89073480229E+03  0.50400001928E-02 0. -1.
       -1   -1    0    0    0  501  0.00000000000E+00  0.00000000000E+00 -0.26159967934E+03  0.26159967939E+03  0.50400001928E-02 0.  1.
    10030    2    1    2    0    0  0.00000000000E+00  0.00000000000E+00  0.62913512294E+03  0.11523344817E+04  0.96543449014E+03 0.  0.
        2    1    3    3  502    0 -0.12511425566E+03  0.41744684441E+03  0.66770089915E+02  0.44087831631E+03  0.25500000920E-02 0.  1.
       -2    1    3    3    0  502  0.12511425566E+03 -0.41744684441E+03  0.56236503302E+03  0.71145616537E+03  0.25500000920E-02 0. -1.
</event>
<event>
 5   0  0.9759443E-03  0.1031755E+04  0.7818609E-02  0.9274386E-01
       -1   -1    0    0    0  501  0.00000000000E+00  0.00000000000E+00  0.10099316034E+03  0.10099316046E+03  0.50400001928E-02 0. -1.
        1   -1    0    0  501    0  0.00000000000E+00  0.00000000000E+00 -0.26351272532E+04  0.26351272532E+04  0.50400001928E-02 0.  1.
    10030    2    1    2    0    0  0.00000000000E+00  0.00000000000E+00 -0.25341340929E+04  0.27361204137E+04  0.10317554543E+04 0.  0.
        2    1    3    3  502    0 -0.12815561817E+03  0.27983045731E+03 -0.16916155036E+03  0.35120446670E+03  0.25500000920E-02 0. -1.
       -2    1    3    3    0  502  0.12815561817E+03 -0.27983045731E+03 -0.23649725425E+04  0.23849159470E+04  0.25500000920E-02 0.  1.
</event>
<event>
 5   0  0.9759443E-03  0.8687565E+03  0.7818609E-02  0.9465503E-01
        1   -1    0    0  501    0  0.00000000000E+00  0.00000000000E+00  0.16005829732E+03  0.16005829740E+03  0.50400001928E-02 0. -1.
       -1   -1    0    0    0  501  0.00000000000E+00  0.00000000000E+00 -0.11788484045E+04  0.11788484045E+04  0.50400001928E-02 0.  1.
    10030    2    1    2    0    0  0.00000000000E+00  0.00000000000E+00 -0.10187901072E+04  0.13389067019E+04  0.86875651016E+03 0.  0.
        2    1    3    3  502    0 -0.54488732142E+02 -0.35971763038E+03 -0.14365000974E+03  0.39115357705E+03  0.25500000920E-02 0. -1.
       -2    1    3    3    0  502  0.54488732142E+02  0.35971763038E+03 -0.87514009744E+03  0.94775312487E+03  0.25500000920E-02 0.  1.
</event>
<event>
 5   0  0.1663497E-02  0.9879836E+03  0.7818609E-02  0.9321823E-01
       -2   -1    0    0    0  501  0.00000000000E+00  0.00000000000E+00  0.39526245612E+03  0.39526245613E+03  0.25500000920E-02 0. -1.
        2   -1    0    0  501    0  0.00000000000E+00  0.00000000000E+00 -0.61738196365E+03  0.61738196365E+03  0.25500000920E-02 0.  1.
    10030    2    1    2    0    0  0.00000000000E+00  0.00000000000E+00 -0.22211950753E+03  0.10126444198E+04  0.98798362602E+03 0.  0.
        1    1    3    3  502    0 -0.32813423701E+03 -0.30219576112E+03 -0.32856780958E+03  0.55403173290E+03  0.50400001928E-02 0.  1.
       -1    1    3    3    0  502  0.32813423701E+03  0.30219576112E+03  0.10644830205E+03  0.45861268689E+03  0.50400001928E-02 0. -1.
</event>
<event>
 5   0  0.1656859E-02  0.9528251E+03  0.7818609E-02  0.9361855E-01
        2   -1    0    0  501    0  0.00000000000E+00  0.00000000000E+00  0.11533052515E+04  0.11533052515E+04  0.25500000920E-02 0.  1.
       -2   -1    0    0    0  501  0.00000000000E+00  0.00000000000E+00 -0.19679865663E+03  0.19679865664E+03  0.25500000920E-02 0. -1.
    10030    2    1    2    0    0  0.00000000000E+00  0.00000000000E+00  0.95650659491E+03  0.13501039082E+04  0.95282511343E+03 0.  0.
        4    1    3    3  502    0  0.28140605538E+03  0.13978182874E+03  0.98566915194E+03  0.10345402929E+04  0.12699999809E+01 0.  1.
       -4    1    3    3    0  502 -0.28140605538E+03 -0.13978182874E+03 -0.29162557033E+02  0.31556361528E+03  0.12699999809E+01 0. -1.
</event>
<event>
 5   0  0.1000773E-02  0.9820934E+03  0.7818609E-02  0.9328405E-01
       -1   -1    0    0    0  501  0.00000000000E+00  0.00000000000E+00  0.17035478145E+03  0.17035478153E+03  0.50400001928E-02 0.  1.
        1   -1    0    0  501    0  0.00000000000E+00  0.00000000000E+00 -0.14154392663E+04  0.14154392663E+04  0.50400001928E-02 0. -1.
    10030    2    1    2    0    0  0.00000000000E+00  0.00000000000E+00 -0.12450844848E+04  0.15857940478E+04  0.98209337016E+03 0.  0.
        3    1    3    3  502    0 -0.50108185524E+02 -0.22841587103E+03 -0.13197562588E+04  0.13403138563E+04  0.10100000352E+00 0. -1.
       -3    1    3    3    0  502  0.50108185524E+02  0.22841587103E+03  0.74671774019E+02  0.24548019152E+03  0.10100000352E+00 0.  1.
</event>
<event>
 5   0  0.1598986E-02  0.9921130E+03  0.7818609E-02  0.9317238E-01
        2   -1    0    0  501    0  0.00000000000E+00  0.00000000000E+00  0.68052230800E+03  0.68052230800E+03  0.25500000920E-02 0. -1.
       -2   -1    0    0    0  501  0.00000000000E+00  0.00000000000E+00 -0.36159291333E+03  0.36159291334E+03  0.25500000920E-02 0.  1.
    10030    2    1    2    0    0  0.00000000000E+00  0.00000000000E+00  0.31892939467E+03  0.10421152213E+04  0.99211298538E+03 0.  0.
        3    1    3    3  502    0 -0.32366838719E+03  0.32360926692E+03  0.36038464559E+03  0.58254723884E+03  0.10100000352E+00 0. -1.
       -3    1    3    3    0  502  0.32366838719E+03 -0.32360926692E+03 -0.41455250918E+02  0.45956798250E+03  0.10100000352E+00 0.  1.
</event>
<event>
 5   0  0.1000773E-02  0.1032798E+04  0.7818609E-02  0.9273287E-01
        1   -1    0    0  501    0  0.00000000000E+00  0.00000000000E+00  0.57807209261E+03  0.57807209263E+03  0.50400001928E-02 0.  1.
       -1   -1    0    0    0  501  0.00000000000E+00  0.00000000000E+00 -0.46130527026E+03  0.46130527028E+03  0.50400001928E-02 0. -1.
    10030    2    1    2    0    0  0.00000000000E+00  0.00000000000E+00  0.11676682235E+03  0.10393773629E+04  0.10327975657E+04 0.  0.
        3    1    3    3  502    0  0.79737765060E+02 -0.97080364352E+02 -0.44569184898E+03  0.46305932964E+03  0.10100000352E+00 0. -1.
       -3    1    3    3    0  502 -0.79737765060E+02  0.97080364352E+02  0.56245867133E+03  0.57631803327E+03  0.10100000352E+00 0.  1.
</event>
<event>
 5   0  0.9759443E-03  0.1002177E+04  0.7818609E-02  0.9306160E-01
       -1   -1    0    0    0  501  0.00000000000E+00  0.00000000000E+00  0.68292044109E+03  0.68292044111E+03  0.50400001928E-02 0.  1.
        1   -1    0    0  501    0  0.00000000000E+00  0.00000000000E+00 -0.36767082954E+03  0.36767082957E+03  0.50400001928E-02 0. -1.
    10030    2    1    2    0    0  0.00000000000E+00  0.00000000000E+00  0.31524961155E+03  0.10505912707E+04  0.10021774795E+04 0.  0.
        2    1    3    3  502    0  0.21886077006E+03  0.38304730169E+03  0.40672695860E+03  0.60004340748E+03  0.25500000920E-02 0.  1.
       -2    1    3    3    0  502 -0.21886077006E+03 -0.38304730169E+03 -0.91477347045E+02  0.45054786320E+03  0.25500000920E-02 0. -1.
</event>
<event>
 5   0  0.1571895E-02  0.1004488E+04  0.7818609E-02  0.9303636E-01
       -2   -1    0    0    0  501  0.00000000000E+00  0.00000000000E+00  0.12803131887E+03  0.12803131890E+03  0.25500000920E-02 0. -1.
        2   -1    0    0  501    0  0.00000000000E+00  0.00000000000E+00 -0.19702137493E+04  0.19702137493E+04  0.25500000920E-02 0.  1.
    10030    2    1    2    0    0  0.00000000000E+00  0.00000000000E+00 -0.18421824304E+04  0.20982450682E+04  0.10044880583E+04 0.  0.
        2    1    3    3  502    0  0.35382812486E+01  0.49878707818E+03 -0.10437489134E+04  0.11568115071E+04  0.25500000920E-02 0. -1.
       -2    1    3    3    0  502 -0.35382812486E+01 -0.49878707818E+03 -0.79843351705E+03  0.94143356109E+03  0.25500000920E-02 0.  1.
</event>
<event>
 5   0  0.9396660E-03  0.1045360E+04  0.7818609E-02  0.9260148E-01
        1   -1    0    0  501    0  0.00000000000E+00  0.00000000000E+00  0.49339626291E+03  0.49339626294E+03  0.50400001928E-02 0. -1.
       -1   -1    0    0    0  501  0.00000000000E+00  0.00000000000E+00 -0.55370149093E+03  0.55370149095E+03  0.50400001928E-02 0.  1.
    10030    2    1    2    0    0  0.00000000000E+00  0.00000000000E+00 -0.60305228013E+02  0.10470977539E+04  0.10453597398E+04 0.  0.
        5    1    3    3  502    0  0.76657082430E+02 -0.32826531305E+03  0.36993321170E+03  0.50050683827E+03  0.46999998093E+01 0. -1.
       -5    1    3    3    0  502 -0.76657082430E+02  0.32826531305E+03 -0.43023843971E+03  0.54659091562E+03  0.46999998093E+01 0.  1.
</event>
<event>
 5   0  0.9507815E-03  0.9981345E+03  0.7818609E-02  0.9310593E-01
       -1   -1    0    0    0  501  0.00000000000E+00  0.00000000000E+00  0.22868542855E+03  0.22868542860E+03  0.50400001928E-02 0.  1.
        1   -1    0    0  501    0  0.00000000000E+00  0.00000000000E+00 -0.10891298888E+04  0.10891298888E+04  0.50400001928E-02 0. -1.
    10030    2    1    2    0    0  0.00000000000E+00  0.00000000000E+00 -0.86044446028E+03  0.13178153174E+04  0.99813453084E+03 0.  0.
        1    1    3    3  502    0 -0.26986183288E+03  0.29992120318E+03 -0.42388389211E+02  0.40567833628E+03  0.50400001928E-02 0.  1.
       -1    1    3    3    0  502  0.26986183288E+03 -0.29992120318E+03 -0.81805607107E+03  0.91213698116E+03  0.50400001928E-02 0. -1.
</event>
<event>
 5   0  0.1656859E-02  0.1001678E+04  0.7818609E-02  0.9306706E-01
       -2   -1    0    0    0  501  0.00000000000E+00  0.00000000000E+00  0.86124669789E+03  0.86124669789E+03  0.25500000920E-02 0. -1.
        2   -1    0    0  501    0  0.00000000000E+00  0.00000000000E+00 -0.29125197649E+03  0.29125197651E+03  0.25500000920E-02 0.  1.
    10030    2    1    2    0    0  0.00000000000E+00  0.00000000000E+00  0.56999472139E+03  0.11524986744E+04  0.10016781979E+04 0.  0.
        4    1    3    3  502    0  0.15598927626E+03 -0.35296736614E+03  0.65231434810E+03  0.75791439986E+03  0.12699999809E+01 0. -1.
       -4    1    3    3    0  502 -0.15598927626E+03  0.35296736614E+03 -0.82319626709E+02  0.39458427454E+03  0.12699999809E+01 0.  1.
</event>
<event>
 5   0  0.9507815E-03  0.9391065E+03  0.7818609E-02  0.9377975E-01
        1   -1    0    0  501    0  0.00000000000E+00  0.00000000000E+00  0.91231581700E+03  0.91231581701E+03  0.50400001928E-02 0.  1.
       -1   -1    0    0    0  501  0.00000000000E+00  0.00000000000E+00 -0.24167095407E+03  0.24167095412E+03  0.50400001928E-02 0. -1.
    10030    2    1    2    0    0  0.00000000000E+00  0.00000000000E+00  0.67064486293E+03  0.11539867711E+04  0.93910645604E+03 0.  0.
        1    1    3    3  502    0 -0.33684046877E+03 -0.32603908772E+03  0.30241302799E+03  0.55786793029E+03  0.50400001928E-02 0. -1.
       -1    1    3    3    0  502  0.33684046877E+03  0.32603908772E+03  0.36823183494E+03  0.59611884084E+03  0.50400001928E-02 0.  1.
</event>
<event>
 5   0  0.1656859E-02  0.1015065E+04  0.7818609E-02  0.9292175E-01
       -2   -1    0    0    0  501  0.00000000000E+00  0.00000000000E+00  0.23673391916E+03  0.23673391917E+03  0.25500000920E-02 0.  1.
        2   -1    0    0  501    0  0.00000000000E+00  0.00000000000E+00 -0.10880956161E+04  0.10880956161E+04  0.25500000920E-02 0. -1.
    10030    2    1    2    0    0  0.00000000000E+00  0.00000000000E+00 -0.85136169695E+03  0.13248295353E+04  0.10150648051E+04 0.  0.
        4    1    3    3  502    0  0.17526029298E+03 -0.24393330835E+03 -0.95963296444E+03  0.10055429720E+04  0.12699999809E+01 0. -1.
       -4    1    3    3    0  502 -0.17526029298E+03  0.24393330835E+03  0.10827126749E+03  0.31928656327E+03  0.12699999809E+01 0.  1.
</event>
<event>
 5   0  0.1617721E-02  0.9433195E+03  0.7818609E-02  0.9372993E-01
        2   -1    0    0  501    0  0.00000000000E+00  0.00000000000E+00  0.90695294178E+03  0.90695294178E+03  0.25500000920E-02 0.  1.
       -2   -1    0    0    0  501  0.00000000000E+00  0.00000000000E+00 -0.24528608990E+03  0.24528608991E+03  0.25500000920E-02 0. -1.
    10030    2    1    2    0    0  0.00000000000E+00  0.00000000000E+00  0.66166685188E+03  0.11522390317E+04  0.94331954463E+03 0.  0.
        5    1    3    3  502    0  0.11136790280E+02  0.44578183228E+03  0.14320560069E+03  0.46837528133E+03  0.46999998093E+01 0. -1.
       -5    1    3    3    0  502 -0.11136790280E+02 -0.44578183228E+03  0.51846125119E+03  0.68386375037E+03  0.46999998093E+01 0.  1.
</event>
<event>
 5   0  0.9471140E-03  0.1140978E+04  0.7818609E-02  0.9166147E-01
        1   -1    0    0  501    0  0.00000000000E+00  0.00000000000E+00  0.49389598254E+03  0.49389598257E+03  0.50400001928E-02 0.  1.
       -1   -1    0    0    0  501  0.00000000000E+00  0.00000000000E+00 -0.65896040018E+03  0.65896040020E+03  0.50400001928E-02 0. -1.
    10030    2    1    2    0    0  0.00000000000E+00  0.00000000000E+00 -0.16506441763E+03  0.11528563828E+04  0.11409783422E+04 0.  0.
        4    1    3    3  502    0 -0.34256487594E+03  0.19336745179E+03 -0.50000979145E+03  0.63620206702E+03  0.12699999809E+01 0. -1.
       -4    1    3    3    0  502  0.34256487594E+03 -0.19336745179E+03  0.33494537381E+03  0.51665431575E+03  0.12699999809E+01 0.  1.
</event>
<event>
 5   0  0.1617721E-02  0.1028840E+04  0.7818609E-02  0.9277468E-01
       -2   -1    0    0    0  501  0.00000000000E+00  0.00000000000E+00  0.35125362210E+03  0.35125362211E+03  0.25500000920E-02 0.  1.
        2   -1    0    0  501    0  0.00000000000E+00  0.00000000000E+00 -0.75338090574E+03  0.75338090574E+03  0.25500000920E-02 0. -1.
    10030    2    1    2    0    0  0.00000000000E+00  0.00000000000E+00 -0.40212728364E+03  0.11046345278E+04  0.10288396804E+04 0.  0.
        5    1    3    3  502    0 -0.43638111595E+03  0.25731380818E+03 -0.29689619883E+03  0.58720381225E+03  0.46999998093E+01 0. -1.
       -5    1    3    3    0  502  0.43638111595E+03 -0.25731380818E+03 -0.10523108481E+03  0.51743071560E+03  0.46999998093E+01 0.  1.
</event>
<event>
 5   0  0.6314750E-03  0.9975107E+03  0.7818609E-02  0.9311279E-01
        4   -1    0    0  501    0  0.00000000000E+00  0.00000000000E+00  0.24420898769E+03  0.24421228996E+03  0.12699999809E+01 0. -1.
       -4   -1    0    0    0  501  0.00000000000E+00  0.00000000000E+00 -0.10186123545E+04  0.10186131462E+04  0.12699999809E+01 0.  1.
    10030    2    1    2    0    0  0.00000000000E+00  0.00000000000E+00 -0.77440336684E+03  0.12628254362E+04  0.99751065546E+03 0.  0.
        3    1    3    3  502    0 -0.47031092407E+03  0.16419561586E+03 -0.35608075835E+03  0.61232841044E+03  0.10100000352E+00 0.  1.
       -3    1    3    3    0  502  0.47031092407E+03 -0.16419561586E+03 -0.41832260848E+03  0.65049702577E+03  0.10100000352E+00 0. -1.
</event>
<event>
 5   0  0.1571895E-02  0.9185671E+03  0.7818609E-02  0.9402665E-01
       -2   -1    0    0    0  501  0.00000000000E+00  0.00000000000E+00  0.28714502013E+03  0.28714502014E+03  0.25500000920E-02 0.  1.
        2   -1    0    0  501    0  0.00000000000E+00  0.00000000000E+00 -0.73461625330E+03  0.73461625330E+03  0.25500000920E-02 0. -1.
    10030    2    1    2    0    0  0.00000000000E+00  0.00000000000E+00 -0.44747123317E+03  0.10217612734E+04  0.91856714256E+03 0.  0.
        2    1    3    3  502    0 -0.13746473533E+03 -0.21804009641E+03 -0.64657702134E+03  0.69606025718E+03  0.25500000920E-02 0. -1.
       -2    1    3    3    0  502  0.13746473533E+03  0.21804009641E+03  0.19910578816E+03  0.32570101626E+03  0.25500000920E-02 0.  1.
</event>
<event>
 5   0  0.9396660E-03  0.9909997E+03  0.7818609E-02  0.9318472E-01
        1   -1    0    0  501    0  0.00000000000E+00  0.00000000000E+00  0.76851880517E+03  0.76851880519E+03  0.50400001928E-02 0. -1.
       -1   -1    0    0    0  501  0.00000000000E+00  0.00000000000E+00 -0.31947182789E+03  0.31947182793E+03  0.50400001928E-02 0.  1.
    10030    2    1    2    0    0  0.00000000000E+00  0.00000000000E+00  0.44904697729E+03  0.10879906331E+04  0.99099971238E+03 0.  0.
        5    1    3    3  502    0 -0.68733936493E+02 -0.39279774603E+02  0.76150599849E+03  0.76562440560E+03  0.46999998093E+01 0. -1.
       -5    1    3    3    0  502  0.68733936493E+02  0.39279774603E+02 -0.31245902120E+03  0.32236622752E+03  0.46999998093E+01 0.  1.
</event>
</LesHouchesEvents>
