<LesHouchesEvents version="3.0">
<header>
<!--
#*********************************************************************
#                                                                    *
#                        MadGraph5_aMC@NLO                           *
#                                                                    *
#                           Going Beyond                             *
#                                                                    *
#                   http://madgraph.hep.uiuc.edu                     *
#                   http://madgraph.phys.ucl.ac.be                   *
#                   http://amcatnlo.cern.ch                          *
#                                                                    *
#                     The MadGraph5_aMC@NLO team                     *
#                                                                    *
#....................................................................*
#                                                                    *
# This file contains all the information necessary to reproduce      *
# the events generated:                                              *
#                                                                    *
# 1. software version                                                *
# 2. proc_card          : code generation info including model       *
# 3. param_card         : model primary parameters in the LH format  *
# 4. run_card           : running parameters (collider and cuts)     *
# 5. pythia_card        : present only if pythia has been run        *
# 6. pgs_card           : present only if pgs has been run           *
# 7. delphes_cards      : present only if delphes has been run       *
#                                                                    *
#                                                                    *
#*********************************************************************
-->
<MGVersion>
#5.2.2.3
</MGVersion>
<MG5ProcCard>
#************************************************************
#*                     MadGraph5_aMC@NLO                    *
#*                                                          *
#*                *                       *                 *
#*                  *        * *        *                   *
#*                    * * * * 5 * * * *                     *
#*                  *        * *        *                   *
#*                *                       *                 *
#*                                                          *
#*                                                          *
#*         VERSION 2.2.3                 2015-02-10         *
#*                                                          *
#*    The MadGraph5_aMC@NLO Development Team - Find us at   *
#*    https://server06.fynu.ucl.ac.be/projects/madgraph     *
#*                                                          *
#************************************************************
#*                                                          *
#*               Command File for MadGraph5_aMC@NLO         *
#*                                                          *
#*     run as ./bin/mg5_aMC  filename                       *
#*                                                          *
#************************************************************
set group_subprocesses Auto
set ignore_six_quark_processes False
set loop_optimized_output True
set gauge unitary
set complex_mass_scheme False
import model sm
define p = g u c d s u~ c~ d~ s~
define j = g u c d s u~ c~ d~ s~
define l+ = e+ mu+
define l- = e- mu-
define vl = ve vm vt
define vl~ = ve~ vm~ vt~
import model Zprime_UFO
generate p p > zph, zph > j j
add process p p > zph, zph > b b~
output Dijet_signal
</MG5ProcCard>
<MGProcCard>
#*********************************************************************
#                        MadGraph/MadEvent                           *
#                   http://madgraph.hep.uiuc.edu                     *
#                                                                    *
#                          proc_card.dat                             *
#*********************************************************************
#                                                                    *
#            This Files is generated by MADGRAPH 5                   *
#                                                                    *
# WARNING: This Files is generated for MADEVENT (compatibility issue)*
#          This files is NOT a valid MG4 proc_card.dat               *
#          Running this in MG4 will NEVER reproduce the result of MG5*
#                                                                    *
#*********************************************************************
#*********************************************************************
# Process(es) requested : mg2 input                                  *
#*********************************************************************
# Begin PROCESS # This is TAG. Do not modify this line
p p > zph , zph > j j           #Process
# Be carefull the coupling are here in MG5 convention
          
end_coup           # End the couplings input

done               # this tells MG there are no more procs
# End PROCESS  # This is TAG. Do not modify this line
#*********************************************************************
# Model information                                                  *
#*********************************************************************
# Begin MODEL  # This is TAG. Do not modify this line
Zprime_UFO
# End   MODEL  # This is TAG. Do not modify this line
#*********************************************************************
# Start multiparticle definitions                                    *
#*********************************************************************
# Begin MULTIPARTICLES # This is TAG. Do not modify this line

# End  MULTIPARTICLES # This is TAG. Do not modify this line
</MGProcCard>
<MGRunCard>
#*********************************************************************
#                       MadGraph5_aMC@NLO                            *
#                                                                    *
#                     run_card.dat MadEvent                          *
#                                                                    *
#  This file is used to set the parameters of the run.               *
#                                                                    *
#  Some notation/conventions:                                        *
#                                                                    *
#   Lines starting with a '# ' are info or comments                  *
#                                                                    *
#   mind the format:   value    = variable     ! comment             *
#*********************************************************************
#
#*******************                                                 
# Running parameters
#*******************                                                 
#                                                                    
#*********************************************************************
# Tag name for the run (one word)                                    *
#*********************************************************************
  tag_1     = run_tag ! name of the run 
#*********************************************************************
# Run to generate the grid pack                                      *
#*********************************************************************
  .false.     = gridpack  !True = setting up the grid pack
#*********************************************************************
# Number of events and rnd seed                                      *
# Warning: Do not generate more than 1M events in a single run       *
# If you want to run Pythia, avoid more than 50k events in a run.    *
#*********************************************************************
  2000 = nevents ! Number of unweighted events requested 
 1110 = iseed   ! rnd seed (0=assigned automatically=default))
#*********************************************************************
# Collider type and energy                                           *
# lpp: 0=No PDF, 1=proton, -1=antiproton, 2=photon from proton,      *
#                                         3=photon from electron     *
#*********************************************************************
        1     = lpp1    ! beam 1 type 
        1     = lpp2    ! beam 2 type
     4000     = ebeam1  ! beam 1 total energy in GeV
     4000     = ebeam2  ! beam 2 total energy in GeV
#*********************************************************************
# Beam polarization from -100 (left-handed) to 100 (right-handed)    *
#*********************************************************************
        0     = polbeam1 ! beam polarization for beam 1
        0     = polbeam2 ! beam polarization for beam 2
#*********************************************************************
# PDF CHOICE: this automatically fixes also alpha_s and its evol.    *
#*********************************************************************
 'nn23lo1'    = pdlabel     ! PDF set                                     
 230000    = lhaid     ! if pdlabel=lhapdf, this is the lhapdf number
#*********************************************************************
# Renormalization and factorization scales                           *
#*********************************************************************
 F        = fixed_ren_scale  ! if .true. use fixed ren scale
 F        = fixed_fac_scale  ! if .true. use fixed fac scale
 91.1880  = scale            ! fixed ren scale
 91.1880  = dsqrt_q2fact1    ! fixed fact scale for pdf1
 91.1880  = dsqrt_q2fact2    ! fixed fact scale for pdf2
 1        = scalefact        ! scale factor for event-by-event scales
#*********************************************************************
# Matching - Warning! ickkw > 1 is still beta
#*********************************************************************
 0        = ickkw            ! 0 no matching, 1 MLM, 2 CKKW matching
 1        = highestmult      ! for ickkw=2, highest mult group
 1        = ktscheme         ! for ickkw=1, 1 Durham kT, 2 Pythia pTE
 1        = alpsfact         ! scale factor for QCD emission vx
 F        = chcluster        ! cluster only according to channel diag
 T        = pdfwgt           ! for ickkw=1, perform pdf reweighting
 5        = asrwgtflavor     ! highest quark flavor for a_s reweight
 T        = clusinfo         ! include clustering tag in output
 3.0      = lhe_version       ! Change the way clustering information pass to shower.        
#*********************************************************************
#**********************************************************
#
#**********************************************************
# Automatic ptj and mjj cuts if xqcut > 0
# (turn off for VBF and single top processes)
#**********************************************************
   T  = auto_ptj_mjj  ! Automatic setting of ptj and mjj
#**********************************************************
#                                                                    
#**********************************
# BW cutoff (M+/-bwcutoff*Gamma)
#**********************************
  15  = bwcutoff      ! (M+/-bwcutoff*Gamma)
#**********************************************************
# Apply pt/E/eta/dr/mij cuts on decay products or not
# (note that etmiss/ptll/ptheavy/ht/sorted cuts always apply)
#**********************************************************
   T  = cut_decays    ! Cut decay products 
#*************************************************************
# Number of helicities to sum per event (0 = all helicities)
# 0 gives more stable result, but longer run time (needed for
# long decay chains e.g.).
# Use >=2 if most helicities contribute, e.g. pure QCD.
#*************************************************************
   0  = nhel          ! Number of helicities used per event
#*******************                                                 
# Standard Cuts
#*******************                                                 
#                                                                    
#*********************************************************************
# Minimum and maximum pt's (for max, -1 means no cut)                *
#*********************************************************************
 20  = ptj       ! minimum pt for the jets 
  0  = ptb       ! minimum pt for the b 
 10  = pta       ! minimum pt for the photons 
 10  = ptl       ! minimum pt for the charged leptons 
  0  = misset    ! minimum missing Et (sum of neutrino's momenta)
  0  = ptheavy   ! minimum pt for one heavy final state
 1.0 = ptonium   ! minimum pt for the quarkonium states
 -1  = ptjmax    ! maximum pt for the jets
 -1  = ptbmax    ! maximum pt for the b
 -1  = ptamax    ! maximum pt for the photons
 -1  = ptlmax    ! maximum pt for the charged leptons
 -1  = missetmax ! maximum missing Et (sum of neutrino's momenta)
#*********************************************************************
# Minimum and maximum E's (in the center of mass frame)              *
#*********************************************************************
  0  = ej     ! minimum E for the jets 
  0  = eb     ! minimum E for the b 
  0  = ea     ! minimum E for the photons 
  0  = el     ! minimum E for the charged leptons 
 -1   = ejmax ! maximum E for the jets
 -1   = ebmax ! maximum E for the b
 -1   = eamax ! maximum E for the photons
 -1   = elmax ! maximum E for the charged leptons
#*********************************************************************
# Maximum and minimum absolute rapidity (for max, -1 means no cut)   *
#*********************************************************************
   5  = etaj    ! max rap for the jets 
  -1  = etab    ! max rap for the b
 2.5  = etaa    ! max rap for the photons 
 2.5  = etal    ! max rap for the charged leptons 
 0.6  = etaonium ! max rap for the quarkonium states
   0  = etajmin ! min rap for the jets
   0  = etabmin ! min rap for the b
   0  = etaamin ! min rap for the photons
   0  = etalmin ! main rap for the charged leptons
#*********************************************************************
# Minimum and maximum DeltaR distance                                *
#*********************************************************************
 0.4 = drjj    ! min distance between jets 
 0   = drbb    ! min distance between b's 
 0.4 = drll    ! min distance between leptons 
 0.4 = draa    ! min distance between gammas 
 0   = drbj    ! min distance between b and jet 
 0.4 = draj    ! min distance between gamma and jet 
 0.4 = drjl    ! min distance between jet and lepton 
 0   = drab    ! min distance between gamma and b 
 0   = drbl    ! min distance between b and lepton 
 0.4 = dral    ! min distance between gamma and lepton 
 -1  = drjjmax ! max distance between jets
 -1  = drbbmax ! max distance between b's
 -1  = drllmax ! max distance between leptons
 -1  = draamax ! max distance between gammas
 -1  = drbjmax ! max distance between b and jet
 -1  = drajmax ! max distance between gamma and jet
 -1  = drjlmax ! max distance between jet and lepton
 -1  = drabmax ! max distance between gamma and b
 -1  = drblmax ! max distance between b and lepton
 -1  = dralmax ! maxdistance between gamma and lepton
#*********************************************************************
# Minimum and maximum invariant mass for pairs                       *
# WARNING: for four lepton final state mmll cut require to have      *
#          different lepton masses for each flavor!                  *           
#*********************************************************************
 0   = mmjj    ! min invariant mass of a jet pair 
 0   = mmbb    ! min invariant mass of a b pair 
 0   = mmaa    ! min invariant mass of gamma gamma pair
 0   = mmll    ! min invariant mass of l+l- (same flavour) lepton pair
 -1  = mmjjmax ! max invariant mass of a jet pair
 -1  = mmbbmax ! max invariant mass of a b pair
 -1  = mmaamax ! max invariant mass of gamma gamma pair
 -1  = mmllmax ! max invariant mass of l+l- (same flavour) lepton pair
#*********************************************************************
# Minimum and maximum invariant mass for all letpons                 *
#*********************************************************************
 0   = mmnl    ! min invariant mass for all letpons (l+- and vl) 
 -1  = mmnlmax ! max invariant mass for all letpons (l+- and vl) 
#*********************************************************************
# Minimum and maximum pt for 4-momenta sum of leptons                *
#*********************************************************************
 0   = ptllmin  ! Minimum pt for 4-momenta sum of leptons(l and vl)
 -1  = ptllmax  ! Maximum pt for 4-momenta sum of leptons(l and vl)
#*********************************************************************
# Inclusive cuts                                                     *
#*********************************************************************
 0  = xptj ! minimum pt for at least one jet  
 0  = xptb ! minimum pt for at least one b 
 0  = xpta ! minimum pt for at least one photon 
 0  = xptl ! minimum pt for at least one charged lepton 
#*********************************************************************
# Control the pt's of the jets sorted by pt                          *
#*********************************************************************
 0   = ptj1min ! minimum pt for the leading jet in pt
 0   = ptj2min ! minimum pt for the second jet in pt
 0   = ptj3min ! minimum pt for the third jet in pt
 0   = ptj4min ! minimum pt for the fourth jet in pt
 -1  = ptj1max ! maximum pt for the leading jet in pt 
 -1  = ptj2max ! maximum pt for the second jet in pt
 -1  = ptj3max ! maximum pt for the third jet in pt
 -1  = ptj4max ! maximum pt for the fourth jet in pt
 0   = cutuse  ! reject event if fails any (0) / all (1) jet pt cuts
#*********************************************************************
# Control the pt's of leptons sorted by pt                           *
#*********************************************************************
 0   = ptl1min ! minimum pt for the leading lepton in pt
 0   = ptl2min ! minimum pt for the second lepton in pt
 0   = ptl3min ! minimum pt for the third lepton in pt
 0   = ptl4min ! minimum pt for the fourth lepton in pt
 -1  = ptl1max ! maximum pt for the leading lepton in pt 
 -1  = ptl2max ! maximum pt for the second lepton in pt
 -1  = ptl3max ! maximum pt for the third lepton in pt
 -1  = ptl4max ! maximum pt for the fourth lepton in pt
#*********************************************************************
# Control the Ht(k)=Sum of k leading jets                            *
#*********************************************************************
 0   = htjmin ! minimum jet HT=Sum(jet pt)
 -1  = htjmax ! maximum jet HT=Sum(jet pt)
 0   = ihtmin  !inclusive Ht for all partons (including b)
 -1  = ihtmax  !inclusive Ht for all partons (including b)
 0   = ht2min ! minimum Ht for the two leading jets
 0   = ht3min ! minimum Ht for the three leading jets
 0   = ht4min ! minimum Ht for the four leading jets
 -1  = ht2max ! maximum Ht for the two leading jets
 -1  = ht3max ! maximum Ht for the three leading jets
 -1  = ht4max ! maximum Ht for the four leading jets
#***********************************************************************
# Photon-isolation cuts, according to hep-ph/9801442                   *
# When ptgmin=0, all the other parameters are ignored                  *
# When ptgmin>0, pta and draj are not going to be used                 *
#***********************************************************************
   0 = ptgmin ! Min photon transverse momentum
 0.4 = R0gamma ! Radius of isolation code
 1.0 = xn ! n parameter of eq.(3.4) in hep-ph/9801442
 1.0 = epsgamma ! epsilon_gamma parameter of eq.(3.4) in hep-ph/9801442
 .true. = isoEM ! isolate photons from EM energy (photons and leptons)
#*********************************************************************
# WBF cuts                                                           *
#*********************************************************************
 0   = xetamin ! minimum rapidity for two jets in the WBF case  
 0   = deltaeta ! minimum rapidity for two jets in the WBF case 
#*********************************************************************
# KT DURHAM CUT                                                      *
#*********************************************************************
 -1    =  ktdurham        
 0.4  =  dparameter 
#*********************************************************************
# maximal pdg code for quark to be considered as a light jet         *
# (otherwise b cuts are applied)                                     *
#*********************************************************************
 4 = maxjetflavor    ! Maximum jet pdg code
#*********************************************************************
# Jet measure cuts                                                   *
#*********************************************************************
 0   = xqcut   ! minimum kt jet measure between partons
#*********************************************************************
#
#*********************************************************************
# Store info for systematics studies                                 *
# WARNING: If use_syst is T, matched Pythia output is                *
#          meaningful ONLY if plotted taking matchscale              *
#          reweighting into account!                                 *
#*********************************************************************
   F  = use_syst      ! Enable systematics studies
#
#**************************************
# Parameter of the systematics study
#  will be used by SysCalc (if installed)
#**************************************                                  
#
0.5 1 2 = sys_scalefact  # factorization/renormalization scale factor
0.5 1 2 = sys_alpsfact  # \alpha_s emission scale factors
30 50 = sys_matchscale # variation of merging scale
# PDF sets and number of members (0 or none for all members).
CT10nlo.LHgrid = sys_pdf # matching scales
# MSTW2008nlo68cl.LHgrid 1  = sys_pdf
</MGRunCard>
<slha>
######################################################################
## PARAM_CARD AUTOMATICALY GENERATED BY MG5 FOLLOWING UFO MODEL   ####
######################################################################
##                                                                  ##
##  Width set on Auto will be computed following the information    ##
##        present in the decay.py files of the model.               ##
##        See  arXiv:1402.1178 for more details.                    ##
##                                                                  ##
######################################################################

###################################
## INFORMATION FOR CKMBLOCK
###################################
Block ckmblock 
    1 2.277360e-01 # cabi 

###################################
## INFORMATION FOR FRBLOCK
###################################
Block frblock 
    1 4.000000e-01 # gz 

###################################
## INFORMATION FOR MASS
###################################
Block mass 
    1 5.040000e-03 # MD 
    2 2.550000e-03 # MU 
    3 1.010000e-01 # MS 
    4 1.270000e+00 # MC 
    5 4.700000e+00 # MB 
    6 1.720000e+02 # MT 
   11 5.110000e-04 # Me 
   13 1.056600e-01 # MM 
   15 1.777000e+00 # MTA 
   23 9.118760e+01 # MZ 
   25 1.200000e+02 # MH 
  10030 3.700000e+03 # MZph 
  10031 3.000000e+02 # MZpl 
## Dependent parameters, given by model restrictions.
## Those values should be edited following the 
## analytical expression. MG5 ignores those values 
## but they are important for interfacing the output of MG5
## to external program such as Pythia.
  12 0.000000 # ve : 0.0 
  14 0.000000 # vm : 0.0 
  16 0.000000 # vt : 0.0 
  21 0.000000 # g : 0.0 
  22 0.000000 # a : 0.0 
  24 79.824360 # w+ : cmath.sqrt(MZ__exp__2/2. + cmath.sqrt(MZ__exp__4/4. - (aEW*cmath.pi*MZ__exp__2)/(Gf*sqrt__2))) 

###################################
## INFORMATION FOR SMINPUTS
###################################
Block sminputs 
    1 1.279000e+02 # aEWM1 
    2 1.166370e-05 # Gf 
    3 1.184000e-01 # aS 

###################################
## INFORMATION FOR YUKAWA
###################################
Block yukawa 
    1 5.040000e-03 # ymdo 
    2 2.550000e-03 # ymup 
    3 1.010000e-01 # yms 
    4 1.270000e+00 # ymc 
    5 4.700000e+00 # ymb 
    6 1.720000e+02 # ymt 
   11 5.110000e-04 # yme 
   13 1.056600e-01 # ymm 
   15 1.777000e+00 # ymtau 

###################################
## INFORMATION FOR DECAY
###################################
DECAY   6 1.508336e+00 # WT 
DECAY  23 2.495200e+00 # WZ 
DECAY  24 2.085000e+00 # WW 
DECAY  25 5.753088e-03 # WH 
## Dependent parameters, given by model restrictions.
## Those values should be edited following the 
## analytical expression. MG5 ignores those values 
## but they are important for interfacing the output of MG5
## to external program such as Pythia.
DECAY  1 0.000000 # d : 0.0 
DECAY  2 0.000000 # u : 0.0 
DECAY  3 0.000000 # s : 0.0 
DECAY  4 0.000000 # c : 0.0 
DECAY  5 0.000000 # b : 0.0 
DECAY  11 0.000000 # e- : 0.0 
DECAY  12 0.000000 # ve : 0.0 
DECAY  13 0.000000 # mu- : 0.0 
DECAY  14 0.000000 # vm : 0.0 
DECAY  15 0.000000 # ta- : 0.0 
DECAY  16 0.000000 # vt : 0.0 
DECAY  21 0.000000 # g : 0.0 
DECAY  22 0.000000 # a : 0.0 
DECAY  10030 0.308725 # zph : (gz__exp__2*MZph*(5 + cmath.sqrt(1 - (4*MT__exp__2)/MZph__exp__2)))/(144.*cmath.pi) 
DECAY  10031 0.132629 # zpl : (5*gz__exp__2*MZpl)/(144.*cmath.pi) 
#===========================================================
# QUANTUM NUMBERS OF NEW STATE(S) (NON SM PDG CODE)
#===========================================================

Block QNUMBERS 10030  # zph 
        1 0  # 3 times electric charge
        2 3  # number of spin states (2S+1)
        3 1  # colour rep (1: singlet, 3: triplet, 8: octet)
        4 0  # Particle/Antiparticle distinction (0=own anti)
Block QNUMBERS 10031  # zpl 
        1 0  # 3 times electric charge
        2 3  # number of spin states (2S+1)
        3 1  # colour rep (1: singlet, 3: triplet, 8: octet)
        4 0  # Particle/Antiparticle distinction (0=own anti)
</slha>
## END BANNER##
<MGGenerationInfo>
#  Number of Events        :         3865
#  Integrated weight (pb)  :  0.18256E-04
#  Max wgt                 :  0.73628E-08
#  Average wgt             :  0.47234E-08
</MGGenerationInfo>
</header>
<init>
     2212     2212  0.40000000000E+04  0.40000000000E+04 0 0  247000  247000 2   1
  0.18275654430E-04  0.41772924411E-07  0.73628170000E-08   0
</init>
<event>
 5   0  0.7362817E-08  0.3692614E+04  0.7818609E-02  0.8069601E-01
        2   -1    0    0  501    0  0.00000000000E+00  0.00000000000E+00  0.26392100326E+04  0.26392100326E+04  0.25500000920E-02 0.  1.
       -2   -1    0    0    0  501  0.00000000000E+00  0.00000000000E+00 -0.12916173337E+04  0.12916173337E+04  0.25500000920E-02 0. -1.
    10030    2    1    2    0    0  0.00000000000E+00  0.00000000000E+00  0.13475926989E+04  0.39308273663E+04  0.36926139389E+04 0.  0.
        1    1    3    3  502    0 -0.11011817273E+01 -0.98382895450E+03  0.23369318047E+04  0.25355809756E+04  0.50400001928E-02 0.  1.
       -1    1    3    3    0  502  0.11011817273E+01  0.98382895450E+03 -0.98933910580E+03  0.13952463906E+04  0.50400001928E-02 0. -1.
</event>
<event>
 5   0  0.7362817E-08  0.3704367E+04  0.7818609E-02  0.8066995E-01
        2   -1    0    0  501    0  0.00000000000E+00  0.00000000000E+00  0.14460235771E+04  0.14460235771E+04  0.25500000920E-02 0.  1.
       -2   -1    0    0    0  501  0.00000000000E+00  0.00000000000E+00 -0.23724252494E+04  0.23724252495E+04  0.25500000920E-02 0. -1.
    10030    2    1    2    0    0  0.00000000000E+00  0.00000000000E+00 -0.92640167238E+03  0.38184488265E+04  0.37043665291E+04 0.  0.
        1    1    3    3  502    0 -0.16933286238E+04 -0.11270237651E+02  0.31030478270E+03  0.17215626345E+04  0.50400001928E-02 0.  1.
       -1    1    3    3    0  502  0.16933286238E+04  0.11270237651E+02 -0.12367064551E+04  0.20968861920E+04  0.50400001928E-02 0. -1.
</event>
<event>
 5   0  0.7254493E-08  0.3701722E+04  0.7818609E-02  0.8067580E-01
        2   -1    0    0  501    0  0.00000000000E+00  0.00000000000E+00  0.28997203139E+04  0.28997203139E+04  0.25500000920E-02 0. -1.
       -2   -1    0    0    0  501  0.00000000000E+00  0.00000000000E+00 -0.11813852447E+04  0.11813852447E+04  0.25500000920E-02 0.  1.
    10030    2    1    2    0    0  0.00000000000E+00  0.00000000000E+00  0.17183350692E+04  0.40811055587E+04  0.37017221899E+04 0.  0.
        3    1    3    3  502    0  0.17713455517E+04  0.23615126266E+02  0.14502740846E+04  0.22894361027E+04  0.10100000352E+00 0. -1.
       -3    1    3    3    0  502 -0.17713455517E+04 -0.23615126266E+02  0.26806098457E+03  0.17916694560E+04  0.10100000352E+00 0.  1.
</event>
<event>
 5   0  0.7362817E-08  0.3697304E+04  0.7818609E-02  0.8068559E-01
        2   -1    0    0  501    0  0.00000000000E+00  0.00000000000E+00  0.22384143996E+04  0.22384143996E+04  0.25500000920E-02 0.  1.
       -2   -1    0    0    0  501  0.00000000000E+00  0.00000000000E+00 -0.15267569493E+04  0.15267569493E+04  0.25500000920E-02 0. -1.
    10030    2    1    2    0    0  0.00000000000E+00  0.00000000000E+00  0.71165745024E+03  0.37651713489E+04  0.36973042829E+04 0.  0.
        1    1    3    3  502    0 -0.34568445036E+03  0.13680636968E+04 -0.86042187239E+03  0.16527013694E+04  0.50400001928E-02 0.  1.
       -1    1    3    3    0  502  0.34568445036E+03 -0.13680636968E+04  0.15720793226E+04  0.21124699796E+04  0.50400001928E-02 0. -1.
</event>
<event>
 5   0  0.7254493E-08  0.3699537E+04  0.7818609E-02  0.8068064E-01
        2   -1    0    0  501    0  0.00000000000E+00  0.00000000000E+00  0.19768707101E+04  0.19768707101E+04  0.25500000920E-02 0.  1.
       -2   -1    0    0    0  501  0.00000000000E+00  0.00000000000E+00 -0.17308382844E+04  0.17308382844E+04  0.25500000920E-02 0. -1.
    10030    2    1    2    0    0  0.00000000000E+00  0.00000000000E+00  0.24603242567E+03  0.37077089945E+04  0.36995370026E+04 0.  0.
        3    1    3    3  502    0  0.64640886646E+03 -0.16744883771E+04  0.57109187518E+03  0.18835874516E+04  0.10100000352E+00 0.  1.
       -3    1    3    3    0  502 -0.64640886646E+03  0.16744883771E+04 -0.32505944951E+03  0.18241215430E+04  0.10100000352E+00 0. -1.
</event>
<event>
 5   0  0.2282000E-08  0.3696518E+04  0.7818609E-02  0.8068734E-01
        1   -1    0    0  501    0  0.00000000000E+00  0.00000000000E+00  0.12343981681E+04  0.12343981682E+04  0.50400001928E-02 0. -1.
       -1   -1    0    0    0  501  0.00000000000E+00  0.00000000000E+00 -0.27673903186E+04  0.27673903186E+04  0.50400001928E-02 0.  1.
    10030    2    1    2    0    0  0.00000000000E+00  0.00000000000E+00 -0.15329921505E+04  0.40017884868E+04  0.36965181130E+04 0.  0.
        1    1    3    3  502    0 -0.75319781079E+03  0.73692411284E+03  0.87735492945E+03  0.13711731337E+04  0.50400001928E-02 0. -1.
       -1    1    3    3    0  502  0.75319781079E+03 -0.73692411284E+03 -0.24103470799E+04  0.26306153531E+04  0.50400001928E-02 0.  1.
</event>
<event>
 5   0  0.2282000E-08  0.3698871E+04  0.7818609E-02  0.8068212E-01
       -1   -1    0    0    0  501  0.00000000000E+00  0.00000000000E+00  0.19912107857E+04  0.19912107857E+04  0.50400001928E-02 0.  1.
        1   -1    0    0  501    0  0.00000000000E+00  0.00000000000E+00 -0.17177549124E+04  0.17177549124E+04  0.50400001928E-02 0. -1.
    10030    2    1    2    0    0  0.00000000000E+00  0.00000000000E+00  0.27345587326E+03  0.37089656982E+04  0.36988712380E+04 0.  0.
        3    1    3    3  502    0  0.16382859061E+04  0.25021529657E+03  0.95983578482E+03  0.19151692220E+04  0.10100000352E+00 0.  1.
       -3    1    3    3    0  502 -0.16382859061E+04 -0.25021529657E+03 -0.68637991156E+03  0.17937964762E+04  0.10100000352E+00 0. -1.
</event>
<event>
 5   0  0.7362817E-08  0.3706711E+04  0.7818609E-02  0.8066476E-01
        2   -1    0    0  501    0  0.00000000000E+00  0.00000000000E+00  0.16946906302E+04  0.16946906302E+04  0.25500000920E-02 0. -1.
       -2   -1    0    0    0  501  0.00000000000E+00  0.00000000000E+00 -0.20268755711E+04  0.20268755711E+04  0.25500000920E-02 0.  1.
    10030    2    1    2    0    0  0.00000000000E+00  0.00000000000E+00 -0.33218494091E+03  0.37215662014E+04  0.37067112318E+04 0.  0.
        1    1    3    3  502    0  0.77070545164E+03  0.11329772075E+04  0.10868280613E+04  0.17489481070E+04  0.50400001928E-02 0. -1.
       -1    1    3    3    0  502 -0.77070545164E+03 -0.11329772075E+04 -0.14190130022E+04  0.19726180944E+04  0.50400001928E-02 0.  1.
</event>
<event>
 5   0  0.2282000E-08  0.3689472E+04  0.7818609E-02  0.8070299E-01
        1   -1    0    0  501    0  0.00000000000E+00  0.00000000000E+00  0.20890797073E+04  0.20890797074E+04  0.50400001928E-02 0.  1.
       -1   -1    0    0    0  501  0.00000000000E+00  0.00000000000E+00 -0.16289708717E+04  0.16289708717E+04  0.50400001928E-02 0. -1.
    10030    2    1    2    0    0  0.00000000000E+00  0.00000000000E+00  0.46010883564E+03  0.37180505791E+04  0.36894715025E+04 0.  0.
        2    1    3    3  502    0  0.97320657901E+03  0.58693032185E+03  0.16943867666E+04  0.20402364478E+04  0.25500000920E-02 0.  1.
       -2    1    3    3    0  502 -0.97320657901E+03 -0.58693032185E+03 -0.12342779310E+04  0.16778141312E+04  0.25500000920E-02 0. -1.
</event>
<event>
 5   0  0.7362817E-08  0.3698872E+04  0.7818609E-02  0.8068212E-01
       -2   -1    0    0    0  501  0.00000000000E+00  0.00000000000E+00  0.22539708003E+04  0.22539708003E+04  0.25500000920E-02 0.  1.
        2   -1    0    0  501    0  0.00000000000E+00  0.00000000000E+00 -0.15175054336E+04  0.15175054336E+04  0.25500000920E-02 0. -1.
    10030    2    1    2    0    0  0.00000000000E+00  0.00000000000E+00  0.73646536670E+03  0.37714762339E+04  0.36988716856E+04 0.  0.
        1    1    3    3  502    0 -0.12810631310E+04 -0.73807677223E+03  0.15011375392E+04  0.21069632125E+04  0.50400001928E-02 0. -1.
       -1    1    3    3    0  502  0.12810631310E+04  0.73807677223E+03 -0.76467217246E+03  0.16645130214E+04  0.50400001928E-02 0.  1.
</event>
<event>
 5   0  0.2282000E-08  0.3692722E+04  0.7818609E-02  0.8069577E-01
       -1   -1    0    0    0  501  0.00000000000E+00  0.00000000000E+00  0.20413923396E+04  0.20413923396E+04  0.50400001928E-02 0.  1.
        1   -1    0    0  501    0  0.00000000000E+00  0.00000000000E+00 -0.16699627421E+04  0.16699627421E+04  0.50400001928E-02 0. -1.
    10030    2    1    2    0    0  0.00000000000E+00  0.00000000000E+00  0.37142959758E+03  0.37113550817E+04  0.36927221120E+04 0.  0.
        2    1    3    3  502    0  0.12273551943E+04 -0.50285485543E+03  0.14766356163E+04  0.19848719157E+04  0.25500000920E-02 0.  1.
       -2    1    3    3    0  502 -0.12273551943E+04  0.50285485543E+03 -0.11052060187E+04  0.17264831660E+04  0.25500000920E-02 0. -1.
</event>
<event>
 5   0  0.7191801E-08  0.3702427E+04  0.7818609E-02  0.8067424E-01
        2   -1    0    0  501    0  0.00000000000E+00  0.00000000000E+00  0.20884523030E+04  0.20884523030E+04  0.25500000920E-02 0. -1.
       -2   -1    0    0    0  501  0.00000000000E+00  0.00000000000E+00 -0.16409239819E+04  0.16409239819E+04  0.25500000920E-02 0.  1.
    10030    2    1    2    0    0  0.00000000000E+00  0.00000000000E+00  0.44752832112E+03  0.37293762849E+04  0.37024270251E+04 0.  0.
        5    1    3    3  502    0 -0.14922743884E+04 -0.10684542798E+04  0.46737570292E+03  0.18939217344E+04  0.46999998093E+01 0. -1.
       -5    1    3    3    0  502  0.14922743884E+04  0.10684542798E+04 -0.19847381809E+02  0.18354545505E+04  0.46999998093E+01 0.  1.
</event>
<event>
 5   0  0.2282000E-08  0.3703620E+04  0.7818609E-02  0.8067160E-01
       -1   -1    0    0    0  501  0.00000000000E+00  0.00000000000E+00  0.16190617222E+04  0.16190617222E+04  0.50400001928E-02 0.  1.
        1   -1    0    0  501    0  0.00000000000E+00  0.00000000000E+00 -0.21180169028E+04  0.21180169028E+04  0.50400001928E-02 0. -1.
    10030    2    1    2    0    0  0.00000000000E+00  0.00000000000E+00 -0.49895518067E+03  0.37370786250E+04  0.37036199018E+04 0.  0.
        5    1    3    3  502    0  0.14598878939E+04 -0.88616782060E+03  0.47295974620E+03  0.17720832601E+04  0.46999998093E+01 0.  1.
       -5    1    3    3    0  502 -0.14598878939E+04  0.88616782060E+03 -0.97191492687E+03  0.19649953649E+04  0.46999998093E+01 0. -1.
</event>
<event>
 5   0  0.2282000E-08  0.3699055E+04  0.7818609E-02  0.8068171E-01
       -1   -1    0    0    0  501  0.00000000000E+00  0.00000000000E+00  0.11156703726E+04  0.11156703726E+04  0.50400001928E-02 0. -1.
        1   -1    0    0  501    0  0.00000000000E+00  0.00000000000E+00 -0.30660953701E+04  0.30660953701E+04  0.50400001928E-02 0.  1.
    10030    2    1    2    0    0  0.00000000000E+00  0.00000000000E+00 -0.19504249975E+04  0.41817657427E+04  0.36990548868E+04 0.  0.
        1    1    3    3  502    0 -0.68207087782E+03  0.61371435577E+03 -0.27906653652E+04  0.29376315585E+04  0.50400001928E-02 0.  1.
       -1    1    3    3    0  502  0.68207087782E+03 -0.61371435577E+03  0.84024036769E+03  0.12441341842E+04  0.50400001928E-02 0. -1.
</event>
<event>
 5   0  0.2282000E-08  0.3698400E+04  0.7818609E-02  0.8068316E-01
        1   -1    0    0  501    0  0.00000000000E+00  0.00000000000E+00  0.21142468352E+04  0.21142468352E+04  0.50400001928E-02 0.  1.
       -1   -1    0    0    0  501  0.00000000000E+00  0.00000000000E+00 -0.16173804307E+04  0.16173804307E+04  0.50400001928E-02 0. -1.
    10030    2    1    2    0    0  0.00000000000E+00  0.00000000000E+00  0.49686640453E+03  0.37316272660E+04  0.36984004418E+04 0.  0.
        3    1    3    3  502    0 -0.76574670330E+03  0.23852441573E+03  0.19296198084E+04  0.20896637350E+04  0.10100000352E+00 0.  1.
       -3    1    3    3    0  502  0.76574670330E+03 -0.23852441573E+03 -0.14327534038E+04  0.16419635309E+04  0.10100000352E+00 0. -1.
</event>
<event>
 5   0  0.2282000E-08  0.3695837E+04  0.7818609E-02  0.8068885E-01
        1   -1    0    0  501    0  0.00000000000E+00  0.00000000000E+00  0.13792631267E+04  0.13792631268E+04  0.50400001928E-02 0.  1.
       -1   -1    0    0    0  501  0.00000000000E+00  0.00000000000E+00 -0.24758166675E+04  0.24758166675E+04  0.50400001928E-02 0. -1.
    10030    2    1    2    0    0  0.00000000000E+00  0.00000000000E+00 -0.10965535407E+04  0.38550797942E+04  0.36958369217E+04 0.  0.
        3    1    3    3  502    0 -0.44859172802E+02  0.24320786731E+03 -0.24584766192E+04  0.24708843983E+04  0.10100000352E+00 0. -1.
       -3    1    3    3    0  502  0.44859172802E+02 -0.24320786731E+03  0.13619230785E+04  0.13841953959E+04  0.10100000352E+00 0.  1.
</event>
<event>
 5   0  0.7362817E-08  0.3701428E+04  0.7818609E-02  0.8067645E-01
        2   -1    0    0  501    0  0.00000000000E+00  0.00000000000E+00  0.15244965256E+04  0.15244965256E+04  0.25500000920E-02 0.  1.
       -2   -1    0    0    0  501  0.00000000000E+00  0.00000000000E+00 -0.22467366128E+04  0.22467366128E+04  0.25500000920E-02 0. -1.
    10030    2    1    2    0    0  0.00000000000E+00  0.00000000000E+00 -0.72224008713E+03  0.37712331384E+04  0.37014279192E+04 0.  0.
        1    1    3    3  502    0 -0.22830662113E+02 -0.12127026825E+04 -0.17853279028E+04  0.21583708569E+04  0.50400001928E-02 0. -1.
       -1    1    3    3    0  502  0.22830662113E+02  0.12127026825E+04  0.10630878157E+04  0.16128622815E+04  0.50400001928E-02 0.  1.
</event>
<event>
 5   0  0.2282000E-08  0.3703743E+04  0.7818609E-02  0.8067133E-01
        1   -1    0    0  501    0  0.00000000000E+00  0.00000000000E+00  0.11962886490E+04  0.11962886490E+04  0.50400001928E-02 0. -1.
       -1   -1    0    0    0  501  0.00000000000E+00  0.00000000000E+00 -0.28667235562E+04  0.28667235562E+04  0.50400001928E-02 0.  1.
    10030    2    1    2    0    0  0.00000000000E+00  0.00000000000E+00 -0.16704349072E+04  0.40630122052E+04  0.37037434306E+04 0.  0.
        4    1    3    3  502    0 -0.54076263331E+03 -0.17386861225E+04 -0.12055648757E+04  0.21837678312E+04  0.12699999809E+01 0. -1.
       -4    1    3    3    0  502  0.54076263331E+03  0.17386861225E+04 -0.46487003149E+03  0.18792443740E+04  0.12699999809E+01 0.  1.
</event>
<event>
 5   0  0.2282000E-08  0.3699284E+04  0.7818609E-02  0.8068121E-01
       -1   -1    0    0    0  501  0.00000000000E+00  0.00000000000E+00  0.10929031371E+04  0.10929031371E+04  0.50400001928E-02 0.  1.
        1   -1    0    0  501    0  0.00000000000E+00  0.00000000000E+00 -0.31303557436E+04  0.31303557436E+04  0.50400001928E-02 0. -1.
    10030    2    1    2    0    0  0.00000000000E+00  0.00000000000E+00 -0.20374526066E+04  0.42232588807E+04  0.36992840455E+04 0.  0.
        1    1    3    3  502    0  0.44149602991E+03  0.14080560850E+04  0.25441462613E+03  0.14974202767E+04  0.50400001928E-02 0.  1.
       -1    1    3    3    0  502 -0.44149602991E+03 -0.14080560850E+04 -0.22918672327E+04  0.27258386040E+04  0.50400001928E-02 0. -1.
</event>
<event>
 5   0  0.7309833E-08  0.3699343E+04  0.7818609E-02  0.8068107E-01
        2   -1    0    0  501    0  0.00000000000E+00  0.00000000000E+00  0.34644151838E+04  0.34644151838E+04  0.25500000920E-02 0. -1.
       -2   -1    0    0    0  501  0.00000000000E+00  0.00000000000E+00 -0.98755067749E+03  0.98755067749E+03  0.25500000920E-02 0.  1.
    10030    2    1    2    0    0  0.00000000000E+00  0.00000000000E+00  0.24768645063E+04  0.44519658613E+04  0.36993434887E+04 0.  0.
        2    1    3    3  502    0  0.44847238365E+03 -0.13826501240E+04 -0.13815431876E+03  0.14601148791E+04  0.25500000920E-02 0.  1.
       -2    1    3    3    0  502 -0.44847238365E+03  0.13826501240E+04  0.26150188250E+04  0.29918509822E+04  0.25500000920E-02 0. -1.
</event>
<event>
 5   0  0.2282000E-08  0.3699424E+04  0.7818609E-02  0.8068090E-01
        1   -1    0    0  501    0  0.00000000000E+00  0.00000000000E+00  0.23684836179E+04  0.23684836179E+04  0.50400001928E-02 0. -1.
       -1   -1    0    0    0  501  0.00000000000E+00  0.00000000000E+00 -0.14445674561E+04  0.14445674561E+04  0.50400001928E-02 0.  1.
    10030    2    1    2    0    0  0.00000000000E+00  0.00000000000E+00  0.92391616181E+03  0.38130510741E+04  0.36994239308E+04 0.  0.
        3    1    3    3  502    0  0.17716569385E+04  0.37248043282E+03  0.85298412173E+03  0.20012725708E+04  0.10100000352E+00 0. -1.
       -3    1    3    3    0  502 -0.17716569385E+04 -0.37248043282E+03  0.70932040082E+02  0.18117785033E+04  0.10100000352E+00 0.  1.
</event>
<event>
 5   0  0.7254493E-08  0.3696910E+04  0.7818609E-02  0.8068647E-01
        2   -1    0    0  501    0  0.00000000000E+00  0.00000000000E+00  0.13275522089E+04  0.13275522089E+04  0.25500000920E-02 0.  1.
       -2   -1    0    0    0  501  0.00000000000E+00  0.00000000000E+00 -0.25737488039E+04  0.25737488039E+04  0.25500000920E-02 0. -1.
    10030    2    1    2    0    0  0.00000000000E+00  0.00000000000E+00 -0.12461965950E+04  0.39013010127E+04  0.36969100122E+04 0.  0.
        3    1    3    3  502    0  0.23076171773E+03 -0.81250461530E+03 -0.23581939468E+04  0.25048938941E+04  0.10100000352E+00 0. -1.
       -3    1    3    3    0  502 -0.23076171773E+03  0.81250461530E+03  0.11119973518E+04  0.13964071186E+04  0.10100000352E+00 0.  1.
</event>
<event>
 5   0  0.2282000E-08  0.3704335E+04  0.7818609E-02  0.8067002E-01
        1   -1    0    0  501    0  0.00000000000E+00  0.00000000000E+00  0.20481591126E+04  0.20481591126E+04  0.50400001928E-02 0. -1.
       -1   -1    0    0    0  501  0.00000000000E+00  0.00000000000E+00 -0.16749308445E+04  0.16749308445E+04  0.50400001928E-02 0.  1.
    10030    2    1    2    0    0  0.00000000000E+00  0.00000000000E+00  0.37322826808E+03  0.37230899571E+04  0.37043352290E+04 0.  0.
        1    1    3    3  502    0 -0.30926329030E+03  0.80052860923E+03  0.18362757428E+04  0.20269184592E+04  0.50400001928E-02 0. -1.
       -1    1    3    3    0  502  0.30926329030E+03 -0.80052860923E+03 -0.14630474747E+04  0.16961714979E+04  0.50400001928E-02 0.  1.
</event>
<event>
 5   0  0.7309833E-08  0.3697580E+04  0.7818609E-02  0.8068498E-01
        2   -1    0    0  501    0  0.00000000000E+00  0.00000000000E+00  0.19441844452E+04  0.19441844452E+04  0.25500000920E-02 0.  1.
       -2   -1    0    0    0  501  0.00000000000E+00  0.00000000000E+00 -0.17580764389E+04  0.17580764389E+04  0.25500000920E-02 0. -1.
    10030    2    1    2    0    0  0.00000000000E+00  0.00000000000E+00  0.18610800638E+03  0.37022608841E+04  0.36975802174E+04 0.  0.
        2    1    3    3  502    0  0.54700354207E+03  0.17641860847E+04  0.17352644307E+03  0.18551756906E+04  0.25500000920E-02 0.  1.
       -2    1    3    3    0  502 -0.54700354207E+03 -0.17641860847E+04  0.12581563310E+02  0.18470851935E+04  0.25500000920E-02 0. -1.
</event>
<event>
 5   0  0.2282000E-08  0.3695780E+04  0.7818609E-02  0.8068898E-01
        1   -1    0    0  501    0  0.00000000000E+00  0.00000000000E+00  0.20894701496E+04  0.20894701496E+04  0.50400001928E-02 0.  1.
       -1   -1    0    0    0  501  0.00000000000E+00  0.00000000000E+00 -0.16342407855E+04  0.16342407855E+04  0.50400001928E-02 0. -1.
    10030    2    1    2    0    0  0.00000000000E+00  0.00000000000E+00  0.45522936409E+03  0.37237109352E+04  0.36957799386E+04 0.  0.
        2    1    3    3  502    0  0.26832127780E+03 -0.13793130378E+03 -0.16092585950E+04  0.16372948966E+04  0.25500000920E-02 0. -1.
       -2    1    3    3    0  502 -0.26832127780E+03  0.13793130378E+03  0.20644879591E+04  0.20864160386E+04  0.25500000920E-02 0.  1.
</event>
<event>
 5   0  0.7254493E-08  0.3697196E+04  0.7818609E-02  0.8068584E-01
        2   -1    0    0  501    0  0.00000000000E+00  0.00000000000E+00  0.21145565730E+04  0.21145565730E+04  0.25500000920E-02 0.  1.
       -2   -1    0    0    0  501  0.00000000000E+00  0.00000000000E+00 -0.16160904265E+04  0.16160904265E+04  0.25500000920E-02 0. -1.
    10030    2    1    2    0    0  0.00000000000E+00  0.00000000000E+00  0.49846614658E+03  0.37306469995E+04  0.36971960370E+04 0.  0.
        3    1    3    3  502    0  0.92373930902E+03 -0.46872791951E+03 -0.12957353611E+04  0.16588943034E+04  0.10100000352E+00 0. -1.
       -3    1    3    3    0  502 -0.92373930902E+03  0.46872791951E+03  0.17942015077E+04  0.20717526961E+04  0.10100000352E+00 0.  1.
</event>
<event>
 5   0  0.7191801E-08  0.3697760E+04  0.7818609E-02  0.8068458E-01
       -2   -1    0    0    0  501  0.00000000000E+00  0.00000000000E+00  0.17330113326E+04  0.17330113326E+04  0.25500000920E-02 0.  1.
        2   -1    0    0  501    0  0.00000000000E+00  0.00000000000E+00 -0.19724954040E+04  0.19724954040E+04  0.25500000920E-02 0. -1.
    10030    2    1    2    0    0  0.00000000000E+00  0.00000000000E+00 -0.23948407140E+03  0.37055067365E+04  0.36977598021E+04 0.  0.
        5    1    3    3  502    0  0.75101155689E+03 -0.62410768143E+03 -0.16930012540E+04  0.19544319104E+04  0.46999998093E+01 0. -1.
       -5    1    3    3    0  502 -0.75101155689E+03  0.62410768143E+03  0.14535171826E+04  0.17510748261E+04  0.46999998093E+01 0.  1.
</event>
<event>
 5   0  0.2282000E-08  0.3710075E+04  0.7818609E-02  0.8065733E-01
       -1   -1    0    0    0  501  0.00000000000E+00  0.00000000000E+00  0.13857414834E+04  0.13857414834E+04  0.50400001928E-02 0.  1.
        1   -1    0    0  501    0  0.00000000000E+00  0.00000000000E+00 -0.24832658227E+04  0.24832658227E+04  0.50400001928E-02 0. -1.
    10030    2    1    2    0    0  0.00000000000E+00  0.00000000000E+00 -0.10975243394E+04  0.38690073061E+04  0.37100751824E+04 0.  0.
        2    1    3    3  502    0  0.53352936450E+03 -0.17414629474E+04 -0.18181108244E+03  0.18304103501E+04  0.25500000920E-02 0.  1.
       -2    1    3    3    0  502 -0.53352936450E+03  0.17414629474E+04 -0.91571325691E+03  0.20385969560E+04  0.25500000920E-02 0. -1.
</event>
<event>
 5   0  0.7254493E-08  0.3714631E+04  0.7818609E-02  0.8064727E-01
        2   -1    0    0  501    0  0.00000000000E+00  0.00000000000E+00  0.33736953534E+04  0.33736953534E+04  0.25500000920E-02 0.  1.
       -2   -1    0    0    0  501  0.00000000000E+00  0.00000000000E+00 -0.10225050261E+04  0.10225050261E+04  0.25500000920E-02 0. -1.
    10030    2    1    2    0    0  0.00000000000E+00  0.00000000000E+00  0.23511903273E+04  0.43962003795E+04  0.37146307786E+04 0.  0.
        3    1    3    3  502    0  0.89711641506E+03  0.41617421128E+03 -0.68499645874E+03  0.12030124667E+04  0.10100000352E+00 0. -1.
       -3    1    3    3    0  502 -0.89711641506E+03 -0.41617421128E+03  0.30361867861E+04  0.31931879128E+04  0.10100000352E+00 0.  1.
</event>
<event>
 5   0  0.7362817E-08  0.3704391E+04  0.7818609E-02  0.8066989E-01
        2   -1    0    0  501    0  0.00000000000E+00  0.00000000000E+00  0.23922672515E+04  0.23922672515E+04  0.25500000920E-02 0. -1.
       -2   -1    0    0    0  501  0.00000000000E+00  0.00000000000E+00 -0.14340486676E+04  0.14340486676E+04  0.25500000920E-02 0.  1.
    10030    2    1    2    0    0  0.00000000000E+00  0.00000000000E+00  0.95821858394E+03  0.38263159191E+04  0.37043907270E+04 0.  0.
        1    1    3    3  502    0 -0.15695239549E+04  0.53443878578E+03 -0.37365302319E+03  0.16996019659E+04  0.50400001928E-02 0.  1.
       -1    1    3    3    0  502  0.15695239549E+04 -0.53443878578E+03  0.13318716071E+04  0.21267139532E+04  0.50400001928E-02 0. -1.
</event>
<event>
 5   0  0.2282000E-08  0.3696290E+04  0.7818609E-02  0.8068784E-01
        1   -1    0    0  501    0  0.00000000000E+00  0.00000000000E+00  0.17723556786E+04  0.17723556786E+04  0.50400001928E-02 0. -1.
       -1   -1    0    0    0  501  0.00000000000E+00  0.00000000000E+00 -0.19271755464E+04  0.19271755464E+04  0.50400001928E-02 0.  1.
    10030    2    1    2    0    0  0.00000000000E+00  0.00000000000E+00 -0.15481986781E+03  0.36995312250E+04  0.36962903151E+04 0.  0.
        5    1    3    3  502    0  0.11074594231E+04  0.59878474643E+03 -0.14315962034E+04  0.19064362896E+04  0.46999998093E+01 0.  1.
       -5    1    3    3    0  502 -0.11074594231E+04 -0.59878474643E+03  0.12767763356E+04  0.17930949355E+04  0.46999998093E+01 0. -1.
</event>
<event>
 5   0  0.7254493E-08  0.3703646E+04  0.7818609E-02  0.8067154E-01
       -2   -1    0    0    0  501  0.00000000000E+00  0.00000000000E+00  0.14629134163E+04  0.14629134163E+04  0.25500000920E-02 0.  1.
        2   -1    0    0  501    0  0.00000000000E+00  0.00000000000E+00 -0.23441232382E+04  0.23441232382E+04  0.25500000920E-02 0. -1.
    10030    2    1    2    0    0  0.00000000000E+00  0.00000000000E+00 -0.88120982181E+03  0.38070366545E+04  0.37036464921E+04 0.  0.
        3    1    3    3  502    0 -0.15404673498E+04 -0.94613367579E+03 -0.28103532093E+02  0.18080371697E+04  0.10100000352E+00 0.  1.
       -3    1    3    3    0  502  0.15404673498E+04  0.94613367579E+03 -0.85310628972E+03  0.19989994848E+04  0.10100000352E+00 0. -1.
</event>
<event>
 5   0  0.2282000E-08  0.3707157E+04  0.7818609E-02  0.8066378E-01
        1   -1    0    0  501    0  0.00000000000E+00  0.00000000000E+00  0.22901822748E+04  0.22901822749E+04  0.50400001928E-02 0.  1.
       -1   -1    0    0    0  501  0.00000000000E+00  0.00000000000E+00 -0.15002097268E+04  0.15002097268E+04  0.50400001928E-02 0. -1.
    10030    2    1    2    0    0  0.00000000000E+00  0.00000000000E+00  0.78997254809E+03  0.37903920016E+04  0.37071572531E+04 0.  0.
        4    1    3    3  502    0  0.84050978680E+03  0.15076541115E+04  0.10856334059E+04  0.20391368582E+04  0.12699999809E+01 0.  1.
       -4    1    3    3    0  502 -0.84050978680E+03 -0.15076541115E+04 -0.29566085784E+03  0.17512551434E+04  0.12699999809E+01 0. -1.
</event>
<event>
 5   0  0.2282000E-08  0.3705068E+04  0.7818609E-02  0.8066840E-01
       -1   -1    0    0    0  501  0.00000000000E+00  0.00000000000E+00  0.24962031867E+04  0.24962031867E+04  0.50400001928E-02 0.  1.
        1   -1    0    0  501    0  0.00000000000E+00  0.00000000000E+00 -0.13748412493E+04  0.13748412493E+04  0.50400001928E-02 0. -1.
    10030    2    1    2    0    0  0.00000000000E+00  0.00000000000E+00  0.11213619374E+04  0.38710444360E+04  0.37050684786E+04 0.  0.
        1    1    3    3  502    0  0.77567938690E+03  0.92076308116E+03 -0.91036944307E+03  0.15093891764E+04  0.50400001928E-02 0. -1.
       -1    1    3    3    0  502 -0.77567938690E+03 -0.92076308116E+03  0.20317313805E+04  0.23616552596E+04  0.50400001928E-02 0.  1.
</event>
<event>
 5   0  0.2282000E-08  0.3704912E+04  0.7818609E-02  0.8066874E-01
       -1   -1    0    0    0  501  0.00000000000E+00  0.00000000000E+00  0.12362306173E+04  0.12362306173E+04  0.50400001928E-02 0. -1.
        1   -1    0    0  501    0  0.00000000000E+00  0.00000000000E+00 -0.27758525890E+04  0.27758525890E+04  0.50400001928E-02 0.  1.
    10030    2    1    2    0    0  0.00000000000E+00  0.00000000000E+00 -0.15396219718E+04  0.40120832063E+04  0.37049123928E+04 0.  0.
        3    1    3    3  502    0  0.10782398935E+04 -0.12435191671E+04  0.15075902275E+03  0.16527762946E+04  0.10100000352E+00 0. -1.
       -3    1    3    3    0  502 -0.10782398935E+04  0.12435191671E+04 -0.16903809945E+04  0.23593069117E+04  0.10100000352E+00 0.  1.
</event>
<event>
 5   0  0.7203049E-08  0.3738535E+04  0.7818609E-02  0.8059475E-01
        2   -1    0    0  501    0  0.00000000000E+00  0.00000000000E+00  0.25595223079E+04  0.25595223079E+04  0.25500000920E-02 0. -1.
       -2   -1    0    0    0  501  0.00000000000E+00  0.00000000000E+00 -0.13651614200E+04  0.13651614200E+04  0.25500000920E-02 0.  1.
    10030    2    1    2    0    0  0.00000000000E+00  0.00000000000E+00  0.11943608878E+04  0.39246837279E+04  0.37385350652E+04 0.  0.
        4    1    3    3  502    0  0.40171329596E+03 -0.15885904927E+04  0.15415066998E+04  0.22497195034E+04  0.12699999809E+01 0. -1.
       -4    1    3    3    0  502 -0.40171329596E+03  0.15885904927E+04 -0.34714581197E+03  0.16749642245E+04  0.12699999809E+01 0.  1.
</event>
<event>
 5   0  0.7203049E-08  0.3757132E+04  0.7818609E-02  0.8055417E-01
       -2   -1    0    0    0  501  0.00000000000E+00  0.00000000000E+00  0.15472747048E+04  0.15472747048E+04  0.25500000920E-02 0.  1.
        2   -1    0    0  501    0  0.00000000000E+00  0.00000000000E+00 -0.22807909574E+04  0.22807909574E+04  0.25500000920E-02 0. -1.
    10030    2    1    2    0    0  0.00000000000E+00  0.00000000000E+00 -0.73351625257E+03  0.38280656622E+04  0.37571319675E+04 0.  0.
        4    1    3    3  502    0 -0.39067792460E+03  0.18152414908E+04 -0.76283334289E+02  0.18583733937E+04  0.12699999809E+01 0. -1.
       -4    1    3    3    0  502  0.39067792460E+03 -0.18152414908E+04 -0.65723291828E+03  0.19696922684E+04  0.12699999809E+01 0.  1.
</event>
<event>
 5   0  0.2282000E-08  0.3690140E+04  0.7818609E-02  0.8070151E-01
        1   -1    0    0  501    0  0.00000000000E+00  0.00000000000E+00  0.10310271042E+04  0.10310271042E+04  0.50400001928E-02 0. -1.
       -1   -1    0    0    0  501  0.00000000000E+00  0.00000000000E+00 -0.33018360484E+04  0.33018360484E+04  0.50400001928E-02 0.  1.
    10030    2    1    2    0    0  0.00000000000E+00  0.00000000000E+00 -0.22708089442E+04  0.43328631526E+04  0.36901395418E+04 0.  0.
        2    1    3    3  502    0 -0.13927178168E+04 -0.62950232217E+03 -0.23490398352E+04  0.28024853681E+04  0.25500000920E-02 0.  1.
       -2    1    3    3    0  502  0.13927178168E+04  0.62950232217E+03  0.78230891063E+02  0.15303777845E+04  0.25500000920E-02 0. -1.
</event>
<event>
 5   0  0.2282000E-08  0.3692935E+04  0.7818609E-02  0.8069529E-01
       -1   -1    0    0    0  501  0.00000000000E+00  0.00000000000E+00  0.27253818094E+04  0.27253818094E+04  0.50400001928E-02 0.  1.
        1   -1    0    0  501    0  0.00000000000E+00  0.00000000000E+00 -0.12509958478E+04  0.12509958478E+04  0.50400001928E-02 0. -1.
    10030    2    1    2    0    0  0.00000000000E+00  0.00000000000E+00  0.14743859616E+04  0.39763776572E+04  0.36929345119E+04 0.  0.
        5    1    3    3  502    0  0.54451472239E+03  0.14575300822E+04 -0.33336632015E+03  0.15912402134E+04  0.46999998093E+01 0. -1.
       -5    1    3    3    0  502 -0.54451472239E+03 -0.14575300822E+04  0.18077522818E+04  0.23851374438E+04  0.46999998093E+01 0.  1.
</event>
<event>
 5   0  0.2282000E-08  0.3700422E+04  0.7818609E-02  0.8067868E-01
        1   -1    0    0  501    0  0.00000000000E+00  0.00000000000E+00  0.20891537995E+04  0.20891537995E+04  0.50400001928E-02 0. -1.
       -1   -1    0    0    0  501  0.00000000000E+00  0.00000000000E+00 -0.16385965378E+04  0.16385965378E+04  0.50400001928E-02 0.  1.
    10030    2    1    2    0    0  0.00000000000E+00  0.00000000000E+00  0.45055726168E+03  0.37277503373E+04  0.37004216964E+04 0.  0.
        5    1    3    3  502    0  0.28267144562E+03 -0.17574286694E+04  0.73378314863E+03  0.19253359378E+04  0.46999998093E+01 0. -1.
       -5    1    3    3    0  502 -0.28267144562E+03  0.17574286694E+04 -0.28322588696E+03  0.18024143994E+04  0.46999998093E+01 0.  1.
</event>
<event>
 5   0  0.7309833E-08  0.3698757E+04  0.7818609E-02  0.8068237E-01
       -2   -1    0    0    0  501  0.00000000000E+00  0.00000000000E+00  0.10951075868E+04  0.10951075868E+04  0.25500000920E-02 0.  1.
        2   -1    0    0  501    0  0.00000000000E+00  0.00000000000E+00 -0.31231638263E+04  0.31231638263E+04  0.25500000920E-02 0. -1.
    10030    2    1    2    0    0  0.00000000000E+00  0.00000000000E+00 -0.20280562395E+04  0.42182714131E+04  0.36987567646E+04 0.  0.
        2    1    3    3  502    0  0.60556336867E+03  0.11066398005E+04  0.52826461301E+03  0.13676337752E+04  0.25500000920E-02 0.  1.
       -2    1    3    3    0  502 -0.60556336867E+03 -0.11066398005E+04 -0.25563208526E+04  0.28506376379E+04  0.25500000920E-02 0. -1.
</event>
<event>
 5   0  0.7254493E-08  0.3713485E+04  0.7818609E-02  0.8064980E-01
        2   -1    0    0  501    0  0.00000000000E+00  0.00000000000E+00  0.23869406405E+04  0.23869406405E+04  0.25500000920E-02 0. -1.
       -2   -1    0    0    0  501  0.00000000000E+00  0.00000000000E+00 -0.14443143981E+04  0.14443143981E+04  0.25500000920E-02 0.  1.
    10030    2    1    2    0    0  0.00000000000E+00  0.00000000000E+00  0.94262624247E+03  0.38312550386E+04  0.37134850125E+04 0.  0.
        3    1    3    3  502    0  0.11285801884E+04  0.98980813025E+03  0.15987078012E+04  0.21930070725E+04  0.10100000352E+00 0.  1.
       -3    1    3    3    0  502 -0.11285801884E+04 -0.98980813025E+03 -0.65608155873E+03  0.16382479661E+04  0.10100000352E+00 0. -1.
</event>
<event>
 5   0  0.7362817E-08  0.3682974E+04  0.7818609E-02  0.8071746E-01
        2   -1    0    0  501    0  0.00000000000E+00  0.00000000000E+00  0.10670030753E+04  0.10670030753E+04  0.25500000920E-02 0.  1.
       -2   -1    0    0    0  501  0.00000000000E+00  0.00000000000E+00 -0.31781296910E+04  0.31781296910E+04  0.25500000920E-02 0. -1.
    10030    2    1    2    0    0  0.00000000000E+00  0.00000000000E+00 -0.21111266157E+04  0.42451327662E+04  0.36829738820E+04 0.  0.
        1    1    3    3  502    0  0.11279521285E+04  0.13466103897E+04 -0.16925855617E+04  0.24393608649E+04  0.50400001928E-02 0. -1.
       -1    1    3    3    0  502 -0.11279521285E+04 -0.13466103897E+04 -0.41854105404E+03  0.18057719013E+04  0.50400001928E-02 0.  1.
</event>
<event>
 5   0  0.7309833E-08  0.3698350E+04  0.7818609E-02  0.8068328E-01
       -2   -1    0    0    0  501  0.00000000000E+00  0.00000000000E+00  0.21932085714E+04  0.21932085714E+04  0.25500000920E-02 0. -1.
        2   -1    0    0  501    0  0.00000000000E+00  0.00000000000E+00 -0.15591078798E+04  0.15591078798E+04  0.25500000920E-02 0.  1.
    10030    2    1    2    0    0  0.00000000000E+00  0.00000000000E+00  0.63410069160E+03  0.37523164512E+04  0.36983503164E+04 0.  0.
        2    1    3    3  502    0 -0.12446288121E+04 -0.94482195580E+03  0.13202449602E+04  0.20456872104E+04  0.25500000920E-02 0. -1.
       -2    1    3    3    0  502  0.12446288121E+04  0.94482195580E+03 -0.68614426857E+03  0.17066292407E+04  0.25500000920E-02 0.  1.
</event>
<event>
 5   0  0.7254493E-08  0.3672541E+04  0.7818609E-02  0.8074074E-01
       -2   -1    0    0    0  501  0.00000000000E+00  0.00000000000E+00  0.23025965948E+04  0.23025965948E+04  0.25500000920E-02 0. -1.
        2   -1    0    0  501    0  0.00000000000E+00  0.00000000000E+00 -0.14643859685E+04  0.14643859685E+04  0.25500000920E-02 0.  1.
    10030    2    1    2    0    0  0.00000000000E+00  0.00000000000E+00  0.83821062622E+03  0.37669825633E+04  0.36725414332E+04 0.  0.
        3    1    3    3  502    0  0.50084508674E+03 -0.16316586482E+04  0.11138217191E+04  0.20380761951E+04  0.10100000352E+00 0. -1.
       -3    1    3    3    0  502 -0.50084508674E+03  0.16316586482E+04 -0.27561109284E+03  0.17289063682E+04  0.10100000352E+00 0.  1.
</event>
<event>
 5   0  0.2282000E-08  0.3699412E+04  0.7818609E-02  0.8068092E-01
        1   -1    0    0  501    0  0.00000000000E+00  0.00000000000E+00  0.16573648784E+04  0.16573648784E+04  0.50400001928E-02 0. -1.
       -1   -1    0    0    0  501  0.00000000000E+00  0.00000000000E+00 -0.20643684898E+04  0.20643684898E+04  0.50400001928E-02 0.  1.
    10030    2    1    2    0    0  0.00000000000E+00  0.00000000000E+00 -0.40700361144E+03  0.37217333682E+04  0.36994117538E+04 0.  0.
        5    1    3    3  502    0  0.65382282095E+03 -0.13103298580E+04 -0.13403383371E+04  0.19851895542E+04  0.46999998093E+01 0.  1.
       -5    1    3    3    0  502 -0.65382282095E+03  0.13103298580E+04  0.93333472569E+03  0.17365438141E+04  0.46999998093E+01 0. -1.
</event>
<event>
 5   0  0.7191801E-08  0.3699889E+04  0.7818609E-02  0.8067986E-01
        2   -1    0    0  501    0  0.00000000000E+00  0.00000000000E+00  0.24452397303E+04  0.24452397303E+04  0.25500000920E-02 0. -1.
       -2   -1    0    0    0  501  0.00000000000E+00  0.00000000000E+00 -0.13995740924E+04  0.13995740924E+04  0.25500000920E-02 0.  1.
    10030    2    1    2    0    0  0.00000000000E+00  0.00000000000E+00  0.10456656379E+04  0.38448138227E+04  0.36998887422E+04 0.  0.
        5    1    3    3  502    0  0.11987668373E+04  0.52002805798E+03  0.18836303445E+04  0.22925000493E+04  0.46999998093E+01 0. -1.
       -5    1    3    3    0  502 -0.11987668373E+04 -0.52002805798E+03 -0.83796470666E+03  0.15523137733E+04  0.46999998093E+01 0.  1.
</event>
<event>
 5   0  0.2282000E-08  0.3698981E+04  0.7818609E-02  0.8068188E-01
       -1   -1    0    0    0  501  0.00000000000E+00  0.00000000000E+00  0.22754378201E+04  0.22754378201E+04  0.50400001928E-02 0. -1.
        1   -1    0    0  501    0  0.00000000000E+00  0.00000000000E+00 -0.15032773962E+04  0.15032773962E+04  0.50400001928E-02 0.  1.
    10030    2    1    2    0    0  0.00000000000E+00  0.00000000000E+00  0.77216042390E+03  0.37787152163E+04  0.36989805306E+04 0.  0.
        5    1    3    3  502    0 -0.13050657994E+04  0.12990603685E+04  0.56253922287E+03  0.19254160717E+04  0.46999998093E+01 0.  1.
       -5    1    3    3    0  502  0.13050657994E+04 -0.12990603685E+04  0.20962120103E+03  0.18532991447E+04  0.46999998093E+01 0. -1.
</event>
<event>
 5   0  0.2282000E-08  0.3701656E+04  0.7818609E-02  0.8067595E-01
        1   -1    0    0  501    0  0.00000000000E+00  0.00000000000E+00  0.24169069604E+04  0.24169069605E+04  0.50400001928E-02 0.  1.
       -1   -1    0    0    0  501  0.00000000000E+00  0.00000000000E+00 -0.14173335838E+04  0.14173335838E+04  0.50400001928E-02 0. -1.
    10030    2    1    2    0    0  0.00000000000E+00  0.00000000000E+00  0.99957337666E+03  0.38342405443E+04  0.37016555237E+04 0.  0.
        3    1    3    3  502    0 -0.16419052727E+04  0.36978672629E+03  0.12974122677E+04  0.21250585286E+04  0.10100000352E+00 0.  1.
       -3    1    3    3    0  502  0.16419052727E+04 -0.36978672629E+03 -0.29783889107E+03  0.17091820156E+04  0.10100000352E+00 0. -1.
</event>
<event>
 5   0  0.7254493E-08  0.3702244E+04  0.7818609E-02  0.8067465E-01
       -2   -1    0    0    0  501  0.00000000000E+00  0.00000000000E+00  0.15569168718E+04  0.15569168718E+04  0.25500000920E-02 0.  1.
        2   -1    0    0  501    0  0.00000000000E+00  0.00000000000E+00 -0.22009215446E+04  0.22009215446E+04  0.25500000920E-02 0. -1.
    10030    2    1    2    0    0  0.00000000000E+00  0.00000000000E+00 -0.64400467285E+03  0.37578384164E+04  0.37022435826E+04 0.  0.
        3    1    3    3  502    0 -0.17308068946E+04  0.59236652103E+03 -0.34802385074E+02  0.18296999257E+04  0.10100000352E+00 0.  1.
       -3    1    3    3    0  502  0.17308068946E+04 -0.59236652103E+03 -0.60920228777E+03  0.19281384907E+04  0.10100000352E+00 0. -1.
</event>
<event>
 5   0  0.2282000E-08  0.3718797E+04  0.7818609E-02  0.8063809E-01
       -1   -1    0    0    0  501  0.00000000000E+00  0.00000000000E+00  0.15906419202E+04  0.15906419202E+04  0.50400001928E-02 0.  1.
        1   -1    0    0  501    0  0.00000000000E+00  0.00000000000E+00 -0.21735649133E+04  0.21735649133E+04  0.50400001928E-02 0. -1.
    10030    2    1    2    0    0  0.00000000000E+00  0.00000000000E+00 -0.58292299307E+03  0.37642068335E+04  0.37187973687E+04 0.  0.
        1    1    3    3  502    0 -0.32576176059E+03  0.11157546832E+04 -0.17605048294E+04  0.21095986566E+04  0.50400001928E-02 0. -1.
       -1    1    3    3    0  502  0.32576176059E+03 -0.11157546832E+04  0.11775818363E+04  0.16546081769E+04  0.50400001928E-02 0.  1.
</event>
<event>
 5   0  0.2282000E-08  0.3705245E+04  0.7818609E-02  0.8066800E-01
        1   -1    0    0  501    0  0.00000000000E+00  0.00000000000E+00  0.18763454865E+04  0.18763454865E+04  0.50400001928E-02 0.  1.
       -1   -1    0    0    0  501  0.00000000000E+00  0.00000000000E+00 -0.18291996111E+04  0.18291996111E+04  0.50400001928E-02 0. -1.
    10030    2    1    2    0    0  0.00000000000E+00  0.00000000000E+00  0.47145875416E+02  0.37055450976E+04  0.37052451655E+04 0.  0.
        3    1    3    3  502    0  0.51842232949E+03  0.17405213154E+04  0.38970947419E+03  0.18574309262E+04  0.10100000352E+00 0.  1.
       -3    1    3    3    0  502 -0.51842232949E+03 -0.17405213154E+04 -0.34256359877E+03  0.18481141714E+04  0.10100000352E+00 0. -1.
</event>
<event>
 5   0  0.2282000E-08  0.3698789E+04  0.7818609E-02  0.8068230E-01
       -1   -1    0    0    0  501  0.00000000000E+00  0.00000000000E+00  0.16387792307E+04  0.16387792307E+04  0.50400001928E-02 0. -1.
        1   -1    0    0  501    0  0.00000000000E+00  0.00000000000E+00 -0.20870783434E+04  0.20870783434E+04  0.50400001928E-02 0.  1.
    10030    2    1    2    0    0  0.00000000000E+00  0.00000000000E+00 -0.44829911268E+03  0.37258575741E+04  0.36987893381E+04 0.  0.
        4    1    3    3  502    0  0.15124753648E+03  0.17417328630E+04 -0.83168002198E+03  0.19360274934E+04  0.12699999809E+01 0. -1.
       -4    1    3    3    0  502 -0.15124753648E+03 -0.17417328630E+04  0.38338090930E+03  0.17898300807E+04  0.12699999809E+01 0.  1.
</event>
<event>
 5   0  0.2282000E-08  0.3698684E+04  0.7818609E-02  0.8068253E-01
       -1   -1    0    0    0  501  0.00000000000E+00  0.00000000000E+00  0.17236377706E+04  0.17236377706E+04  0.50400001928E-02 0.  1.
        1   -1    0    0  501    0  0.00000000000E+00  0.00000000000E+00 -0.19842139589E+04  0.19842139589E+04  0.50400001928E-02 0. -1.
    10030    2    1    2    0    0  0.00000000000E+00  0.00000000000E+00 -0.26057618829E+03  0.37078517295E+04  0.36986841577E+04 0.  0.
        5    1    3    3  502    0 -0.52243694818E+03 -0.30726449299E+03 -0.18818142238E+04  0.19770176268E+04  0.46999998093E+01 0. -1.
       -5    1    3    3    0  502  0.52243694818E+03  0.30726449299E+03  0.16212380355E+04  0.17308341028E+04  0.46999998093E+01 0.  1.
</event>
<event>
 5   0  0.7203049E-08  0.3698228E+04  0.7818609E-02  0.8068355E-01
        2   -1    0    0  501    0  0.00000000000E+00  0.00000000000E+00  0.26250899894E+04  0.26250899894E+04  0.25500000920E-02 0. -1.
       -2   -1    0    0    0  501  0.00000000000E+00  0.00000000000E+00 -0.13025163607E+04  0.13025163607E+04  0.25500000920E-02 0.  1.
    10030    2    1    2    0    0  0.00000000000E+00  0.00000000000E+00  0.13225736287E+04  0.39276063501E+04  0.36982280403E+04 0.  0.
        4    1    3    3  502    0 -0.18447078028E+04  0.46460485670E+02  0.53510876254E+03  0.19213142520E+04  0.12699999809E+01 0. -1.
       -4    1    3    3    0  502  0.18447078028E+04 -0.46460485670E+02  0.78746486621E+03  0.20062920981E+04  0.12699999809E+01 0.  1.
</event>
<event>
 5   0  0.7362817E-08  0.3700655E+04  0.7818609E-02  0.8067817E-01
       -2   -1    0    0    0  501  0.00000000000E+00  0.00000000000E+00  0.13701642515E+04  0.13701642515E+04  0.25500000920E-02 0.  1.
        2   -1    0    0  501    0  0.00000000000E+00  0.00000000000E+00 -0.24987605226E+04  0.24987605226E+04  0.25500000920E-02 0. -1.
    10030    2    1    2    0    0  0.00000000000E+00  0.00000000000E+00 -0.11285962711E+04  0.38689247741E+04  0.37006552615E+04 0.  0.
        1    1    3    3  502    0 -0.10271841031E+04  0.15206876313E+04 -0.31664240493E+03  0.18622192315E+04  0.50400001928E-02 0.  1.
       -1    1    3    3    0  502  0.10271841031E+04 -0.15206876313E+04 -0.81195386615E+03  0.20067055425E+04  0.50400001928E-02 0. -1.
</event>
<event>
 5   0  0.2282000E-08  0.3700016E+04  0.7818609E-02  0.8067958E-01
        1   -1    0    0  501    0  0.00000000000E+00  0.00000000000E+00  0.13890693538E+04  0.13890693538E+04  0.50400001928E-02 0. -1.
       -1   -1    0    0    0  501  0.00000000000E+00  0.00000000000E+00 -0.24639007980E+04  0.24639007980E+04  0.50400001928E-02 0.  1.
    10030    2    1    2    0    0  0.00000000000E+00  0.00000000000E+00 -0.10748314441E+04  0.38529701518E+04  0.37000157240E+04 0.  0.
        4    1    3    3  502    0  0.52923189493E+03  0.48576702632E+03  0.12378979896E+04  0.14312403880E+04  0.12699999809E+01 0. -1.
       -4    1    3    3    0  502 -0.52923189493E+03 -0.48576702632E+03 -0.23127294338E+04  0.24217297639E+04  0.12699999809E+01 0.  1.
</event>
<event>
 5   0  0.7309833E-08  0.3697933E+04  0.7818609E-02  0.8068420E-01
       -2   -1    0    0    0  501  0.00000000000E+00  0.00000000000E+00  0.13126527476E+04  0.13126527476E+04  0.25500000920E-02 0. -1.
        2   -1    0    0  501    0  0.00000000000E+00  0.00000000000E+00 -0.26044029992E+04  0.26044029992E+04  0.25500000920E-02 0.  1.
    10030    2    1    2    0    0  0.00000000000E+00  0.00000000000E+00 -0.12917502516E+04  0.39170557468E+04  0.36979328024E+04 0.  0.
        2    1    3    3  502    0 -0.18325803204E+04 -0.18004837529E+03 -0.46891697311E+03  0.19001713544E+04  0.25500000920E-02 0. -1.
       -2    1    3    3    0  502  0.18325803204E+04  0.18004837529E+03 -0.82283327851E+03  0.20168843924E+04  0.25500000920E-02 0.  1.
</event>
<event>
 5   0  0.2282000E-08  0.3614066E+04  0.7818609E-02  0.8087277E-01
       -1   -1    0    0    0  501  0.00000000000E+00  0.00000000000E+00  0.24642550115E+04  0.24642550115E+04  0.50400001928E-02 0.  1.
        1   -1    0    0  501    0  0.00000000000E+00  0.00000000000E+00 -0.13250932312E+04  0.13250932313E+04  0.50400001928E-02 0. -1.
    10030    2    1    2    0    0  0.00000000000E+00  0.00000000000E+00  0.11391617802E+04  0.37893482427E+04  0.36140656529E+04 0.  0.
        5    1    3    3  502    0 -0.13717518875E+04  0.47268763550E+03  0.16989516541E+04  0.22341879184E+04  0.46999998093E+01 0.  1.
       -5    1    3    3    0  502  0.13717518875E+04 -0.47268763550E+03 -0.55978987387E+03  0.15551603244E+04  0.46999998093E+01 0. -1.
</event>
<event>
 5   0  0.7309833E-08  0.3689623E+04  0.7818609E-02  0.8070265E-01
       -2   -1    0    0    0  501  0.00000000000E+00  0.00000000000E+00  0.18277419369E+04  0.18277419369E+04  0.25500000920E-02 0.  1.
        2   -1    0    0  501    0  0.00000000000E+00  0.00000000000E+00 -0.18620408123E+04  0.18620408123E+04  0.25500000920E-02 0. -1.
    10030    2    1    2    0    0  0.00000000000E+00  0.00000000000E+00 -0.34298875379E+02  0.36897827492E+04  0.36896233308E+04 0.  0.
        2    1    3    3  502    0  0.11805911334E+03  0.10256239656E+03  0.18211011087E+04  0.18278036676E+04  0.25500000920E-02 0.  1.
       -2    1    3    3    0  502 -0.11805911334E+03 -0.10256239656E+03 -0.18553999840E+04  0.18619790816E+04  0.25500000920E-02 0. -1.
</event>
<event>
 5   0  0.2282000E-08  0.3699072E+04  0.7818609E-02  0.8068167E-01
       -1   -1    0    0    0  501  0.00000000000E+00  0.00000000000E+00  0.12751104340E+04  0.12751104340E+04  0.50400001928E-02 0. -1.
        1   -1    0    0  501    0  0.00000000000E+00  0.00000000000E+00 -0.26827353844E+04  0.26827353844E+04  0.50400001928E-02 0.  1.
    10030    2    1    2    0    0  0.00000000000E+00  0.00000000000E+00 -0.14076249504E+04  0.39578458184E+04  0.36990722514E+04 0.  0.
        4    1    3    3  502    0 -0.61227236074E+01 -0.10374812276E+04 -0.23420611613E+04  0.25615731264E+04  0.12699999809E+01 0.  1.
       -4    1    3    3    0  502  0.61227236074E+01  0.10374812276E+04  0.93443621096E+03  0.13962726920E+04  0.12699999809E+01 0. -1.
</event>
<event>
 5   0  0.2282000E-08  0.3698820E+04  0.7818609E-02  0.8068223E-01
        1   -1    0    0  501    0  0.00000000000E+00  0.00000000000E+00  0.17240174186E+04  0.17240174186E+04  0.50400001928E-02 0.  1.
       -1   -1    0    0    0  501  0.00000000000E+00  0.00000000000E+00 -0.19839223252E+04  0.19839223252E+04  0.50400001928E-02 0. -1.
    10030    2    1    2    0    0  0.00000000000E+00  0.00000000000E+00 -0.25990490656E+03  0.37079397438E+04  0.36988196203E+04 0.  0.
        4    1    3    3  502    0  0.11136066065E+04  0.21964634906E+03 -0.15936727953E+04  0.19565681138E+04  0.12699999809E+01 0. -1.
       -4    1    3    3    0  502 -0.11136066065E+04 -0.21964634906E+03  0.13337678887E+04  0.17513716300E+04  0.12699999809E+01 0.  1.
</event>
<event>
 5   0  0.2282000E-08  0.3700618E+04  0.7818609E-02  0.8067825E-01
       -1   -1    0    0    0  501  0.00000000000E+00  0.00000000000E+00  0.18479153992E+04  0.18479153992E+04  0.50400001928E-02 0.  1.
        1   -1    0    0  501    0  0.00000000000E+00  0.00000000000E+00 -0.18527053632E+04  0.18527053632E+04  0.50400001928E-02 0. -1.
    10030    2    1    2    0    0  0.00000000000E+00  0.00000000000E+00 -0.47899640512E+01  0.37006207624E+04  0.37006176624E+04 0.  0.
        4    1    3    3  502    0  0.10892692176E+04 -0.50650013374E+03 -0.14097309982E+04  0.18521319915E+04  0.12699999809E+01 0. -1.
       -4    1    3    3    0  502 -0.10892692176E+04  0.50650013374E+03  0.14049410341E+04  0.18484887709E+04  0.12699999809E+01 0.  1.
</event>
<event>
 5   0  0.7309833E-08  0.3695751E+04  0.7818609E-02  0.8068904E-01
        2   -1    0    0  501    0  0.00000000000E+00  0.00000000000E+00  0.26115046622E+04  0.26115046622E+04  0.25500000920E-02 0.  1.
       -2   -1    0    0    0  501  0.00000000000E+00  0.00000000000E+00 -0.13075389760E+04  0.13075389760E+04  0.25500000920E-02 0. -1.
    10030    2    1    2    0    0  0.00000000000E+00  0.00000000000E+00  0.13039656863E+04  0.39190436382E+04  0.36957511452E+04 0.  0.
        2    1    3    3  502    0 -0.14068105435E+04  0.14771782859E+03 -0.60884905107E+03  0.15400109185E+04  0.25500000920E-02 0. -1.
       -2    1    3    3    0  502  0.14068105435E+04 -0.14771782859E+03  0.19128147373E+04  0.23790327197E+04  0.25500000920E-02 0.  1.
</event>
<event>
 5   0  0.2282000E-08  0.3697508E+04  0.7818609E-02  0.8068514E-01
        3   -1    0    0  501    0  0.00000000000E+00  0.00000000000E+00  0.12828151247E+04  0.12828151287E+04  0.10100000352E+00 0. -1.
       -3   -1    0    0    0  501  0.00000000000E+00  0.00000000000E+00 -0.26643683978E+04  0.26643683997E+04  0.10100000352E+00 0.  1.
    10030    2    1    2    0    0  0.00000000000E+00  0.00000000000E+00 -0.13815532731E+04  0.39471835283E+04  0.36975083989E+04 0.  0.
        5    1    3    3  502    0 -0.18115801984E+04 -0.33682965962E+03 -0.53031738307E+03  0.19174294385E+04  0.46999998093E+01 0. -1.
       -5    1    3    3    0  502  0.18115801984E+04  0.33682965962E+03 -0.85123589002E+03  0.20297540898E+04  0.46999998093E+01 0.  1.
</event>
<event>
 5   0  0.7191801E-08  0.3691217E+04  0.7818609E-02  0.8069911E-01
       -2   -1    0    0    0  501  0.00000000000E+00  0.00000000000E+00  0.18322441904E+04  0.18322441904E+04  0.25500000920E-02 0.  1.
        2   -1    0    0  501    0  0.00000000000E+00  0.00000000000E+00 -0.18590707849E+04  0.18590707849E+04  0.25500000920E-02 0. -1.
    10030    2    1    2    0    0  0.00000000000E+00  0.00000000000E+00 -0.26826594484E+02  0.36913149753E+04  0.36912174930E+04 0.  0.
        5    1    3    3  502    0 -0.10869256239E+04  0.11603082130E+04 -0.95073581224E+03  0.18524694696E+04  0.46999998093E+01 0.  1.
       -5    1    3    3    0  502  0.10869256239E+04 -0.11603082130E+04  0.92390921776E+03  0.18388455057E+04  0.46999998093E+01 0. -1.
</event>
<event>
 5   0  0.7191801E-08  0.3700609E+04  0.7818609E-02  0.8067827E-01
        2   -1    0    0  501    0  0.00000000000E+00  0.00000000000E+00  0.12119373542E+04  0.12119373542E+04  0.25500000920E-02 0. -1.
       -2   -1    0    0    0  501  0.00000000000E+00  0.00000000000E+00 -0.28249207096E+04  0.28249207096E+04  0.25500000920E-02 0.  1.
    10030    2    1    2    0    0  0.00000000000E+00  0.00000000000E+00 -0.16129833554E+04  0.40368580637E+04  0.37006091015E+04 0.  0.
        5    1    3    3  502    0 -0.45237833217E+03  0.11581824639E+04 -0.23012417215E+04  0.26156774124E+04  0.46999998093E+01 0.  1.
       -5    1    3    3    0  502  0.45237833217E+03 -0.11581824639E+04  0.68825836610E+03  0.14211806513E+04  0.46999998093E+01 0. -1.
</event>
<event>
 5   0  0.7203049E-08  0.3698298E+04  0.7818609E-02  0.8068339E-01
       -2   -1    0    0    0  501  0.00000000000E+00  0.00000000000E+00  0.13716927653E+04  0.13716927653E+04  0.25500000920E-02 0.  1.
        2   -1    0    0  501    0  0.00000000000E+00  0.00000000000E+00 -0.24927976162E+04  0.24927976162E+04  0.25500000920E-02 0. -1.
    10030    2    1    2    0    0  0.00000000000E+00  0.00000000000E+00 -0.11211048508E+04  0.38644903815E+04  0.36982982333E+04 0.  0.
        4    1    3    3  502    0  0.18596946560E+03  0.15645827001E+04  0.45085159689E+03  0.16388326464E+04  0.12699999809E+01 0.  1.
       -4    1    3    3    0  502 -0.18596946560E+03 -0.15645827001E+04 -0.15719564477E+04  0.22256577351E+04  0.12699999809E+01 0. -1.
</event>
<event>
 5   0  0.2282000E-08  0.3689651E+04  0.7818609E-02  0.8070259E-01
        1   -1    0    0  501    0  0.00000000000E+00  0.00000000000E+00  0.19596853698E+04  0.19596853698E+04  0.50400001928E-02 0.  1.
       -1   -1    0    0    0  501  0.00000000000E+00  0.00000000000E+00 -0.17366979736E+04  0.17366979736E+04  0.50400001928E-02 0. -1.
    10030    2    1    2    0    0  0.00000000000E+00  0.00000000000E+00  0.22298739617E+03  0.36963833434E+04  0.36896512630E+04 0.  0.
        4    1    3    3  502    0  0.48302303677E+03 -0.15467667726E+04  0.99490832843E+03  0.19014843932E+04  0.12699999809E+01 0.  1.
       -4    1    3    3    0  502 -0.48302303677E+03  0.15467667726E+04 -0.77192093226E+03  0.17948989502E+04  0.12699999809E+01 0. -1.
</event>
<event>
 5   0  0.2282000E-08  0.3710289E+04  0.7818609E-02  0.8065685E-01
       -1   -1    0    0    0  501  0.00000000000E+00  0.00000000000E+00  0.23455859723E+04  0.23455859724E+04  0.50400001928E-02 0.  1.
        1   -1    0    0  501    0  0.00000000000E+00  0.00000000000E+00 -0.14672499960E+04  0.14672499960E+04  0.50400001928E-02 0. -1.
    10030    2    1    2    0    0  0.00000000000E+00  0.00000000000E+00  0.87833597632E+03  0.38128359684E+04  0.37102889422E+04 0.  0.
        2    1    3    3  502    0 -0.17972820056E+04  0.42094257829E+03  0.62906087488E+03  0.19501622615E+04  0.25500000920E-02 0.  1.
       -2    1    3    3    0  502  0.17972820056E+04 -0.42094257829E+03  0.24927510145E+03  0.18626737069E+04  0.25500000920E-02 0. -1.
</event>
<event>
 5   0  0.7309833E-08  0.3709956E+04  0.7818609E-02  0.8065759E-01
       -2   -1    0    0    0  501  0.00000000000E+00  0.00000000000E+00  0.21183838287E+04  0.21183838287E+04  0.25500000920E-02 0. -1.
        2   -1    0    0  501    0  0.00000000000E+00  0.00000000000E+00 -0.16243249267E+04  0.16243249267E+04  0.25500000920E-02 0.  1.
    10030    2    1    2    0    0  0.00000000000E+00  0.00000000000E+00  0.49405890198E+03  0.37427087554E+04  0.37099561492E+04 0.  0.
        2    1    3    3  502    0 -0.83618589186E+03  0.16108688850E+04 -0.13954829737E+03  0.18203239101E+04  0.25500000920E-02 0.  1.
       -2    1    3    3    0  502  0.83618589186E+03 -0.16108688850E+04  0.63360719935E+03  0.19223848453E+04  0.25500000920E-02 0. -1.
</event>
<event>
 5   0  0.2282000E-08  0.3687767E+04  0.7818609E-02  0.8070678E-01
        1   -1    0    0  501    0  0.00000000000E+00  0.00000000000E+00  0.11064285174E+04  0.11064285174E+04  0.50400001928E-02 0. -1.
       -1   -1    0    0    0  501  0.00000000000E+00  0.00000000000E+00 -0.30728664466E+04  0.30728664467E+04  0.50400001928E-02 0.  1.
    10030    2    1    2    0    0  0.00000000000E+00  0.00000000000E+00 -0.19664379293E+04  0.41792949640E+04  0.36877673824E+04 0.  0.
        2    1    3    3  502    0 -0.64532658504E+03  0.14176228085E+04  0.13512598535E+03  0.15634448697E+04  0.25500000920E-02 0. -1.
       -2    1    3    3    0  502  0.64532658504E+03 -0.14176228085E+04 -0.21015639146E+04  0.26158500943E+04  0.25500000920E-02 0.  1.
</event>
<event>
 5   0  0.7254493E-08  0.3702114E+04  0.7818609E-02  0.8067494E-01
       -2   -1    0    0    0  501  0.00000000000E+00  0.00000000000E+00  0.11372166547E+04  0.11372166547E+04  0.25500000920E-02 0. -1.
        2   -1    0    0  501    0  0.00000000000E+00  0.00000000000E+00 -0.30129800659E+04  0.30129800659E+04  0.25500000920E-02 0.  1.
    10030    2    1    2    0    0  0.00000000000E+00  0.00000000000E+00 -0.18757634111E+04  0.41501967206E+04  0.37021135106E+04 0.  0.
        3    1    3    3  502    0 -0.13651089508E+04 -0.91800915341E+03  0.13445213667E+02  0.16451273620E+04  0.10100000352E+00 0. -1.
       -3    1    3    3    0  502  0.13651089508E+04  0.91800915341E+03 -0.18892086248E+04  0.25050693586E+04  0.10100000352E+00 0.  1.
</event>
<event>
 5   0  0.7191801E-08  0.3702595E+04  0.7818609E-02  0.8067387E-01
       -2   -1    0    0    0  501  0.00000000000E+00  0.00000000000E+00  0.19028316861E+04  0.19028316861E+04  0.25500000920E-02 0.  1.
        2   -1    0    0  501    0  0.00000000000E+00  0.00000000000E+00 -0.18011592308E+04  0.18011592308E+04  0.25500000920E-02 0. -1.
    10030    2    1    2    0    0  0.00000000000E+00  0.00000000000E+00  0.10167245530E+03  0.37039909168E+04  0.37025952282E+04 0.  0.
        5    1    3    3  502    0 -0.10718903375E+04 -0.44647177562E+03  0.14932517255E+04  0.18915889478E+04  0.46999998093E+01 0.  1.
       -5    1    3    3    0  502  0.10718903375E+04  0.44647177562E+03 -0.13915792702E+04  0.18124019690E+04  0.46999998093E+01 0. -1.
</event>
<event>
 5   0  0.2282000E-08  0.3689414E+04  0.7818609E-02  0.8070312E-01
        1   -1    0    0  501    0  0.00000000000E+00  0.00000000000E+00  0.18090103589E+04  0.18090103589E+04  0.50400001928E-02 0. -1.
       -1   -1    0    0    0  501  0.00000000000E+00  0.00000000000E+00 -0.18811081268E+04  0.18811081269E+04  0.50400001928E-02 0.  1.
    10030    2    1    2    0    0  0.00000000000E+00  0.00000000000E+00 -0.72097767961E+02  0.36901184858E+04  0.36894140932E+04 0.  0.
        5    1    3    3  502    0  0.82188259570E+03  0.60312320593E+03 -0.15737666860E+04  0.18751032704E+04  0.46999998093E+01 0.  1.
       -5    1    3    3    0  502 -0.82188259570E+03 -0.60312320593E+03  0.15016689180E+04  0.18150152154E+04  0.46999998093E+01 0. -1.
</event>
<event>
 5   0  0.2282000E-08  0.3697511E+04  0.7818609E-02  0.8068514E-01
       -1   -1    0    0    0  501  0.00000000000E+00  0.00000000000E+00  0.29860874191E+04  0.29860874191E+04  0.50400001928E-02 0.  1.
        1   -1    0    0  501    0  0.00000000000E+00  0.00000000000E+00 -0.11446071850E+04  0.11446071850E+04  0.50400001928E-02 0. -1.
    10030    2    1    2    0    0  0.00000000000E+00  0.00000000000E+00  0.18414802341E+04  0.41306946041E+04  0.36975111169E+04 0.  0.
        3    1    3    3  502    0 -0.18347025946E+04 -0.18355081337E+03  0.77055605994E+03  0.19983946466E+04  0.10100000352E+00 0.  1.
       -3    1    3    3    0  502  0.18347025946E+04  0.18355081337E+03  0.10709241741E+04  0.21322999575E+04  0.10100000352E+00 0. -1.
</event>
<event>
 5   0  0.7254493E-08  0.3698991E+04  0.7818609E-02  0.8068186E-01
       -2   -1    0    0    0  501  0.00000000000E+00  0.00000000000E+00  0.11079938589E+04  0.11079938589E+04  0.25500000920E-02 0. -1.
        2   -1    0    0  501    0  0.00000000000E+00  0.00000000000E+00 -0.30872312275E+04  0.30872312275E+04  0.25500000920E-02 0.  1.
    10030    2    1    2    0    0  0.00000000000E+00  0.00000000000E+00 -0.19792373686E+04  0.41952250864E+04  0.36989908035E+04 0.  0.
        3    1    3    3  502    0 -0.89175974769E+03 -0.11762251536E+04 -0.22535223113E+04  0.26939012374E+04  0.10100000352E+00 0.  1.
       -3    1    3    3    0  502  0.89175974769E+03  0.11762251536E+04  0.27428494267E+03  0.15013238490E+04  0.10100000352E+00 0. -1.
</event>
<event>
 5   0  0.7362817E-08  0.3694956E+04  0.7818609E-02  0.8069081E-01
       -2   -1    0    0    0  501  0.00000000000E+00  0.00000000000E+00  0.15461162259E+04  0.15461162259E+04  0.25500000920E-02 0. -1.
        2   -1    0    0  501    0  0.00000000000E+00  0.00000000000E+00 -0.22075792998E+04  0.22075792998E+04  0.25500000920E-02 0.  1.
    10030    2    1    2    0    0  0.00000000000E+00  0.00000000000E+00 -0.66146307391E+03  0.37536955257E+04  0.36949555750E+04 0.  0.
        1    1    3    3  502    0  0.97485894149E+03 -0.21347744132E+03 -0.19101992399E+04  0.21551760276E+04  0.50400001928E-02 0.  1.
       -1    1    3    3    0  502 -0.97485894149E+03  0.21347744132E+03  0.12487361660E+04  0.15985194981E+04  0.50400001928E-02 0. -1.
</event>
<event>
 5   0  0.7362817E-08  0.3651619E+04  0.7818609E-02  0.8078769E-01
        2   -1    0    0  501    0  0.00000000000E+00  0.00000000000E+00  0.11621566269E+04  0.11621566269E+04  0.25500000920E-02 0.  1.
       -2   -1    0    0    0  501  0.00000000000E+00  0.00000000000E+00 -0.28684430572E+04  0.28684430572E+04  0.25500000920E-02 0. -1.
    10030    2    1    2    0    0  0.00000000000E+00  0.00000000000E+00 -0.17062864303E+04  0.40305996840E+04  0.36516188781E+04 0.  0.
        1    1    3    3  502    0 -0.10625118535E+04 -0.96970460908E+03  0.38797459713E+03  0.14898935384E+04  0.50400001928E-02 0.  1.
       -1    1    3    3    0  502  0.10625118535E+04  0.96970460908E+03 -0.20942610274E+04  0.25407061457E+04  0.50400001928E-02 0. -1.
</event>
<event>
 5   0  0.7309833E-08  0.3681216E+04  0.7818609E-02  0.8072137E-01
        2   -1    0    0  501    0  0.00000000000E+00  0.00000000000E+00  0.26049212492E+04  0.26049212492E+04  0.25500000920E-02 0.  1.
       -2   -1    0    0    0  501  0.00000000000E+00  0.00000000000E+00 -0.13005529205E+04  0.13005529205E+04  0.25500000920E-02 0. -1.
    10030    2    1    2    0    0  0.00000000000E+00  0.00000000000E+00  0.13043683287E+04  0.39054741697E+04  0.36812160699E+04 0.  0.
        2    1    3    3  502    0 -0.22482594349E+03 -0.45071573197E+03 -0.12260170255E+04  0.13254467635E+04  0.25500000920E-02 0. -1.
       -2    1    3    3    0  502  0.22482594349E+03  0.45071573197E+03  0.25303853542E+04  0.25800274062E+04  0.25500000920E-02 0.  1.
</event>
<event>
 5   0  0.2282000E-08  0.3687483E+04  0.7818609E-02  0.8070741E-01
        1   -1    0    0  501    0  0.00000000000E+00  0.00000000000E+00  0.21169306357E+04  0.21169306357E+04  0.50400001928E-02 0. -1.
       -1   -1    0    0    0  501  0.00000000000E+00  0.00000000000E+00 -0.16058076720E+04  0.16058076720E+04  0.50400001928E-02 0.  1.
    10030    2    1    2    0    0  0.00000000000E+00  0.00000000000E+00  0.51112296367E+03  0.37227383077E+04  0.36874833998E+04 0.  0.
        1    1    3    3  502    0  0.72453021797E+03  0.98107606308E+03  0.16515065698E+04  0.20530290374E+04  0.50400001928E-02 0. -1.
       -1    1    3    3    0  502 -0.72453021797E+03 -0.98107606308E+03 -0.11403836061E+04  0.16697092703E+04  0.50400001928E-02 0.  1.
</event>
<event>
 5   0  0.7362817E-08  0.3700578E+04  0.7818609E-02  0.8067834E-01
       -2   -1    0    0    0  501  0.00000000000E+00  0.00000000000E+00  0.20878337624E+04  0.20878337624E+04  0.25500000920E-02 0. -1.
        2   -1    0    0  501    0  0.00000000000E+00  0.00000000000E+00 -0.16397708085E+04  0.16397708085E+04  0.25500000920E-02 0.  1.
    10030    2    1    2    0    0  0.00000000000E+00  0.00000000000E+00  0.44806295392E+03  0.37276045709E+04  0.37005777152E+04 0.  0.
        1    1    3    3  502    0  0.17485923138E+04  0.49800857958E+03  0.57002404398E+03  0.19053910454E+04  0.50400001928E-02 0.  1.
       -1    1    3    3    0  502 -0.17485923138E+04 -0.49800857958E+03 -0.12196109007E+03  0.18222135255E+04  0.50400001928E-02 0. -1.
</event>
<event>
 5   0  0.7203049E-08  0.3701167E+04  0.7818609E-02  0.8067703E-01
       -2   -1    0    0    0  501  0.00000000000E+00  0.00000000000E+00  0.15744005039E+04  0.15744005039E+04  0.25500000920E-02 0. -1.
        2   -1    0    0  501    0  0.00000000000E+00  0.00000000000E+00 -0.21752151612E+04  0.21752151612E+04  0.25500000920E-02 0.  1.
    10030    2    1    2    0    0  0.00000000000E+00  0.00000000000E+00 -0.60081465730E+03  0.37496156650E+04  0.37011673001E+04 0.  0.
        4    1    3    3  502    0 -0.91899795191E+03 -0.15570625705E+04  0.99291222469E+02  0.18107626691E+04  0.12699999809E+01 0. -1.
       -4    1    3    3    0  502  0.91899795191E+03  0.15570625705E+04 -0.70010587976E+03  0.19388529959E+04  0.12699999809E+01 0.  1.
</event>
<event>
 5   0  0.7254493E-08  0.3701798E+04  0.7818609E-02  0.8067564E-01
        2   -1    0    0  501    0  0.00000000000E+00  0.00000000000E+00  0.17764634565E+04  0.17764634565E+04  0.25500000920E-02 0.  1.
       -2   -1    0    0    0  501  0.00000000000E+00  0.00000000000E+00 -0.19284532097E+04  0.19284532097E+04  0.25500000920E-02 0. -1.
    10030    2    1    2    0    0  0.00000000000E+00  0.00000000000E+00 -0.15198975325E+03  0.37049166662E+04  0.37017977550E+04 0.  0.
        3    1    3    3  502    0 -0.13678492244E+03 -0.16684683117E+04 -0.86617259406E+03  0.18848744243E+04  0.10100000352E+00 0. -1.
       -3    1    3    3    0  502  0.13678492244E+03  0.16684683117E+04  0.71418284081E+03  0.18200422420E+04  0.10100000352E+00 0.  1.
</event>
<event>
 5   0  0.2282000E-08  0.3723535E+04  0.7818609E-02  0.8062766E-01
        1   -1    0    0  501    0  0.00000000000E+00  0.00000000000E+00  0.15317619758E+04  0.15317619758E+04  0.50400001928E-02 0. -1.
       -1   -1    0    0    0  501  0.00000000000E+00  0.00000000000E+00 -0.22628705797E+04  0.22628705797E+04  0.50400001928E-02 0.  1.
    10030    2    1    2    0    0  0.00000000000E+00  0.00000000000E+00 -0.73110860390E+03  0.37946325555E+04  0.37235354760E+04 0.  0.
        5    1    3    3  502    0 -0.39060324441E+03 -0.37133300750E+03 -0.21816294899E+04  0.22472179285E+04  0.46999998093E+01 0.  1.
       -5    1    3    3    0  502  0.39060324441E+03  0.37133300750E+03  0.14505208860E+04  0.15474146270E+04  0.46999998093E+01 0. -1.
</event>
<event>
 5   0  0.2282000E-08  0.3696925E+04  0.7818609E-02  0.8068644E-01
       -1   -1    0    0    0  501  0.00000000000E+00  0.00000000000E+00  0.17190137165E+04  0.17190137165E+04  0.50400001928E-02 0.  1.
        1   -1    0    0  501    0  0.00000000000E+00  0.00000000000E+00 -0.19876589379E+04  0.19876589379E+04  0.50400001928E-02 0. -1.
    10030    2    1    2    0    0  0.00000000000E+00  0.00000000000E+00 -0.26864522140E+03  0.37066726544E+04  0.36969246560E+04 0.  0.
        2    1    3    3  502    0 -0.64616420234E+03 -0.41753363309E+03  0.15508680866E+04  0.17312002580E+04  0.25500000920E-02 0.  1.
       -2    1    3    3    0  502  0.64616420234E+03  0.41753363309E+03 -0.18195133080E+04  0.19754723964E+04  0.25500000920E-02 0. -1.
</event>
<event>
 5   0  0.7362817E-08  0.3696836E+04  0.7818609E-02  0.8068663E-01
        2   -1    0    0  501    0  0.00000000000E+00  0.00000000000E+00  0.22360889883E+04  0.22360889883E+04  0.25500000920E-02 0. -1.
       -2   -1    0    0    0  501  0.00000000000E+00  0.00000000000E+00 -0.15279571912E+04  0.15279571912E+04  0.25500000920E-02 0.  1.
    10030    2    1    2    0    0  0.00000000000E+00  0.00000000000E+00  0.70813179708E+03  0.37640461796E+04  0.36968355387E+04 0.  0.
        1    1    3    3  502    0 -0.16258462440E+04  0.87327856284E+03  0.45917445480E+03  0.19017972124E+04  0.50400001928E-02 0. -1.
       -1    1    3    3    0  502  0.16258462440E+04 -0.87327856284E+03  0.24895734229E+03  0.18622489671E+04  0.50400001928E-02 0.  1.
</event>
<event>
 5   0  0.7203049E-08  0.3697704E+04  0.7818609E-02  0.8068471E-01
        2   -1    0    0  501    0  0.00000000000E+00  0.00000000000E+00  0.20262737099E+04  0.20262737099E+04  0.25500000920E-02 0.  1.
       -2   -1    0    0    0  501  0.00000000000E+00  0.00000000000E+00 -0.16869654621E+04  0.16869654621E+04  0.25500000920E-02 0. -1.
    10030    2    1    2    0    0  0.00000000000E+00  0.00000000000E+00  0.33930824783E+03  0.37132391720E+04  0.36977040257E+04 0.  0.
        4    1    3    3  502    0  0.12598610890E+03 -0.34004492429E+03  0.19902101717E+04  0.20229782971E+04  0.12699999809E+01 0.  1.
       -4    1    3    3    0  502 -0.12598610890E+03  0.34004492429E+03 -0.16509019239E+04  0.16902608749E+04  0.12699999809E+01 0. -1.
</event>
<event>
 5   0  0.7254493E-08  0.3700306E+04  0.7818609E-02  0.8067894E-01
       -2   -1    0    0    0  501  0.00000000000E+00  0.00000000000E+00  0.12336522793E+04  0.12336522793E+04  0.25500000920E-02 0. -1.
        2   -1    0    0  501    0  0.00000000000E+00  0.00000000000E+00 -0.27747420104E+04  0.27747420104E+04  0.25500000920E-02 0.  1.
    10030    2    1    2    0    0  0.00000000000E+00  0.00000000000E+00 -0.15410897311E+04  0.40083942897E+04  0.37003063687E+04 0.  0.
        3    1    3    3  502    0  0.17763515919E+04  0.51502203146E+03 -0.82354855478E+03  0.20245752402E+04  0.10100000352E+00 0. -1.
       -3    1    3    3    0  502 -0.17763515919E+04 -0.51502203146E+03 -0.71754117628E+03  0.19838190494E+04  0.10100000352E+00 0.  1.
</event>
<event>
 5   0  0.2282000E-08  0.3711109E+04  0.7818609E-02  0.8065504E-01
        1   -1    0    0  501    0  0.00000000000E+00  0.00000000000E+00  0.24733906469E+04  0.24733906469E+04  0.50400001928E-02 0. -1.
       -1   -1    0    0    0  501  0.00000000000E+00  0.00000000000E+00 -0.13920494661E+04  0.13920494661E+04  0.50400001928E-02 0.  1.
    10030    2    1    2    0    0  0.00000000000E+00  0.00000000000E+00  0.10813411808E+04  0.38654401129E+04  0.37111087989E+04 0.  0.
        3    1    3    3  502    0  0.18502545433E+03  0.47711503080E+01  0.24637517427E+04  0.24706942026E+04  0.10100000352E+00 0. -1.
       -3    1    3    3    0  502 -0.18502545433E+03 -0.47711503080E+01 -0.13824105619E+04  0.13947459104E+04  0.10100000352E+00 0.  1.
</event>
<event>
 5   0  0.7309833E-08  0.3719271E+04  0.7818609E-02  0.8063705E-01
       -2   -1    0    0    0  501  0.00000000000E+00  0.00000000000E+00  0.12767027899E+04  0.12767027899E+04  0.25500000920E-02 0.  1.
        2   -1    0    0  501    0  0.00000000000E+00  0.00000000000E+00 -0.27087304271E+04  0.27087304271E+04  0.25500000920E-02 0. -1.
    10030    2    1    2    0    0  0.00000000000E+00  0.00000000000E+00 -0.14320276373E+04  0.39854332170E+04  0.37192707314E+04 0.  0.
        2    1    3    3  502    0  0.51220634643E+03 -0.16680049343E+04 -0.26833048615E+02  0.17450833260E+04  0.25500000920E-02 0.  1.
       -2    1    3    3    0  502 -0.51220634643E+03  0.16680049343E+04 -0.14051945887E+04  0.22403498910E+04  0.25500000920E-02 0. -1.
</event>
<event>
 5   0  0.2282000E-08  0.3698048E+04  0.7818609E-02  0.8068395E-01
        1   -1    0    0  501    0  0.00000000000E+00  0.00000000000E+00  0.21432949200E+04  0.21432949200E+04  0.50400001928E-02 0.  1.
       -1   -1    0    0    0  501  0.00000000000E+00  0.00000000000E+00 -0.15951561152E+04  0.15951561152E+04  0.50400001928E-02 0. -1.
    10030    2    1    2    0    0  0.00000000000E+00  0.00000000000E+00  0.54813880474E+03  0.37384510352E+04  0.36980481329E+04 0.  0.
        1    1    3    3  502    0  0.10292675433E+04 -0.15356032289E+04  0.23596078083E+03  0.18636379590E+04  0.50400001928E-02 0.  1.
       -1    1    3    3    0  502 -0.10292675433E+04  0.15356032289E+04  0.31217802391E+03  0.18748130762E+04  0.50400001928E-02 0. -1.
</event>
<event>
 5   0  0.2282000E-08  0.3700043E+04  0.7818609E-02  0.8067952E-01
        1   -1    0    0  501    0  0.00000000000E+00  0.00000000000E+00  0.18484602100E+04  0.18484602100E+04  0.50400001928E-02 0.  1.
       -1   -1    0    0    0  501  0.00000000000E+00  0.00000000000E+00 -0.18515838309E+04  0.18515838309E+04  0.50400001928E-02 0. -1.
    10030    2    1    2    0    0  0.00000000000E+00  0.00000000000E+00 -0.31236208202E+01  0.37000440409E+04  0.37000427224E+04 0.  0.
        2    1    3    3  502    0  0.60126911673E+02 -0.37082653998E+03  0.18099165382E+04  0.18484927491E+04  0.25500000920E-02 0.  1.
       -2    1    3    3    0  502 -0.60126911673E+02  0.37082653998E+03 -0.18130401590E+04  0.18515512918E+04  0.25500000920E-02 0. -1.
</event>
<event>
 5   0  0.7191801E-08  0.3694573E+04  0.7818609E-02  0.8069166E-01
       -2   -1    0    0    0  501  0.00000000000E+00  0.00000000000E+00  0.12436577401E+04  0.12436577401E+04  0.25500000920E-02 0.  1.
        2   -1    0    0  501    0  0.00000000000E+00  0.00000000000E+00 -0.27438957768E+04  0.27438957768E+04  0.25500000920E-02 0. -1.
    10030    2    1    2    0    0  0.00000000000E+00  0.00000000000E+00 -0.15002380367E+04  0.39875535169E+04  0.36945728959E+04 0.  0.
        5    1    3    3  502    0  0.75311841454E+03  0.19310339082E+03 -0.25587019542E+04  0.26742202688E+04  0.46999998093E+01 0. -1.
       -5    1    3    3    0  502 -0.75311841454E+03 -0.19310339082E+03  0.10584639175E+04  0.13133332481E+04  0.46999998093E+01 0.  1.
</event>
<event>
 5   0  0.2282000E-08  0.3699912E+04  0.7818609E-02  0.8067981E-01
       -1   -1    0    0    0  501  0.00000000000E+00  0.00000000000E+00  0.14871472371E+04  0.14871472371E+04  0.50400001928E-02 0.  1.
        1   -1    0    0  501    0  0.00000000000E+00  0.00000000000E+00 -0.23012760812E+04  0.23012760812E+04  0.50400001928E-02 0. -1.
    10030    2    1    2    0    0  0.00000000000E+00  0.00000000000E+00 -0.81412884405E+03  0.37884233183E+04  0.36999115481E+04 0.  0.
        1    1    3    3  502    0 -0.14070109258E+04  0.34278544903E+03  0.77162791272E+03  0.16409117116E+04  0.50400001928E-02 0.  1.
       -1    1    3    3    0  502  0.14070109258E+04 -0.34278544903E+03 -0.15857567568E+04  0.21475116067E+04  0.50400001928E-02 0. -1.
</event>
<event>
 5   0  0.7203049E-08  0.3701854E+04  0.7818609E-02  0.8067551E-01
        2   -1    0    0  501    0  0.00000000000E+00  0.00000000000E+00  0.10355936279E+04  0.10355936279E+04  0.25500000920E-02 0. -1.
       -2   -1    0    0    0  501  0.00000000000E+00  0.00000000000E+00 -0.33081812990E+04  0.33081812990E+04  0.25500000920E-02 0.  1.
    10030    2    1    2    0    0  0.00000000000E+00  0.00000000000E+00 -0.22725876711E+04  0.43437749268E+04  0.37018543856E+04 0.  0.
        4    1    3    3  502    0 -0.21940525305E+03  0.10472750386E+03 -0.32893638247E+04  0.32983363229E+04  0.12699999809E+01 0.  1.
       -4    1    3    3    0  502  0.21940525305E+03 -0.10472750386E+03  0.10167761536E+04  0.10454386039E+04  0.12699999809E+01 0. -1.
</event>
<event>
 5   0  0.7254493E-08  0.3707733E+04  0.7818609E-02  0.8066250E-01
        2   -1    0    0  501    0  0.00000000000E+00  0.00000000000E+00  0.29257630363E+04  0.29257630363E+04  0.25500000920E-02 0.  1.
       -2   -1    0    0    0  501  0.00000000000E+00  0.00000000000E+00 -0.11746750714E+04  0.11746750714E+04  0.25500000920E-02 0. -1.
    10030    2    1    2    0    0  0.00000000000E+00  0.00000000000E+00  0.17510879649E+04  0.41004381078E+04  0.37077329481E+04 0.  0.
        3    1    3    3  502    0 -0.43189596481E+03  0.18023751761E+04  0.82953879565E+03  0.20305725852E+04  0.10100000352E+00 0.  1.
       -3    1    3    3    0  502  0.43189596481E+03 -0.18023751761E+04  0.92154916926E+03  0.20698655226E+04  0.10100000352E+00 0. -1.
</event>
<event>
 5   0  0.7254493E-08  0.3710687E+04  0.7818609E-02  0.8065597E-01
        2   -1    0    0  501    0  0.00000000000E+00  0.00000000000E+00  0.13020669319E+04  0.13020669319E+04  0.25500000920E-02 0. -1.
       -2   -1    0    0    0  501  0.00000000000E+00  0.00000000000E+00 -0.26437199015E+04  0.26437199015E+04  0.25500000920E-02 0.  1.
    10030    2    1    2    0    0  0.00000000000E+00  0.00000000000E+00 -0.13416529696E+04  0.39457868333E+04  0.37106874085E+04 0.  0.
        3    1    3    3  502    0  0.16492162265E+03  0.11802466774E+04 -0.21829337213E+04  0.24870426218E+04  0.10100000352E+00 0.  1.
       -3    1    3    3    0  502 -0.16492162265E+03 -0.11802466774E+04  0.84128075167E+03  0.14587442115E+04  0.10100000352E+00 0. -1.
</event>
<event>
 5   0  0.2282000E-08  0.3693711E+04  0.7818609E-02  0.8069357E-01
        1   -1    0    0  501    0  0.00000000000E+00  0.00000000000E+00  0.18265449860E+04  0.18265449860E+04  0.50400001928E-02 0. -1.
       -1   -1    0    0    0  501  0.00000000000E+00  0.00000000000E+00 -0.18673921923E+04  0.18673921923E+04  0.50400001928E-02 0.  1.
    10030    2    1    2    0    0  0.00000000000E+00  0.00000000000E+00 -0.40847206302E+02  0.36939371782E+04  0.36937113291E+04 0.  0.
        3    1    3    3  502    0 -0.36183293176E+03  0.41205296157E+03  0.17432502530E+04  0.18274660512E+04  0.10100000352E+00 0. -1.
       -3    1    3    3    0  502  0.36183293176E+03 -0.41205296157E+03 -0.17840974593E+04  0.18664711270E+04  0.10100000352E+00 0.  1.
</event>
<event>
 5   0  0.7309833E-08  0.3689964E+04  0.7818609E-02  0.8070190E-01
        2   -1    0    0  501    0  0.00000000000E+00  0.00000000000E+00  0.11912074158E+04  0.11912074158E+04  0.25500000920E-02 0. -1.
       -2   -1    0    0    0  501  0.00000000000E+00  0.00000000000E+00 -0.28575701268E+04  0.28575701268E+04  0.25500000920E-02 0.  1.
    10030    2    1    2    0    0  0.00000000000E+00  0.00000000000E+00 -0.16663627109E+04  0.40487775426E+04  0.36899640791E+04 0.  0.
        2    1    3    3  502    0 -0.12301715755E+04  0.14786810375E+03  0.66677939471E+03  0.14070472069E+04  0.25500000920E-02 0. -1.
       -2    1    3    3    0  502  0.12301715755E+04 -0.14786810375E+03 -0.23331421057E+04  0.26417303357E+04  0.25500000920E-02 0.  1.
</event>
<event>
 5   0  0.7203049E-08  0.3723136E+04  0.7818609E-02  0.8062854E-01
        2   -1    0    0  501    0  0.00000000000E+00  0.00000000000E+00  0.17611847586E+04  0.17611847586E+04  0.25500000920E-02 0. -1.
       -2   -1    0    0    0  501  0.00000000000E+00  0.00000000000E+00 -0.19676723764E+04  0.19676723764E+04  0.25500000920E-02 0.  1.
    10030    2    1    2    0    0  0.00000000000E+00  0.00000000000E+00 -0.20648761779E+03  0.37288571351E+04  0.37231355599E+04 0.  0.
        4    1    3    3  502    0 -0.81160573313E+03  0.11041739892E+04  0.11586642627E+04  0.17945496791E+04  0.12699999809E+01 0. -1.
       -4    1    3    3    0  502  0.81160573313E+03 -0.11041739892E+04 -0.13651518805E+04  0.19343074559E+04  0.12699999809E+01 0.  1.
</event>
<event>
 5   0  0.7203049E-08  0.3688745E+04  0.7818609E-02  0.8070461E-01
        2   -1    0    0  501    0  0.00000000000E+00  0.00000000000E+00  0.15427126462E+04  0.15427126462E+04  0.25500000920E-02 0.  1.
       -2   -1    0    0    0  501  0.00000000000E+00  0.00000000000E+00 -0.22050180468E+04  0.22050180468E+04  0.25500000920E-02 0. -1.
    10030    2    1    2    0    0  0.00000000000E+00  0.00000000000E+00 -0.66230540061E+03  0.37477306930E+04  0.36887446244E+04 0.  0.
        4    1    3    3  502    0  0.13584197610E+04 -0.11202732884E+04  0.22661712527E+03  0.17752953056E+04  0.12699999809E+01 0.  1.
       -4    1    3    3    0  502 -0.13584197610E+04  0.11202732884E+04 -0.88892252588E+03  0.19724353874E+04  0.12699999809E+01 0. -1.
</event>
<event>
 5   0  0.2282000E-08  0.3705528E+04  0.7818609E-02  0.8066738E-01
        1   -1    0    0  501    0  0.00000000000E+00  0.00000000000E+00  0.19022679807E+04  0.19022679807E+04  0.50400001928E-02 0. -1.
       -1   -1    0    0    0  501  0.00000000000E+00  0.00000000000E+00 -0.18045479690E+04  0.18045479690E+04  0.50400001928E-02 0.  1.
    10030    2    1    2    0    0  0.00000000000E+00  0.00000000000E+00  0.97720011630E+02  0.37068159497E+04  0.37055276661E+04 0.  0.
        4    1    3    3  502    0 -0.11828700203E+04  0.37095157432E+03  0.14262721414E+04  0.18897196590E+04  0.12699999809E+01 0. -1.
       -4    1    3    3    0  502  0.11828700203E+04 -0.37095157432E+03 -0.13285521298E+04  0.18170962907E+04  0.12699999809E+01 0.  1.
</event>
<event>
 5   0  0.2282000E-08  0.3700780E+04  0.7818609E-02  0.8067789E-01
        1   -1    0    0  501    0  0.00000000000E+00  0.00000000000E+00  0.16401590188E+04  0.16401590188E+04  0.50400001928E-02 0. -1.
       -1   -1    0    0    0  501  0.00000000000E+00  0.00000000000E+00 -0.20875675254E+04  0.20875675254E+04  0.50400001928E-02 0.  1.
    10030    2    1    2    0    0  0.00000000000E+00  0.00000000000E+00 -0.44740850652E+03  0.37277265442E+04  0.37007797579E+04 0.  0.
        5    1    3    3  502    0 -0.13102795248E+04 -0.99647956829E+03  0.62750313787E+03  0.17616998159E+04  0.46999998093E+01 0. -1.
       -5    1    3    3    0  502  0.13102795248E+04  0.99647956829E+03 -0.10749116444E+04  0.19660267283E+04  0.46999998093E+01 0.  1.
</event>
<event>
 5   0  0.2282000E-08  0.3694665E+04  0.7818609E-02  0.8069145E-01
       -1   -1    0    0    0  501  0.00000000000E+00  0.00000000000E+00  0.20120265225E+04  0.20120265225E+04  0.50400001928E-02 0. -1.
        1   -1    0    0  501    0  0.00000000000E+00  0.00000000000E+00 -0.16961195836E+04  0.16961195836E+04  0.50400001928E-02 0.  1.
    10030    2    1    2    0    0  0.00000000000E+00  0.00000000000E+00  0.31590693888E+03  0.37081461061E+04  0.36946651201E+04 0.  0.
        1    1    3    3  502    0  0.16632008725E+04 -0.21957436658E+03 -0.61829443240E+03  0.17879424068E+04  0.50400001928E-02 0.  1.
       -1    1    3    3    0  502 -0.16632008725E+04  0.21957436658E+03  0.93420137128E+03  0.19202036993E+04  0.50400001928E-02 0. -1.
</event>
<event>
 5   0  0.2282000E-08  0.3705310E+04  0.7818609E-02  0.8066786E-01
       -1   -1    0    0    0  501  0.00000000000E+00  0.00000000000E+00  0.24364940899E+04  0.24364940899E+04  0.50400001928E-02 0.  1.
        1   -1    0    0  501    0  0.00000000000E+00  0.00000000000E+00 -0.14087169476E+04  0.14087169476E+04  0.50400001928E-02 0. -1.
    10030    2    1    2    0    0  0.00000000000E+00  0.00000000000E+00  0.10277771423E+04  0.38452110375E+04  0.37053099829E+04 0.  0.
        4    1    3    3  502    0  0.15764398471E+03 -0.67202371356E+03 -0.12702873230E+04  0.14457174666E+04  0.12699999809E+01 0. -1.
       -4    1    3    3    0  502 -0.15764398471E+03  0.67202371356E+03  0.22980644653E+04  0.23994935709E+04  0.12699999809E+01 0.  1.
</event>
<event>
 5   0  0.2282000E-08  0.3704789E+04  0.7818609E-02  0.8066901E-01
        1   -1    0    0  501    0  0.00000000000E+00  0.00000000000E+00  0.19975363479E+04  0.19975363479E+04  0.50400001928E-02 0.  1.
       -1   -1    0    0    0  501  0.00000000000E+00  0.00000000000E+00 -0.17177986405E+04  0.17177986405E+04  0.50400001928E-02 0. -1.
    10030    2    1    2    0    0  0.00000000000E+00  0.00000000000E+00  0.27973770739E+03  0.37153349883E+04  0.37047889131E+04 0.  0.
        1    1    3    3  502    0  0.46496752410E+03  0.16523638773E+04 -0.55843509447E+03  0.18050902848E+04  0.50400001928E-02 0. -1.
       -1    1    3    3    0  502 -0.46496752410E+03 -0.16523638773E+04  0.83817280187E+03  0.19102447035E+04  0.50400001928E-02 0.  1.
</event>
<event>
 5   0  0.7309833E-08  0.3699461E+04  0.7818609E-02  0.8068081E-01
        2   -1    0    0  501    0  0.00000000000E+00  0.00000000000E+00  0.27388345801E+04  0.27388345801E+04  0.25500000920E-02 0.  1.
       -2   -1    0    0    0  501  0.00000000000E+00  0.00000000000E+00 -0.12492550150E+04  0.12492550150E+04  0.25500000920E-02 0. -1.
    10030    2    1    2    0    0  0.00000000000E+00  0.00000000000E+00  0.14895795651E+04  0.39880895951E+04  0.36994609523E+04 0.  0.
        2    1    3    3  502    0 -0.14269166817E+04  0.47298888897E+03 -0.41711936016E+03  0.15600635456E+04  0.25500000920E-02 0. -1.
       -2    1    3    3    0  502  0.14269166817E+04 -0.47298888897E+03  0.19066989252E+04  0.24280260495E+04  0.25500000920E-02 0.  1.
</event>
<event>
 5   0  0.2282000E-08  0.3699644E+04  0.7818609E-02  0.8068041E-01
        1   -1    0    0  501    0  0.00000000000E+00  0.00000000000E+00  0.26812615166E+04  0.26812615166E+04  0.50400001928E-02 0.  1.
       -1   -1    0    0    0  501  0.00000000000E+00  0.00000000000E+00 -0.12762058382E+04  0.12762058382E+04  0.50400001928E-02 0. -1.
    10030    2    1    2    0    0  0.00000000000E+00  0.00000000000E+00  0.14050556784E+04  0.39574673548E+04  0.36996440916E+04 0.  0.
        4    1    3    3  502    0 -0.71785504734E+03 -0.29695043523E+03  0.24983132455E+04  0.26163077257E+04  0.12699999809E+01 0.  1.
       -4    1    3    3    0  502  0.71785504734E+03  0.29695043523E+03 -0.10932575670E+04  0.13411596291E+04  0.12699999809E+01 0. -1.
</event>
<event>
 5   0  0.7203049E-08  0.3701895E+04  0.7818609E-02  0.8067542E-01
       -2   -1    0    0    0  501  0.00000000000E+00  0.00000000000E+00  0.14637174051E+04  0.14637174051E+04  0.25500000920E-02 0.  1.
        2   -1    0    0  501    0  0.00000000000E+00  0.00000000000E+00 -0.23406208671E+04  0.23406208671E+04  0.25500000920E-02 0. -1.
    10030    2    1    2    0    0  0.00000000000E+00  0.00000000000E+00 -0.87690346206E+03  0.38043382722E+04  0.37018954615E+04 0.  0.
        4    1    3    3  502    0 -0.11321535533E+04 -0.13763340691E+04 -0.95222531793E+03  0.20205944193E+04  0.12699999809E+01 0. -1.
       -4    1    3    3    0  502  0.11321535533E+04  0.13763340691E+04  0.75321855865E+02  0.17837438530E+04  0.12699999809E+01 0.  1.
</event>
<event>
 5   0  0.2282000E-08  0.3688054E+04  0.7818609E-02  0.8070614E-01
        1   -1    0    0  501    0  0.00000000000E+00  0.00000000000E+00  0.19532927836E+04  0.19532927836E+04  0.50400001928E-02 0.  1.
       -1   -1    0    0    0  501  0.00000000000E+00  0.00000000000E+00 -0.17408736150E+04  0.17408736150E+04  0.50400001928E-02 0. -1.
    10030    2    1    2    0    0  0.00000000000E+00  0.00000000000E+00  0.21241916862E+03  0.36941663986E+04  0.36880541587E+04 0.  0.
        1    1    3    3  502    0 -0.58814259167E+03  0.15223372468E+04  0.96612725978E+03  0.18965295366E+04  0.50400001928E-02 0.  1.
       -1    1    3    3    0  502  0.58814259167E+03 -0.15223372468E+04 -0.75370809115E+03  0.17976368620E+04  0.50400001928E-02 0. -1.
</event>
<event>
 5   0  0.2282000E-08  0.3701427E+04  0.7818609E-02  0.8067646E-01
        1   -1    0    0  501    0  0.00000000000E+00  0.00000000000E+00  0.16559133377E+04  0.16559133377E+04  0.50400001928E-02 0.  1.
       -1   -1    0    0    0  501  0.00000000000E+00  0.00000000000E+00 -0.20684294545E+04  0.20684294545E+04  0.50400001928E-02 0. -1.
    10030    2    1    2    0    0  0.00000000000E+00  0.00000000000E+00 -0.41251611685E+03  0.37243427922E+04  0.37014267097E+04 0.  0.
        3    1    3    3  502    0  0.97191823912E+03 -0.32018485479E+03  0.13453645488E+04  0.16903103810E+04  0.10100000352E+00 0.  1.
       -3    1    3    3    0  502 -0.97191823912E+03  0.32018485479E+03 -0.17578806657E+04  0.20340324112E+04  0.10100000352E+00 0. -1.
</event>
<event>
 5   0  0.7309833E-08  0.3711262E+04  0.7818609E-02  0.8065471E-01
       -2   -1    0    0    0  501  0.00000000000E+00  0.00000000000E+00  0.30293078623E+04  0.30293078623E+04  0.25500000920E-02 0. -1.
        2   -1    0    0  501    0  0.00000000000E+00  0.00000000000E+00 -0.11366843457E+04  0.11366843457E+04  0.25500000920E-02 0.  1.
    10030    2    1    2    0    0  0.00000000000E+00  0.00000000000E+00  0.18926235166E+04  0.41659922079E+04  0.37112622248E+04 0.  0.
        2    1    3    3  502    0 -0.83448573177E+03  0.67508208528E+03 -0.75284885162E+03  0.13110620320E+04  0.25500000920E-02 0.  1.
       -2    1    3    3    0  502  0.83448573177E+03 -0.67508208528E+03  0.26454723682E+04  0.28549301759E+04  0.25500000920E-02 0. -1.
</event>
<event>
 5   0  0.7254493E-08  0.3707382E+04  0.7818609E-02  0.8066328E-01
        2   -1    0    0  501    0  0.00000000000E+00  0.00000000000E+00  0.22663964244E+04  0.22663964244E+04  0.25500000920E-02 0. -1.
       -2   -1    0    0    0  501  0.00000000000E+00  0.00000000000E+00 -0.15161383073E+04  0.15161383073E+04  0.25500000920E-02 0.  1.
    10030    2    1    2    0    0  0.00000000000E+00  0.00000000000E+00  0.75025811716E+03  0.37825347317E+04  0.37073820621E+04 0.  0.
        3    1    3    3  502    0  0.14919536086E+04  0.97611003528E+03  0.89281390219E+03  0.19939491080E+04  0.10100000352E+00 0. -1.
       -3    1    3    3    0  502 -0.14919536086E+04 -0.97611003528E+03 -0.14255578503E+03  0.17885856237E+04  0.10100000352E+00 0.  1.
</event>
<event>
 5   0  0.7191801E-08  0.3690243E+04  0.7818609E-02  0.8070127E-01
       -2   -1    0    0    0  501  0.00000000000E+00  0.00000000000E+00  0.25772858648E+04  0.25772858648E+04  0.25500000920E-02 0. -1.
        2   -1    0    0  501    0  0.00000000000E+00  0.00000000000E+00 -0.13209531733E+04  0.13209531733E+04  0.25500000920E-02 0.  1.
    10030    2    1    2    0    0  0.00000000000E+00  0.00000000000E+00  0.12563326914E+04  0.38982390381E+04  0.36902433208E+04 0.  0.
        5    1    3    3  502    0  0.36532001536E+03  0.33059022469E+03  0.25065055180E+04  0.25544746255E+04  0.46999998093E+01 0. -1.
       -5    1    3    3    0  502 -0.36532001536E+03 -0.33059022469E+03 -0.12501728266E+04  0.13437644126E+04  0.46999998093E+01 0.  1.
</event>
<event>
 5   0  0.2282000E-08  0.3705129E+04  0.7818609E-02  0.8066826E-01
       -1   -1    0    0    0  501  0.00000000000E+00  0.00000000000E+00  0.21380622952E+04  0.21380622953E+04  0.50400001928E-02 0. -1.
        1   -1    0    0  501    0  0.00000000000E+00  0.00000000000E+00 -0.16051892100E+04  0.16051892100E+04  0.50400001928E-02 0.  1.
    10030    2    1    2    0    0  0.00000000000E+00  0.00000000000E+00  0.53287308528E+03  0.37432515052E+04  0.37051286221E+04 0.  0.
        4    1    3    3  502    0  0.57162429604E+03 -0.13527837584E+03 -0.15086098009E+04  0.16189378367E+04  0.12699999809E+01 0.  1.
       -4    1    3    3    0  502 -0.57162429604E+03  0.13527837584E+03  0.20414828862E+04  0.21243136685E+04  0.12699999809E+01 0. -1.
</event>
<event>
 5   0  0.2282000E-08  0.3699633E+04  0.7818609E-02  0.8068043E-01
       -1   -1    0    0    0  501  0.00000000000E+00  0.00000000000E+00  0.24515077133E+04  0.24515077133E+04  0.50400001928E-02 0. -1.
        1   -1    0    0  501    0  0.00000000000E+00  0.00000000000E+00 -0.13958025108E+04  0.13958025108E+04  0.50400001928E-02 0.  1.
    10030    2    1    2    0    0  0.00000000000E+00  0.00000000000E+00  0.10557052025E+04  0.38473102240E+04  0.36996327501E+04 0.  0.
        1    1    3    3  502    0  0.13985624340E+04 -0.21526352649E+03 -0.71113542342E+03  0.15836757427E+04  0.50400001928E-02 0.  1.
       -1    1    3    3    0  502 -0.13985624340E+04  0.21526352649E+03  0.17668406259E+04  0.22636344813E+04  0.50400001928E-02 0. -1.
</event>
<event>
 5   0  0.2282000E-08  0.3699998E+04  0.7818609E-02  0.8067962E-01
        1   -1    0    0  501    0  0.00000000000E+00  0.00000000000E+00  0.21565878951E+04  0.21565878951E+04  0.50400001928E-02 0.  1.
       -1   -1    0    0    0  501  0.00000000000E+00  0.00000000000E+00 -0.15869957776E+04  0.15869957776E+04  0.50400001928E-02 0. -1.
    10030    2    1    2    0    0  0.00000000000E+00  0.00000000000E+00  0.56959211751E+03  0.37435836727E+04  0.36999977748E+04 0.  0.
        5    1    3    3  502    0 -0.17675221108E+04 -0.39778055353E+03  0.66351817521E+03  0.19294149993E+04  0.46999998093E+01 0.  1.
       -5    1    3    3    0  502  0.17675221108E+04  0.39778055353E+03 -0.93926057699E+02  0.18141686733E+04  0.46999998093E+01 0. -1.
</event>
<event>
 5   0  0.7254493E-08  0.3704676E+04  0.7818609E-02  0.8066926E-01
       -2   -1    0    0    0  501  0.00000000000E+00  0.00000000000E+00  0.12883845022E+04  0.12883845022E+04  0.25500000920E-02 0. -1.
        2   -1    0    0  501    0  0.00000000000E+00  0.00000000000E+00 -0.26631461925E+04  0.26631461925E+04  0.25500000920E-02 0.  1.
    10030    2    1    2    0    0  0.00000000000E+00  0.00000000000E+00 -0.13747616903E+04  0.39515306948E+04  0.37046761163E+04 0.  0.
        3    1    3    3  502    0  0.12413544699E+04  0.12927003673E+04 -0.18808583498E+03  0.18020575604E+04  0.10100000352E+00 0.  1.
       -3    1    3    3    0  502 -0.12413544699E+04 -0.12927003673E+04 -0.11866758553E+04  0.21494731344E+04  0.10100000352E+00 0. -1.
</event>
<event>
 5   0  0.7309833E-08  0.3689679E+04  0.7818609E-02  0.8070253E-01
        2   -1    0    0  501    0  0.00000000000E+00  0.00000000000E+00  0.29884698002E+04  0.29884698002E+04  0.25500000920E-02 0.  1.
       -2   -1    0    0    0  501  0.00000000000E+00  0.00000000000E+00 -0.11388544636E+04  0.11388544636E+04  0.25500000920E-02 0. -1.
    10030    2    1    2    0    0  0.00000000000E+00  0.00000000000E+00  0.18496153366E+04  0.41273242638E+04  0.36896786696E+04 0.  0.
        2    1    3    3  502    0 -0.50310369348E+03 -0.10182561016E+04 -0.70140909567E+03  0.13348908323E+04  0.25500000920E-02 0. -1.
       -2    1    3    3    0  502  0.50310369348E+03  0.10182561016E+04  0.25510244323E+04  0.27924334314E+04  0.25500000920E-02 0.  1.
</event>
<event>
 5   0  0.2282000E-08  0.3695138E+04  0.7818609E-02  0.8069040E-01
       -1   -1    0    0    0  501  0.00000000000E+00  0.00000000000E+00  0.15992255907E+04  0.15992255907E+04  0.50400001928E-02 0. -1.
        1   -1    0    0  501    0  0.00000000000E+00  0.00000000000E+00 -0.21344771080E+04  0.21344771080E+04  0.50400001928E-02 0.  1.
    10030    2    1    2    0    0  0.00000000000E+00  0.00000000000E+00 -0.53525151724E+03  0.37337026987E+04  0.36951375692E+04 0.  0.
        2    1    3    3  502    0 -0.11322078629E+04  0.11749018386E+04 -0.11434018982E+04  0.19923997782E+04  0.25500000920E-02 0.  1.
       -2    1    3    3    0  502  0.11322078629E+04 -0.11749018386E+04  0.60815038096E+03  0.17413029205E+04  0.25500000920E-02 0. -1.
</event>
<event>
 5   0  0.2282000E-08  0.3694249E+04  0.7818609E-02  0.8069237E-01
       -1   -1    0    0    0  501  0.00000000000E+00  0.00000000000E+00  0.18866849273E+04  0.18866849273E+04  0.50400001928E-02 0.  1.
        1   -1    0    0  501    0  0.00000000000E+00  0.00000000000E+00 -0.18083937931E+04  0.18083937931E+04  0.50400001928E-02 0. -1.
    10030    2    1    2    0    0  0.00000000000E+00  0.00000000000E+00  0.78291134196E+02  0.36950787204E+04  0.36942492131E+04 0.  0.
        2    1    3    3  502    0 -0.70406782387E+03  0.97445927463E+03  0.14418109542E+04  0.18772589609E+04  0.25500000920E-02 0.  1.
       -2    1    3    3    0  502  0.70406782387E+03 -0.97445927463E+03 -0.13635198200E+04  0.18178197595E+04  0.25500000920E-02 0. -1.
</event>
<event>
 5   0  0.7203049E-08  0.3684343E+04  0.7818609E-02  0.8071440E-01
       -2   -1    0    0    0  501  0.00000000000E+00  0.00000000000E+00  0.16057647246E+04  0.16057647246E+04  0.25500000920E-02 0.  1.
        2   -1    0    0  501    0  0.00000000000E+00  0.00000000000E+00 -0.21133831083E+04  0.21133831083E+04  0.25500000920E-02 0. -1.
    10030    2    1    2    0    0  0.00000000000E+00  0.00000000000E+00 -0.50761838361E+03  0.37191478329E+04  0.36843431137E+04 0.  0.
        4    1    3    3  502    0 -0.80441680757E+03 -0.80377693443E+03  0.12091749437E+04  0.16598943997E+04  0.12699999809E+01 0.  1.
       -4    1    3    3    0  502  0.80441680757E+03  0.80377693443E+03 -0.17167933273E+04  0.20592534332E+04  0.12699999809E+01 0. -1.
</event>
<event>
 5   0  0.2282000E-08  0.3699620E+04  0.7818609E-02  0.8068046E-01
       -1   -1    0    0    0  501  0.00000000000E+00  0.00000000000E+00  0.11685963614E+04  0.11685963614E+04  0.50400001928E-02 0. -1.
        1   -1    0    0  501    0  0.00000000000E+00  0.00000000000E+00 -0.29281254310E+04  0.29281254310E+04  0.50400001928E-02 0.  1.
    10030    2    1    2    0    0  0.00000000000E+00  0.00000000000E+00 -0.17595290696E+04  0.40967217924E+04  0.36996198314E+04 0.  0.
        3    1    3    3  502    0  0.42057687403E+03 -0.15903295711E+04  0.57072814478E+02  0.16459922138E+04  0.10100000352E+00 0. -1.
       -3    1    3    3    0  502 -0.42057687403E+03  0.15903295711E+04 -0.18166018841E+04  0.24507295785E+04  0.10100000352E+00 0.  1.
</event>
<event>
 5   0  0.7362817E-08  0.3699887E+04  0.7818609E-02  0.8067987E-01
        2   -1    0    0  501    0  0.00000000000E+00  0.00000000000E+00  0.17729176635E+04  0.17729176635E+04  0.25500000920E-02 0. -1.
       -2   -1    0    0    0  501  0.00000000000E+00  0.00000000000E+00 -0.19303155760E+04  0.19303155760E+04  0.25500000920E-02 0.  1.
    10030    2    1    2    0    0  0.00000000000E+00  0.00000000000E+00 -0.15739791243E+03  0.37032332395E+04  0.36998867987E+04 0.  0.
        1    1    3    3  502    0 -0.40597181800E+03 -0.78463039879E+03  0.15481426725E+04  0.17824712380E+04  0.50400001928E-02 0. -1.
       -1    1    3    3    0  502  0.40597181800E+03  0.78463039879E+03 -0.17055405849E+04  0.19207620015E+04  0.50400001928E-02 0.  1.
</event>
<event>
 5   0  0.2282000E-08  0.3703667E+04  0.7818609E-02  0.8067150E-01
        1   -1    0    0  501    0  0.00000000000E+00  0.00000000000E+00  0.10137712653E+04  0.10137712653E+04  0.50400001928E-02 0. -1.
       -1   -1    0    0    0  501  0.00000000000E+00  0.00000000000E+00 -0.33827027957E+04  0.33827027957E+04  0.50400001928E-02 0.  1.
    10030    2    1    2    0    0  0.00000000000E+00  0.00000000000E+00 -0.23689315303E+04  0.43964740610E+04  0.37036667741E+04 0.  0.
        2    1    3    3  502    0 -0.31251719150E+03  0.13508321256E+03  0.97630022938E+03  0.10339616082E+04  0.25500000920E-02 0. -1.
       -2    1    3    3    0  502  0.31251719150E+03 -0.13508321256E+03 -0.33452317597E+04  0.33625124529E+04  0.25500000920E-02 0.  1.
</event>
<event>
 5   0  0.2282000E-08  0.3703416E+04  0.7818609E-02  0.8067205E-01
       -1   -1    0    0    0  501  0.00000000000E+00  0.00000000000E+00  0.15596826564E+04  0.15596826564E+04  0.50400001928E-02 0.  1.
        1   -1    0    0  501    0  0.00000000000E+00  0.00000000000E+00 -0.21984101892E+04  0.21984101892E+04  0.50400001928E-02 0. -1.
    10030    2    1    2    0    0  0.00000000000E+00  0.00000000000E+00 -0.63872753285E+03  0.37580928457E+04  0.37034158523E+04 0.  0.
        4    1    3    3  502    0 -0.10199301616E+04  0.14533578937E+04  0.21405269439E+03  0.17883866669E+04  0.12699999809E+01 0. -1.
       -4    1    3    3    0  502  0.10199301616E+04 -0.14533578937E+04 -0.85278022724E+03  0.19697061787E+04  0.12699999809E+01 0.  1.
</event>
<event>
 5   0  0.7203049E-08  0.3718063E+04  0.7818609E-02  0.8063971E-01
       -2   -1    0    0    0  501  0.00000000000E+00  0.00000000000E+00  0.19615490478E+04  0.19615490478E+04  0.25500000920E-02 0. -1.
        2   -1    0    0  501    0  0.00000000000E+00  0.00000000000E+00 -0.17618714487E+04  0.17618714487E+04  0.25500000920E-02 0.  1.
    10030    2    1    2    0    0  0.00000000000E+00  0.00000000000E+00  0.19967759905E+03  0.37234204965E+04  0.37180625399E+04 0.  0.
        4    1    3    3  502    0 -0.52737161415E+03 -0.17387442986E+03  0.18765551365E+04  0.19569910399E+04  0.12699999809E+01 0. -1.
       -4    1    3    3    0  502  0.52737161415E+03  0.17387442986E+03 -0.16768775375E+04  0.17664294567E+04  0.12699999809E+01 0.  1.
</event>
<event>
 5   0  0.7309833E-08  0.3699015E+04  0.7818609E-02  0.8068180E-01
       -2   -1    0    0    0  501  0.00000000000E+00  0.00000000000E+00  0.16416407426E+04  0.16416407426E+04  0.25500000920E-02 0.  1.
        2   -1    0    0  501    0  0.00000000000E+00  0.00000000000E+00 -0.20836943006E+04  0.20836943006E+04  0.25500000920E-02 0. -1.
    10030    2    1    2    0    0  0.00000000000E+00  0.00000000000E+00 -0.44205355798E+03  0.37253350432E+04  0.36990147115E+04 0.  0.
        2    1    3    3  502    0 -0.39141323177E+03 -0.33890136508E+03 -0.20092223869E+04  0.20748573573E+04  0.25500000920E-02 0. -1.
       -2    1    3    3    0  502  0.39141323177E+03  0.33890136508E+03  0.15671688289E+04  0.16504776859E+04  0.25500000920E-02 0.  1.
</event>
<event>
 5   0  0.2282000E-08  0.3710945E+04  0.7818609E-02  0.8065541E-01
        1   -1    0    0  501    0  0.00000000000E+00  0.00000000000E+00  0.10938524658E+04  0.10938524658E+04  0.50400001928E-02 0. -1.
       -1   -1    0    0    0  501  0.00000000000E+00  0.00000000000E+00 -0.31473872844E+04  0.31473872844E+04  0.50400001928E-02 0.  1.
    10030    2    1    2    0    0  0.00000000000E+00  0.00000000000E+00 -0.20535348186E+04  0.42412397502E+04  0.37109445384E+04 0.  0.
        5    1    3    3  502    0  0.44265609517E+03  0.98787572121E+03 -0.27490664098E+04  0.29545272168E+04  0.46999998093E+01 0.  1.
       -5    1    3    3    0  502 -0.44265609517E+03 -0.98787572121E+03  0.69553159121E+03  0.12867125334E+04  0.46999998093E+01 0. -1.
</event>
<event>
 5   0  0.7191801E-08  0.3703018E+04  0.7818609E-02  0.8067293E-01
        2   -1    0    0  501    0  0.00000000000E+00  0.00000000000E+00  0.18742350098E+04  0.18742350098E+04  0.25500000920E-02 0.  1.
       -2   -1    0    0    0  501  0.00000000000E+00  0.00000000000E+00 -0.18290584860E+04  0.18290584860E+04  0.25500000920E-02 0. -1.
    10030    2    1    2    0    0  0.00000000000E+00  0.00000000000E+00  0.45176523835E+02  0.37032934958E+04  0.37030179310E+04 0.  0.
        5    1    3    3  502    0  0.17317020672E+03  0.12700913752E+04 -0.13135288755E+04  0.18353474382E+04  0.46999998093E+01 0. -1.
       -5    1    3    3    0  502 -0.17317020672E+03 -0.12700913752E+04  0.13587053993E+04  0.18679460576E+04  0.46999998093E+01 0.  1.
</event>
<event>
 5   0  0.7309833E-08  0.3698630E+04  0.7818609E-02  0.8068265E-01
       -2   -1    0    0    0  501  0.00000000000E+00  0.00000000000E+00  0.21467856496E+04  0.21467856496E+04  0.25500000920E-02 0. -1.
        2   -1    0    0  501    0  0.00000000000E+00  0.00000000000E+00 -0.15930638452E+04  0.15930638452E+04  0.25500000920E-02 0.  1.
    10030    2    1    2    0    0  0.00000000000E+00  0.00000000000E+00  0.55372180449E+03  0.37398494948E+04  0.36986303420E+04 0.  0.
        2    1    3    3  502    0  0.62848156178E+02  0.19513074290E+03 -0.15815391445E+04  0.15947701914E+04  0.25500000920E-02 0.  1.
       -2    1    3    3    0  502 -0.62848156178E+02 -0.19513074290E+03  0.21352609490E+04  0.21450793034E+04  0.25500000920E-02 0. -1.
</event>
<event>
 5   0  0.2282000E-08  0.3635947E+04  0.7818609E-02  0.8082307E-01
       -1   -1    0    0    0  501  0.00000000000E+00  0.00000000000E+00  0.24707745363E+04  0.24707745363E+04  0.50400001928E-02 0.  1.
        1   -1    0    0  501    0  0.00000000000E+00  0.00000000000E+00 -0.13376484627E+04  0.13376484627E+04  0.50400001928E-02 0. -1.
    10030    2    1    2    0    0  0.00000000000E+00  0.00000000000E+00  0.11331260736E+04  0.38084229991E+04  0.36359470625E+04 0.  0.
        2    1    3    3  502    0 -0.18049462557E+03 -0.12363947017E+04  0.19497254351E+04  0.23157459793E+04  0.25500000920E-02 0.  1.
       -2    1    3    3    0  502  0.18049462557E+03  0.12363947017E+04 -0.81659936143E+03  0.14926770198E+04  0.25500000920E-02 0. -1.
</event>
<event>
 5   0  0.2282000E-08  0.3705112E+04  0.7818609E-02  0.8066830E-01
        1   -1    0    0  501    0  0.00000000000E+00  0.00000000000E+00  0.13859291320E+04  0.13859291320E+04  0.50400001928E-02 0. -1.
       -1   -1    0    0    0  501  0.00000000000E+00  0.00000000000E+00 -0.24762914783E+04  0.24762914783E+04  0.50400001928E-02 0.  1.
    10030    2    1    2    0    0  0.00000000000E+00  0.00000000000E+00 -0.10903623463E+04  0.38622206103E+04  0.37051124134E+04 0.  0.
        3    1    3    3  502    0  0.45918026061E+03  0.11175475554E+04  0.91872001773E+03  0.15178292168E+04  0.10100000352E+00 0. -1.
       -3    1    3    3    0  502 -0.45918026061E+03 -0.11175475554E+04 -0.20090823640E+04  0.23443913935E+04  0.10100000352E+00 0.  1.
</event>
<event>
 5   0  0.7362817E-08  0.3695452E+04  0.7818609E-02  0.8068970E-01
        2   -1    0    0  501    0  0.00000000000E+00  0.00000000000E+00  0.22232448521E+04  0.22232448521E+04  0.25500000920E-02 0. -1.
       -2   -1    0    0    0  501  0.00000000000E+00  0.00000000000E+00 -0.15356347572E+04  0.15356347572E+04  0.25500000920E-02 0.  1.
    10030    2    1    2    0    0  0.00000000000E+00  0.00000000000E+00  0.68761009489E+03  0.37588796093E+04  0.36954523776E+04 0.  0.
        1    1    3    3  502    0  0.15235781550E+04 -0.55630391770E+03 -0.55644370398E+03  0.17147577202E+04  0.50400001928E-02 0.  1.
       -1    1    3    3    0  502 -0.15235781550E+04  0.55630391770E+03  0.12440537989E+04  0.20441218892E+04  0.50400001928E-02 0. -1.
</event>
<event>
 5   0  0.2282000E-08  0.3700803E+04  0.7818609E-02  0.8067784E-01
       -1   -1    0    0    0  501  0.00000000000E+00  0.00000000000E+00  0.29844917978E+04  0.29844917978E+04  0.50400001928E-02 0.  1.
        1   -1    0    0  501    0  0.00000000000E+00  0.00000000000E+00 -0.11472592976E+04  0.11472592976E+04  0.50400001928E-02 0. -1.
    10030    2    1    2    0    0  0.00000000000E+00  0.00000000000E+00  0.18372325002E+04  0.41317510954E+04  0.37008031364E+04 0.  0.
        3    1    3    3  502    0 -0.85582141430E+03  0.15819353298E+04  0.14040285091E+04  0.22817199095E+04  0.10100000352E+00 0.  1.
       -3    1    3    3    0  502  0.85582141430E+03 -0.15819353298E+04  0.43320399103E+03  0.18500311859E+04  0.10100000352E+00 0. -1.
</event>
<event>
 5   0  0.7309833E-08  0.3703654E+04  0.7818609E-02  0.8067152E-01
        2   -1    0    0  501    0  0.00000000000E+00  0.00000000000E+00  0.18994641502E+04  0.18994641502E+04  0.25500000920E-02 0. -1.
       -2   -1    0    0    0  501  0.00000000000E+00  0.00000000000E+00 -0.18053849660E+04  0.18053849660E+04  0.25500000920E-02 0.  1.
    10030    2    1    2    0    0  0.00000000000E+00  0.00000000000E+00  0.94079184163E+02  0.37048491162E+04  0.37036544224E+04 0.  0.
        2    1    3    3  502    0 -0.39420512363E+03  0.13265410616E+04  0.12779466385E+04  0.18836816288E+04  0.25500000920E-02 0. -1.
       -2    1    3    3    0  502  0.39420512363E+03 -0.13265410616E+04 -0.11838674544E+04  0.18211674874E+04  0.25500000920E-02 0.  1.
</event>
<event>
 5   0  0.7254493E-08  0.3695468E+04  0.7818609E-02  0.8068967E-01
       -2   -1    0    0    0  501  0.00000000000E+00  0.00000000000E+00  0.22580405391E+04  0.22580405391E+04  0.25500000920E-02 0.  1.
        2   -1    0    0  501    0  0.00000000000E+00  0.00000000000E+00 -0.15119842655E+04  0.15119842655E+04  0.25500000920E-02 0. -1.
    10030    2    1    2    0    0  0.00000000000E+00  0.00000000000E+00  0.74605627367E+03  0.37700248046E+04  0.36954684498E+04 0.  0.
        3    1    3    3  502    0  0.51243338180E+03  0.40196998914E+03 -0.13910058810E+04  0.15359248726E+04  0.10100000352E+00 0. -1.
       -3    1    3    3    0  502 -0.51243338180E+03 -0.40196998914E+03  0.21370621547E+04  0.22340999320E+04  0.10100000352E+00 0.  1.
</event>
<event>
 5   0  0.7362817E-08  0.3699630E+04  0.7818609E-02  0.8068044E-01
       -2   -1    0    0    0  501  0.00000000000E+00  0.00000000000E+00  0.20983385686E+04  0.20983385686E+04  0.25500000920E-02 0.  1.
        2   -1    0    0  501    0  0.00000000000E+00  0.00000000000E+00 -0.16307265711E+04  0.16307265711E+04  0.25500000920E-02 0. -1.
    10030    2    1    2    0    0  0.00000000000E+00  0.00000000000E+00  0.46761199749E+03  0.37290651397E+04  0.36996304999E+04 0.  0.
        1    1    3    3  502    0  0.12542035337E+04  0.74356917203E+03  0.13812367878E+04  0.20084164611E+04  0.50400001928E-02 0.  1.
       -1    1    3    3    0  502 -0.12542035337E+04 -0.74356917203E+03 -0.91362479030E+03  0.17206486785E+04  0.50400001928E-02 0. -1.
</event>
<event>
 5   0  0.7191801E-08  0.3704407E+04  0.7818609E-02  0.8066986E-01
        2   -1    0    0  501    0  0.00000000000E+00  0.00000000000E+00  0.14058474641E+04  0.14058474641E+04  0.25500000920E-02 0. -1.
       -2   -1    0    0    0  501  0.00000000000E+00  0.00000000000E+00 -0.24402768381E+04  0.24402768381E+04  0.25500000920E-02 0.  1.
    10030    2    1    2    0    0  0.00000000000E+00  0.00000000000E+00 -0.10344293740E+04  0.38461243022E+04  0.37044065676E+04 0.  0.
        5    1    3    3  502    0 -0.50968454988E+03  0.14887168097E+04  0.49718842038E+03  0.16502346789E+04  0.46999998093E+01 0. -1.
       -5    1    3    3    0  502  0.50968454988E+03 -0.14887168097E+04 -0.15316177944E+04  0.21958896234E+04  0.46999998093E+01 0.  1.
</event>
<event>
 5   0  0.2282000E-08  0.3701942E+04  0.7818609E-02  0.8067532E-01
       -1   -1    0    0    0  501  0.00000000000E+00  0.00000000000E+00  0.13088276222E+04  0.13088276222E+04  0.50400001928E-02 0.  1.
        1   -1    0    0  501    0  0.00000000000E+00  0.00000000000E+00 -0.26176816736E+04  0.26176816736E+04  0.50400001928E-02 0. -1.
    10030    2    1    2    0    0  0.00000000000E+00  0.00000000000E+00 -0.13088540514E+04  0.39265092958E+04  0.37019422364E+04 0.  0.
        4    1    3    3  502    0 -0.11335531284E+04 -0.98454283823E+03  0.49374881257E+03  0.15805242162E+04  0.12699999809E+01 0.  1.
       -4    1    3    3    0  502  0.11335531284E+04  0.98454283823E+03 -0.18026028640E+04  0.23459850795E+04  0.12699999809E+01 0. -1.
</event>
<event>
 5   0  0.2282000E-08  0.3700688E+04  0.7818609E-02  0.8067809E-01
        1   -1    0    0  501    0  0.00000000000E+00  0.00000000000E+00  0.21184049388E+04  0.21184049388E+04  0.50400001928E-02 0. -1.
       -1   -1    0    0    0  501  0.00000000000E+00  0.00000000000E+00 -0.16162031406E+04  0.16162031406E+04  0.50400001928E-02 0.  1.
    10030    2    1    2    0    0  0.00000000000E+00  0.00000000000E+00  0.50220179822E+03  0.37346080794E+04  0.37006878901E+04 0.  0.
        5    1    3    3  502    0  0.42661766400E+03  0.69020826542E+02  0.20667539253E+04  0.21114593018E+04  0.46999998093E+01 0. -1.
       -5    1    3    3    0  502 -0.42661766400E+03 -0.69020826542E+02 -0.15645521270E+04  0.16231487775E+04  0.46999998093E+01 0.  1.
</event>
<event>
 5   0  0.7203049E-08  0.3700050E+04  0.7818609E-02  0.8067951E-01
        2   -1    0    0  501    0  0.00000000000E+00  0.00000000000E+00  0.12298471296E+04  0.12298471297E+04  0.25500000920E-02 0. -1.
       -2   -1    0    0    0  501  0.00000000000E+00  0.00000000000E+00 -0.27829415717E+04  0.27829415717E+04  0.25500000920E-02 0.  1.
    10030    2    1    2    0    0  0.00000000000E+00  0.00000000000E+00 -0.15530944420E+04  0.40127887013E+04  0.37000501099E+04 0.  0.
        4    1    3    3  502    0  0.65890935739E+03  0.77614926202E+03 -0.24517828325E+04  0.26547711557E+04  0.12699999809E+01 0.  1.
       -4    1    3    3    0  502 -0.65890935739E+03 -0.77614926202E+03  0.89868839050E+03  0.13580175457E+04  0.12699999809E+01 0. -1.
</event>
<event>
 5   0  0.2282000E-08  0.3698628E+04  0.7818609E-02  0.8068266E-01
       -1   -1    0    0    0  501  0.00000000000E+00  0.00000000000E+00  0.15223690609E+04  0.15223690609E+04  0.50400001928E-02 0. -1.
        1   -1    0    0  501    0  0.00000000000E+00  0.00000000000E+00 -0.22464735822E+04  0.22464735822E+04  0.50400001928E-02 0.  1.
    10030    2    1    2    0    0  0.00000000000E+00  0.00000000000E+00 -0.72410452132E+03  0.37688426431E+04  0.36986277875E+04 0.  0.
        4    1    3    3  502    0  0.16198020987E+03 -0.67060482593E+03 -0.21104375889E+04  0.22203371029E+04  0.12699999809E+01 0.  1.
       -4    1    3    3    0  502 -0.16198020987E+03  0.67060482593E+03  0.13863330675E+04  0.15485055402E+04  0.12699999809E+01 0. -1.
</event>
<event>
 5   0  0.2282000E-08  0.3703664E+04  0.7818609E-02  0.8067150E-01
        1   -1    0    0  501    0  0.00000000000E+00  0.00000000000E+00  0.19750597540E+04  0.19750597540E+04  0.50400001928E-02 0.  1.
       -1   -1    0    0    0  501  0.00000000000E+00  0.00000000000E+00 -0.17362928093E+04  0.17362928093E+04  0.50400001928E-02 0. -1.
    10030    2    1    2    0    0  0.00000000000E+00  0.00000000000E+00  0.23876694472E+03  0.37113525633E+04  0.37036641580E+04 0.  0.
        3    1    3    3  502    0  0.12739790929E+04  0.90860718339E+03  0.11117383200E+04  0.19195186494E+04  0.10100000352E+00 0.  1.
       -3    1    3    3    0  502 -0.12739790929E+04 -0.90860718339E+03 -0.87297137531E+03  0.17918339139E+04  0.10100000352E+00 0. -1.
</event>
<event>
 5   0  0.7362817E-08  0.3689248E+04  0.7818609E-02  0.8070349E-01
        2   -1    0    0  501    0  0.00000000000E+00  0.00000000000E+00  0.19837406598E+04  0.19837406598E+04  0.25500000920E-02 0. -1.
       -2   -1    0    0    0  501  0.00000000000E+00  0.00000000000E+00 -0.17152635068E+04  0.17152635068E+04  0.25500000920E-02 0.  1.
    10030    2    1    2    0    0  0.00000000000E+00  0.00000000000E+00  0.26847715301E+03  0.36990041665E+04  0.36892481405E+04 0.  0.
        1    1    3    3  502    0  0.17400419787E+04  0.59608264220E+03  0.27452769304E+03  0.18596843974E+04  0.50400001928E-02 0. -1.
       -1    1    3    3    0  502 -0.17400419787E+04 -0.59608264220E+03 -0.60505400252E+01  0.18393197691E+04  0.50400001928E-02 0.  1.
</event>
<event>
 5   0  0.2282000E-08  0.3609400E+04  0.7818609E-02  0.8088342E-01
       -1   -1    0    0    0  501  0.00000000000E+00  0.00000000000E+00  0.16041041155E+04  0.16041041155E+04  0.50400001928E-02 0. -1.
        1   -1    0    0  501    0  0.00000000000E+00  0.00000000000E+00 -0.20303806622E+04  0.20303806622E+04  0.50400001928E-02 0.  1.
    10030    2    1    2    0    0  0.00000000000E+00  0.00000000000E+00 -0.42627654675E+03  0.36344847777E+04  0.36093999369E+04 0.  0.
        5    1    3    3  502    0 -0.99220758021E+03 -0.14990237115E+04 -0.37353093050E+03  0.18360543064E+04  0.46999998093E+01 0.  1.
       -5    1    3    3    0  502  0.99220758021E+03  0.14990237115E+04 -0.52745616251E+02  0.17984304713E+04  0.46999998093E+01 0. -1.
</event>
<event>
 5   0  0.7203049E-08  0.3697257E+04  0.7818609E-02  0.8068570E-01
       -2   -1    0    0    0  501  0.00000000000E+00  0.00000000000E+00  0.14278033852E+04  0.14278033852E+04  0.25500000920E-02 0.  1.
        2   -1    0    0  501    0  0.00000000000E+00  0.00000000000E+00 -0.23934856988E+04  0.23934856988E+04  0.25500000920E-02 0. -1.
    10030    2    1    2    0    0  0.00000000000E+00  0.00000000000E+00 -0.96568231361E+03  0.38212890840E+04  0.36972568119E+04 0.  0.
        4    1    3    3  502    0  0.11228075027E+04 -0.27777143842E+03 -0.19732905218E+04  0.22872976974E+04  0.12699999809E+01 0. -1.
       -4    1    3    3    0  502 -0.11228075027E+04  0.27777143842E+03  0.10076082082E+04  0.15339913867E+04  0.12699999809E+01 0.  1.
</event>
<event>
 5   0  0.7362817E-08  0.3682672E+04  0.7818609E-02  0.8071813E-01
       -2   -1    0    0    0  501  0.00000000000E+00  0.00000000000E+00  0.16659424249E+04  0.16659424249E+04  0.25500000920E-02 0. -1.
        2   -1    0    0  501    0  0.00000000000E+00  0.00000000000E+00 -0.20351951347E+04  0.20351951347E+04  0.25500000920E-02 0.  1.
    10030    2    1    2    0    0  0.00000000000E+00  0.00000000000E+00 -0.36925270976E+03  0.37011375596E+04  0.36826718115E+04 0.  0.
        1    1    3    3  502    0 -0.52813760234E+03  0.14376050798E+04  0.84269298549E+03  0.17480758451E+04  0.50400001928E-02 0. -1.
       -1    1    3    3    0  502  0.52813760234E+03 -0.14376050798E+04 -0.12119456953E+04  0.19530617145E+04  0.50400001928E-02 0.  1.
</event>
<event>
 5   0  0.7254493E-08  0.3700730E+04  0.7818609E-02  0.8067800E-01
        2   -1    0    0  501    0  0.00000000000E+00  0.00000000000E+00  0.31373813935E+04  0.31373813935E+04  0.25500000920E-02 0.  1.
       -2   -1    0    0    0  501  0.00000000000E+00  0.00000000000E+00 -0.10913082716E+04  0.10913082716E+04  0.25500000920E-02 0. -1.
    10030    2    1    2    0    0  0.00000000000E+00  0.00000000000E+00  0.20460731219E+04  0.42286896652E+04  0.37007298015E+04 0.  0.
        3    1    3    3  502    0  0.91905918254E+03  0.15165683541E+04  0.16268139507E+04  0.24064856106E+04  0.10100000352E+00 0. -1.
       -3    1    3    3    0  502 -0.91905918254E+03 -0.15165683541E+04  0.41925917127E+03  0.18222040546E+04  0.10100000352E+00 0.  1.
</event>
<event>
 5   0  0.7309833E-08  0.3694975E+04  0.7818609E-02  0.8069076E-01
       -2   -1    0    0    0  501  0.00000000000E+00  0.00000000000E+00  0.16060350829E+04  0.16060350829E+04  0.25500000920E-02 0. -1.
        2   -1    0    0  501    0  0.00000000000E+00  0.00000000000E+00 -0.21252395016E+04  0.21252395016E+04  0.25500000920E-02 0.  1.
    10030    2    1    2    0    0  0.00000000000E+00  0.00000000000E+00 -0.51920441876E+03  0.37312745845E+04  0.36949745326E+04 0.  0.
        2    1    3    3  502    0  0.39103479236E+03  0.39330117992E+03 -0.20391906677E+04  0.21132658626E+04  0.25500000920E-02 0.  1.
       -2    1    3    3    0  502 -0.39103479236E+03 -0.39330117992E+03  0.15199862489E+04  0.16180087218E+04  0.25500000920E-02 0. -1.
</event>
<event>
 5   0  0.7362817E-08  0.3699603E+04  0.7818609E-02  0.8068050E-01
        2   -1    0    0  501    0  0.00000000000E+00  0.00000000000E+00  0.15212875406E+04  0.15212875406E+04  0.25500000920E-02 0. -1.
       -2   -1    0    0    0  501  0.00000000000E+00  0.00000000000E+00 -0.22492563192E+04  0.22492563192E+04  0.25500000920E-02 0.  1.
    10030    2    1    2    0    0  0.00000000000E+00  0.00000000000E+00 -0.72796877865E+03  0.37705438598E+04  0.36996030133E+04 0.  0.
        1    1    3    3  502    0 -0.17838080573E+04 -0.47349954921E+03 -0.49124916585E+03  0.19098425986E+04  0.50400001928E-02 0.  1.
       -1    1    3    3    0  502  0.17838080573E+04  0.47349954921E+03 -0.23671961280E+03  0.18607012612E+04  0.50400001928E-02 0. -1.
</event>
<event>
 5   0  0.7191801E-08  0.3701619E+04  0.7818609E-02  0.8067603E-01
       -2   -1    0    0    0  501  0.00000000000E+00  0.00000000000E+00  0.20149214916E+04  0.20149214916E+04  0.25500000920E-02 0.  1.
        2   -1    0    0  501    0  0.00000000000E+00  0.00000000000E+00 -0.17000637920E+04  0.17000637920E+04  0.25500000920E-02 0. -1.
    10030    2    1    2    0    0  0.00000000000E+00  0.00000000000E+00  0.31485769957E+03  0.37149852837E+04  0.37016186036E+04 0.  0.
        5    1    3    3  502    0  0.52250773237E+03 -0.63491754266E+03  0.18215292488E+04  0.19985308381E+04  0.46999998093E+01 0.  1.
       -5    1    3    3    0  502 -0.52250773237E+03  0.63491754266E+03 -0.15066715493E+04  0.17164544456E+04  0.46999998093E+01 0. -1.
</event>
<event>
 5   0  0.7309833E-08  0.3703049E+04  0.7818609E-02  0.8067287E-01
       -2   -1    0    0    0  501  0.00000000000E+00  0.00000000000E+00  0.12337788849E+04  0.12337788849E+04  0.25500000920E-02 0. -1.
        2   -1    0    0  501    0  0.00000000000E+00  0.00000000000E+00 -0.27785713249E+04  0.27785713249E+04  0.25500000920E-02 0.  1.
    10030    2    1    2    0    0  0.00000000000E+00  0.00000000000E+00 -0.15447924400E+04  0.40123502098E+04  0.37030488147E+04 0.  0.
        2    1    3    3  502    0  0.60246888143E+03 -0.13735017310E+04  0.40394938493E+03  0.15532710207E+04  0.25500000920E-02 0. -1.
       -2    1    3    3    0  502 -0.60246888143E+03  0.13735017310E+04 -0.19487418249E+04  0.24590791891E+04  0.25500000920E-02 0.  1.
</event>
<event>
 5   0  0.2282000E-08  0.3700438E+04  0.7818609E-02  0.8067865E-01
       -1   -1    0    0    0  501  0.00000000000E+00  0.00000000000E+00  0.21167489939E+04  0.21167489939E+04  0.50400001928E-02 0. -1.
        1   -1    0    0  501    0  0.00000000000E+00  0.00000000000E+00 -0.16172494755E+04  0.16172494755E+04  0.50400001928E-02 0.  1.
    10030    2    1    2    0    0  0.00000000000E+00  0.00000000000E+00  0.49949951841E+03  0.37339984694E+04  0.37004384606E+04 0.  0.
        3    1    3    3  502    0  0.16259171408E+04  0.51303339197E+03  0.97494791744E+03  0.19640094863E+04  0.10100000352E+00 0. -1.
       -3    1    3    3    0  502 -0.16259171408E+04 -0.51303339197E+03 -0.47544839904E+03  0.17699889832E+04  0.10100000352E+00 0.  1.
</event>
<event>
 5   0  0.2282000E-08  0.3695288E+04  0.7818609E-02  0.8069007E-01
        1   -1    0    0  501    0  0.00000000000E+00  0.00000000000E+00  0.16233584323E+04  0.16233584323E+04  0.50400001928E-02 0.  1.
       -1   -1    0    0    0  501  0.00000000000E+00  0.00000000000E+00 -0.21029170973E+04  0.21029170973E+04  0.50400001928E-02 0. -1.
    10030    2    1    2    0    0  0.00000000000E+00  0.00000000000E+00 -0.47955866503E+03  0.37262755296E+04  0.36952879197E+04 0.  0.
        1    1    3    3  502    0 -0.13797204053E+04  0.10239442096E+03 -0.14746608351E+04  0.20220627074E+04  0.50400001928E-02 0. -1.
       -1    1    3    3    0  502  0.13797204053E+04 -0.10239442096E+03  0.99510217003E+03  0.17042128221E+04  0.50400001928E-02 0.  1.
</event>
<event>
 5   0  0.7309833E-08  0.3703915E+04  0.7818609E-02  0.8067095E-01
        2   -1    0    0  501    0  0.00000000000E+00  0.00000000000E+00  0.28773875821E+04  0.28773875821E+04  0.25500000920E-02 0. -1.
       -2   -1    0    0    0  501  0.00000000000E+00  0.00000000000E+00 -0.11919655923E+04  0.11919655924E+04  0.25500000920E-02 0.  1.
    10030    2    1    2    0    0  0.00000000000E+00  0.00000000000E+00  0.16854219897E+04  0.40693531744E+04  0.37039152224E+04 0.  0.
        2    1    3    3  502    0 -0.84878007779E+03 -0.64808699564E+03  0.25050360405E+04  0.27231690984E+04  0.25500000920E-02 0. -1.
       -2    1    3    3    0  502  0.84878007779E+03  0.64808699564E+03 -0.81961405075E+03  0.13461840760E+04  0.25500000920E-02 0.  1.
</event>
<event>
 5   0  0.7191801E-08  0.3699268E+04  0.7818609E-02  0.8068124E-01
       -2   -1    0    0    0  501  0.00000000000E+00  0.00000000000E+00  0.13644265944E+04  0.13644265944E+04  0.25500000920E-02 0. -1.
        2   -1    0    0  501    0  0.00000000000E+00  0.00000000000E+00 -0.25073878191E+04  0.25073878191E+04  0.25500000920E-02 0.  1.
    10030    2    1    2    0    0  0.00000000000E+00  0.00000000000E+00 -0.11429612246E+04  0.38718144135E+04  0.36992683725E+04 0.  0.
        5    1    3    3  502    0  0.26250572591E+03 -0.14518986688E+04  0.59598677299E+03  0.15912703492E+04  0.46999998093E+01 0. -1.
       -5    1    3    3    0  502 -0.26250572591E+03  0.14518986688E+04 -0.17389479976E+04  0.22805440643E+04  0.46999998093E+01 0.  1.
</event>
<event>
 5   0  0.7191801E-08  0.3710486E+04  0.7818609E-02  0.8065642E-01
       -2   -1    0    0    0  501  0.00000000000E+00  0.00000000000E+00  0.23290946094E+04  0.23290946094E+04  0.25500000920E-02 0. -1.
        2   -1    0    0  501    0  0.00000000000E+00  0.00000000000E+00 -0.14777957085E+04  0.14777957085E+04  0.25500000920E-02 0.  1.
    10030    2    1    2    0    0  0.00000000000E+00  0.00000000000E+00  0.85129890089E+03  0.38068903179E+04  0.37104856925E+04 0.  0.
        5    1    3    3  502    0  0.14274018885E+04 -0.10792050767E+04  0.92800781669E+03  0.20157828124E+04  0.46999998093E+01 0. -1.
       -5    1    3    3    0  502 -0.14274018885E+04  0.10792050767E+04 -0.76708915805E+02  0.17911075056E+04  0.46999998093E+01 0.  1.
</event>
<event>
 5   0  0.2282000E-08  0.3697091E+04  0.7818609E-02  0.8068607E-01
        1   -1    0    0  501    0  0.00000000000E+00  0.00000000000E+00  0.28969403494E+04  0.28969403494E+04  0.50400001928E-02 0. -1.
       -1   -1    0    0    0  501  0.00000000000E+00  0.00000000000E+00 -0.11795620341E+04  0.11795620341E+04  0.50400001928E-02 0.  1.
    10030    2    1    2    0    0  0.00000000000E+00  0.00000000000E+00  0.17173783153E+04  0.40765023835E+04  0.36970912086E+04 0.  0.
        4    1    3    3  502    0 -0.30951408834E+03 -0.18088767066E+04  0.11034750361E+04  0.21413763515E+04  0.12699999809E+01 0. -1.
       -4    1    3    3    0  502  0.30951408834E+03  0.18088767066E+04  0.61390327927E+03  0.19351260320E+04  0.12699999809E+01 0.  1.
</event>
<event>
 5   0  0.2282000E-08  0.3699062E+04  0.7818609E-02  0.8068170E-01
       -3   -1    0    0    0  501  0.00000000000E+00  0.00000000000E+00  0.17384046553E+04  0.17384046582E+04  0.10100000352E+00 0. -1.
        3   -1    0    0  501    0  0.00000000000E+00  0.00000000000E+00 -0.19677610203E+04  0.19677610229E+04  0.10100000352E+00 0.  1.
    10030    2    1    2    0    0  0.00000000000E+00  0.00000000000E+00 -0.22935636504E+03  0.37061656811E+04  0.36990620046E+04 0.  0.
        2    1    3    3  502    0  0.17418961835E+04  0.54002902964E+03  0.19402268140E+03  0.18339788625E+04  0.25500000920E-02 0. -1.
       -2    1    3    3    0  502 -0.17418961835E+04 -0.54002902964E+03 -0.42337904644E+03  0.18721868187E+04  0.25500000920E-02 0.  1.
</event>
<event>
 5   0  0.7362817E-08  0.3700242E+04  0.7818609E-02  0.8067908E-01
       -2   -1    0    0    0  501  0.00000000000E+00  0.00000000000E+00  0.20534068320E+04  0.20534068320E+04  0.25500000920E-02 0. -1.
        2   -1    0    0  501    0  0.00000000000E+00  0.00000000000E+00 -0.16669606874E+04  0.16669606874E+04  0.25500000920E-02 0.  1.
    10030    2    1    2    0    0  0.00000000000E+00  0.00000000000E+00  0.38644614465E+03  0.37203675194E+04  0.37002424051E+04 0.  0.
        1    1    3    3  502    0 -0.12238430683E+03  0.54459069765E+03  0.19667304519E+04  0.20444034868E+04  0.50400001928E-02 0. -1.
       -1    1    3    3    0  502  0.12238430683E+03 -0.54459069765E+03 -0.15802843073E+04  0.16759640325E+04  0.50400001928E-02 0.  1.
</event>
<event>
 5   0  0.7203049E-08  0.3698257E+04  0.7818609E-02  0.8068348E-01
       -2   -1    0    0    0  501  0.00000000000E+00  0.00000000000E+00  0.20730164137E+04  0.20730164137E+04  0.25500000920E-02 0.  1.
        2   -1    0    0  501    0  0.00000000000E+00  0.00000000000E+00 -0.16494203824E+04  0.16494203824E+04  0.25500000920E-02 0. -1.
    10030    2    1    2    0    0  0.00000000000E+00  0.00000000000E+00  0.42359603136E+03  0.37224367961E+04  0.36982566302E+04 0.  0.
        4    1    3    3  502    0 -0.97429848000E+03  0.70372890728E+03 -0.12026593745E+04  0.17002597116E+04  0.12699999809E+01 0. -1.
       -4    1    3    3    0  502  0.97429848000E+03 -0.70372890728E+03  0.16262554058E+04  0.20221770845E+04  0.12699999809E+01 0.  1.
</event>
<event>
 5   0  0.7309833E-08  0.3688387E+04  0.7818609E-02  0.8070540E-01
       -2   -1    0    0    0  501  0.00000000000E+00  0.00000000000E+00  0.15254777979E+04  0.15254777979E+04  0.25500000920E-02 0. -1.
        2   -1    0    0  501    0  0.00000000000E+00  0.00000000000E+00 -0.22294980714E+04  0.22294980714E+04  0.25500000920E-02 0.  1.
    10030    2    1    2    0    0  0.00000000000E+00  0.00000000000E+00 -0.70402027354E+03  0.37549758693E+04  0.36883870775E+04 0.  0.
        2    1    3    3  502    0  0.10933658553E+03 -0.16409635668E+04  0.49752124314E+03  0.17182093307E+04  0.25500000920E-02 0. -1.
       -2    1    3    3    0  502 -0.10933658553E+03  0.16409635668E+04 -0.12015415167E+04  0.20367665387E+04  0.25500000920E-02 0.  1.
</event>
<event>
 5   0  0.7309833E-08  0.3682426E+04  0.7818609E-02  0.8071868E-01
        2   -1    0    0  501    0  0.00000000000E+00  0.00000000000E+00  0.26557824294E+04  0.26557824294E+04  0.25500000920E-02 0. -1.
       -2   -1    0    0    0  501  0.00000000000E+00  0.00000000000E+00 -0.12764842958E+04  0.12764842958E+04  0.25500000920E-02 0.  1.
    10030    2    1    2    0    0  0.00000000000E+00  0.00000000000E+00  0.13792981336E+04  0.39322667252E+04  0.36824255942E+04 0.  0.
        2    1    3    3  502    0  0.47919991273E+03  0.17767053926E+04  0.75504068017E+03  0.19890703952E+04  0.25500000920E-02 0.  1.
       -2    1    3    3    0  502 -0.47919991273E+03 -0.17767053926E+04  0.62425745346E+03  0.19431963299E+04  0.25500000920E-02 0. -1.
</event>
<event>
 5   0  0.2282000E-08  0.3697918E+04  0.7818609E-02  0.8068423E-01
        1   -1    0    0  501    0  0.00000000000E+00  0.00000000000E+00  0.20750195841E+04  0.20750195841E+04  0.50400001928E-02 0.  1.
       -1   -1    0    0    0  501  0.00000000000E+00  0.00000000000E+00 -0.16475267635E+04  0.16475267635E+04  0.50400001928E-02 0. -1.
    10030    2    1    2    0    0  0.00000000000E+00  0.00000000000E+00  0.42749282061E+03  0.37225463475E+04  0.36979184953E+04 0.  0.
        2    1    3    3  502    0  0.15160435356E+04 -0.40721938268E+02 -0.85093817674E+03  0.17390060548E+04  0.25500000920E-02 0. -1.
       -2    1    3    3    0  502 -0.15160435356E+04  0.40721938268E+02  0.12784309974E+04  0.19835402927E+04  0.25500000920E-02 0.  1.
</event>
<event>
 5   0  0.2282000E-08  0.3706970E+04  0.7818609E-02  0.8066419E-01
       -1   -1    0    0    0  501  0.00000000000E+00  0.00000000000E+00  0.12800136216E+04  0.12800136216E+04  0.50400001928E-02 0. -1.
        1   -1    0    0  501    0  0.00000000000E+00  0.00000000000E+00 -0.26838827812E+04  0.26838827812E+04  0.50400001928E-02 0.  1.
    10030    2    1    2    0    0  0.00000000000E+00  0.00000000000E+00 -0.14038691595E+04  0.39638964028E+04  0.37069699318E+04 0.  0.
        3    1    3    3  502    0 -0.47341431930E+03 -0.15517561021E+04  0.25647797271E+03  0.16425130377E+04  0.10100000352E+00 0. -1.
       -3    1    3    3    0  502  0.47341431930E+03  0.15517561021E+04 -0.16603471322E+04  0.23213833652E+04  0.10100000352E+00 0.  1.
</event>
<event>
 5   0  0.7191801E-08  0.3696003E+04  0.7818609E-02  0.8068848E-01
        2   -1    0    0  501    0  0.00000000000E+00  0.00000000000E+00  0.14299941140E+04  0.14299941140E+04  0.25500000920E-02 0.  1.
       -2   -1    0    0    0  501  0.00000000000E+00  0.00000000000E+00 -0.23881985108E+04  0.23881985108E+04  0.25500000920E-02 0. -1.
    10030    2    1    2    0    0  0.00000000000E+00  0.00000000000E+00 -0.95820439680E+03  0.38181926249E+04  0.36960031459E+04 0.  0.
        5    1    3    3  502    0 -0.91701907759E+03  0.24110031780E+03  0.11595386887E+04  0.14978669542E+04  0.46999998093E+01 0.  1.
       -5    1    3    3    0  502  0.91701907759E+03 -0.24110031780E+03 -0.21177430855E+04  0.23203256707E+04  0.46999998093E+01 0. -1.
</event>
<event>
 5   0  0.7362817E-08  0.3761856E+04  0.7818609E-02  0.8054390E-01
       -2   -1    0    0    0  501  0.00000000000E+00  0.00000000000E+00  0.14913897171E+04  0.14913897171E+04  0.25500000920E-02 0. -1.
        2   -1    0    0  501    0  0.00000000000E+00  0.00000000000E+00 -0.23722106020E+04  0.23722106020E+04  0.25500000920E-02 0.  1.
    10030    2    1    2    0    0  0.00000000000E+00  0.00000000000E+00 -0.88082088480E+03  0.38636003191E+04  0.37618561901E+04 0.  0.
        1    1    3    3  502    0 -0.10889228080E+04  0.15305710114E+04 -0.54046180783E+03  0.19546097995E+04  0.50400001928E-02 0. -1.
       -1    1    3    3    0  502  0.10889228080E+04 -0.15305710114E+04 -0.34035907697E+03  0.19089905196E+04  0.50400001928E-02 0.  1.
</event>
<event>
 5   0  0.2282000E-08  0.3699385E+04  0.7818609E-02  0.8068098E-01
       -1   -1    0    0    0  501  0.00000000000E+00  0.00000000000E+00  0.31489870384E+04  0.31489870384E+04  0.50400001928E-02 0. -1.
        1   -1    0    0  501    0  0.00000000000E+00  0.00000000000E+00 -0.10864962536E+04  0.10864962536E+04  0.50400001928E-02 0.  1.
    10030    2    1    2    0    0  0.00000000000E+00  0.00000000000E+00  0.20624907847E+04  0.42354832920E+04  0.36993851488E+04 0.  0.
        4    1    3    3  502    0  0.11086880080E+04 -0.11468989500E+04 -0.40822732799E+02  0.15956924543E+04  0.12699999809E+01 0.  1.
       -4    1    3    3    0  502 -0.11086880080E+04  0.11468989500E+04  0.21033135175E+04  0.26397908376E+04  0.12699999809E+01 0. -1.
</event>
<event>
 5   0  0.2282000E-08  0.3697605E+04  0.7818609E-02  0.8068493E-01
       -1   -1    0    0    0  501  0.00000000000E+00  0.00000000000E+00  0.13780080826E+04  0.13780080826E+04  0.50400001928E-02 0. -1.
        1   -1    0    0  501    0  0.00000000000E+00  0.00000000000E+00 -0.24804426444E+04  0.24804426444E+04  0.50400001928E-02 0.  1.
    10030    2    1    2    0    0  0.00000000000E+00  0.00000000000E+00 -0.11024345618E+04  0.38584507270E+04  0.36976046368E+04 0.  0.
        3    1    3    3  502    0 -0.11359291342E+03 -0.16098448160E+04  0.38999799416E+03  0.16603018181E+04  0.10100000352E+00 0. -1.
       -3    1    3    3    0  502  0.11359291342E+03  0.16098448160E+04 -0.14924325559E+04  0.21981489089E+04  0.10100000352E+00 0.  1.
</event>
<event>
 5   0  0.7191801E-08  0.3703533E+04  0.7818609E-02  0.8067179E-01
       -2   -1    0    0    0  501  0.00000000000E+00  0.00000000000E+00  0.17928353451E+04  0.17928353451E+04  0.25500000920E-02 0.  1.
        2   -1    0    0  501    0  0.00000000000E+00  0.00000000000E+00 -0.19126348766E+04  0.19126348766E+04  0.25500000920E-02 0. -1.
    10030    2    1    2    0    0  0.00000000000E+00  0.00000000000E+00 -0.11979953141E+03  0.37054702217E+04  0.37035331288E+04 0.  0.
        5    1    3    3  502    0  0.12322540105E+04 -0.62678194014E+03 -0.12924985783E+04  0.18925855890E+04  0.46999998093E+01 0. -1.
       -5    1    3    3    0  502 -0.12322540105E+04  0.62678194014E+03  0.11726990469E+04  0.18128846327E+04  0.46999998093E+01 0.  1.
</event>
<event>
 5   0  0.7191801E-08  0.3708190E+04  0.7818609E-02  0.8066149E-01
        2   -1    0    0  501    0  0.00000000000E+00  0.00000000000E+00  0.21380647016E+04  0.21380647016E+04  0.25500000920E-02 0.  1.
       -2   -1    0    0    0  501  0.00000000000E+00  0.00000000000E+00 -0.16078415068E+04  0.16078415068E+04  0.25500000920E-02 0. -1.
    10030    2    1    2    0    0  0.00000000000E+00  0.00000000000E+00  0.53022319476E+03  0.37459062085E+04  0.37081904868E+04 0.  0.
        5    1    3    3  502    0 -0.88611202599E+03 -0.80310001637E+03  0.16963790436E+04  0.20755452557E+04  0.46999998093E+01 0.  1.
       -5    1    3    3    0  502  0.88611202599E+03  0.80310001637E+03 -0.11661558488E+04  0.16703609528E+04  0.46999998093E+01 0. -1.
</event>
<event>
 5   0  0.7309833E-08  0.3698758E+04  0.7818609E-02  0.8068237E-01
        2   -1    0    0  501    0  0.00000000000E+00  0.00000000000E+00  0.26517645213E+04  0.26517645213E+04  0.25500000920E-02 0.  1.
       -2   -1    0    0    0  501  0.00000000000E+00  0.00000000000E+00 -0.12897835672E+04  0.12897835672E+04  0.25500000920E-02 0. -1.
    10030    2    1    2    0    0  0.00000000000E+00  0.00000000000E+00  0.13619809542E+04  0.39415480885E+04  0.36987577934E+04 0.  0.
        2    1    3    3  502    0 -0.25252755710E+02  0.14921327044E+04  0.18449830127E+04  0.23729854670E+04  0.25500000920E-02 0.  1.
       -2    1    3    3    0  502  0.25252755710E+02 -0.14921327044E+04 -0.48300205855E+03  0.15685626215E+04  0.25500000920E-02 0. -1.
</event>
<event>
 5   0  0.7203049E-08  0.3704361E+04  0.7818609E-02  0.8066996E-01
        2   -1    0    0  501    0  0.00000000000E+00  0.00000000000E+00  0.16335368270E+04  0.16335368270E+04  0.25500000920E-02 0.  1.
       -2   -1    0    0    0  501  0.00000000000E+00  0.00000000000E+00 -0.21000891320E+04  0.21000891320E+04  0.25500000920E-02 0. -1.
    10030    2    1    2    0    0  0.00000000000E+00  0.00000000000E+00 -0.46655230502E+03  0.37336259591E+04  0.37043611796E+04 0.  0.
        4    1    3    3  502    0 -0.21236852533E+03 -0.13047899554E+04  0.10742752795E+04  0.17034219111E+04  0.12699999809E+01 0.  1.
       -4    1    3    3    0  502  0.21236852533E+03  0.13047899554E+04 -0.15408275845E+04  0.20302040480E+04  0.12699999809E+01 0. -1.
</event>
<event>
 5   0  0.2282000E-08  0.3652210E+04  0.7818609E-02  0.8078636E-01
        1   -1    0    0  501    0  0.00000000000E+00  0.00000000000E+00  0.18751878298E+04  0.18751878299E+04  0.50400001928E-02 0.  1.
       -1   -1    0    0    0  501  0.00000000000E+00  0.00000000000E+00 -0.17783067214E+04  0.17783067214E+04  0.50400001928E-02 0. -1.
    10030    2    1    2    0    0  0.00000000000E+00  0.00000000000E+00  0.96881108449E+02  0.36534945513E+04  0.36522098087E+04 0.  0.
        1    1    3    3  502    0 -0.31041151704E+03 -0.29494806332E+03 -0.17273767005E+04  0.17796572522E+04  0.50400001928E-02 0. -1.
       -1    1    3    3    0  502  0.31041151704E+03  0.29494806332E+03  0.18242578089E+04  0.18738372991E+04  0.50400001928E-02 0.  1.
</event>
<event>
 5   0  0.2282000E-08  0.3692872E+04  0.7818609E-02  0.8069543E-01
        1   -1    0    0  501    0  0.00000000000E+00  0.00000000000E+00  0.28997785658E+04  0.28997785658E+04  0.50400001928E-02 0.  1.
       -1   -1    0    0    0  501  0.00000000000E+00  0.00000000000E+00 -0.11757195911E+04  0.11757195911E+04  0.50400001928E-02 0. -1.
    10030    2    1    2    0    0  0.00000000000E+00  0.00000000000E+00  0.17240589748E+04  0.40754981569E+04  0.36928723073E+04 0.  0.
        1    1    3    3  502    0 -0.68466949959E+03 -0.14160811509E+04  0.19293246037E+04  0.24892471906E+04  0.50400001928E-02 0.  1.
       -1    1    3    3    0  502  0.68466949959E+03  0.14160811509E+04 -0.20526562892E+03  0.15862509663E+04  0.50400001928E-02 0. -1.
</event>
<event>
 5   0  0.2282000E-08  0.3694433E+04  0.7818609E-02  0.8069197E-01
        1   -1    0    0  501    0  0.00000000000E+00  0.00000000000E+00  0.27972629845E+04  0.27972629845E+04  0.50400001928E-02 0. -1.
       -1   -1    0    0    0  501  0.00000000000E+00  0.00000000000E+00 -0.12198383193E+04  0.12198383193E+04  0.50400001928E-02 0.  1.
    10030    2    1    2    0    0  0.00000000000E+00  0.00000000000E+00  0.15774246652E+04  0.40171013038E+04  0.36944328807E+04 0.  0.
        5    1    3    3  502    0 -0.71156856906E+03 -0.93022355455E+03 -0.76452436996E+03  0.13986297910E+04  0.46999998093E+01 0.  1.
       -5    1    3    3    0  502  0.71156856906E+03  0.93022355455E+03  0.23419490352E+04  0.26184715128E+04  0.46999998093E+01 0. -1.
</event>
<event>
 5   0  0.7362817E-08  0.3696707E+04  0.7818609E-02  0.8068692E-01
        2   -1    0    0  501    0  0.00000000000E+00  0.00000000000E+00  0.17298427793E+04  0.17298427793E+04  0.25500000920E-02 0.  1.
       -2   -1    0    0    0  501  0.00000000000E+00  0.00000000000E+00 -0.19749828043E+04  0.19749828043E+04  0.25500000920E-02 0. -1.
    10030    2    1    2    0    0  0.00000000000E+00  0.00000000000E+00 -0.24514002498E+03  0.37048255835E+04  0.36967065034E+04 0.  0.
        1    1    3    3  502    0  0.86953911904E+03  0.10021202142E+03 -0.17541101975E+04  0.19603681577E+04  0.50400001928E-02 0. -1.
       -1    1    3    3    0  502 -0.86953911904E+03 -0.10021202142E+03  0.15089701725E+04  0.17444574258E+04  0.50400001928E-02 0.  1.
</event>
<event>
 5   0  0.7203049E-08  0.3698887E+04  0.7818609E-02  0.8068209E-01
        2   -1    0    0  501    0  0.00000000000E+00  0.00000000000E+00  0.16176436930E+04  0.16176436930E+04  0.25500000920E-02 0.  1.
       -2   -1    0    0    0  501  0.00000000000E+00  0.00000000000E+00 -0.21144590771E+04  0.21144590771E+04  0.25500000920E-02 0. -1.
    10030    2    1    2    0    0  0.00000000000E+00  0.00000000000E+00 -0.49681538412E+03  0.37321027702E+04  0.36988870706E+04 0.  0.
        4    1    3    3  502    0  0.88738455547E+03 -0.16102433757E+04 -0.46347782603E+02  0.18391532856E+04  0.12699999809E+01 0. -1.
       -4    1    3    3    0  502 -0.88738455547E+03  0.16102433757E+04 -0.45046760151E+03  0.18929494846E+04  0.12699999809E+01 0.  1.
</event>
<event>
 5   0  0.2282000E-08  0.3704954E+04  0.7818609E-02  0.8066865E-01
        1   -1    0    0  501    0  0.00000000000E+00  0.00000000000E+00  0.22414132160E+04  0.22414132160E+04  0.50400001928E-02 0. -1.
       -1   -1    0    0    0  501  0.00000000000E+00  0.00000000000E+00 -0.15310298758E+04  0.15310298758E+04  0.50400001928E-02 0.  1.
    10030    2    1    2    0    0  0.00000000000E+00  0.00000000000E+00  0.71038334027E+03  0.37724430918E+04  0.37049537636E+04 0.  0.
        4    1    3    3  502    0  0.17315177743E+04 -0.27804111529E+03 -0.25251210504E+03  0.17717857208E+04  0.12699999809E+01 0.  1.
       -4    1    3    3    0  502 -0.17315177743E+04  0.27804111529E+03  0.96289544531E+03  0.20006573710E+04  0.12699999809E+01 0. -1.
</event>
<event>
 5   0  0.2282000E-08  0.3708846E+04  0.7818609E-02  0.8066004E-01
        1   -1    0    0  501    0  0.00000000000E+00  0.00000000000E+00  0.21535675902E+04  0.21535675902E+04  0.50400001928E-02 0. -1.
       -1   -1    0    0    0  501  0.00000000000E+00  0.00000000000E+00 -0.15968311667E+04  0.15968311667E+04  0.50400001928E-02 0.  1.
    10030    2    1    2    0    0  0.00000000000E+00  0.00000000000E+00  0.55673642354E+03  0.37503987569E+04  0.37088455604E+04 0.  0.
        5    1    3    3  502    0  0.42030311501E+03  0.45945173671E+03 -0.14879449752E+04  0.16129950236E+04  0.46999998093E+01 0.  1.
       -5    1    3    3    0  502 -0.42030311501E+03 -0.45945173671E+03  0.20446813988E+04  0.21374037333E+04  0.46999998093E+01 0. -1.
</event>
<event>
 5   0  0.7362817E-08  0.3715655E+04  0.7818609E-02  0.8064501E-01
        2   -1    0    0  501    0  0.00000000000E+00  0.00000000000E+00  0.28506691687E+04  0.28506691687E+04  0.25500000920E-02 0. -1.
       -2   -1    0    0    0  501  0.00000000000E+00  0.00000000000E+00 -0.12107765328E+04  0.12107765328E+04  0.25500000920E-02 0.  1.
    10030    2    1    2    0    0  0.00000000000E+00  0.00000000000E+00  0.16398926359E+04  0.40614457015E+04  0.37156551682E+04 0.  0.
        1    1    3    3  502    0  0.76102611196E+03  0.42630848520E+03 -0.97301833470E+03  0.13067763188E+04  0.50400001928E-02 0.  1.
       -1    1    3    3    0  502 -0.76102611196E+03 -0.42630848520E+03  0.26129109706E+04  0.27546693827E+04  0.50400001928E-02 0. -1.
</event>
<event>
 5   0  0.2282000E-08  0.3700424E+04  0.7818609E-02  0.8067868E-01
       -1   -1    0    0    0  501  0.00000000000E+00  0.00000000000E+00  0.18394202911E+04  0.18394202911E+04  0.50400001928E-02 0. -1.
        1   -1    0    0  501    0  0.00000000000E+00  0.00000000000E+00 -0.18610674666E+04  0.18610674666E+04  0.50400001928E-02 0.  1.
    10030    2    1    2    0    0  0.00000000000E+00  0.00000000000E+00 -0.21647175521E+02  0.37004877578E+04  0.37004244412E+04 0.  0.
        3    1    3    3  502    0  0.34646600767E+02  0.10091547362E+04 -0.15612344496E+04  0.18593134984E+04  0.10100000352E+00 0.  1.
       -3    1    3    3    0  502 -0.34646600767E+02 -0.10091547362E+04  0.15395872741E+04  0.18411742593E+04  0.10100000352E+00 0. -1.
</event>
<event>
 5   0  0.7309833E-08  0.3699920E+04  0.7818609E-02  0.8067980E-01
       -2   -1    0    0    0  501  0.00000000000E+00  0.00000000000E+00  0.10791996452E+04  0.10791996452E+04  0.25500000920E-02 0.  1.
        2   -1    0    0  501    0  0.00000000000E+00  0.00000000000E+00 -0.31711941965E+04  0.31711941965E+04  0.25500000920E-02 0. -1.
    10030    2    1    2    0    0  0.00000000000E+00  0.00000000000E+00 -0.20919945513E+04  0.42503938416E+04  0.36999198108E+04 0.  0.
        2    1    3    3  502    0  0.41893936404E+03  0.12683562442E+04  0.42431271958E+03  0.14015273943E+04  0.25500000920E-02 0.  1.
       -2    1    3    3    0  502 -0.41893936404E+03 -0.12683562442E+04 -0.25163072709E+04  0.28488664473E+04  0.25500000920E-02 0. -1.
</event>
<event>
 5   0  0.7309833E-08  0.3695079E+04  0.7818609E-02  0.8069053E-01
       -2   -1    0    0    0  501  0.00000000000E+00  0.00000000000E+00  0.18364170404E+04  0.18364170404E+04  0.25500000920E-02 0. -1.
        2   -1    0    0  501    0  0.00000000000E+00  0.00000000000E+00 -0.18587291005E+04  0.18587291006E+04  0.25500000920E-02 0.  1.
    10030    2    1    2    0    0  0.00000000000E+00  0.00000000000E+00 -0.22312060193E+02  0.36951461409E+04  0.36950787779E+04 0.  0.
        2    1    3    3  502    0  0.14503849102E+02 -0.64385899203E+03 -0.17428449065E+04  0.18580293677E+04  0.25500000920E-02 0.  1.
       -2    1    3    3    0  502 -0.14503849102E+02  0.64385899203E+03  0.17205328463E+04  0.18371167732E+04  0.25500000920E-02 0. -1.
</event>
<event>
 5   0  0.7203049E-08  0.3702699E+04  0.7818609E-02  0.8067364E-01
        2   -1    0    0  501    0  0.00000000000E+00  0.00000000000E+00  0.24818379431E+04  0.24818379431E+04  0.25500000920E-02 0.  1.
       -2   -1    0    0    0  501  0.00000000000E+00  0.00000000000E+00 -0.13810308428E+04  0.13810308428E+04  0.25500000920E-02 0. -1.
    10030    2    1    2    0    0  0.00000000000E+00  0.00000000000E+00  0.11008071003E+04  0.38628687859E+04  0.37026988785E+04 0.  0.
        4    1    3    3  502    0  0.78206759311E+03  0.14517512655E+03 -0.11936746962E+04  0.14344219849E+04  0.12699999809E+01 0. -1.
       -4    1    3    3    0  502 -0.78206759311E+03 -0.14517512655E+03  0.22944817965E+04  0.24284468009E+04  0.12699999809E+01 0.  1.
</event>
<event>
 5   0  0.7191801E-08  0.3701368E+04  0.7818609E-02  0.8067659E-01
       -2   -1    0    0    0  501  0.00000000000E+00  0.00000000000E+00  0.22325841935E+04  0.22325841935E+04  0.25500000920E-02 0. -1.
        2   -1    0    0  501    0  0.00000000000E+00  0.00000000000E+00 -0.15341103502E+04  0.15341103502E+04  0.25500000920E-02 0.  1.
    10030    2    1    2    0    0  0.00000000000E+00  0.00000000000E+00  0.69847384330E+03  0.37666945437E+04  0.37013675953E+04 0.  0.
        5    1    3    3  502    0 -0.17654795432E+04 -0.25456578950E+03  0.85118331926E+03  0.19764252811E+04  0.46999998093E+01 0. -1.
       -5    1    3    3    0  502  0.17654795432E+04  0.25456578950E+03 -0.15270947596E+03  0.17902692626E+04  0.46999998093E+01 0.  1.
</event>
<event>
 5   0  0.7362817E-08  0.3697622E+04  0.7818609E-02  0.8068489E-01
        2   -1    0    0  501    0  0.00000000000E+00  0.00000000000E+00  0.24660565077E+04  0.24660565078E+04  0.25500000920E-02 0. -1.
       -2   -1    0    0    0  501  0.00000000000E+00  0.00000000000E+00 -0.13860600772E+04  0.13860600772E+04  0.25500000920E-02 0.  1.
    10030    2    1    2    0    0  0.00000000000E+00  0.00000000000E+00  0.10799964305E+04  0.38521165850E+04  0.36976221947E+04 0.  0.
        1    1    3    3  502    0  0.28331721724E+03  0.15909015583E+04  0.14757865163E+04  0.21884200364E+04  0.50400001928E-02 0. -1.
       -1    1    3    3    0  502 -0.28331721724E+03 -0.15909015583E+04 -0.39579008581E+03  0.16636965486E+04  0.50400001928E-02 0.  1.
</event>
<event>
 5   0  0.7191801E-08  0.3634634E+04  0.7818609E-02  0.8082604E-01
       -2   -1    0    0    0  501  0.00000000000E+00  0.00000000000E+00  0.25662045051E+04  0.25662045051E+04  0.25500000920E-02 0. -1.
        2   -1    0    0  501    0  0.00000000000E+00  0.00000000000E+00 -0.12869750458E+04  0.12869750458E+04  0.25500000920E-02 0.  1.
    10030    2    1    2    0    0  0.00000000000E+00  0.00000000000E+00  0.12792294593E+04  0.38531795510E+04  0.36346340452E+04 0.  0.
        5    1    3    3  502    0  0.82832782767E+03 -0.55147185739E+03 -0.97246791139E+03  0.13913892799E+04  0.46999998093E+01 0.  1.
       -5    1    3    3    0  502 -0.82832782767E+03  0.55147185739E+03  0.22516973707E+04  0.24617902710E+04  0.46999998093E+01 0. -1.
</event>
<event>
 5   0  0.2282000E-08  0.3710403E+04  0.7818609E-02  0.8065660E-01
        1   -1    0    0  501    0  0.00000000000E+00  0.00000000000E+00  0.15333218067E+04  0.15333218067E+04  0.50400001928E-02 0. -1.
       -1   -1    0    0    0  501  0.00000000000E+00  0.00000000000E+00 -0.22446517176E+04  0.22446517176E+04  0.50400001928E-02 0.  1.
    10030    2    1    2    0    0  0.00000000000E+00  0.00000000000E+00 -0.71132991096E+03  0.37779735243E+04  0.37104034428E+04 0.  0.
        4    1    3    3  502    0 -0.16370323120E+04 -0.86433022979E+03 -0.47966230807E+03  0.19123334122E+04  0.12699999809E+01 0. -1.
       -4    1    3    3    0  502  0.16370323120E+04  0.86433022979E+03 -0.23166760288E+03  0.18656401121E+04  0.12699999809E+01 0.  1.
</event>
<event>
 5   0  0.2282000E-08  0.3713726E+04  0.7818609E-02  0.8064927E-01
        1   -1    0    0  501    0  0.00000000000E+00  0.00000000000E+00  0.19143145020E+04  0.19143145020E+04  0.50400001928E-02 0. -1.
       -1   -1    0    0    0  501  0.00000000000E+00  0.00000000000E+00 -0.18011358454E+04  0.18011358454E+04  0.50400001928E-02 0.  1.
    10030    2    1    2    0    0  0.00000000000E+00  0.00000000000E+00  0.11317865657E+03  0.37154503474E+04  0.37137261444E+04 0.  0.
        5    1    3    3  502    0  0.23280710366E+03 -0.10898009888E+04 -0.14293790286E+04  0.18124601623E+04  0.46999998093E+01 0. -1.
       -5    1    3    3    0  502 -0.23280710366E+03  0.10898009888E+04  0.15425576851E+04  0.19029901851E+04  0.46999998093E+01 0.  1.
</event>
<event>
 5   0  0.7203049E-08  0.3604970E+04  0.7818609E-02  0.8089354E-01
        2   -1    0    0  501    0  0.00000000000E+00  0.00000000000E+00  0.20757359181E+04  0.20757359181E+04  0.25500000920E-02 0. -1.
       -2   -1    0    0    0  501  0.00000000000E+00  0.00000000000E+00 -0.15652045524E+04  0.15652045524E+04  0.25500000920E-02 0.  1.
    10030    2    1    2    0    0  0.00000000000E+00  0.00000000000E+00  0.51053136572E+03  0.36409404705E+04  0.36049695192E+04 0.  0.
        4    1    3    3  502    0  0.35354555737E+03 -0.16592095215E+04  0.87042363634E+03  0.19067274627E+04  0.12699999809E+01 0. -1.
       -4    1    3    3    0  502 -0.35354555737E+03  0.16592095215E+04 -0.35989227062E+03  0.17342130079E+04  0.12699999809E+01 0.  1.
</event>
<event>
 5   0  0.7309833E-08  0.3703718E+04  0.7818609E-02  0.8067138E-01
       -2   -1    0    0    0  501  0.00000000000E+00  0.00000000000E+00  0.19301239772E+04  0.19301239772E+04  0.25500000920E-02 0. -1.
        2   -1    0    0  501    0  0.00000000000E+00  0.00000000000E+00 -0.17767673413E+04  0.17767673413E+04  0.25500000920E-02 0.  1.
    10030    2    1    2    0    0  0.00000000000E+00  0.00000000000E+00  0.15335663593E+03  0.37068913185E+04  0.37037177254E+04 0.  0.
        2    1    3    3  502    0  0.11135712142E+04 -0.81778727268E+03  0.13108465941E+04  0.19045040472E+04  0.25500000920E-02 0. -1.
       -2    1    3    3    0  502 -0.11135712142E+04  0.81778727268E+03 -0.11574899582E+04  0.18023872713E+04  0.25500000920E-02 0.  1.
</event>
<event>
 5   0  0.2282000E-08  0.3703072E+04  0.7818609E-02  0.8067281E-01
        1   -1    0    0  501    0  0.00000000000E+00  0.00000000000E+00  0.15122488029E+04  0.15122488029E+04  0.50400001928E-02 0. -1.
       -1   -1    0    0    0  501  0.00000000000E+00  0.00000000000E+00 -0.22669453028E+04  0.22669453028E+04  0.50400001928E-02 0.  1.
    10030    2    1    2    0    0  0.00000000000E+00  0.00000000000E+00 -0.75469649983E+03  0.37791941057E+04  0.37030718710E+04 0.  0.
        5    1    3    3  502    0 -0.42831666666E+03  0.29370347088E+00  0.14609876386E+04  0.15224855413E+04  0.46999998093E+01 0. -1.
       -5    1    3    3    0  502  0.42831666666E+03 -0.29370347088E+00 -0.22156841385E+04  0.22567085644E+04  0.46999998093E+01 0.  1.
</event>
<event>
 5   0  0.2282000E-08  0.3704492E+04  0.7818609E-02  0.8066967E-01
       -1   -1    0    0    0  501  0.00000000000E+00  0.00000000000E+00  0.16235589504E+04  0.16235589504E+04  0.50400001928E-02 0. -1.
        1   -1    0    0  501    0  0.00000000000E+00  0.00000000000E+00 -0.21131451758E+04  0.21131451758E+04  0.50400001928E-02 0.  1.
    10030    2    1    2    0    0  0.00000000000E+00  0.00000000000E+00 -0.48958622537E+03  0.37367041262E+04  0.37044922803E+04 0.  0.
        4    1    3    3  502    0  0.10448716114E+04  0.81175384728E+03 -0.15522557407E+04  0.20396569541E+04  0.12699999809E+01 0.  1.
       -4    1    3    3    0  502 -0.10448716114E+04 -0.81175384728E+03  0.10626695153E+04  0.16970471722E+04  0.12699999809E+01 0. -1.
</event>
<event>
 5   0  0.7191801E-08  0.3711490E+04  0.7818609E-02  0.8065420E-01
       -2   -1    0    0    0  501  0.00000000000E+00  0.00000000000E+00  0.18516930990E+04  0.18516930990E+04  0.25500000920E-02 0. -1.
        2   -1    0    0  501    0  0.00000000000E+00  0.00000000000E+00 -0.18598059988E+04  0.18598059988E+04  0.25500000920E-02 0.  1.
    10030    2    1    2    0    0  0.00000000000E+00  0.00000000000E+00 -0.81128998091E+01  0.37114990979E+04  0.37114902309E+04 0.  0.
        5    1    3    3  502    0 -0.16845754145E+04 -0.71104443523E+03  0.31278705611E+03  0.18550569664E+04  0.46999998093E+01 0.  1.
       -5    1    3    3    0  502  0.16845754145E+04  0.71104443523E+03 -0.32089995591E+03  0.18564421315E+04  0.46999998093E+01 0. -1.
</event>
<event>
 5   0  0.2282000E-08  0.3697489E+04  0.7818609E-02  0.8068518E-01
        1   -1    0    0  501    0  0.00000000000E+00  0.00000000000E+00  0.27802912672E+04  0.27802912672E+04  0.50400001928E-02 0. -1.
       -1   -1    0    0    0  501  0.00000000000E+00  0.00000000000E+00 -0.12293160034E+04  0.12293160034E+04  0.50400001928E-02 0.  1.
    10030    2    1    2    0    0  0.00000000000E+00  0.00000000000E+00  0.15509752638E+04  0.40096072706E+04  0.36974891745E+04 0.  0.
        2    1    3    3  502    0 -0.13946037663E+04 -0.98112704442E+03  0.81354050483E+00  0.17051482645E+04  0.25500000920E-02 0.  1.
       -2    1    3    3    0  502  0.13946037663E+04  0.98112704442E+03  0.15501617233E+04  0.23044590060E+04  0.25500000920E-02 0. -1.
</event>
<event>
 5   0  0.2282000E-08  0.3695755E+04  0.7818609E-02  0.8068903E-01
       -1   -1    0    0    0  501  0.00000000000E+00  0.00000000000E+00  0.16018385254E+04  0.16018385254E+04  0.50400001928E-02 0. -1.
        1   -1    0    0  501    0  0.00000000000E+00  0.00000000000E+00 -0.21317079245E+04  0.21317079245E+04  0.50400001928E-02 0.  1.
    10030    2    1    2    0    0  0.00000000000E+00  0.00000000000E+00 -0.52986939907E+03  0.37335464499E+04  0.36957553374E+04 0.  0.
        3    1    3    3  502    0 -0.83518908440E+03  0.92086605814E+03  0.11162016724E+04  0.16707606912E+04  0.10100000352E+00 0. -1.
       -3    1    3    3    0  502  0.83518908440E+03 -0.92086605814E+03 -0.16460710715E+04  0.20627857587E+04  0.10100000352E+00 0.  1.
</event>
<event>
 5   0  0.2282000E-08  0.3699895E+04  0.7818609E-02  0.8067985E-01
       -1   -1    0    0    0  501  0.00000000000E+00  0.00000000000E+00  0.13042762134E+04  0.13042762134E+04  0.50400001928E-02 0. -1.
        1   -1    0    0  501    0  0.00000000000E+00  0.00000000000E+00 -0.26239115421E+04  0.26239115421E+04  0.50400001928E-02 0.  1.
    10030    2    1    2    0    0  0.00000000000E+00  0.00000000000E+00 -0.13196353286E+04  0.39281877555E+04  0.36998948150E+04 0.  0.
        1    1    3    3  502    0 -0.44990286291E+03  0.49359482882E+03 -0.24914490329E+04  0.25794120890E+04  0.50400001928E-02 0.  1.
       -1    1    3    3    0  502  0.44990286291E+03 -0.49359482882E+03  0.11718137043E+04  0.13487756666E+04  0.50400001928E-02 0. -1.
</event>
<event>
 5   0  0.7362817E-08  0.3691094E+04  0.7818609E-02  0.8069938E-01
        2   -1    0    0  501    0  0.00000000000E+00  0.00000000000E+00  0.13730415692E+04  0.13730415692E+04  0.25500000920E-02 0.  1.
       -2   -1    0    0    0  501  0.00000000000E+00  0.00000000000E+00 -0.24806565975E+04  0.24806565975E+04  0.25500000920E-02 0. -1.
    10030    2    1    2    0    0  0.00000000000E+00  0.00000000000E+00 -0.11076150283E+04  0.38536981666E+04  0.36910944865E+04 0.  0.
        1    1    3    3  502    0  0.12699376805E+04  0.13387329058E+04 -0.58838950044E+03  0.19367885041E+04  0.50400001928E-02 0.  1.
       -1    1    3    3    0  502 -0.12699376805E+04 -0.13387329058E+04 -0.51922552786E+03  0.19169096625E+04  0.50400001928E-02 0. -1.
</event>
<event>
 5   0  0.7254493E-08  0.3702142E+04  0.7818609E-02  0.8067487E-01
        2   -1    0    0  501    0  0.00000000000E+00  0.00000000000E+00  0.11634475476E+04  0.11634475476E+04  0.25500000920E-02 0.  1.
       -2   -1    0    0    0  501  0.00000000000E+00  0.00000000000E+00 -0.29450956166E+04  0.29450956166E+04  0.25500000920E-02 0. -1.
    10030    2    1    2    0    0  0.00000000000E+00  0.00000000000E+00 -0.17816480690E+04  0.41085431642E+04  0.37021422299E+04 0.  0.
        3    1    3    3  502    0  0.16945243648E+04  0.13425638487E+03 -0.77557917795E+02  0.17016030209E+04  0.10100000352E+00 0. -1.
       -3    1    3    3    0  502 -0.16945243648E+04 -0.13425638487E+03 -0.17040901512E+04  0.24069401433E+04  0.10100000352E+00 0.  1.
</event>
<event>
 5   0  0.7191801E-08  0.3700249E+04  0.7818609E-02  0.8067907E-01
       -2   -1    0    0    0  501  0.00000000000E+00  0.00000000000E+00  0.10576826118E+04  0.10576826118E+04  0.25500000920E-02 0. -1.
        2   -1    0    0  501    0  0.00000000000E+00  0.00000000000E+00 -0.32362839963E+04  0.32362839963E+04  0.25500000920E-02 0.  1.
    10030    2    1    2    0    0  0.00000000000E+00  0.00000000000E+00 -0.21786013846E+04  0.42939666081E+04  0.37002493482E+04 0.  0.
        5    1    3    3  502    0 -0.46194721505E+03 -0.10699627846E+04 -0.27567730227E+04  0.29929976910E+04  0.46999998093E+01 0.  1.
       -5    1    3    3    0  502  0.46194721505E+03  0.10699627846E+04  0.57817163811E+03  0.13009689170E+04  0.46999998093E+01 0. -1.
</event>
<event>
 5   0  0.7203049E-08  0.3663866E+04  0.7818609E-02  0.8076017E-01
        2   -1    0    0  501    0  0.00000000000E+00  0.00000000000E+00  0.13377299034E+04  0.13377299035E+04  0.25500000920E-02 0.  1.
       -2   -1    0    0    0  501  0.00000000000E+00  0.00000000000E+00 -0.25087119359E+04  0.25087119359E+04  0.25500000920E-02 0. -1.
    10030    2    1    2    0    0  0.00000000000E+00  0.00000000000E+00 -0.11709820325E+04  0.38464418394E+04  0.36638662507E+04 0.  0.
        4    1    3    3  502    0  0.13441231049E+04  0.10756386813E+04  0.72068825805E+02  0.17230383113E+04  0.12699999809E+01 0. -1.
       -4    1    3    3    0  502 -0.13441231049E+04 -0.10756386813E+04 -0.12430508583E+04  0.21234035280E+04  0.12699999809E+01 0.  1.
</event>
<event>
 5   0  0.7362817E-08  0.3702849E+04  0.7818609E-02  0.8067331E-01
       -2   -1    0    0    0  501  0.00000000000E+00  0.00000000000E+00  0.30183649072E+04  0.30183649072E+04  0.25500000920E-02 0.  1.
        2   -1    0    0  501    0  0.00000000000E+00  0.00000000000E+00 -0.11356391004E+04  0.11356391004E+04  0.25500000920E-02 0. -1.
    10030    2    1    2    0    0  0.00000000000E+00  0.00000000000E+00  0.18827258068E+04  0.41540040075E+04  0.37028492855E+04 0.  0.
        1    1    3    3  502    0  0.98385362453E+03  0.10109174295E+04 -0.40384016187E+03  0.14673134908E+04  0.50400001928E-02 0. -1.
       -1    1    3    3    0  502 -0.98385362453E+03 -0.10109174295E+04  0.22865659687E+04  0.26866905168E+04  0.50400001928E-02 0.  1.
</event>
<event>
 5   0  0.2282000E-08  0.3684673E+04  0.7818609E-02  0.8071367E-01
       -1   -1    0    0    0  501  0.00000000000E+00  0.00000000000E+00  0.23238449298E+04  0.23238449298E+04  0.50400001928E-02 0. -1.
        1   -1    0    0  501    0  0.00000000000E+00  0.00000000000E+00 -0.14605982065E+04  0.14605982065E+04  0.50400001928E-02 0.  1.
    10030    2    1    2    0    0  0.00000000000E+00  0.00000000000E+00  0.86324672330E+03  0.37844431363E+04  0.36846729769E+04 0.  0.
        2    1    3    3  502    0  0.69817623027E+03  0.28059914588E+03 -0.12955825059E+04  0.14982389525E+04  0.25500000920E-02 0.  1.
       -2    1    3    3    0  502 -0.69817623027E+03 -0.28059914588E+03  0.21588292292E+04  0.22862041838E+04  0.25500000920E-02 0. -1.
</event>
<event>
 5   0  0.2282000E-08  0.3706435E+04  0.7818609E-02  0.8066537E-01
        1   -1    0    0  501    0  0.00000000000E+00  0.00000000000E+00  0.15622081859E+04  0.15622081859E+04  0.50400001928E-02 0.  1.
       -1   -1    0    0    0  501  0.00000000000E+00  0.00000000000E+00 -0.21984366512E+04  0.21984366512E+04  0.50400001928E-02 0. -1.
    10030    2    1    2    0    0  0.00000000000E+00  0.00000000000E+00 -0.63622846533E+03  0.37606448371E+04  0.37064353401E+04 0.  0.
        3    1    3    3  502    0  0.92778281386E+03 -0.55765135147E+03 -0.18443285263E+04  0.21385283965E+04  0.10100000352E+00 0. -1.
       -3    1    3    3    0  502 -0.92778281386E+03  0.55765135147E+03  0.12081000609E+04  0.16221164406E+04  0.10100000352E+00 0.  1.
</event>
<event>
 5   0  0.7254493E-08  0.3697334E+04  0.7818609E-02  0.8068553E-01
       -2   -1    0    0    0  501  0.00000000000E+00  0.00000000000E+00  0.15116637065E+04  0.15116637065E+04  0.25500000920E-02 0. -1.
        2   -1    0    0  501    0  0.00000000000E+00  0.00000000000E+00 -0.22608000673E+04  0.22608000673E+04  0.25500000920E-02 0.  1.
    10030    2    1    2    0    0  0.00000000000E+00  0.00000000000E+00 -0.74913636077E+03  0.37724637738E+04  0.36973338553E+04 0.  0.
        3    1    3    3  502    0  0.10992292461E+03  0.15590289644E+04 -0.13820095835E+04  0.20862897355E+04  0.10100000352E+00 0.  1.
       -3    1    3    3    0  502 -0.10992292461E+03 -0.15590289644E+04  0.63287322273E+03  0.16861740383E+04  0.10100000352E+00 0. -1.
</event>
<event>
 5   0  0.7254493E-08  0.3705500E+04  0.7818609E-02  0.8066744E-01
       -2   -1    0    0    0  501  0.00000000000E+00  0.00000000000E+00  0.13967199573E+04  0.13967199573E+04  0.25500000920E-02 0. -1.
        2   -1    0    0  501    0  0.00000000000E+00  0.00000000000E+00 -0.24576736276E+04  0.24576736276E+04  0.25500000920E-02 0.  1.
    10030    2    1    2    0    0  0.00000000000E+00  0.00000000000E+00 -0.10609536703E+04  0.38543935848E+04  0.37054995907E+04 0.  0.
        3    1    3    3  502    0  0.89626917876E+03  0.10477986947E+04 -0.18177418547E+04  0.22815271214E+04  0.10100000352E+00 0.  1.
       -3    1    3    3    0  502 -0.89626917876E+03 -0.10477986947E+04  0.75678818438E+03  0.15728664634E+04  0.10100000352E+00 0. -1.
</event>
<event>
 5   0  0.2282000E-08  0.3732397E+04  0.7818609E-02  0.8060820E-01
        1   -1    0    0  501    0  0.00000000000E+00  0.00000000000E+00  0.24053713119E+04  0.24053713119E+04  0.50400001928E-02 0.  1.
       -1   -1    0    0    0  501  0.00000000000E+00  0.00000000000E+00 -0.14478835743E+04  0.14478835743E+04  0.50400001928E-02 0. -1.
    10030    2    1    2    0    0  0.00000000000E+00  0.00000000000E+00  0.95748773756E+03  0.38532548862E+04  0.37323974133E+04 0.  0.
        4    1    3    3  502    0  0.11647288352E+04 -0.47031558806E+03  0.19036184253E+04  0.22806917227E+04  0.12699999809E+01 0. -1.
       -4    1    3    3    0  502 -0.11647288352E+04  0.47031558806E+03 -0.94613068777E+03  0.15725631635E+04  0.12699999809E+01 0.  1.
</event>
<event>
 5   0  0.2282000E-08  0.3702244E+04  0.7818609E-02  0.8067465E-01
        1   -1    0    0  501    0  0.00000000000E+00  0.00000000000E+00  0.15650236568E+04  0.15650236568E+04  0.50400001928E-02 0.  1.
       -1   -1    0    0    0  501  0.00000000000E+00  0.00000000000E+00 -0.21895208605E+04  0.21895208605E+04  0.50400001928E-02 0. -1.
    10030    2    1    2    0    0  0.00000000000E+00  0.00000000000E+00 -0.62449720375E+03  0.37545445173E+04  0.37022436137E+04 0.  0.
        1    1    3    3  502    0  0.17058925151E+03 -0.13691172442E+04  0.93931258529E+03  0.16690988149E+04  0.50400001928E-02 0.  1.
       -1    1    3    3    0  502 -0.17058925151E+03  0.13691172442E+04 -0.15638097890E+04  0.20854457024E+04  0.50400001928E-02 0. -1.
</event>
<event>
 5   0  0.7191801E-08  0.3701439E+04  0.7818609E-02  0.8067643E-01
       -2   -1    0    0    0  501  0.00000000000E+00  0.00000000000E+00  0.10518219485E+04  0.10518219485E+04  0.25500000920E-02 0.  1.
        2   -1    0    0  501    0  0.00000000000E+00  0.00000000000E+00 -0.32564084463E+04  0.32564084463E+04  0.25500000920E-02 0. -1.
    10030    2    1    2    0    0  0.00000000000E+00  0.00000000000E+00 -0.22045864978E+04  0.43082303948E+04  0.37014385728E+04 0.  0.
        5    1    3    3  502    0  0.15618311689E+03 -0.10055310341E+04 -0.29015613568E+04  0.30748278365E+04  0.46999998093E+01 0. -1.
       -5    1    3    3    0  502 -0.15618311689E+03  0.10055310341E+04  0.69697485901E+03  0.12334025583E+04  0.46999998093E+01 0.  1.
</event>
<event>
 5   0  0.2282000E-08  0.3708314E+04  0.7818609E-02  0.8066122E-01
       -1   -1    0    0    0  501  0.00000000000E+00  0.00000000000E+00  0.17512021835E+04  0.17512021836E+04  0.50400001928E-02 0. -1.
        1   -1    0    0  501    0  0.00000000000E+00  0.00000000000E+00 -0.19631645528E+04  0.19631645528E+04  0.50400001928E-02 0.  1.
    10030    2    1    2    0    0  0.00000000000E+00  0.00000000000E+00 -0.21196236924E+03  0.37143667363E+04  0.37083139304E+04 0.  0.
        1    1    3    3  502    0 -0.28379122817E+03 -0.84461673363E+03 -0.17346681905E+04  0.19501252829E+04  0.50400001928E-02 0.  1.
       -1    1    3    3    0  502  0.28379122817E+03  0.84461673363E+03  0.15227058213E+04  0.17642414534E+04  0.50400001928E-02 0. -1.
</event>
<event>
 5   0  0.2282000E-08  0.3693521E+04  0.7818609E-02  0.8069399E-01
       -1   -1    0    0    0  501  0.00000000000E+00  0.00000000000E+00  0.15406343932E+04  0.15406343932E+04  0.50400001928E-02 0. -1.
        1   -1    0    0  501    0  0.00000000000E+00  0.00000000000E+00 -0.22137141384E+04  0.22137141384E+04  0.50400001928E-02 0.  1.
    10030    2    1    2    0    0  0.00000000000E+00  0.00000000000E+00 -0.67307974522E+03  0.37543485316E+04  0.36935208885E+04 0.  0.
        1    1    3    3  502    0 -0.87017711731E+03 -0.13549199009E+04  0.58251201143E+03  0.17124066097E+04  0.50400001928E-02 0. -1.
       -1    1    3    3    0  502  0.87017711731E+03  0.13549199009E+04 -0.12555917567E+04  0.20419419220E+04  0.50400001928E-02 0.  1.
</event>
<event>
 5   0  0.7203049E-08  0.3698532E+04  0.7818609E-02  0.8068287E-01
        2   -1    0    0  501    0  0.00000000000E+00  0.00000000000E+00  0.20547115441E+04  0.20547115441E+04  0.25500000920E-02 0. -1.
       -2   -1    0    0    0  501  0.00000000000E+00  0.00000000000E+00 -0.16643624235E+04  0.16643624235E+04  0.25500000920E-02 0.  1.
    10030    2    1    2    0    0  0.00000000000E+00  0.00000000000E+00  0.39034912055E+03  0.37190739676E+04  0.36985319710E+04 0.  0.
        4    1    3    3  502    0  0.68952100960E+03 -0.16630503422E+04  0.62014152780E+03  0.19041409588E+04  0.12699999809E+01 0. -1.
       -4    1    3    3    0  502 -0.68952100960E+03  0.16630503422E+04 -0.22979240725E+03  0.18149330089E+04  0.12699999809E+01 0.  1.
</event>
<event>
 5   0  0.2282000E-08  0.3695594E+04  0.7818609E-02  0.8068939E-01
       -1   -1    0    0    0  501  0.00000000000E+00  0.00000000000E+00  0.17856138069E+04  0.17856138069E+04  0.50400001928E-02 0. -1.
        1   -1    0    0  501    0  0.00000000000E+00  0.00000000000E+00 -0.19121456621E+04  0.19121456621E+04  0.50400001928E-02 0.  1.
    10030    2    1    2    0    0  0.00000000000E+00  0.00000000000E+00 -0.12653185523E+03  0.36977594690E+04  0.36955939685E+04 0.  0.
        3    1    3    3  502    0  0.17027136058E+04 -0.61158424053E+03 -0.43909856174E+03  0.18617401709E+04  0.10100000352E+00 0. -1.
       -3    1    3    3    0  502 -0.17027136058E+04  0.61158424053E+03  0.31256670651E+03  0.18360192981E+04  0.10100000352E+00 0.  1.
</event>
<event>
 5   0  0.2282000E-08  0.3684311E+04  0.7818609E-02  0.8071448E-01
        1   -1    0    0  501    0  0.00000000000E+00  0.00000000000E+00  0.31243554816E+04  0.31243554816E+04  0.50400001928E-02 0. -1.
       -1   -1    0    0    0  501  0.00000000000E+00  0.00000000000E+00 -0.10861557091E+04  0.10861557091E+04  0.50400001928E-02 0.  1.
    10030    2    1    2    0    0  0.00000000000E+00  0.00000000000E+00  0.20381997726E+04  0.42105111907E+04  0.36843108140E+04 0.  0.
        3    1    3    3  502    0  0.16726649594E+04  0.47418761018E+03  0.32312735792E+03  0.17683532610E+04  0.10100000352E+00 0.  1.
       -3    1    3    3    0  502 -0.16726649594E+04 -0.47418761018E+03  0.17150724146E+04  0.24421579297E+04  0.10100000352E+00 0. -1.
</event>
<event>
 5   0  0.2282000E-08  0.3698162E+04  0.7818609E-02  0.8068369E-01
       -1   -1    0    0    0  501  0.00000000000E+00  0.00000000000E+00  0.14033940637E+04  0.14033940637E+04  0.50400001928E-02 0. -1.
        1   -1    0    0  501    0  0.00000000000E+00  0.00000000000E+00 -0.24363078722E+04  0.24363078722E+04  0.50400001928E-02 0.  1.
    10030    2    1    2    0    0  0.00000000000E+00  0.00000000000E+00 -0.10329138085E+04  0.38397019359E+04  0.36981617083E+04 0.  0.
        1    1    3    3  502    0  0.16616423970E+04 -0.24825130389E+03 -0.13182941023E+04  0.21355522718E+04  0.50400001928E-02 0.  1.
       -1    1    3    3    0  502 -0.16616423970E+04  0.24825130389E+03  0.28538029385E+03  0.17041496641E+04  0.50400001928E-02 0. -1.
</event>
<event>
 5   0  0.2282000E-08  0.3729848E+04  0.7818609E-02  0.8061379E-01
        1   -1    0    0  501    0  0.00000000000E+00  0.00000000000E+00  0.17854436850E+04  0.17854436850E+04  0.50400001928E-02 0. -1.
       -1   -1    0    0    0  501  0.00000000000E+00  0.00000000000E+00 -0.19479422516E+04  0.19479422516E+04  0.50400001928E-02 0.  1.
    10030    2    1    2    0    0  0.00000000000E+00  0.00000000000E+00 -0.16249856664E+03  0.37333859367E+04  0.37298478210E+04 0.  0.
        5    1    3    3  502    0 -0.73880930057E+03 -0.14264834364E+04  0.86686882052E+03  0.18254253803E+04  0.46999998093E+01 0. -1.
       -5    1    3    3    0  502  0.73880930057E+03  0.14264834364E+04 -0.10293673872E+04  0.19079605564E+04  0.46999998093E+01 0.  1.
</event>
<event>
 5   0  0.2282000E-08  0.3653981E+04  0.7818609E-02  0.8078237E-01
       -1   -1    0    0    0  501  0.00000000000E+00  0.00000000000E+00  0.32872341013E+04  0.32872341013E+04  0.50400001928E-02 0. -1.
        1   -1    0    0  501    0  0.00000000000E+00  0.00000000000E+00 -0.10154109726E+04  0.10154109726E+04  0.50400001928E-02 0.  1.
    10030    2    1    2    0    0  0.00000000000E+00  0.00000000000E+00  0.22718231288E+04  0.43026450739E+04  0.36539806107E+04 0.  0.
        5    1    3    3  502    0 -0.32678931991E+03 -0.91921255120E+03  0.29548424572E+04  0.31117292637E+04  0.46999998093E+01 0. -1.
       -5    1    3    3    0  502  0.32678931991E+03  0.91921255120E+03 -0.68301932844E+03  0.11909158102E+04  0.46999998093E+01 0.  1.
</event>
<event>
 5   0  0.2282000E-08  0.3699933E+04  0.7818609E-02  0.8067977E-01
        1   -1    0    0  501    0  0.00000000000E+00  0.00000000000E+00  0.24570861853E+04  0.24570861853E+04  0.50400001928E-02 0.  1.
       -1   -1    0    0    0  501  0.00000000000E+00  0.00000000000E+00 -0.13928594624E+04  0.13928594624E+04  0.50400001928E-02 0. -1.
    10030    2    1    2    0    0  0.00000000000E+00  0.00000000000E+00  0.10642267229E+04  0.38499456478E+04  0.36999328336E+04 0.  0.
        2    1    3    3  502    0 -0.64706680499E+03 -0.14079914588E+04  0.15836508004E+04  0.22156455619E+04  0.25500000920E-02 0.  1.
       -2    1    3    3    0  502  0.64706680499E+03  0.14079914588E+04 -0.51942407755E+03  0.16343000858E+04  0.25500000920E-02 0. -1.
</event>
<event>
 5   0  0.2282000E-08  0.3698421E+04  0.7818609E-02  0.8068312E-01
        1   -1    0    0  501    0  0.00000000000E+00  0.00000000000E+00  0.16464409852E+04  0.16464409852E+04  0.50400001928E-02 0. -1.
       -1   -1    0    0    0  501  0.00000000000E+00  0.00000000000E+00 -0.20769523924E+04  0.20769523924E+04  0.50400001928E-02 0.  1.
    10030    2    1    2    0    0  0.00000000000E+00  0.00000000000E+00 -0.43051140718E+03  0.37233933777E+04  0.36984210378E+04 0.  0.
        2    1    3    3  502    0 -0.94795120708E+03  0.13948893282E+04 -0.97883047301E+03  0.19499838009E+04  0.25500000920E-02 0.  1.
       -2    1    3    3    0  502  0.94795120708E+03 -0.13948893282E+04  0.54831906583E+03  0.17734095767E+04  0.25500000920E-02 0. -1.
</event>
<event>
 5   0  0.2282000E-08  0.3700389E+04  0.7818609E-02  0.8067876E-01
       -1   -1    0    0    0  501  0.00000000000E+00  0.00000000000E+00  0.13883293382E+04  0.13883293382E+04  0.50400001928E-02 0. -1.
        1   -1    0    0  501    0  0.00000000000E+00  0.00000000000E+00 -0.24657117833E+04  0.24657117833E+04  0.50400001928E-02 0.  1.
    10030    2    1    2    0    0  0.00000000000E+00  0.00000000000E+00 -0.10773824451E+04  0.38540411216E+04  0.37003891733E+04 0.  0.
        2    1    3    3  502    0 -0.27771094399E+03  0.17928414134E+04 -0.16055044605E+03  0.18213127540E+04  0.25500000920E-02 0. -1.
       -2    1    3    3    0  502  0.27771094399E+03 -0.17928414134E+04 -0.91683199905E+03  0.20327283676E+04  0.25500000920E-02 0.  1.
</event>
<event>
 5   0  0.7191801E-08  0.3699905E+04  0.7818609E-02  0.8067983E-01
        2   -1    0    0  501    0  0.00000000000E+00  0.00000000000E+00  0.14761655140E+04  0.14761655140E+04  0.25500000920E-02 0.  1.
       -2   -1    0    0    0  501  0.00000000000E+00  0.00000000000E+00 -0.23183878199E+04  0.23183878199E+04  0.25500000920E-02 0. -1.
    10030    2    1    2    0    0  0.00000000000E+00  0.00000000000E+00 -0.84222230594E+03  0.37945533339E+04  0.36999049435E+04 0.  0.
        5    1    3    3  502    0 -0.15997423151E+04 -0.81374173555E+03 -0.88085417798E+03  0.19993191991E+04  0.46999998093E+01 0. -1.
       -5    1    3    3    0  502  0.15997423151E+04  0.81374173555E+03  0.38631872042E+02  0.17952341348E+04  0.46999998093E+01 0.  1.
</event>
<event>
 5   0  0.2282000E-08  0.3702930E+04  0.7818609E-02  0.8067313E-01
       -1   -1    0    0    0  501  0.00000000000E+00  0.00000000000E+00  0.23630965609E+04  0.23630965609E+04  0.50400001928E-02 0.  1.
        1   -1    0    0  501    0  0.00000000000E+00  0.00000000000E+00 -0.14506059836E+04  0.14506059836E+04  0.50400001928E-02 0. -1.
    10030    2    1    2    0    0  0.00000000000E+00  0.00000000000E+00  0.91249057732E+03  0.38137025446E+04  0.37029296570E+04 0.  0.
        1    1    3    3  502    0 -0.10866507375E+04 -0.10632133403E+04  0.15445927942E+04  0.21672561759E+04  0.50400001928E-02 0.  1.
       -1    1    3    3    0  502  0.10866507375E+04  0.10632133403E+04 -0.63210221687E+03  0.16464463686E+04  0.50400001928E-02 0. -1.
</event>
<event>
 5   0  0.7254493E-08  0.3689829E+04  0.7818609E-02  0.8070220E-01
        2   -1    0    0  501    0  0.00000000000E+00  0.00000000000E+00  0.21583023910E+04  0.21583023910E+04  0.25500000920E-02 0. -1.
       -2   -1    0    0    0  501  0.00000000000E+00  0.00000000000E+00 -0.15770310146E+04  0.15770310146E+04  0.25500000920E-02 0.  1.
    10030    2    1    2    0    0  0.00000000000E+00  0.00000000000E+00  0.58127137634E+03  0.37353334056E+04  0.36898291611E+04 0.  0.
        3    1    3    3  502    0 -0.53191560172E+03  0.78029660643E+03 -0.13138113738E+04  0.16179917606E+04  0.10100000352E+00 0.  1.
       -3    1    3    3    0  502  0.53191560172E+03 -0.78029660643E+03  0.18950827502E+04  0.21173416450E+04  0.10100000352E+00 0. -1.
</event>
<event>
 5   0  0.2282000E-08  0.3700378E+04  0.7818609E-02  0.8067878E-01
       -1   -1    0    0    0  501  0.00000000000E+00  0.00000000000E+00  0.16625200181E+04  0.16625200181E+04  0.50400001928E-02 0. -1.
        1   -1    0    0  501    0  0.00000000000E+00  0.00000000000E+00 -0.20590420640E+04  0.20590420640E+04  0.50400001928E-02 0.  1.
    10030    2    1    2    0    0  0.00000000000E+00  0.00000000000E+00 -0.39652204592E+03  0.37215620821E+04  0.37003776291E+04 0.  0.
        4    1    3    3  502    0 -0.38106226569E+03  0.48359297525E+03 -0.19529920837E+04  0.20477427348E+04  0.12699999809E+01 0.  1.
       -4    1    3    3    0  502  0.38106226569E+03 -0.48359297525E+03  0.15564700378E+04  0.16738193473E+04  0.12699999809E+01 0. -1.
</event>
<event>
 5   0  0.7203049E-08  0.3696904E+04  0.7818609E-02  0.8068648E-01
       -2   -1    0    0    0  501  0.00000000000E+00  0.00000000000E+00  0.22438758793E+04  0.22438758793E+04  0.25500000920E-02 0.  1.
        2   -1    0    0  501    0  0.00000000000E+00  0.00000000000E+00 -0.15227112003E+04  0.15227112003E+04  0.25500000920E-02 0. -1.
    10030    2    1    2    0    0  0.00000000000E+00  0.00000000000E+00  0.72116467903E+03  0.37665870796E+04  0.36969040742E+04 0.  0.
        4    1    3    3  502    0  0.58161473229E+03 -0.11367576318E+04 -0.10011274608E+04  0.16225755502E+04  0.12699999809E+01 0. -1.
       -4    1    3    3    0  502 -0.58161473229E+03  0.11367576318E+04  0.17222921399E+04  0.21440115294E+04  0.12699999809E+01 0.  1.
</event>
<event>
 5   0  0.7362817E-08  0.3692635E+04  0.7818609E-02  0.8069596E-01
        2   -1    0    0  501    0  0.00000000000E+00  0.00000000000E+00  0.21188464118E+04  0.21188464118E+04  0.25500000920E-02 0. -1.
       -2   -1    0    0    0  501  0.00000000000E+00  0.00000000000E+00 -0.16088416749E+04  0.16088416749E+04  0.25500000920E-02 0.  1.
    10030    2    1    2    0    0  0.00000000000E+00  0.00000000000E+00  0.51000473697E+03  0.37276880867E+04  0.36926350537E+04 0.  0.
        1    1    3    3  502    0  0.14977715654E+03  0.18340883165E+04  0.40667931079E+03  0.18845957686E+04  0.50400001928E-02 0. -1.
       -1    1    3    3    0  502 -0.14977715654E+03 -0.18340883165E+04  0.10332542618E+03  0.18430923181E+04  0.50400001928E-02 0.  1.
</event>
<event>
 5   0  0.2282000E-08  0.3698301E+04  0.7818609E-02  0.8068338E-01
       -1   -1    0    0    0  501  0.00000000000E+00  0.00000000000E+00  0.21304310855E+04  0.21304310855E+04  0.50400001928E-02 0. -1.
        1   -1    0    0  501    0  0.00000000000E+00  0.00000000000E+00 -0.16050075102E+04  0.16050075102E+04  0.50400001928E-02 0.  1.
    10030    2    1    2    0    0  0.00000000000E+00  0.00000000000E+00  0.52542357526E+03  0.37354385957E+04  0.36983011734E+04 0.  0.
        3    1    3    3  502    0 -0.16083058395E+02 -0.16729142014E+04  0.10583127009E+04  0.19796278370E+04  0.10100000352E+00 0. -1.
       -3    1    3    3    0  502  0.16083058395E+02  0.16729142014E+04 -0.53288912560E+03  0.17558107587E+04  0.10100000352E+00 0.  1.
</event>
<event>
 5   0  0.7254493E-08  0.3688318E+04  0.7818609E-02  0.8070556E-01
       -2   -1    0    0    0  501  0.00000000000E+00  0.00000000000E+00  0.18254375471E+04  0.18254375471E+04  0.25500000920E-02 0.  1.
        2   -1    0    0  501    0  0.00000000000E+00  0.00000000000E+00 -0.18630719895E+04  0.18630719895E+04  0.25500000920E-02 0. -1.
    10030    2    1    2    0    0  0.00000000000E+00  0.00000000000E+00 -0.37634442442E+02  0.36885095366E+04  0.36883175365E+04 0.  0.
        3    1    3    3  502    0  0.79976214217E+03 -0.12266458667E+04 -0.11398760162E+04  0.18556931073E+04  0.10100000352E+00 0. -1.
       -3    1    3    3    0  502 -0.79976214217E+03  0.12266458667E+04  0.11022415737E+04  0.18328164292E+04  0.10100000352E+00 0.  1.
</event>
<event>
 5   0  0.2282000E-08  0.3704141E+04  0.7818609E-02  0.8067045E-01
       -1   -1    0    0    0  501  0.00000000000E+00  0.00000000000E+00  0.17558824449E+04  0.17558824449E+04  0.50400001928E-02 0.  1.
        1   -1    0    0  501    0  0.00000000000E+00  0.00000000000E+00 -0.19535279132E+04  0.19535279132E+04  0.50400001928E-02 0. -1.
    10030    2    1    2    0    0  0.00000000000E+00  0.00000000000E+00 -0.19764546835E+03  0.37094103581E+04  0.37041411250E+04 0.  0.
        4    1    3    3  502    0  0.11671298399E+04  0.34069361903E+03 -0.14979141363E+04  0.19292518182E+04  0.12699999809E+01 0. -1.
       -4    1    3    3    0  502 -0.11671298399E+04 -0.34069361903E+03  0.13002686680E+04  0.17801585399E+04  0.12699999809E+01 0.  1.
</event>
<event>
 5   0  0.7309833E-08  0.3699699E+04  0.7818609E-02  0.8068029E-01
        2   -1    0    0  501    0  0.00000000000E+00  0.00000000000E+00  0.17163898975E+04  0.17163898975E+04  0.25500000920E-02 0.  1.
       -2   -1    0    0    0  501  0.00000000000E+00  0.00000000000E+00 -0.19936863632E+04  0.19936863632E+04  0.25500000920E-02 0. -1.
    10030    2    1    2    0    0  0.00000000000E+00  0.00000000000E+00 -0.27729646570E+03  0.37100762607E+04  0.36996989783E+04 0.  0.
        2    1    3    3  502    0 -0.69563137989E+03 -0.26504904082E+02 -0.18573217290E+04  0.19834942732E+04  0.25500000920E-02 0. -1.
       -2    1    3    3    0  502  0.69563137989E+03  0.26504904082E+02  0.15800252633E+04  0.17265819875E+04  0.25500000920E-02 0.  1.
</event>
<event>
 5   0  0.2282000E-08  0.3694790E+04  0.7818609E-02  0.8069117E-01
        1   -1    0    0  501    0  0.00000000000E+00  0.00000000000E+00  0.14006619145E+04  0.14006619146E+04  0.50400001928E-02 0. -1.
       -1   -1    0    0    0  501  0.00000000000E+00  0.00000000000E+00 -0.24366109426E+04  0.24366109426E+04  0.50400001928E-02 0.  1.
    10030    2    1    2    0    0  0.00000000000E+00  0.00000000000E+00 -0.10359490281E+04  0.38372728572E+04  0.36947899252E+04 0.  0.
        4    1    3    3  502    0  0.15702137954E+04 -0.60484013296E+03  0.27396897370E+03  0.17048353472E+04  0.12699999809E+01 0. -1.
       -4    1    3    3    0  502 -0.15702137954E+04  0.60484013296E+03 -0.13099180018E+04  0.21324375100E+04  0.12699999809E+01 0.  1.
</event>
<event>
 5   0  0.2282000E-08  0.3700066E+04  0.7818609E-02  0.8067947E-01
       -1   -1    0    0    0  501  0.00000000000E+00  0.00000000000E+00  0.17178020578E+04  0.17178020578E+04  0.50400001928E-02 0.  1.
        1   -1    0    0  501    0  0.00000000000E+00  0.00000000000E+00 -0.19924426690E+04  0.19924426690E+04  0.50400001928E-02 0. -1.
    10030    2    1    2    0    0  0.00000000000E+00  0.00000000000E+00 -0.27464061120E+03  0.37102447269E+04  0.37000660086E+04 0.  0.
        4    1    3    3  502    0 -0.14692052675E+04 -0.80013678054E+02 -0.12618571957E+04  0.19383630986E+04  0.12699999809E+01 0. -1.
       -4    1    3    3    0  502  0.14692052675E+04  0.80013678054E+02  0.98721658452E+03  0.17718816282E+04  0.12699999809E+01 0.  1.
</event>
<event>
 5   0  0.2282000E-08  0.3652470E+04  0.7818609E-02  0.8078577E-01
        1   -1    0    0  501    0  0.00000000000E+00  0.00000000000E+00  0.16710812906E+04  0.16710812906E+04  0.50400001928E-02 0.  1.
       -1   -1    0    0    0  501  0.00000000000E+00  0.00000000000E+00 -0.19957940478E+04  0.19957940478E+04  0.50400001928E-02 0. -1.
    10030    2    1    2    0    0  0.00000000000E+00  0.00000000000E+00 -0.32471275723E+03  0.36668753384E+04  0.36524699003E+04 0.  0.
        2    1    3    3  502    0  0.41437821980E+03 -0.64388478490E+03  0.15021444175E+04  0.16860411550E+04  0.25500000920E-02 0.  1.
       -2    1    3    3    0  502 -0.41437821980E+03  0.64388478490E+03 -0.18268571747E+04  0.19808341834E+04  0.25500000920E-02 0. -1.
</event>
<event>
 5   0  0.7309833E-08  0.3699171E+04  0.7818609E-02  0.8068145E-01
       -2   -1    0    0    0  501  0.00000000000E+00  0.00000000000E+00  0.25332996750E+04  0.25332996750E+04  0.25500000920E-02 0.  1.
        2   -1    0    0  501    0  0.00000000000E+00  0.00000000000E+00 -0.13503997892E+04  0.13503997892E+04  0.25500000920E-02 0. -1.
    10030    2    1    2    0    0  0.00000000000E+00  0.00000000000E+00  0.11828998858E+04  0.38836994642E+04  0.36991714462E+04 0.  0.
        2    1    3    3  502    0 -0.60135184352E+03  0.24212728968E+03 -0.12272193070E+04  0.13879181862E+04  0.25500000920E-02 0. -1.
       -2    1    3    3    0  502  0.60135184352E+03 -0.24212728968E+03  0.24101191928E+04  0.24957812780E+04  0.25500000920E-02 0.  1.
</event>
<event>
 5   0  0.7362817E-08  0.3689140E+04  0.7818609E-02  0.8070373E-01
        2   -1    0    0  501    0  0.00000000000E+00  0.00000000000E+00  0.26766518756E+04  0.26766518756E+04  0.25500000920E-02 0.  1.
       -2   -1    0    0    0  501  0.00000000000E+00  0.00000000000E+00 -0.12711549586E+04  0.12711549586E+04  0.25500000920E-02 0. -1.
    10030    2    1    2    0    0  0.00000000000E+00  0.00000000000E+00  0.14054969170E+04  0.39478068342E+04  0.36891404442E+04 0.  0.
        1    1    3    3  502    0  0.14908114524E+04  0.34129112269E+03 -0.40078977033E+03  0.15810220925E+04  0.50400001928E-02 0. -1.
       -1    1    3    3    0  502 -0.14908114524E+04 -0.34129112269E+03  0.18062866873E+04  0.23667847417E+04  0.50400001928E-02 0.  1.
</event>
<event>
 5   0  0.2282000E-08  0.3696350E+04  0.7818609E-02  0.8068771E-01
        4   -1    0    0  501    0  0.00000000000E+00  0.00000000000E+00  0.19295196875E+04  0.19295201055E+04  0.12699999809E+01 0. -1.
       -4   -1    0    0    0  501  0.00000000000E+00  0.00000000000E+00 -0.17702584610E+04  0.17702589165E+04  0.12699999809E+01 0.  1.
    10030    2    1    2    0    0  0.00000000000E+00  0.00000000000E+00  0.15926122657E+03  0.36997790220E+04  0.36963496417E+04 0.  0.
        3    1    3    3  502    0  0.52771622367E+03  0.16986017728E+04 -0.42284885033E+03  0.18282597068E+04  0.10100000352E+00 0.  1.
       -3    1    3    3    0  502 -0.52771622367E+03 -0.16986017728E+04  0.58211007690E+03  0.18715193152E+04  0.10100000352E+00 0. -1.
</event>
<event>
 5   0  0.7362817E-08  0.3700627E+04  0.7818609E-02  0.8067823E-01
       -2   -1    0    0    0  501  0.00000000000E+00  0.00000000000E+00  0.15036619921E+04  0.15036619921E+04  0.25500000920E-02 0.  1.
        2   -1    0    0  501    0  0.00000000000E+00  0.00000000000E+00 -0.22768811009E+04  0.22768811009E+04  0.25500000920E-02 0. -1.
    10030    2    1    2    0    0  0.00000000000E+00  0.00000000000E+00 -0.77321910882E+03  0.37805430930E+04  0.37006267426E+04 0.  0.
        1    1    3    3  502    0  0.58989014455E+03 -0.25052865232E+03 -0.21598720970E+04  0.22529497250E+04  0.50400001928E-02 0. -1.
       -1    1    3    3    0  502 -0.58989014455E+03  0.25052865232E+03  0.13866529882E+04  0.15275933680E+04  0.50400001928E-02 0.  1.
</event>
<event>
 5   0  0.2282000E-08  0.3661110E+04  0.7818609E-02  0.8076635E-01
        1   -1    0    0  501    0  0.00000000000E+00  0.00000000000E+00  0.21124659051E+04  0.21124659051E+04  0.50400001928E-02 0.  1.
       -1   -1    0    0    0  501  0.00000000000E+00  0.00000000000E+00 -0.15862649837E+04  0.15862649837E+04  0.50400001928E-02 0. -1.
    10030    2    1    2    0    0  0.00000000000E+00  0.00000000000E+00  0.52620092142E+03  0.36987308888E+04  0.36611095010E+04 0.  0.
        1    1    3    3  502    0 -0.95644449656E+03  0.10225537514E+04 -0.92822371304E+03  0.16798813979E+04  0.50400001928E-02 0. -1.
       -1    1    3    3    0  502  0.95644449656E+03 -0.10225537514E+04  0.14544246345E+04  0.20188494909E+04  0.50400001928E-02 0.  1.
</event>
<event>
 5   0  0.7191801E-08  0.3696161E+04  0.7818609E-02  0.8068813E-01
       -2   -1    0    0    0  501  0.00000000000E+00  0.00000000000E+00  0.11366284265E+04  0.11366284265E+04  0.25500000920E-02 0.  1.
        2   -1    0    0  501    0  0.00000000000E+00  0.00000000000E+00 -0.30048527303E+04  0.30048527304E+04  0.25500000920E-02 0. -1.
    10030    2    1    2    0    0  0.00000000000E+00  0.00000000000E+00 -0.18682243038E+04  0.41414811569E+04  0.36961607275E+04 0.  0.
        5    1    3    3  502    0 -0.94374184845E+03  0.89940732622E+02  0.84341183141E+03  0.12688985851E+04  0.46999998093E+01 0.  1.
       -5    1    3    3    0  502  0.94374184845E+03 -0.89940732622E+02 -0.27116361352E+04  0.28725825718E+04  0.46999998093E+01 0. -1.
</event>
<event>
 5   0  0.7203049E-08  0.3696643E+04  0.7818609E-02  0.8068706E-01
       -2   -1    0    0    0  501  0.00000000000E+00  0.00000000000E+00  0.22569513734E+04  0.22569513734E+04  0.25500000920E-02 0. -1.
        2   -1    0    0  501    0  0.00000000000E+00  0.00000000000E+00 -0.15136757240E+04  0.15136757240E+04  0.25500000920E-02 0.  1.
    10030    2    1    2    0    0  0.00000000000E+00  0.00000000000E+00  0.74327564937E+03  0.37706270973E+04  0.36966430740E+04 0.  0.
        4    1    3    3  502    0 -0.17777157200E+04 -0.46109220564E+03  0.58416251945E+03  0.19272069596E+04  0.12699999809E+01 0. -1.
       -4    1    3    3    0  502  0.17777157200E+04  0.46109220564E+03  0.15911312992E+03  0.18434201377E+04  0.12699999809E+01 0.  1.
</event>
<event>
 5   0  0.7203049E-08  0.3709822E+04  0.7818609E-02  0.8065789E-01
        2   -1    0    0  501    0  0.00000000000E+00  0.00000000000E+00  0.11468363678E+04  0.11468363678E+04  0.25500000920E-02 0. -1.
       -2   -1    0    0    0  501  0.00000000000E+00  0.00000000000E+00 -0.30001613306E+04  0.30001613306E+04  0.25500000920E-02 0.  1.
    10030    2    1    2    0    0  0.00000000000E+00  0.00000000000E+00 -0.18533249627E+04  0.41469976984E+04  0.37098216255E+04 0.  0.
        4    1    3    3  502    0 -0.11876993411E+04 -0.48529402541E+02  0.66511896807E+03  0.13621195551E+04  0.12699999809E+01 0. -1.
       -4    1    3    3    0  502  0.11876993411E+04  0.48529402541E+02 -0.25184439308E+04  0.27848781433E+04  0.12699999809E+01 0.  1.
</event>
<event>
 5   0  0.2282000E-08  0.3698562E+04  0.7818609E-02  0.8068281E-01
        1   -1    0    0  501    0  0.00000000000E+00  0.00000000000E+00  0.22310018448E+04  0.22310018448E+04  0.50400001928E-02 0. -1.
       -1   -1    0    0    0  501  0.00000000000E+00  0.00000000000E+00 -0.15328717024E+04  0.15328717024E+04  0.50400001928E-02 0.  1.
    10030    2    1    2    0    0  0.00000000000E+00  0.00000000000E+00  0.69813014240E+03  0.37638735471E+04  0.36985616641E+04 0.  0.
        2    1    3    3  502    0  0.80967935396E+03 -0.86361009010E+03 -0.10967398927E+04  0.16137662273E+04  0.25500000920E-02 0.  1.
       -2    1    3    3    0  502 -0.80967935396E+03  0.86361009010E+03  0.17948700351E+04  0.21501073199E+04  0.25500000920E-02 0. -1.
</event>
<event>
 5   0  0.2282000E-08  0.3703385E+04  0.7818609E-02  0.8067212E-01
       -1   -1    0    0    0  501  0.00000000000E+00  0.00000000000E+00  0.14117719987E+04  0.14117719987E+04  0.50400001928E-02 0.  1.
        1   -1    0    0  501    0  0.00000000000E+00  0.00000000000E+00 -0.24286955252E+04  0.24286955252E+04  0.50400001928E-02 0. -1.
    10030    2    1    2    0    0  0.00000000000E+00  0.00000000000E+00 -0.10169235265E+04  0.38404675239E+04  0.37033845795E+04 0.  0.
        3    1    3    3  502    0  0.10256377295E+04  0.15395996396E+04 -0.59184015932E+03  0.19423116606E+04  0.10100000352E+00 0.  1.
       -3    1    3    3    0  502 -0.10256377295E+04 -0.15395996396E+04 -0.42508336720E+03  0.18981558634E+04  0.10100000352E+00 0. -1.
</event>
<event>
 5   0  0.2282000E-08  0.3682208E+04  0.7818609E-02  0.8071916E-01
       -1   -1    0    0    0  501  0.00000000000E+00  0.00000000000E+00  0.21747051714E+04  0.21747051714E+04  0.50400001928E-02 0. -1.
        1   -1    0    0  501    0  0.00000000000E+00  0.00000000000E+00 -0.15586775656E+04  0.15586775656E+04  0.50400001928E-02 0.  1.
    10030    2    1    2    0    0  0.00000000000E+00  0.00000000000E+00  0.61602760585E+03  0.37333827370E+04  0.36822081215E+04 0.  0.
        5    1    3    3  502    0  0.87527376985E+03  0.50980826418E+03 -0.12507641181E+04  0.16094848889E+04  0.46999998093E+01 0.  1.
       -5    1    3    3    0  502 -0.87527376985E+03 -0.50980826418E+03  0.18667917240E+04  0.21238978481E+04  0.46999998093E+01 0. -1.
</event>
<event>
 5   0  0.7203049E-08  0.3698335E+04  0.7818609E-02  0.8068331E-01
       -2   -1    0    0    0  501  0.00000000000E+00  0.00000000000E+00  0.19807146260E+04  0.19807146260E+04  0.25500000920E-02 0. -1.
        2   -1    0    0  501    0  0.00000000000E+00  0.00000000000E+00 -0.17263568381E+04  0.17263568381E+04  0.25500000920E-02 0.  1.
    10030    2    1    2    0    0  0.00000000000E+00  0.00000000000E+00  0.25435778793E+03  0.37070714641E+04  0.36983348896E+04 0.  0.
        4    1    3    3  502    0 -0.34674007703E+03  0.20168218017E+03 -0.16822208960E+04  0.17293851910E+04  0.12699999809E+01 0.  1.
       -4    1    3    3    0  502  0.34674007703E+03 -0.20168218017E+03  0.19365786840E+04  0.19776862731E+04  0.12699999809E+01 0. -1.
</event>
<event>
 5   0  0.7191801E-08  0.3705103E+04  0.7818609E-02  0.8066832E-01
       -2   -1    0    0    0  501  0.00000000000E+00  0.00000000000E+00  0.32935446972E+04  0.32935446972E+04  0.25500000920E-02 0.  1.
        2   -1    0    0  501    0  0.00000000000E+00  0.00000000000E+00 -0.10420223684E+04  0.10420223684E+04  0.25500000920E-02 0. -1.
    10030    2    1    2    0    0  0.00000000000E+00  0.00000000000E+00  0.22515223288E+04  0.43355670656E+04  0.37051031002E+04 0.  0.
        5    1    3    3  502    0  0.12194862781E+04  0.12637122082E+04  0.18158683286E+04  0.25261661079E+04  0.46999998093E+01 0.  1.
       -5    1    3    3    0  502 -0.12194862781E+04 -0.12637122082E+04  0.43565400015E+03  0.18094009577E+04  0.46999998093E+01 0. -1.
</event>
<event>
 5   0  0.7362817E-08  0.3700641E+04  0.7818609E-02  0.8067820E-01
        2   -1    0    0  501    0  0.00000000000E+00  0.00000000000E+00  0.22244993032E+04  0.22244993032E+04  0.25500000920E-02 0. -1.
       -2   -1    0    0    0  501  0.00000000000E+00  0.00000000000E+00 -0.15390815815E+04  0.15390815815E+04  0.25500000920E-02 0.  1.
    10030    2    1    2    0    0  0.00000000000E+00  0.00000000000E+00  0.68541772167E+03  0.37635808847E+04  0.37006409746E+04 0.  0.
        1    1    3    3  502    0  0.13607830548E+04  0.12291720151E+04  0.59407966822E+03  0.19275697178E+04  0.50400001928E-02 0. -1.
       -1    1    3    3    0  502 -0.13607830548E+04 -0.12291720151E+04  0.91338053448E+02  0.18360111669E+04  0.50400001928E-02 0.  1.
</event>
<event>
 5   0  0.7362817E-08  0.3702663E+04  0.7818609E-02  0.8067372E-01
        2   -1    0    0  501    0  0.00000000000E+00  0.00000000000E+00  0.16022990540E+04  0.16022990540E+04  0.25500000920E-02 0.  1.
       -2   -1    0    0    0  501  0.00000000000E+00  0.00000000000E+00 -0.21390686885E+04  0.21390686885E+04  0.25500000920E-02 0. -1.
    10030    2    1    2    0    0  0.00000000000E+00  0.00000000000E+00 -0.53676963453E+03  0.37413677425E+04  0.37026626830E+04 0.  0.
        1    1    3    3  502    0 -0.18050003158E+04 -0.40820893714E+03 -0.32153753972E+03  0.18783096299E+04  0.50400001928E-02 0.  1.
       -1    1    3    3    0  502  0.18050003158E+04  0.40820893714E+03 -0.21523209481E+03  0.18630581126E+04  0.50400001928E-02 0. -1.
</event>
<event>
 5   0  0.2282000E-08  0.3698067E+04  0.7818609E-02  0.8068390E-01
        3   -1    0    0  501    0  0.00000000000E+00  0.00000000000E+00  0.19299964745E+04  0.19299964771E+04  0.10100000352E+00 0.  1.
       -3   -1    0    0    0  501  0.00000000000E+00  0.00000000000E+00 -0.17714664763E+04  0.17714664792E+04  0.10100000352E+00 0. -1.
    10030    2    1    2    0    0  0.00000000000E+00  0.00000000000E+00  0.15852999820E+03  0.37014629563E+04  0.36980665565E+04 0.  0.
        3    1    3    3  502    0  0.91600469548E+03 -0.86684522215E+03  0.14327046637E+04  0.19086979606E+04  0.10100000352E+00 0.  1.
       -3    1    3    3    0  502 -0.91600469548E+03  0.86684522215E+03 -0.12741746655E+04  0.17927649957E+04  0.10100000352E+00 0. -1.
</event>
<event>
 5   0  0.2282000E-08  0.3692699E+04  0.7818609E-02  0.8069582E-01
        3   -1    0    0  501    0  0.00000000000E+00  0.00000000000E+00  0.16272961603E+04  0.16272961634E+04  0.10100000352E+00 0. -1.
       -3   -1    0    0    0  501  0.00000000000E+00  0.00000000000E+00 -0.20948897102E+04  0.20948897126E+04  0.10100000352E+00 0.  1.
    10030    2    1    2    0    0  0.00000000000E+00  0.00000000000E+00 -0.46759354985E+03  0.37221858760E+04  0.36926987378E+04 0.  0.
        5    1    3    3  502    0 -0.10790725669E+04  0.14201453798E+04  0.24727034986E+03  0.18006596625E+04  0.46999998093E+01 0. -1.
       -5    1    3    3    0  502  0.10790725669E+04 -0.14201453798E+04 -0.71486389971E+03  0.19215262135E+04  0.46999998093E+01 0.  1.
</event>
<event>
 5   0  0.7203049E-08  0.3699484E+04  0.7818609E-02  0.8068076E-01
        2   -1    0    0  501    0  0.00000000000E+00  0.00000000000E+00  0.12333429514E+04  0.12333429514E+04  0.25500000920E-02 0. -1.
       -2   -1    0    0    0  501  0.00000000000E+00  0.00000000000E+00 -0.27742038670E+04  0.27742038670E+04  0.25500000920E-02 0.  1.
    10030    2    1    2    0    0  0.00000000000E+00  0.00000000000E+00 -0.15408609156E+04  0.40075468184E+04  0.36994836316E+04 0.  0.
        4    1    3    3  502    0  0.12147013274E+04 -0.76101836488E+03 -0.20369300582E+04  0.24907296002E+04  0.12699999809E+01 0.  1.
       -4    1    3    3    0  502 -0.12147013274E+04  0.76101836488E+03  0.49606914253E+03  0.15168172182E+04  0.12699999809E+01 0. -1.
</event>
<event>
 5   0  0.2282000E-08  0.3695204E+04  0.7818609E-02  0.8069026E-01
        1   -1    0    0  501    0  0.00000000000E+00  0.00000000000E+00  0.22327777567E+04  0.22327777567E+04  0.50400001928E-02 0. -1.
       -1   -1    0    0    0  501  0.00000000000E+00  0.00000000000E+00 -0.15288724207E+04  0.15288724207E+04  0.50400001928E-02 0.  1.
    10030    2    1    2    0    0  0.00000000000E+00  0.00000000000E+00  0.70390533594E+03  0.37616501774E+04  0.36952035580E+04 0.  0.
        4    1    3    3  502    0  0.16867782590E+04  0.75185240143E+03  0.40888500214E+03  0.18914786508E+04  0.12699999809E+01 0.  1.
       -4    1    3    3    0  502 -0.16867782590E+04 -0.75185240143E+03  0.29502033380E+03  0.18701715266E+04  0.12699999809E+01 0. -1.
</event>
<event>
 5   0  0.7203049E-08  0.3694298E+04  0.7818609E-02  0.8069227E-01
       -2   -1    0    0    0  501  0.00000000000E+00  0.00000000000E+00  0.24819026964E+04  0.24819026964E+04  0.25500000920E-02 0. -1.
        2   -1    0    0  501    0  0.00000000000E+00  0.00000000000E+00 -0.13747350036E+04  0.13747350036E+04  0.25500000920E-02 0.  1.
    10030    2    1    2    0    0  0.00000000000E+00  0.00000000000E+00  0.11071676928E+04  0.38566377000E+04  0.36942975041E+04 0.  0.
        4    1    3    3  502    0  0.88394966411E+03  0.13168727416E+04  0.15419927254E+04  0.22120723325E+04  0.12699999809E+01 0. -1.
       -4    1    3    3    0  502 -0.88394966411E+03 -0.13168727416E+04 -0.43482503255E+03  0.16445653675E+04  0.12699999809E+01 0.  1.
</event>
<event>
 5   0  0.2282000E-08  0.3691883E+04  0.7818609E-02  0.8069763E-01
        1   -1    0    0  501    0  0.00000000000E+00  0.00000000000E+00  0.26849233545E+04  0.26849233545E+04  0.50400001928E-02 0. -1.
       -1   -1    0    0    0  501  0.00000000000E+00  0.00000000000E+00 -0.12691235642E+04  0.12691235642E+04  0.50400001928E-02 0.  1.
    10030    2    1    2    0    0  0.00000000000E+00  0.00000000000E+00  0.14157997903E+04  0.39540469187E+04  0.36918827161E+04 0.  0.
        3    1    3    3  502    0  0.38724486867E+03 -0.10011384813E+04 -0.90049425644E+03  0.14011162561E+04  0.10100000352E+00 0.  1.
       -3    1    3    3    0  502 -0.38724486867E+03  0.10011384813E+04  0.23162940467E+04  0.25529306626E+04  0.10100000352E+00 0. -1.
</event>
<event>
 5   0  0.2282000E-08  0.3712898E+04  0.7818609E-02  0.8065109E-01
        1   -1    0    0  501    0  0.00000000000E+00  0.00000000000E+00  0.23802592709E+04  0.23802592709E+04  0.50400001928E-02 0.  1.
       -1   -1    0    0    0  501  0.00000000000E+00  0.00000000000E+00 -0.14479109537E+04  0.14479109537E+04  0.50400001928E-02 0. -1.
    10030    2    1    2    0    0  0.00000000000E+00  0.00000000000E+00  0.93234831721E+03  0.38281702247E+04  0.37128983133E+04 0.  0.
        4    1    3    3  502    0 -0.11589979644E+04  0.91420860039E+03  0.16268906743E+04  0.21967768493E+04  0.12699999809E+01 0.  1.
       -4    1    3    3    0  502  0.11589979644E+04 -0.91420860039E+03 -0.69454235712E+03  0.16313933754E+04  0.12699999809E+01 0. -1.
</event>
<event>
 5   0  0.2282000E-08  0.3696862E+04  0.7818609E-02  0.8068658E-01
       -1   -1    0    0    0  501  0.00000000000E+00  0.00000000000E+00  0.20369457198E+04  0.20369457198E+04  0.50400001928E-02 0. -1.
        1   -1    0    0  501    0  0.00000000000E+00  0.00000000000E+00 -0.16773629131E+04  0.16773629131E+04  0.50400001928E-02 0.  1.
    10030    2    1    2    0    0  0.00000000000E+00  0.00000000000E+00  0.35958280672E+03  0.37143086329E+04  0.36968620241E+04 0.  0.
        2    1    3    3  502    0  0.75366415120E+03  0.61562161174E+03  0.17587350652E+04  0.20100121023E+04  0.25500000920E-02 0. -1.
       -2    1    3    3    0  502 -0.75366415120E+03 -0.61562161174E+03 -0.13991522585E+04  0.17042965306E+04  0.25500000920E-02 0.  1.
</event>
<event>
 5   0  0.7362817E-08  0.3701719E+04  0.7818609E-02  0.8067581E-01
       -2   -1    0    0    0  501  0.00000000000E+00  0.00000000000E+00  0.15545283573E+04  0.15545283573E+04  0.25500000920E-02 0. -1.
        2   -1    0    0  501    0  0.00000000000E+00  0.00000000000E+00 -0.22036782310E+04  0.22036782310E+04  0.25500000920E-02 0.  1.
    10030    2    1    2    0    0  0.00000000000E+00  0.00000000000E+00 -0.64914987371E+03  0.37582065882E+04  0.37017186821E+04 0.  0.
        1    1    3    3  502    0 -0.52309808476E+03  0.72032985267E+03  0.13228930516E+04  0.15945384062E+04  0.50400001928E-02 0. -1.
       -1    1    3    3    0  502  0.52309808476E+03 -0.72032985267E+03 -0.19720429253E+04  0.21636681821E+04  0.50400001928E-02 0.  1.
</event>
<event>
 5   0  0.2282000E-08  0.3703160E+04  0.7818609E-02  0.8067262E-01
        1   -1    0    0  501    0  0.00000000000E+00  0.00000000000E+00  0.18379362474E+04  0.18379362474E+04  0.50400001928E-02 0. -1.
       -1   -1    0    0    0  501  0.00000000000E+00  0.00000000000E+00 -0.18653250695E+04  0.18653250696E+04  0.50400001928E-02 0.  1.
    10030    2    1    2    0    0  0.00000000000E+00  0.00000000000E+00 -0.27388822178E+02  0.37032613169E+04  0.37031600335E+04 0.  0.
        3    1    3    3  502    0  0.87831030471E+03  0.10176635512E+04  0.12596355306E+04  0.18422132816E+04  0.10100000352E+00 0. -1.
       -3    1    3    3    0  502 -0.87831030471E+03 -0.10176635512E+04 -0.12870243528E+04  0.18610480353E+04  0.10100000352E+00 0.  1.
</event>
<event>
 5   0  0.7362817E-08  0.3696075E+04  0.7818609E-02  0.8068832E-01
       -2   -1    0    0    0  501  0.00000000000E+00  0.00000000000E+00  0.24291962638E+04  0.24291962638E+04  0.25500000920E-02 0. -1.
        2   -1    0    0  501    0  0.00000000000E+00  0.00000000000E+00 -0.14059145585E+04  0.14059145585E+04  0.25500000920E-02 0.  1.
    10030    2    1    2    0    0  0.00000000000E+00  0.00000000000E+00  0.10232817053E+04  0.38351108222E+04  0.36960748870E+04 0.  0.
        1    1    3    3  502    0 -0.42432312878E+03 -0.12616420725E+04 -0.81855506186E+03  0.15626334266E+04  0.50400001928E-02 0.  1.
       -1    1    3    3    0  502  0.42432312878E+03  0.12616420725E+04  0.18418367672E+04  0.22724773956E+04  0.50400001928E-02 0. -1.
</event>
<event>
 5   0  0.7309833E-08  0.3704312E+04  0.7818609E-02  0.8067007E-01
       -2   -1    0    0    0  501  0.00000000000E+00  0.00000000000E+00  0.18996176018E+04  0.18996176018E+04  0.25500000920E-02 0.  1.
        2   -1    0    0  501    0  0.00000000000E+00  0.00000000000E+00 -0.18058805807E+04  0.18058805807E+04  0.25500000920E-02 0. -1.
    10030    2    1    2    0    0  0.00000000000E+00  0.00000000000E+00  0.93737021183E+02  0.37054981825E+04  0.37043123723E+04 0.  0.
        2    1    3    3  502    0 -0.75962231896E+03  0.24911882816E+03  0.17181505658E+04  0.18950270776E+04  0.25500000920E-02 0.  1.
       -2    1    3    3    0  502  0.75962231896E+03 -0.24911882816E+03 -0.16244135446E+04  0.18104711049E+04  0.25500000920E-02 0. -1.
</event>
<event>
 5   0  0.7203049E-08  0.3698243E+04  0.7818609E-02  0.8068351E-01
       -2   -1    0    0    0  501  0.00000000000E+00  0.00000000000E+00  0.14626264526E+04  0.14626264526E+04  0.25500000920E-02 0.  1.
        2   -1    0    0  501    0  0.00000000000E+00  0.00000000000E+00 -0.23377472006E+04  0.23377472006E+04  0.25500000920E-02 0. -1.
    10030    2    1    2    0    0  0.00000000000E+00  0.00000000000E+00 -0.87512074796E+03  0.38003736532E+04  0.36982433100E+04 0.  0.
        4    1    3    3  502    0  0.15307784839E+04 -0.98821932275E+03 -0.76152691991E+03  0.19747873453E+04  0.12699999809E+01 0. -1.
       -4    1    3    3    0  502 -0.15307784839E+04  0.98821932275E+03 -0.11359382805E+03  0.18255863078E+04  0.12699999809E+01 0.  1.
</event>
<event>
 5   0  0.2282000E-08  0.3702069E+04  0.7818609E-02  0.8067504E-01
       -1   -1    0    0    0  501  0.00000000000E+00  0.00000000000E+00  0.20746388759E+04  0.20746388759E+04  0.50400001928E-02 0. -1.
        1   -1    0    0  501    0  0.00000000000E+00  0.00000000000E+00 -0.16515298265E+04  0.16515298265E+04  0.50400001928E-02 0.  1.
    10030    2    1    2    0    0  0.00000000000E+00  0.00000000000E+00  0.42310904937E+03  0.37261687024E+04  0.37020686016E+04 0.  0.
        4    1    3    3  502    0  0.11054966274E+04  0.12926880065E+04 -0.52337781493E+03  0.17796322726E+04  0.12699999809E+01 0.  1.
       -4    1    3    3    0  502 -0.11054966274E+04 -0.12926880065E+04  0.94648686429E+03  0.19465364298E+04  0.12699999809E+01 0. -1.
</event>
<event>
 5   0  0.2282000E-08  0.3698717E+04  0.7818609E-02  0.8068246E-01
       -1   -1    0    0    0  501  0.00000000000E+00  0.00000000000E+00  0.13697600062E+04  0.13697600062E+04  0.50400001928E-02 0.  1.
        1   -1    0    0  501    0  0.00000000000E+00  0.00000000000E+00 -0.24968798152E+04  0.24968798152E+04  0.50400001928E-02 0. -1.
    10030    2    1    2    0    0  0.00000000000E+00  0.00000000000E+00 -0.11271198090E+04  0.38666398214E+04  0.36987165942E+04 0.  0.
        1    1    3    3  502    0  0.96453229094E+03  0.33244944720E+03  0.10489616403E+04  0.14632722570E+04  0.50400001928E-02 0.  1.
       -1    1    3    3    0  502 -0.96453229094E+03 -0.33244944720E+03 -0.21760814494E+04  0.24033675644E+04  0.50400001928E-02 0. -1.
</event>
<event>
 5   0  0.7203049E-08  0.3706479E+04  0.7818609E-02  0.8066528E-01
        2   -1    0    0  501    0  0.00000000000E+00  0.00000000000E+00  0.13946113729E+04  0.13946113729E+04  0.25500000920E-02 0.  1.
       -2   -1    0    0    0  501  0.00000000000E+00  0.00000000000E+00 -0.24626902298E+04  0.24626902298E+04  0.25500000920E-02 0. -1.
    10030    2    1    2    0    0  0.00000000000E+00  0.00000000000E+00 -0.10680788568E+04  0.38573016027E+04  0.37064785457E+04 0.  0.
        4    1    3    3  502    0 -0.64316813189E+03  0.26274528331E+03 -0.23220295687E+04  0.24237415829E+04  0.12699999809E+01 0. -1.
       -4    1    3    3    0  502  0.64316813189E+03 -0.26274528331E+03  0.12539507119E+04  0.14335600198E+04  0.12699999809E+01 0.  1.
</event>
<event>
 5   0  0.7191801E-08  0.3698933E+04  0.7818609E-02  0.8068198E-01
        2   -1    0    0  501    0  0.00000000000E+00  0.00000000000E+00  0.31630255368E+04  0.31630255368E+04  0.25500000920E-02 0. -1.
       -2   -1    0    0    0  501  0.00000000000E+00  0.00000000000E+00 -0.10814096075E+04  0.10814096075E+04  0.25500000920E-02 0.  1.
    10030    2    1    2    0    0  0.00000000000E+00  0.00000000000E+00  0.20816159293E+04  0.42444351443E+04  0.36989329295E+04 0.  0.
        5    1    3    3  502    0 -0.82449559277E+03 -0.13782254071E+04 -0.11625356264E+02  0.16060683342E+04  0.46999998093E+01 0.  1.
       -5    1    3    3    0  502  0.82449559277E+03  0.13782254071E+04  0.20932412856E+04  0.26383668101E+04  0.46999998093E+01 0. -1.
</event>
<event>
 5   0  0.2282000E-08  0.3695560E+04  0.7818609E-02  0.8068946E-01
        1   -1    0    0  501    0  0.00000000000E+00  0.00000000000E+00  0.14435540450E+04  0.14435540450E+04  0.50400001928E-02 0.  1.
       -1   -1    0    0    0  501  0.00000000000E+00  0.00000000000E+00 -0.23651979668E+04  0.23651979668E+04  0.50400001928E-02 0. -1.
    10030    2    1    2    0    0  0.00000000000E+00  0.00000000000E+00 -0.92164392179E+03  0.38087520118E+04  0.36955600887E+04 0.  0.
        2    1    3    3  502    0 -0.39866819526E+03 -0.17697963840E+04 -0.99108531571E+02  0.18168483899E+04  0.25500000920E-02 0. -1.
       -2    1    3    3    0  502  0.39866819526E+03  0.17697963840E+04 -0.82253539022E+03  0.19919036219E+04  0.25500000920E-02 0.  1.
</event>
<event>
 5   0  0.2282000E-08  0.3702050E+04  0.7818609E-02  0.8067508E-01
        1   -1    0    0  501    0  0.00000000000E+00  0.00000000000E+00  0.33625859187E+04  0.33625859187E+04  0.50400001928E-02 0.  1.
       -1   -1    0    0    0  501  0.00000000000E+00  0.00000000000E+00 -0.10189462398E+04  0.10189462398E+04  0.50400001928E-02 0. -1.
    10030    2    1    2    0    0  0.00000000000E+00  0.00000000000E+00  0.23436396789E+04  0.43815321585E+04  0.37020503929E+04 0.  0.
        3    1    3    3  502    0  0.56600051749E+03  0.56572431464E+03 -0.80362972734E+03  0.11341169846E+04  0.10100000352E+00 0. -1.
       -3    1    3    3    0  502 -0.56600051749E+03 -0.56572431464E+03  0.31472694062E+04  0.32474151739E+04  0.10100000352E+00 0.  1.
</event>
<event>
 5   0  0.7309833E-08  0.3696681E+04  0.7818609E-02  0.8068698E-01
        2   -1    0    0  501    0  0.00000000000E+00  0.00000000000E+00  0.23753812648E+04  0.23753812648E+04  0.25500000920E-02 0.  1.
       -2   -1    0    0    0  501  0.00000000000E+00  0.00000000000E+00 -0.14382378378E+04  0.14382378378E+04  0.25500000920E-02 0. -1.
    10030    2    1    2    0    0  0.00000000000E+00  0.00000000000E+00  0.93714342700E+03  0.38136191026E+04  0.36966813302E+04 0.  0.
        2    1    3    3  502    0  0.13553096498E+04  0.65522911112E+03 -0.63781520332E+03  0.16349304782E+04  0.25500000920E-02 0. -1.
       -2    1    3    3    0  502 -0.13553096498E+04 -0.65522911112E+03  0.15749586303E+04  0.21786886244E+04  0.25500000920E-02 0.  1.
</event>
<event>
 5   0  0.7203049E-08  0.3697437E+04  0.7818609E-02  0.8068530E-01
        2   -1    0    0  501    0  0.00000000000E+00  0.00000000000E+00  0.13328515070E+04  0.13328515070E+04  0.25500000920E-02 0. -1.
       -2   -1    0    0    0  501  0.00000000000E+00  0.00000000000E+00 -0.25642465354E+04  0.25642465354E+04  0.25500000920E-02 0.  1.
    10030    2    1    2    0    0  0.00000000000E+00  0.00000000000E+00 -0.12313950283E+04  0.38970980424E+04  0.36974368739E+04 0.  0.
        4    1    3    3  502    0  0.16285526200E+04 -0.69170935780E+03 -0.11804612750E+04  0.21270016235E+04  0.12699999809E+01 0.  1.
       -4    1    3    3    0  502 -0.16285526200E+04  0.69170935780E+03 -0.50933753323E+02  0.17700964188E+04  0.12699999809E+01 0. -1.
</event>
<event>
 5   0  0.2282000E-08  0.3671107E+04  0.7818609E-02  0.8074395E-01
        1   -1    0    0  501    0  0.00000000000E+00  0.00000000000E+00  0.15451510424E+04  0.15451510424E+04  0.50400001928E-02 0. -1.
       -1   -1    0    0    0  501  0.00000000000E+00  0.00000000000E+00 -0.21805355338E+04  0.21805355338E+04  0.50400001928E-02 0.  1.
    10030    2    1    2    0    0  0.00000000000E+00  0.00000000000E+00 -0.63538449137E+03  0.37256865762E+04  0.36711070554E+04 0.  0.
        1    1    3    3  502    0 -0.23117518478E+03  0.17996978862E+04 -0.59912779033E+03  0.19108397518E+04  0.50400001928E-02 0.  1.
       -1    1    3    3    0  502  0.23117518478E+03 -0.17996978862E+04 -0.36256701033E+02  0.18148468244E+04  0.50400001928E-02 0. -1.
</event>
<event>
 5   0  0.2282000E-08  0.3706635E+04  0.7818609E-02  0.8066493E-01
        1   -1    0    0  501    0  0.00000000000E+00  0.00000000000E+00  0.13759965061E+04  0.13759965061E+04  0.50400001928E-02 0.  1.
       -1   -1    0    0    0  501  0.00000000000E+00  0.00000000000E+00 -0.24962174421E+04  0.24962174421E+04  0.50400001928E-02 0. -1.
    10030    2    1    2    0    0  0.00000000000E+00  0.00000000000E+00 -0.11202209360E+04  0.38722139482E+04  0.37066353901E+04 0.  0.
        1    1    3    3  502    0  0.16620069446E+04 -0.41014926235E+03 -0.13019716713E+04  0.21507253973E+04  0.50400001928E-02 0. -1.
       -1    1    3    3    0  502 -0.16620069446E+04  0.41014926235E+03  0.18175073530E+03  0.17214885510E+04  0.50400001928E-02 0.  1.
</event>
<event>
 5   0  0.7254493E-08  0.3699402E+04  0.7818609E-02  0.8068094E-01
        2   -1    0    0  501    0  0.00000000000E+00  0.00000000000E+00  0.20387233327E+04  0.20387233327E+04  0.25500000920E-02 0.  1.
       -2   -1    0    0    0  501  0.00000000000E+00  0.00000000000E+00 -0.16782039894E+04  0.16782039894E+04  0.25500000920E-02 0. -1.
    10030    2    1    2    0    0  0.00000000000E+00  0.00000000000E+00  0.36051934324E+03  0.37169273221E+04  0.36994019140E+04 0.  0.
        3    1    3    3  502    0 -0.14058839098E+04 -0.11110840341E+04 -0.28058119093E+03  0.18137649003E+04  0.10100000352E+00 0.  1.
       -3    1    3    3    0  502  0.14058839098E+04  0.11110840341E+04  0.64110053417E+03  0.19031624218E+04  0.10100000352E+00 0. -1.
</event>
<event>
 5   0  0.2282000E-08  0.3697116E+04  0.7818609E-02  0.8068601E-01
        1   -1    0    0  501    0  0.00000000000E+00  0.00000000000E+00  0.26529290421E+04  0.26529290421E+04  0.50400001928E-02 0.  1.
       -1   -1    0    0    0  501  0.00000000000E+00  0.00000000000E+00 -0.12880731859E+04  0.12880731859E+04  0.50400001928E-02 0. -1.
    10030    2    1    2    0    0  0.00000000000E+00  0.00000000000E+00  0.13648558562E+04  0.39410022281E+04  0.36971160454E+04 0.  0.
        4    1    3    3  502    0  0.51855976102E+03 -0.49856901683E+03 -0.11327507140E+04  0.13418647783E+04  0.12699999809E+01 0. -1.
       -4    1    3    3    0  502 -0.51855976102E+03  0.49856901683E+03  0.24976065702E+04  0.25991374497E+04  0.12699999809E+01 0.  1.
</event>
<event>
 5   0  0.2282000E-08  0.3712924E+04  0.7818609E-02  0.8065104E-01
        1   -1    0    0  501    0  0.00000000000E+00  0.00000000000E+00  0.14059953114E+04  0.14059953114E+04  0.50400001928E-02 0.  1.
       -1   -1    0    0    0  501  0.00000000000E+00  0.00000000000E+00 -0.24512536239E+04  0.24512536239E+04  0.50400001928E-02 0. -1.
    10030    2    1    2    0    0  0.00000000000E+00  0.00000000000E+00 -0.10452583125E+04  0.38572489352E+04  0.37129239702E+04 0.  0.
        3    1    3    3  502    0  0.12756417026E+04  0.13177586440E+04 -0.82138629447E+03  0.20095833031E+04  0.10100000352E+00 0. -1.
       -3    1    3    3    0  502 -0.12756417026E+04 -0.13177586440E+04 -0.22387201802E+03  0.18476656321E+04  0.10100000352E+00 0.  1.
</event>
<event>
 5   0  0.2282000E-08  0.3700796E+04  0.7818609E-02  0.8067785E-01
       -1   -1    0    0    0  501  0.00000000000E+00  0.00000000000E+00  0.20989908735E+04  0.20989908735E+04  0.50400001928E-02 0. -1.
        1   -1    0    0  501    0  0.00000000000E+00  0.00000000000E+00 -0.16312469758E+04  0.16312469758E+04  0.50400001928E-02 0.  1.
    10030    2    1    2    0    0  0.00000000000E+00  0.00000000000E+00  0.46774389770E+03  0.37302378492E+04  0.37007958682E+04 0.  0.
        1    1    3    3  502    0 -0.15478469530E+04 -0.80519295081E+03  0.85505939217E+03  0.19430111791E+04  0.50400001928E-02 0. -1.
       -1    1    3    3    0  502  0.15478469530E+04  0.80519295081E+03 -0.38731549447E+03  0.17872266701E+04  0.50400001928E-02 0.  1.
</event>
<event>
 5   0  0.2282000E-08  0.3698260E+04  0.7818609E-02  0.8068348E-01
       -1   -1    0    0    0  501  0.00000000000E+00  0.00000000000E+00  0.16600888789E+04  0.16600888789E+04  0.50400001928E-02 0.  1.
        1   -1    0    0  501    0  0.00000000000E+00  0.00000000000E+00 -0.20596980211E+04  0.20596980211E+04  0.50400001928E-02 0. -1.
    10030    2    1    2    0    0  0.00000000000E+00  0.00000000000E+00 -0.39960914221E+03  0.37197869000E+04  0.36982600118E+04 0.  0.
        3    1    3    3  502    0 -0.34392265624E+03 -0.31169821305E+03 -0.20001516793E+04  0.20533010787E+04  0.10100000352E+00 0. -1.
       -3    1    3    3    0  502  0.34392265624E+03  0.31169821305E+03  0.16005425371E+04  0.16664858213E+04  0.10100000352E+00 0.  1.
</event>
<event>
 5   0  0.7191801E-08  0.3588646E+04  0.7818609E-02  0.8093097E-01
       -2   -1    0    0    0  501  0.00000000000E+00  0.00000000000E+00  0.15333923982E+04  0.15333923982E+04  0.25500000920E-02 0.  1.
        2   -1    0    0  501    0  0.00000000000E+00  0.00000000000E+00 -0.20996551385E+04  0.20996551385E+04  0.25500000920E-02 0. -1.
    10030    2    1    2    0    0  0.00000000000E+00  0.00000000000E+00 -0.56626274033E+03  0.36330475367E+04  0.35886461114E+04 0.  0.
        5    1    3    3  502    0 -0.44439018694E+03  0.45101312706E+03 -0.19827956755E+04  0.20814409095E+04  0.46999998093E+01 0. -1.
       -5    1    3    3    0  502  0.44439018694E+03 -0.45101312706E+03  0.14165329352E+04  0.15516066272E+04  0.46999998093E+01 0.  1.
</event>
<event>
 5   0  0.2282000E-08  0.3663492E+04  0.7818609E-02  0.8076101E-01
        1   -1    0    0  501    0  0.00000000000E+00  0.00000000000E+00  0.20192318932E+04  0.20192318932E+04  0.50400001928E-02 0. -1.
       -1   -1    0    0    0  501  0.00000000000E+00  0.00000000000E+00 -0.16616680471E+04  0.16616680472E+04  0.50400001928E-02 0.  1.
    10030    2    1    2    0    0  0.00000000000E+00  0.00000000000E+00  0.35756384603E+03  0.36808999403E+04  0.36634918407E+04 0.  0.
        4    1    3    3  502    0  0.12416698154E+04 -0.47146323166E+03  0.14462315858E+04  0.19635704525E+04  0.12699999809E+01 0. -1.
       -4    1    3    3    0  502 -0.12416698154E+04  0.47146323166E+03 -0.10886677398E+04  0.17173294878E+04  0.12699999809E+01 0.  1.
</event>
<event>
 5   0  0.2282000E-08  0.3702044E+04  0.7818609E-02  0.8067509E-01
       -1   -1    0    0    0  501  0.00000000000E+00  0.00000000000E+00  0.16198881780E+04  0.16198881780E+04  0.50400001928E-02 0. -1.
        1   -1    0    0  501    0  0.00000000000E+00  0.00000000000E+00 -0.21151353207E+04  0.21151353207E+04  0.50400001928E-02 0.  1.
    10030    2    1    2    0    0  0.00000000000E+00  0.00000000000E+00 -0.49524714262E+03  0.37350234987E+04  0.37020441385E+04 0.  0.
        1    1    3    3  502    0 -0.16905553447E+04 -0.33630508589E+03 -0.92832221336E+03  0.19577692959E+04  0.50400001928E-02 0. -1.
       -1    1    3    3    0  502  0.16905553447E+04  0.33630508589E+03  0.43307507075E+03  0.17772542028E+04  0.50400001928E-02 0.  1.
</event>
<event>
 5   0  0.2282000E-08  0.3664236E+04  0.7818609E-02  0.8075934E-01
        1   -1    0    0  501    0  0.00000000000E+00  0.00000000000E+00  0.23781355740E+04  0.23781355740E+04  0.50400001928E-02 0.  1.
       -1   -1    0    0    0  501  0.00000000000E+00  0.00000000000E+00 -0.14114654329E+04  0.14114654329E+04  0.50400001928E-02 0. -1.
    10030    2    1    2    0    0  0.00000000000E+00  0.00000000000E+00  0.96667014110E+03  0.37896010070E+04  0.36642358863E+04 0.  0.
        3    1    3    3  502    0 -0.43765759904E+03  0.35473223361E+03  0.22863329099E+04  0.23547180971E+04  0.10100000352E+00 0.  1.
       -3    1    3    3    0  502  0.43765759904E+03 -0.35473223361E+03 -0.13196627688E+04  0.14348829099E+04  0.10100000352E+00 0. -1.
</event>
<event>
 5   0  0.7191801E-08  0.3698338E+04  0.7818609E-02  0.8068330E-01
       -2   -1    0    0    0  501  0.00000000000E+00  0.00000000000E+00  0.18342371081E+04  0.18342371081E+04  0.25500000920E-02 0.  1.
        2   -1    0    0  501    0  0.00000000000E+00  0.00000000000E+00 -0.18642222837E+04  0.18642222837E+04  0.25500000920E-02 0. -1.
    10030    2    1    2    0    0  0.00000000000E+00  0.00000000000E+00 -0.29985175619E+02  0.36984593918E+04  0.36983378377E+04 0.  0.
        5    1    3    3  502    0 -0.15276035170E+04  0.85983120514E+03 -0.60367261353E+03  0.18540024059E+04  0.46999998093E+01 0. -1.
       -5    1    3    3    0  502  0.15276035170E+04 -0.85983120514E+03  0.57368743791E+03  0.18444569859E+04  0.46999998093E+01 0.  1.
</event>
<event>
 5   0  0.7203049E-08  0.3701160E+04  0.7818609E-02  0.8067705E-01
       -2   -1    0    0    0  501  0.00000000000E+00  0.00000000000E+00  0.19015097537E+04  0.19015097537E+04  0.25500000920E-02 0. -1.
        2   -1    0    0  501    0  0.00000000000E+00  0.00000000000E+00 -0.18010146984E+04  0.18010146984E+04  0.25500000920E-02 0.  1.
    10030    2    1    2    0    0  0.00000000000E+00  0.00000000000E+00  0.10049505528E+03  0.37025244521E+04  0.37011603670E+04 0.  0.
        4    1    3    3  502    0 -0.70590816285E+03  0.29210503023E+03  0.17363994340E+04  0.18970282787E+04  0.12699999809E+01 0. -1.
       -4    1    3    3    0  502  0.70590816285E+03 -0.29210503023E+03 -0.16359043787E+04  0.18054961734E+04  0.12699999809E+01 0.  1.
</event>
<event>
 5   0  0.2282000E-08  0.3718928E+04  0.7818609E-02  0.8063780E-01
        1   -1    0    0  501    0  0.00000000000E+00  0.00000000000E+00  0.19737459907E+04  0.19737459907E+04  0.50400001928E-02 0.  1.
       -1   -1    0    0    0  501  0.00000000000E+00  0.00000000000E+00 -0.17517993475E+04  0.17517993475E+04  0.50400001928E-02 0. -1.
    10030    2    1    2    0    0  0.00000000000E+00  0.00000000000E+00  0.22194664321E+03  0.37255453382E+04  0.37189283073E+04 0.  0.
        5    1    3    3  502    0 -0.91100264181E+03 -0.55088274620E+03  0.16382144202E+04  0.19537569424E+04  0.46999998093E+01 0.  1.
       -5    1    3    3    0  502  0.91100264181E+03  0.55088274620E+03 -0.14162677770E+04  0.17717883958E+04  0.46999998093E+01 0. -1.
</event>
<event>
 5   0  0.7203049E-08  0.3702452E+04  0.7818609E-02  0.8067419E-01
       -2   -1    0    0    0  501  0.00000000000E+00  0.00000000000E+00  0.15499426573E+04  0.15499426573E+04  0.25500000920E-02 0.  1.
        2   -1    0    0  501    0  0.00000000000E+00  0.00000000000E+00 -0.22110736253E+04  0.22110736253E+04  0.25500000920E-02 0. -1.
    10030    2    1    2    0    0  0.00000000000E+00  0.00000000000E+00 -0.66113096799E+03  0.37610162826E+04  0.37024517986E+04 0.  0.
        4    1    3    3  502    0 -0.10287144437E+04 -0.31728391385E+03 -0.18604130722E+04  0.21494326928E+04  0.12699999809E+01 0. -1.
       -4    1    3    3    0  502  0.10287144437E+04  0.31728391385E+03  0.11992821042E+04  0.16115835898E+04  0.12699999809E+01 0.  1.
</event>
<event>
 5   0  0.2282000E-08  0.3696904E+04  0.7818609E-02  0.8068648E-01
        1   -1    0    0  501    0  0.00000000000E+00  0.00000000000E+00  0.31506988686E+04  0.31506988687E+04  0.50400001928E-02 0. -1.
       -1   -1    0    0    0  501  0.00000000000E+00  0.00000000000E+00 -0.10844496374E+04  0.10844496374E+04  0.50400001928E-02 0.  1.
    10030    2    1    2    0    0  0.00000000000E+00  0.00000000000E+00  0.20662492312E+04  0.42351485061E+04  0.36969037021E+04 0.  0.
        5    1    3    3  502    0  0.17641441695E+04 -0.28209446263E+02  0.40174597316E+03  0.18095364988E+04  0.46999998093E+01 0. -1.
       -5    1    3    3    0  502 -0.17641441695E+04  0.28209446263E+02  0.16645032581E+04  0.24256120073E+04  0.46999998093E+01 0.  1.
</event>
<event>
 5   0  0.7309833E-08  0.3703465E+04  0.7818609E-02  0.8067194E-01
       -2   -1    0    0    0  501  0.00000000000E+00  0.00000000000E+00  0.23311984967E+04  0.23311984967E+04  0.25500000920E-02 0. -1.
        2   -1    0    0  501    0  0.00000000000E+00  0.00000000000E+00 -0.14708796466E+04  0.14708796466E+04  0.25500000920E-02 0.  1.
    10030    2    1    2    0    0  0.00000000000E+00  0.00000000000E+00  0.86031885010E+03  0.38020781433E+04  0.37034645515E+04 0.  0.
        2    1    3    3  502    0 -0.16185637332E+04  0.40287555668E+03  0.12558481725E+04  0.20878725787E+04  0.25500000920E-02 0. -1.
       -2    1    3    3    0  502  0.16185637332E+04 -0.40287555668E+03 -0.39552932242E+03  0.17142055646E+04  0.25500000920E-02 0.  1.
</event>
<event>
 5   0  0.7362817E-08  0.3702357E+04  0.7818609E-02  0.8067440E-01
        2   -1    0    0  501    0  0.00000000000E+00  0.00000000000E+00  0.17401407762E+04  0.17401407762E+04  0.25500000920E-02 0.  1.
       -2   -1    0    0    0  501  0.00000000000E+00  0.00000000000E+00 -0.19693016323E+04  0.19693016323E+04  0.25500000920E-02 0. -1.
    10030    2    1    2    0    0  0.00000000000E+00  0.00000000000E+00 -0.22916085614E+03  0.37094424085E+04  0.37023571254E+04 0.  0.
        1    1    3    3  502    0  0.23065158858E+03 -0.10825706597E+04 -0.16012335956E+04  0.19465632320E+04  0.50400001928E-02 0. -1.
       -1    1    3    3    0  502 -0.23065158858E+03  0.10825706597E+04  0.13720727395E+04  0.17628791765E+04  0.50400001928E-02 0.  1.
</event>
<event>
 5   0  0.2282000E-08  0.3657059E+04  0.7818609E-02  0.8077545E-01
       -1   -1    0    0    0  501  0.00000000000E+00  0.00000000000E+00  0.37214942234E+04  0.37214942234E+04  0.50400001928E-02 0. -1.
        1   -1    0    0  501    0  0.00000000000E+00  0.00000000000E+00 -0.89843477411E+03  0.89843477412E+03  0.50400001928E-02 0.  1.
    10030    2    1    2    0    0  0.00000000000E+00  0.00000000000E+00  0.28230594493E+04  0.46199289976E+04  0.36570588303E+04 0.  0.
        4    1    3    3  502    0  0.82303119395E+03 -0.48791077378E+03 -0.55696807715E+03  0.11070918305E+04  0.12699999809E+01 0.  1.
       -4    1    3    3    0  502 -0.82303119395E+03  0.48791077378E+03  0.33800275265E+04  0.35128371670E+04  0.12699999809E+01 0. -1.
</event>
<event>
 5   0  0.7362817E-08  0.3697082E+04  0.7818609E-02  0.8068609E-01
        2   -1    0    0  501    0  0.00000000000E+00  0.00000000000E+00  0.18458360812E+04  0.18458360812E+04  0.25500000920E-02 0.  1.
       -2   -1    0    0    0  501  0.00000000000E+00  0.00000000000E+00 -0.18512497450E+04  0.18512497450E+04  0.25500000920E-02 0. -1.
    10030    2    1    2    0    0  0.00000000000E+00  0.00000000000E+00 -0.54136637624E+01  0.36970858262E+04  0.36970818626E+04 0.  0.
        1    1    3    3  502    0 -0.75029961864E+03  0.34416164455E+03 -0.16567058298E+04  0.18509648732E+04  0.50400001928E-02 0. -1.
       -1    1    3    3    0  502  0.75029961864E+03 -0.34416164455E+03  0.16512921661E+04  0.18461209530E+04  0.50400001928E-02 0.  1.
</event>
<event>
 5   0  0.2282000E-08  0.3710293E+04  0.7818609E-02  0.8065685E-01
        1   -1    0    0  501    0  0.00000000000E+00  0.00000000000E+00  0.22309478354E+04  0.22309478354E+04  0.50400001928E-02 0.  1.
       -1   -1    0    0    0  501  0.00000000000E+00  0.00000000000E+00 -0.15426485542E+04  0.15426485542E+04  0.50400001928E-02 0. -1.
    10030    2    1    2    0    0  0.00000000000E+00  0.00000000000E+00  0.68829928121E+03  0.37735963896E+04  0.37102929549E+04 0.  0.
        2    1    3    3  502    0  0.17417515017E+04  0.49156957487E+03  0.75881839408E+03  0.19624332589E+04  0.25500000920E-02 0. -1.
       -2    1    3    3    0  502 -0.17417515017E+04 -0.49156957487E+03 -0.70519112861E+02  0.18111631307E+04  0.25500000920E-02 0.  1.
</event>
<event>
 5   0  0.7203049E-08  0.3689862E+04  0.7818609E-02  0.8070212E-01
        2   -1    0    0  501    0  0.00000000000E+00  0.00000000000E+00  0.11889787052E+04  0.11889787052E+04  0.25500000920E-02 0.  1.
       -2   -1    0    0    0  501  0.00000000000E+00  0.00000000000E+00 -0.28627687556E+04  0.28627687556E+04  0.25500000920E-02 0. -1.
    10030    2    1    2    0    0  0.00000000000E+00  0.00000000000E+00 -0.16737900504E+04  0.40517474607E+04  0.36898623759E+04 0.  0.
        4    1    3    3  502    0  0.10386521016E+04  0.91643956603E+03 -0.21750656241E+04  0.25786763559E+04  0.12699999809E+01 0. -1.
       -4    1    3    3    0  502 -0.10386521016E+04 -0.91643956603E+03  0.50127557373E+03  0.14730711049E+04  0.12699999809E+01 0.  1.
</event>
<event>
 5   0  0.7254493E-08  0.3700651E+04  0.7818609E-02  0.8067818E-01
       -2   -1    0    0    0  501  0.00000000000E+00  0.00000000000E+00  0.35985718229E+04  0.35985718229E+04  0.25500000920E-02 0.  1.
        2   -1    0    0  501    0  0.00000000000E+00  0.00000000000E+00 -0.95140661740E+03  0.95140661741E+03  0.25500000920E-02 0. -1.
    10030    2    1    2    0    0  0.00000000000E+00  0.00000000000E+00  0.26471652055E+04  0.45499784403E+04  0.37006513186E+04 0.  0.
        3    1    3    3  502    0  0.19415205520E+03 -0.54920285080E+03 -0.83573015379E+03  0.10187068725E+04  0.10100000352E+00 0. -1.
       -3    1    3    3    0  502 -0.19415205520E+03  0.54920285080E+03  0.34828953593E+04  0.35312715679E+04  0.10100000352E+00 0.  1.
</event>
<event>
 5   0  0.2282000E-08  0.3699912E+04  0.7818609E-02  0.8067981E-01
        1   -1    0    0  501    0  0.00000000000E+00  0.00000000000E+00  0.28872741002E+04  0.28872741002E+04  0.50400001928E-02 0. -1.
       -1   -1    0    0    0  501  0.00000000000E+00  0.00000000000E+00 -0.11853180364E+04  0.11853180364E+04  0.50400001928E-02 0.  1.
    10030    2    1    2    0    0  0.00000000000E+00  0.00000000000E+00  0.17019560638E+04  0.40725921366E+04  0.36999124676E+04 0.  0.
        2    1    3    3  502    0 -0.11027677011E+04  0.60147845286E+03 -0.64393075254E+03  0.14115664157E+04  0.25500000920E-02 0.  1.
       -2    1    3    3    0  502  0.11027677011E+04 -0.60147845286E+03  0.23458868164E+04  0.26610257209E+04  0.25500000920E-02 0. -1.
</event>
<event>
 5   0  0.2282000E-08  0.3694698E+04  0.7818609E-02  0.8069138E-01
       -1   -1    0    0    0  501  0.00000000000E+00  0.00000000000E+00  0.15029478566E+04  0.15029478566E+04  0.50400001928E-02 0.  1.
        1   -1    0    0  501    0  0.00000000000E+00  0.00000000000E+00 -0.22706697320E+04  0.22706697320E+04  0.50400001928E-02 0. -1.
    10030    2    1    2    0    0  0.00000000000E+00  0.00000000000E+00 -0.76772187538E+03  0.37736175886E+04  0.36946979345E+04 0.  0.
        4    1    3    3  502    0 -0.43130506696E+02  0.68291000561E+01  0.15024202009E+04  0.15030552053E+04  0.12699999809E+01 0.  1.
       -4    1    3    3    0  502  0.43130506696E+02 -0.68291000561E+01 -0.22701420763E+04  0.22705623833E+04  0.12699999809E+01 0. -1.
</event>
<event>
 5   0  0.2282000E-08  0.3711215E+04  0.7818609E-02  0.8065481E-01
       -1   -1    0    0    0  501  0.00000000000E+00  0.00000000000E+00  0.21758606385E+04  0.21758606385E+04  0.50400001928E-02 0. -1.
        1   -1    0    0  501    0  0.00000000000E+00  0.00000000000E+00 -0.15824905327E+04  0.15824905327E+04  0.50400001928E-02 0.  1.
    10030    2    1    2    0    0  0.00000000000E+00  0.00000000000E+00  0.59337010579E+03  0.37583511711E+04  0.37112148204E+04 0.  0.
        3    1    3    3  502    0  0.18264566614E+04  0.10020288138E+03  0.61256710893E+03  0.19290471810E+04  0.10100000352E+00 0. -1.
       -3    1    3    3    0  502 -0.18264566614E+04 -0.10020288138E+03 -0.19197003138E+02  0.18293039902E+04  0.10100000352E+00 0.  1.
</event>
<event>
 5   0  0.2282000E-08  0.3737010E+04  0.7818609E-02  0.8059809E-01
       -1   -1    0    0    0  501  0.00000000000E+00  0.00000000000E+00  0.17960919612E+04  0.17960919612E+04  0.50400001928E-02 0.  1.
        1   -1    0    0  501    0  0.00000000000E+00  0.00000000000E+00 -0.19438370939E+04  0.19438370939E+04  0.50400001928E-02 0. -1.
    10030    2    1    2    0    0  0.00000000000E+00  0.00000000000E+00 -0.14774513271E+03  0.37399290550E+04  0.37370095949E+04 0.  0.
        3    1    3    3  502    0 -0.15917709223E+04  0.40259610214E+03 -0.96647286068E+03  0.19052265197E+04  0.10100000352E+00 0. -1.
       -3    1    3    3    0  502  0.15917709223E+04 -0.40259610214E+03  0.81872772797E+03  0.18347025354E+04  0.10100000352E+00 0.  1.
</event>
<event>
 5   0  0.7254493E-08  0.3701354E+04  0.7818609E-02  0.8067662E-01
       -2   -1    0    0    0  501  0.00000000000E+00  0.00000000000E+00  0.15493719335E+04  0.15493719335E+04  0.25500000920E-02 0. -1.
        2   -1    0    0  501    0  0.00000000000E+00  0.00000000000E+00 -0.22105765700E+04  0.22105765700E+04  0.25500000920E-02 0.  1.
    10030    2    1    2    0    0  0.00000000000E+00  0.00000000000E+00 -0.66120463647E+03  0.37599485035E+04  0.37013539655E+04 0.  0.
        3    1    3    3  502    0  0.17897036268E+04  0.26385924063E+03  0.65889917046E+02  0.18102492265E+04  0.10100000352E+00 0. -1.
       -3    1    3    3    0  502 -0.17897036268E+04 -0.26385924063E+03 -0.72709455351E+03  0.19496992770E+04  0.10100000352E+00 0.  1.
</event>
<event>
 5   0  0.7191801E-08  0.3701939E+04  0.7818609E-02  0.8067532E-01
       -2   -1    0    0    0  501  0.00000000000E+00  0.00000000000E+00  0.16186029580E+04  0.16186029580E+04  0.25500000920E-02 0.  1.
        2   -1    0    0  501    0  0.00000000000E+00  0.00000000000E+00 -0.21166946741E+04  0.21166946741E+04  0.25500000920E-02 0. -1.
    10030    2    1    2    0    0  0.00000000000E+00  0.00000000000E+00 -0.49809171612E+03  0.37352976321E+04  0.37019390923E+04 0.  0.
        5    1    3    3  502    0  0.15927286909E+04  0.87868420501E+03 -0.59446906764E+03  0.19137100557E+04  0.46999998093E+01 0.  1.
       -5    1    3    3    0  502 -0.15927286909E+04 -0.87868420501E+03  0.96377351518E+02  0.18215875765E+04  0.46999998093E+01 0. -1.
</event>
<event>
 5   0  0.7309833E-08  0.3696670E+04  0.7818609E-02  0.8068700E-01
        2   -1    0    0  501    0  0.00000000000E+00  0.00000000000E+00  0.17499173323E+04  0.17499173323E+04  0.25500000920E-02 0. -1.
       -2   -1    0    0    0  501  0.00000000000E+00  0.00000000000E+00 -0.19522882244E+04  0.19522882244E+04  0.25500000920E-02 0.  1.
    10030    2    1    2    0    0  0.00000000000E+00  0.00000000000E+00 -0.20237089216E+03  0.37022055567E+04  0.36966703946E+04 0.  0.
        2    1    3    3  502    0  0.14609177145E+03 -0.34784263823E+03  0.17109452380E+04  0.17520476347E+04  0.25500000920E-02 0. -1.
       -2    1    3    3    0  502 -0.14609177145E+03  0.34784263823E+03 -0.19133161302E+04  0.19501579220E+04  0.25500000920E-02 0.  1.
</event>
<event>
 5   0  0.2282000E-08  0.3705031E+04  0.7818609E-02  0.8066848E-01
        1   -1    0    0  501    0  0.00000000000E+00  0.00000000000E+00  0.11595407208E+04  0.11595407208E+04  0.50400001928E-02 0. -1.
       -1   -1    0    0    0  501  0.00000000000E+00  0.00000000000E+00 -0.29596321119E+04  0.29596321119E+04  0.50400001928E-02 0.  1.
    10030    2    1    2    0    0  0.00000000000E+00  0.00000000000E+00 -0.18000913911E+04  0.41191728327E+04  0.37050311482E+04 0.  0.
        3    1    3    3  502    0  0.62749935545E+03 -0.91279320843E+03  0.75081092469E+03  0.13381569180E+04  0.10100000352E+00 0. -1.
       -3    1    3    3    0  502 -0.62749935545E+03  0.91279320843E+03 -0.25509023158E+04  0.27810159146E+04  0.10100000352E+00 0.  1.
</event>
<event>
 5   0  0.7309833E-08  0.3702776E+04  0.7818609E-02  0.8067347E-01
        2   -1    0    0  501    0  0.00000000000E+00  0.00000000000E+00  0.19191546877E+04  0.19191546877E+04  0.25500000920E-02 0.  1.
       -2   -1    0    0    0  501  0.00000000000E+00  0.00000000000E+00 -0.17860144345E+04  0.17860144345E+04  0.25500000920E-02 0. -1.
    10030    2    1    2    0    0  0.00000000000E+00  0.00000000000E+00  0.13314025320E+03  0.37051691221E+04  0.37027762418E+04 0.  0.
        2    1    3    3  502    0  0.56827083981E+03 -0.16040765220E+04  0.79618105043E+03  0.18788021452E+04  0.25500000920E-02 0. -1.
       -2    1    3    3    0  502 -0.56827083981E+03  0.16040765220E+04 -0.66304079723E+03  0.18263669769E+04  0.25500000920E-02 0.  1.
</event>
<event>
 5   0  0.2282000E-08  0.3692508E+04  0.7818609E-02  0.8069624E-01
       -1   -1    0    0    0  501  0.00000000000E+00  0.00000000000E+00  0.15026431715E+04  0.15026431715E+04  0.50400001928E-02 0. -1.
        1   -1    0    0  501    0  0.00000000000E+00  0.00000000000E+00 -0.22684392361E+04  0.22684392361E+04  0.50400001928E-02 0.  1.
    10030    2    1    2    0    0  0.00000000000E+00  0.00000000000E+00 -0.76579606464E+03  0.37710824076E+04  0.36925084851E+04 0.  0.
        1    1    3    3  502    0 -0.65309205834E+03  0.68565219105E+03  0.12357592518E+04  0.15568394561E+04  0.50400001928E-02 0. -1.
       -1    1    3    3    0  502  0.65309205834E+03 -0.68565219105E+03 -0.20015553164E+04  0.22142429515E+04  0.50400001928E-02 0.  1.
</event>
<event>
 5   0  0.2282000E-08  0.3719630E+04  0.7818609E-02  0.8063625E-01
       -1   -1    0    0    0  501  0.00000000000E+00  0.00000000000E+00  0.23584082220E+04  0.23584082220E+04  0.50400001928E-02 0.  1.
        1   -1    0    0  501    0  0.00000000000E+00  0.00000000000E+00 -0.14666300051E+04  0.14666300051E+04  0.50400001928E-02 0. -1.
    10030    2    1    2    0    0  0.00000000000E+00  0.00000000000E+00  0.89177821688E+03  0.38250382271E+04  0.37196302303E+04 0.  0.
        5    1    3    3  502    0  0.76997665050E+03 -0.97741049108E+03 -0.97556119010E+03  0.15811189190E+04  0.46999998093E+01 0. -1.
       -5    1    3    3    0  502 -0.76997665050E+03  0.97741049108E+03  0.18673394070E+04  0.22439193081E+04  0.46999998093E+01 0.  1.
</event>
<event>
 5   0  0.7203049E-08  0.3698015E+04  0.7818609E-02  0.8068402E-01
        2   -1    0    0  501    0  0.00000000000E+00  0.00000000000E+00  0.22768245097E+04  0.22768245097E+04  0.25500000920E-02 0.  1.
       -2   -1    0    0    0  501  0.00000000000E+00  0.00000000000E+00 -0.15015779985E+04  0.15015779985E+04  0.25500000920E-02 0. -1.
    10030    2    1    2    0    0  0.00000000000E+00  0.00000000000E+00  0.77524651128E+03  0.37784025082E+04  0.36980154625E+04 0.  0.
        4    1    3    3  502    0  0.18243971693E+04  0.15605686999E+03  0.12503622255E+03  0.18353240717E+04  0.12699999809E+01 0. -1.
       -4    1    3    3    0  502 -0.18243971693E+04 -0.15605686999E+03  0.65021028873E+03  0.19430784366E+04  0.12699999809E+01 0.  1.
</event>
<event>
 5   0  0.2282000E-08  0.3701048E+04  0.7818609E-02  0.8067730E-01
        1   -1    0    0  501    0  0.00000000000E+00  0.00000000000E+00  0.17348596536E+04  0.17348596536E+04  0.50400001928E-02 0. -1.
       -1   -1    0    0    0  501  0.00000000000E+00  0.00000000000E+00 -0.19738996319E+04  0.19738996319E+04  0.50400001928E-02 0.  1.
    10030    2    1    2    0    0  0.00000000000E+00  0.00000000000E+00 -0.23903997827E+03  0.37087592855E+04  0.37010478687E+04 0.  0.
        3    1    3    3  502    0  0.71339952799E+03  0.17008222231E+04 -0.27051140823E+03  0.18641114648E+04  0.10100000352E+00 0.  1.
       -3    1    3    3    0  502 -0.71339952799E+03 -0.17008222231E+04  0.31471429958E+02  0.18446478206E+04  0.10100000352E+00 0. -1.
</event>
<event>
 5   0  0.2282000E-08  0.3699915E+04  0.7818609E-02  0.8067981E-01
        1   -1    0    0  501    0  0.00000000000E+00  0.00000000000E+00  0.14343713885E+04  0.14343713885E+04  0.50400001928E-02 0.  1.
       -1   -1    0    0    0  501  0.00000000000E+00  0.00000000000E+00 -0.23859528595E+04  0.23859528595E+04  0.50400001928E-02 0. -1.
    10030    2    1    2    0    0  0.00000000000E+00  0.00000000000E+00 -0.95158147105E+03  0.38203242480E+04  0.36999148725E+04 0.  0.
        1    1    3    3  502    0 -0.49047125084E+03 -0.13370270718E+04 -0.16949530881E+04  0.22138359039E+04  0.50400001928E-02 0. -1.
       -1    1    3    3    0  502  0.49047125084E+03  0.13370270718E+04  0.74337161703E+03  0.16064883441E+04  0.50400001928E-02 0.  1.
</event>
<event>
 5   0  0.2282000E-08  0.3700910E+04  0.7818609E-02  0.8067760E-01
       -1   -1    0    0    0  501  0.00000000000E+00  0.00000000000E+00  0.13696531628E+04  0.13696531628E+04  0.50400001928E-02 0. -1.
        1   -1    0    0  501    0  0.00000000000E+00  0.00000000000E+00 -0.25000370000E+04  0.25000370000E+04  0.50400001928E-02 0.  1.
    10030    2    1    2    0    0  0.00000000000E+00  0.00000000000E+00 -0.11303838372E+04  0.38696901628E+04  0.37009099336E+04 0.  0.
        2    1    3    3  502    0 -0.32601781247E+03  0.66175169965E+03  0.12092527553E+04  0.14165080841E+04  0.25500000920E-02 0. -1.
       -2    1    3    3    0  502  0.32601781247E+03 -0.66175169965E+03 -0.23396365925E+04  0.24531820787E+04  0.25500000920E-02 0.  1.
</event>
<event>
 5   0  0.2282000E-08  0.3703518E+04  0.7818609E-02  0.8067183E-01
       -1   -1    0    0    0  501  0.00000000000E+00  0.00000000000E+00  0.19535364461E+04  0.19535364461E+04  0.50400001928E-02 0.  1.
        1   -1    0    0  501    0  0.00000000000E+00  0.00000000000E+00 -0.17552837861E+04  0.17552837861E+04  0.50400001928E-02 0. -1.
    10030    2    1    2    0    0  0.00000000000E+00  0.00000000000E+00  0.19825266002E+03  0.37088202323E+04  0.37035177059E+04 0.  0.
        4    1    3    3  502    0 -0.35181686921E+03 -0.73493872108E+03 -0.15661132190E+04  0.17653957802E+04  0.12699999809E+01 0. -1.
       -4    1    3    3    0  502  0.35181686921E+03  0.73493872108E+03  0.17643658790E+04  0.19434244521E+04  0.12699999809E+01 0.  1.
</event>
<event>
 5   0  0.2282000E-08  0.3694593E+04  0.7818609E-02  0.8069161E-01
        3   -1    0    0  501    0  0.00000000000E+00  0.00000000000E+00  0.13828343217E+04  0.13828343254E+04  0.10100000352E+00 0.  1.
       -3   -1    0    0    0  501  0.00000000000E+00  0.00000000000E+00 -0.24677605810E+04  0.24677605831E+04  0.10100000352E+00 0. -1.
    10030    2    1    2    0    0  0.00000000000E+00  0.00000000000E+00 -0.10849262593E+04  0.38505949085E+04  0.36945928275E+04 0.  0.
        3    1    3    3  502    0 -0.49268715310E+03 -0.73261990591E+03  0.11487146919E+04  0.14487988166E+04  0.10100000352E+00 0.  1.
       -3    1    3    3    0  502  0.49268715310E+03  0.73261990591E+03 -0.22336409513E+04  0.24017960918E+04  0.10100000352E+00 0. -1.
</event>
<event>
 5   0  0.7362817E-08  0.3712914E+04  0.7818609E-02  0.8065106E-01
       -2   -1    0    0    0  501  0.00000000000E+00  0.00000000000E+00  0.21011247178E+04  0.21011247178E+04  0.25500000920E-02 0. -1.
        2   -1    0    0  501    0  0.00000000000E+00  0.00000000000E+00 -0.16402800811E+04  0.16402800811E+04  0.25500000920E-02 0.  1.
    10030    2    1    2    0    0  0.00000000000E+00  0.00000000000E+00  0.46084463670E+03  0.37414047989E+04  0.37129142315E+04 0.  0.
        1    1    3    3  502    0 -0.73216265750E+03 -0.16726630183E+04 -0.10766567735E+03  0.18290586726E+04  0.50400001928E-02 0.  1.
       -1    1    3    3    0  502  0.73216265750E+03  0.16726630183E+04  0.56851031405E+03  0.19123461263E+04  0.50400001928E-02 0. -1.
</event>
<event>
 5   0  0.2282000E-08  0.3689810E+04  0.7818609E-02  0.8070224E-01
        1   -1    0    0  501    0  0.00000000000E+00  0.00000000000E+00  0.26670249876E+04  0.26670249876E+04  0.50400001928E-02 0.  1.
       -1   -1    0    0    0  501  0.00000000000E+00  0.00000000000E+00 -0.12762066672E+04  0.12762066672E+04  0.50400001928E-02 0. -1.
    10030    2    1    2    0    0  0.00000000000E+00  0.00000000000E+00  0.13908183204E+04  0.39432316548E+04  0.36898103316E+04 0.  0.
        2    1    3    3  502    0 -0.10964729577E+04 -0.12001066805E+04  0.16277784534E+04  0.23004720570E+04  0.25500000920E-02 0.  1.
       -2    1    3    3    0  502  0.10964729577E+04  0.12001066805E+04 -0.23696013300E+03  0.16427595978E+04  0.25500000920E-02 0. -1.
</event>
<event>
 5   0  0.7254493E-08  0.3708806E+04  0.7818609E-02  0.8066013E-01
        2   -1    0    0  501    0  0.00000000000E+00  0.00000000000E+00  0.20374862968E+04  0.20374862968E+04  0.25500000920E-02 0.  1.
       -2   -1    0    0    0  501  0.00000000000E+00  0.00000000000E+00 -0.16877708055E+04  0.16877708055E+04  0.25500000920E-02 0. -1.
    10030    2    1    2    0    0  0.00000000000E+00  0.00000000000E+00  0.34971549130E+03  0.37252571022E+04  0.37088056774E+04 0.  0.
        3    1    3    3  502    0  0.13132404176E+03  0.12691601531E+04  0.15264851267E+04  0.19895151043E+04  0.10100000352E+00 0.  1.
       -3    1    3    3    0  502 -0.13132404176E+03 -0.12691601531E+04 -0.11767696354E+04  0.17357419979E+04  0.10100000352E+00 0. -1.
</event>
<event>
 5   0  0.2282000E-08  0.3696215E+04  0.7818609E-02  0.8068801E-01
        1   -1    0    0  501    0  0.00000000000E+00  0.00000000000E+00  0.20701776127E+04  0.20701776127E+04  0.50400001928E-02 0.  1.
       -1   -1    0    0    0  501  0.00000000000E+00  0.00000000000E+00 -0.16498593562E+04  0.16498593562E+04  0.50400001928E-02 0. -1.
    10030    2    1    2    0    0  0.00000000000E+00  0.00000000000E+00  0.42031825649E+03  0.37200369689E+04  0.36962153094E+04 0.  0.
        4    1    3    3  502    0 -0.12217514346E+04  0.89489391779E+03  0.12762254314E+04  0.19804708169E+04  0.12699999809E+01 0.  1.
       -4    1    3    3    0  502  0.12217514346E+04 -0.89489391779E+03 -0.85590717492E+03  0.17395661520E+04  0.12699999809E+01 0. -1.
</event>
<event>
 5   0  0.7362817E-08  0.3699597E+04  0.7818609E-02  0.8068051E-01
        2   -1    0    0  501    0  0.00000000000E+00  0.00000000000E+00  0.15631575809E+04  0.15631575809E+04  0.25500000920E-02 0. -1.
       -2   -1    0    0    0  501  0.00000000000E+00  0.00000000000E+00 -0.21890017101E+04  0.21890017101E+04  0.25500000920E-02 0.  1.
    10030    2    1    2    0    0  0.00000000000E+00  0.00000000000E+00 -0.62584412923E+03  0.37521592910E+04  0.36995970687E+04 0.  0.
        1    1    3    3  502    0  0.37342765297E+03  0.67933660927E+03  0.13904660693E+04  0.15919617867E+04  0.50400001928E-02 0. -1.
       -1    1    3    3    0  502 -0.37342765297E+03 -0.67933660927E+03 -0.20163101985E+04  0.21601975042E+04  0.50400001928E-02 0.  1.
</event>
<event>
 5   0  0.2282000E-08  0.3705712E+04  0.7818609E-02  0.8066697E-01
       -1   -1    0    0    0  501  0.00000000000E+00  0.00000000000E+00  0.12606452374E+04  0.12606452374E+04  0.50400001928E-02 0.  1.
        1   -1    0    0  501    0  0.00000000000E+00  0.00000000000E+00 -0.27232690128E+04  0.27232690129E+04  0.50400001928E-02 0. -1.
    10030    2    1    2    0    0  0.00000000000E+00  0.00000000000E+00 -0.14626237755E+04  0.39839142502E+04  0.37057124071E+04 0.  0.
        3    1    3    3  502    0  0.97144082143E+03 -0.10406183790E+03  0.96122097437E+03  0.13705735688E+04  0.10100000352E+00 0.  1.
       -3    1    3    3    0  502 -0.97144082143E+03  0.10406183790E+03 -0.24238447499E+04  0.26133406814E+04  0.10100000352E+00 0. -1.
</event>
<event>
 5   0  0.7203049E-08  0.3689586E+04  0.7818609E-02  0.8070274E-01
       -2   -1    0    0    0  501  0.00000000000E+00  0.00000000000E+00  0.34544805990E+04  0.34544805990E+04  0.25500000920E-02 0.  1.
        2   -1    0    0  501    0  0.00000000000E+00  0.00000000000E+00 -0.98517284031E+03  0.98517284031E+03  0.25500000920E-02 0. -1.
    10030    2    1    2    0    0  0.00000000000E+00  0.00000000000E+00  0.24693077587E+04  0.44396534393E+04  0.36895855938E+04 0.  0.
        4    1    3    3  502    0 -0.24473350085E+03 -0.67375954630E+03  0.32800444494E+04  0.33574602925E+04  0.12699999809E+01 0.  1.
       -4    1    3    3    0  502  0.24473350085E+03  0.67375954630E+03 -0.81073669066E+03  0.10821931469E+04  0.12699999809E+01 0. -1.
</event>
<event>
 5   0  0.7203049E-08  0.3691440E+04  0.7818609E-02  0.8069861E-01
        2   -1    0    0  501    0  0.00000000000E+00  0.00000000000E+00  0.18819861863E+04  0.18819861863E+04  0.25500000920E-02 0.  1.
       -2   -1    0    0    0  501  0.00000000000E+00  0.00000000000E+00 -0.18101529886E+04  0.18101529886E+04  0.25500000920E-02 0. -1.
    10030    2    1    2    0    0  0.00000000000E+00  0.00000000000E+00  0.71833197701E+02  0.36921391749E+04  0.36914403257E+04 0.  0.
        4    1    3    3  502    0 -0.60605396028E+03  0.68768503738E+03 -0.15664070367E+04  0.18148952397E+04  0.12699999809E+01 0. -1.
       -4    1    3    3    0  502  0.60605396028E+03 -0.68768503738E+03  0.16382402345E+04  0.18772439352E+04  0.12699999809E+01 0.  1.
</event>
<event>
 5   0  0.7191801E-08  0.3702804E+04  0.7818609E-02  0.8067341E-01
       -2   -1    0    0    0  501  0.00000000000E+00  0.00000000000E+00  0.25585471711E+04  0.25585471711E+04  0.25500000920E-02 0.  1.
        2   -1    0    0  501    0  0.00000000000E+00  0.00000000000E+00 -0.13397017892E+04  0.13397017892E+04  0.25500000920E-02 0. -1.
    10030    2    1    2    0    0  0.00000000000E+00  0.00000000000E+00  0.12188453819E+04  0.38982489604E+04  0.37028044631E+04 0.  0.
        5    1    3    3  502    0 -0.19002028125E+03  0.45791167996E+02  0.25476480884E+04  0.25551394112E+04  0.46999998093E+01 0.  1.
       -5    1    3    3    0  502  0.19002028125E+03 -0.45791167996E+02 -0.13288027065E+04  0.13431095492E+04  0.46999998093E+01 0. -1.
</event>
<event>
 5   0  0.7309833E-08  0.3751105E+04  0.7818609E-02  0.8056730E-01
        2   -1    0    0  501    0  0.00000000000E+00  0.00000000000E+00  0.18009677117E+04  0.18009677117E+04  0.25500000920E-02 0.  1.
       -2   -1    0    0    0  501  0.00000000000E+00  0.00000000000E+00 -0.19532258453E+04  0.19532258453E+04  0.25500000920E-02 0. -1.
    10030    2    1    2    0    0  0.00000000000E+00  0.00000000000E+00 -0.15225813366E+03  0.37541935570E+04  0.37511047338E+04 0.  0.
        2    1    3    3  502    0  0.17046372486E+04 -0.63548932470E+02  0.70417316342E+03  0.18454502053E+04  0.25500000920E-02 0.  1.
       -2    1    3    3    0  502 -0.17046372486E+04  0.63548932470E+02 -0.85643129709E+03  0.19087433517E+04  0.25500000920E-02 0. -1.
</event>
<event>
 5   0  0.7254493E-08  0.3712975E+04  0.7818609E-02  0.8065093E-01
        2   -1    0    0  501    0  0.00000000000E+00  0.00000000000E+00  0.19025104642E+04  0.19025104642E+04  0.25500000920E-02 0.  1.
       -2   -1    0    0    0  501  0.00000000000E+00  0.00000000000E+00 -0.18115777308E+04  0.18115777308E+04  0.25500000920E-02 0. -1.
    10030    2    1    2    0    0  0.00000000000E+00  0.00000000000E+00  0.90932733364E+02  0.37140881950E+04  0.37129748664E+04 0.  0.
        3    1    3    3  502    0  0.37244352878E+03 -0.43650817644E+03  0.18115812321E+04  0.19002842264E+04  0.10100000352E+00 0.  1.
       -3    1    3    3    0  502 -0.37244352878E+03  0.43650817644E+03 -0.17206484988E+04  0.18138039687E+04  0.10100000352E+00 0. -1.
</event>
<event>
 5   0  0.7254493E-08  0.3688515E+04  0.7818609E-02  0.8070512E-01
        2   -1    0    0  501    0  0.00000000000E+00  0.00000000000E+00  0.21099412700E+04  0.21099412700E+04  0.25500000920E-02 0.  1.
       -2   -1    0    0    0  501  0.00000000000E+00  0.00000000000E+00 -0.16120282640E+04  0.16120282640E+04  0.25500000920E-02 0. -1.
    10030    2    1    2    0    0  0.00000000000E+00  0.00000000000E+00  0.49791300594E+03  0.37219695340E+04  0.36885145860E+04 0.  0.
        3    1    3    3  502    0  0.11063986409E+04  0.89788238735E+03  0.14304625607E+04  0.20190428133E+04  0.10100000352E+00 0.  1.
       -3    1    3    3    0  502 -0.11063986409E+04 -0.89788238735E+03 -0.93254955473E+03  0.17029267208E+04  0.10100000352E+00 0. -1.
</event>
<event>
 5   0  0.7309833E-08  0.3674876E+04  0.7818609E-02  0.8073553E-01
        2   -1    0    0  501    0  0.00000000000E+00  0.00000000000E+00  0.11409582643E+04  0.11409582643E+04  0.25500000920E-02 0.  1.
       -2   -1    0    0    0  501  0.00000000000E+00  0.00000000000E+00 -0.29590723524E+04  0.29590723524E+04  0.25500000920E-02 0. -1.
    10030    2    1    2    0    0  0.00000000000E+00  0.00000000000E+00 -0.18181140881E+04  0.41000306167E+04  0.36748758103E+04 0.  0.
        2    1    3    3  502    0  0.10454037536E+04  0.13893515124E+04 -0.15719429902E+04  0.23439648883E+04  0.25500000920E-02 0. -1.
       -2    1    3    3    0  502 -0.10454037536E+04 -0.13893515124E+04 -0.24617109786E+03  0.17560657284E+04  0.25500000920E-02 0.  1.
</event>
<event>
 5   0  0.2282000E-08  0.3699081E+04  0.7818609E-02  0.8068166E-01
       -1   -1    0    0    0  501  0.00000000000E+00  0.00000000000E+00  0.29751159323E+04  0.29751159324E+04  0.50400001928E-02 0.  1.
        1   -1    0    0  501    0  0.00000000000E+00  0.00000000000E+00 -0.11498037531E+04  0.11498037531E+04  0.50400001928E-02 0. -1.
    10030    2    1    2    0    0  0.00000000000E+00  0.00000000000E+00  0.18253121793E+04  0.41249196854E+04  0.36990806776E+04 0.  0.
        2    1    3    3  502    0 -0.33499061117E+03  0.28517863799E+03 -0.10906082524E+04  0.11759982675E+04  0.25500000920E-02 0. -1.
       -2    1    3    3    0  502  0.33499061117E+03 -0.28517863799E+03  0.29159204316E+04  0.29489214179E+04  0.25500000920E-02 0.  1.
</event>
<event>
 5   0  0.7254493E-08  0.3685232E+04  0.7818609E-02  0.8071243E-01
       -2   -1    0    0    0  501  0.00000000000E+00  0.00000000000E+00  0.15884851358E+04  0.15884851358E+04  0.25500000920E-02 0.  1.
        2   -1    0    0  501    0  0.00000000000E+00  0.00000000000E+00 -0.21374030938E+04  0.21374030938E+04  0.25500000920E-02 0. -1.
    10030    2    1    2    0    0  0.00000000000E+00  0.00000000000E+00 -0.54891795797E+03  0.37258882296E+04  0.36852316311E+04 0.  0.
        3    1    3    3  502    0  0.64587417803E+03  0.25001639791E+03 -0.20008011188E+04  0.21172781538E+04  0.10100000352E+00 0. -1.
       -3    1    3    3    0  502 -0.64587417803E+03 -0.25001639791E+03  0.14518831609E+04  0.16086100758E+04  0.10100000352E+00 0.  1.
</event>
<event>
 5   0  0.2282000E-08  0.3695952E+04  0.7818609E-02  0.8068860E-01
       -1   -1    0    0    0  501  0.00000000000E+00  0.00000000000E+00  0.12935777583E+04  0.12935777583E+04  0.50400001928E-02 0. -1.
        1   -1    0    0  501    0  0.00000000000E+00  0.00000000000E+00 -0.26399762329E+04  0.26399762329E+04  0.50400001928E-02 0.  1.
    10030    2    1    2    0    0  0.00000000000E+00  0.00000000000E+00 -0.13463984747E+04  0.39335539912E+04  0.36959515892E+04 0.  0.
        1    1    3    3  502    0  0.11081690213E+04 -0.14651556036E+04 -0.45955828669E+03  0.18936507971E+04  0.50400001928E-02 0.  1.
       -1    1    3    3    0  502 -0.11081690213E+04  0.14651556036E+04 -0.88684018796E+03  0.20399031941E+04  0.50400001928E-02 0. -1.
</event>
<event>
 5   0  0.7362817E-08  0.3697785E+04  0.7818609E-02  0.8068453E-01
       -2   -1    0    0    0  501  0.00000000000E+00  0.00000000000E+00  0.12922709263E+04  0.12922709263E+04  0.25500000920E-02 0.  1.
        2   -1    0    0  501    0  0.00000000000E+00  0.00000000000E+00 -0.26452681174E+04  0.26452681174E+04  0.25500000920E-02 0. -1.
    10030    2    1    2    0    0  0.00000000000E+00  0.00000000000E+00 -0.13529971911E+04  0.39375390437E+04  0.36977847857E+04 0.  0.
        1    1    3    3  502    0 -0.99741152813E+03 -0.59754715646E+03 -0.22072408591E+04  0.24947554130E+04  0.50400001928E-02 0. -1.
       -1    1    3    3    0  502  0.99741152813E+03  0.59754715646E+03  0.85424366802E+03  0.14427836307E+04  0.50400001928E-02 0.  1.
</event>
<event>
 5   0  0.7309833E-08  0.3699003E+04  0.7818609E-02  0.8068183E-01
        2   -1    0    0  501    0  0.00000000000E+00  0.00000000000E+00  0.19708719188E+04  0.19708719188E+04  0.25500000920E-02 0.  1.
       -2   -1    0    0    0  501  0.00000000000E+00  0.00000000000E+00 -0.17356057702E+04  0.17356057702E+04  0.25500000920E-02 0. -1.
    10030    2    1    2    0    0  0.00000000000E+00  0.00000000000E+00  0.23526614867E+03  0.37064776890E+04  0.36990034737E+04 0.  0.
        2    1    3    3  502    0  0.17423781323E+04 -0.58713491853E+03 -0.82890516997E+02  0.18405107460E+04  0.25500000920E-02 0. -1.
       -2    1    3    3    0  502 -0.17423781323E+04  0.58713491853E+03  0.31815666567E+03  0.18659669430E+04  0.25500000920E-02 0.  1.
</event>
<event>
 5   0  0.2282000E-08  0.3696360E+04  0.7818609E-02  0.8068769E-01
       -1   -1    0    0    0  501  0.00000000000E+00  0.00000000000E+00  0.12608881095E+04  0.12608881095E+04  0.50400001928E-02 0. -1.
        1   -1    0    0  501    0  0.00000000000E+00  0.00000000000E+00 -0.27090182515E+04  0.27090182515E+04  0.50400001928E-02 0.  1.
    10030    2    1    2    0    0  0.00000000000E+00  0.00000000000E+00 -0.14481301420E+04  0.39699063610E+04  0.36963597778E+04 0.  0.
        2    1    3    3  502    0 -0.13037943351E+04 -0.32222798817E+03 -0.20876946308E+04  0.24823737463E+04  0.25500000920E-02 0.  1.
       -2    1    3    3    0  502  0.13037943351E+04  0.32222798817E+03  0.63956448878E+03  0.14875326147E+04  0.25500000920E-02 0. -1.
</event>
<event>
 5   0  0.7191801E-08  0.3774377E+04  0.7818609E-02  0.8051676E-01
       -2   -1    0    0    0  501  0.00000000000E+00  0.00000000000E+00  0.27077304226E+04  0.27077304226E+04  0.25500000920E-02 0. -1.
        2   -1    0    0  501    0  0.00000000000E+00  0.00000000000E+00 -0.13153006493E+04  0.13153006493E+04  0.25500000920E-02 0.  1.
    10030    2    1    2    0    0  0.00000000000E+00  0.00000000000E+00  0.13924297733E+04  0.40230310719E+04  0.37743765488E+04 0.  0.
        5    1    3    3  502    0 -0.90318561529E+03 -0.59526758636E+03 -0.95206715236E+03  0.14410210643E+04  0.46999998093E+01 0.  1.
       -5    1    3    3    0  502  0.90318561529E+03  0.59526758636E+03  0.23444969257E+04  0.25820100077E+04  0.46999998093E+01 0. -1.
</event>
<event>
 5   0  0.2282000E-08  0.3703899E+04  0.7818609E-02  0.8067098E-01
       -1   -1    0    0    0  501  0.00000000000E+00  0.00000000000E+00  0.15980675917E+04  0.15980675917E+04  0.50400001928E-02 0. -1.
        1   -1    0    0  501    0  0.00000000000E+00  0.00000000000E+00 -0.21461657079E+04  0.21461657079E+04  0.50400001928E-02 0.  1.
    10030    2    1    2    0    0  0.00000000000E+00  0.00000000000E+00 -0.54809811615E+03  0.37442332996E+04  0.37038994934E+04 0.  0.
        3    1    3    3  502    0 -0.30905048029E+03  0.18098470663E+04 -0.51888319194E+03  0.19079565980E+04  0.10100000352E+00 0.  1.
       -3    1    3    3    0  502  0.30905048029E+03 -0.18098470663E+04 -0.29214924212E+02  0.18362767016E+04  0.10100000352E+00 0. -1.
</event>
<event>
 5   0  0.2282000E-08  0.3695875E+04  0.7818609E-02  0.8068877E-01
        1   -1    0    0  501    0  0.00000000000E+00  0.00000000000E+00  0.19050283125E+04  0.19050283125E+04  0.50400001928E-02 0. -1.
       -1   -1    0    0    0  501  0.00000000000E+00  0.00000000000E+00 -0.17925572627E+04  0.17925572627E+04  0.50400001928E-02 0.  1.
    10030    2    1    2    0    0  0.00000000000E+00  0.00000000000E+00  0.11247104975E+03  0.36975855752E+04  0.36958746392E+04 0.  0.
        3    1    3    3  502    0  0.76498941383E+03 -0.30886492368E+03  0.17105626156E+04  0.18991131658E+04  0.10100000352E+00 0. -1.
       -3    1    3    3    0  502 -0.76498941383E+03  0.30886492368E+03 -0.15980915659E+04  0.17984724094E+04  0.10100000352E+00 0.  1.
</event>
<event>
 5   0  0.2282000E-08  0.3704098E+04  0.7818609E-02  0.8067054E-01
       -1   -1    0    0    0  501  0.00000000000E+00  0.00000000000E+00  0.17163236446E+04  0.17163236447E+04  0.50400001928E-02 0. -1.
        1   -1    0    0  501    0  0.00000000000E+00  0.00000000000E+00 -0.19985071344E+04  0.19985071345E+04  0.50400001928E-02 0.  1.
    10030    2    1    2    0    0  0.00000000000E+00  0.00000000000E+00 -0.28218348980E+03  0.37148307791E+04  0.37040977573E+04 0.  0.
        4    1    3    3  502    0  0.13272353191E+04 -0.25521121678E+03  0.11288305251E+04  0.17609504039E+04  0.12699999809E+01 0. -1.
       -4    1    3    3    0  502 -0.13272353191E+04  0.25521121678E+03 -0.14110140149E+04  0.19538803752E+04  0.12699999809E+01 0.  1.
</event>
<event>
 5   0  0.7203049E-08  0.3698502E+04  0.7818609E-02  0.8068294E-01
       -2   -1    0    0    0  501  0.00000000000E+00  0.00000000000E+00  0.19946741344E+04  0.19946741344E+04  0.25500000920E-02 0.  1.
        2   -1    0    0  501    0  0.00000000000E+00  0.00000000000E+00 -0.17144304783E+04  0.17144304783E+04  0.25500000920E-02 0. -1.
    10030    2    1    2    0    0  0.00000000000E+00  0.00000000000E+00  0.28024365617E+03  0.37091046127E+04  0.36985024701E+04 0.  0.
        4    1    3    3  502    0 -0.17847887898E+04 -0.46643319874E+02 -0.34300794218E+03  0.18180491426E+04  0.12699999809E+01 0. -1.
       -4    1    3    3    0  502  0.17847887898E+04  0.46643319874E+02  0.62325159835E+03  0.18910554702E+04  0.12699999809E+01 0.  1.
</event>
<event>
 5   0  0.7309833E-08  0.3708086E+04  0.7818609E-02  0.8066172E-01
       -2   -1    0    0    0  501  0.00000000000E+00  0.00000000000E+00  0.28824854217E+04  0.28824854217E+04  0.25500000920E-02 0.  1.
        2   -1    0    0  501    0  0.00000000000E+00  0.00000000000E+00 -0.11925390219E+04  0.11925390219E+04  0.25500000920E-02 0. -1.
    10030    2    1    2    0    0  0.00000000000E+00  0.00000000000E+00  0.16899463998E+04  0.40750244436E+04  0.37080864851E+04 0.  0.
        2    1    3    3  502    0 -0.33307707286E+03 -0.45570637681E+03  0.27857645154E+04  0.28423744605E+04  0.25500000920E-02 0.  1.
       -2    1    3    3    0  502  0.33307707286E+03  0.45570637681E+03 -0.10958181156E+04  0.12326499831E+04  0.25500000920E-02 0. -1.
</event>
<event>
 5   0  0.7203049E-08  0.3689935E+04  0.7818609E-02  0.8070196E-01
        2   -1    0    0  501    0  0.00000000000E+00  0.00000000000E+00  0.22437069304E+04  0.22437069304E+04  0.25500000920E-02 0. -1.
       -2   -1    0    0    0  501  0.00000000000E+00  0.00000000000E+00 -0.15170894701E+04  0.15170894701E+04  0.25500000920E-02 0.  1.
    10030    2    1    2    0    0  0.00000000000E+00  0.00000000000E+00  0.72661746027E+03  0.37607964005E+04  0.36899345025E+04 0.  0.
        4    1    3    3  502    0 -0.11064501556E+04  0.13281851064E+04 -0.29373803441E+03  0.17534512453E+04  0.12699999809E+01 0.  1.
       -4    1    3    3    0  502  0.11064501556E+04 -0.13281851064E+04  0.10203554947E+04  0.20073451552E+04  0.12699999809E+01 0. -1.
</event>
<event>
 5   0  0.7362817E-08  0.3695269E+04  0.7818609E-02  0.8069011E-01
       -2   -1    0    0    0  501  0.00000000000E+00  0.00000000000E+00  0.21559294247E+04  0.21559294247E+04  0.25500000920E-02 0. -1.
        2   -1    0    0  501    0  0.00000000000E+00  0.00000000000E+00 -0.15834251086E+04  0.15834251086E+04  0.25500000920E-02 0.  1.
    10030    2    1    2    0    0  0.00000000000E+00  0.00000000000E+00  0.57250431604E+03  0.37393545333E+04  0.36952687499E+04 0.  0.
        1    1    3    3  502    0 -0.10191751558E+04 -0.56648167709E+02  0.18446990443E+04  0.21082792930E+04  0.50400001928E-02 0. -1.
       -1    1    3    3    0  502  0.10191751558E+04  0.56648167709E+02 -0.12721947282E+04  0.16310752404E+04  0.50400001928E-02 0.  1.
</event>
<event>
 5   0  0.7254493E-08  0.3716470E+04  0.7818609E-02  0.8064322E-01
       -2   -1    0    0    0  501  0.00000000000E+00  0.00000000000E+00  0.22521812114E+04  0.22521812114E+04  0.25500000920E-02 0.  1.
        2   -1    0    0  501    0  0.00000000000E+00  0.00000000000E+00 -0.15331972511E+04  0.15331972511E+04  0.25500000920E-02 0. -1.
    10030    2    1    2    0    0  0.00000000000E+00  0.00000000000E+00  0.71898396025E+03  0.37853784625E+04  0.37164703913E+04 0.  0.
        3    1    3    3  502    0 -0.36747082340E+03  0.62265979591E+03 -0.13840584941E+04  0.15615242402E+04  0.10100000352E+00 0. -1.
       -3    1    3    3    0  502  0.36747082340E+03 -0.62265979591E+03  0.21030424543E+04  0.22238542224E+04  0.10100000352E+00 0.  1.
</event>
<event>
 5   0  0.2282000E-08  0.3705331E+04  0.7818609E-02  0.8066781E-01
        1   -1    0    0  501    0  0.00000000000E+00  0.00000000000E+00  0.24884638598E+04  0.24884638598E+04  0.50400001928E-02 0. -1.
       -1   -1    0    0    0  501  0.00000000000E+00  0.00000000000E+00 -0.13793124635E+04  0.13793124635E+04  0.50400001928E-02 0.  1.
    10030    2    1    2    0    0  0.00000000000E+00  0.00000000000E+00  0.11091513963E+04  0.38677763233E+04  0.37053308715E+04 0.  0.
        1    1    3    3  502    0 -0.13683984661E+04 -0.28868141437E+03  0.18229683378E+04  0.22976215706E+04  0.50400001928E-02 0. -1.
       -1    1    3    3    0  502  0.13683984661E+04  0.28868141437E+03 -0.71381694156E+03  0.15701547526E+04  0.50400001928E-02 0.  1.
</event>
<event>
 5   0  0.7309833E-08  0.3690904E+04  0.7818609E-02  0.8069981E-01
        2   -1    0    0  501    0  0.00000000000E+00  0.00000000000E+00  0.18812126544E+04  0.18812126544E+04  0.25500000920E-02 0. -1.
       -2   -1    0    0    0  501  0.00000000000E+00  0.00000000000E+00 -0.18103713711E+04  0.18103713711E+04  0.25500000920E-02 0.  1.
    10030    2    1    2    0    0  0.00000000000E+00  0.00000000000E+00  0.70841283291E+02  0.36915840256E+04  0.36909042429E+04 0.  0.
        2    1    3    3  502    0 -0.14963964218E+04  0.11174342641E+03 -0.10390233129E+04  0.18251734956E+04  0.25500000920E-02 0. -1.
       -2    1    3    3    0  502  0.14963964218E+04 -0.11174342641E+03  0.11098645962E+04  0.18664105299E+04  0.25500000920E-02 0.  1.
</event>
<event>
 5   0  0.2282000E-08  0.3699406E+04  0.7818609E-02  0.8068093E-01
       -1   -1    0    0    0  501  0.00000000000E+00  0.00000000000E+00  0.29612418045E+04  0.29612418045E+04  0.50400001928E-02 0. -1.
        1   -1    0    0  501    0  0.00000000000E+00  0.00000000000E+00 -0.11553943316E+04  0.11553943316E+04  0.50400001928E-02 0.  1.
    10030    2    1    2    0    0  0.00000000000E+00  0.00000000000E+00  0.18058474730E+04  0.41166361361E+04  0.36994064363E+04 0.  0.
        4    1    3    3  502    0 -0.14307313636E+04  0.39940481440E+03  0.21294527616E+04  0.25963603597E+04  0.12699999809E+01 0. -1.
       -4    1    3    3    0  502  0.14307313636E+04 -0.39940481440E+03 -0.32360528860E+03  0.15202757764E+04  0.12699999809E+01 0.  1.
</event>
<event>
 5   0  0.7203049E-08  0.3717320E+04  0.7818609E-02  0.8064134E-01
       -2   -1    0    0    0  501  0.00000000000E+00  0.00000000000E+00  0.20375180170E+04  0.20375180170E+04  0.25500000920E-02 0.  1.
        2   -1    0    0  501    0  0.00000000000E+00  0.00000000000E+00 -0.16955022416E+04  0.16955022416E+04  0.25500000920E-02 0. -1.
    10030    2    1    2    0    0  0.00000000000E+00  0.00000000000E+00  0.34201577533E+03  0.37330202586E+04  0.37173196608E+04 0.  0.
        4    1    3    3  502    0  0.30803932919E+02 -0.16192726215E+04  0.10867926970E+04  0.19504134649E+04  0.12699999809E+01 0.  1.
       -4    1    3    3    0  502 -0.30803932919E+02  0.16192726215E+04 -0.74477692171E+03  0.17826067937E+04  0.12699999809E+01 0. -1.
</event>
<event>
 5   0  0.7203049E-08  0.3697657E+04  0.7818609E-02  0.8068481E-01
       -2   -1    0    0    0  501  0.00000000000E+00  0.00000000000E+00  0.21034289834E+04  0.21034289834E+04  0.25500000920E-02 0. -1.
        2   -1    0    0  501    0  0.00000000000E+00  0.00000000000E+00 -0.16250453329E+04  0.16250453329E+04  0.25500000920E-02 0.  1.
    10030    2    1    2    0    0  0.00000000000E+00  0.00000000000E+00  0.47838365055E+03  0.37284743163E+04  0.36976573408E+04 0.  0.
        4    1    3    3  502    0  0.60062193555E+03 -0.80782424747E+03 -0.13244868247E+04  0.16636086336E+04  0.12699999809E+01 0.  1.
       -4    1    3    3    0  502 -0.60062193555E+03  0.80782424747E+03  0.18028704752E+04  0.20648656827E+04  0.12699999809E+01 0. -1.
</event>
<event>
 5   0  0.2282000E-08  0.3704395E+04  0.7818609E-02  0.8066988E-01
        1   -1    0    0  501    0  0.00000000000E+00  0.00000000000E+00  0.26536488675E+04  0.26536488675E+04  0.50400001928E-02 0. -1.
       -1   -1    0    0    0  501  0.00000000000E+00  0.00000000000E+00 -0.12927995379E+04  0.12927995379E+04  0.50400001928E-02 0.  1.
    10030    2    1    2    0    0  0.00000000000E+00  0.00000000000E+00  0.13608493296E+04  0.39464484054E+04  0.37043952433E+04 0.  0.
        1    1    3    3  502    0 -0.45715029300E+03  0.14923437337E+04  0.17428650396E+04  0.23395843127E+04  0.50400001928E-02 0. -1.
       -1    1    3    3    0  502  0.45715029300E+03 -0.14923437337E+04 -0.38201570994E+03  0.16068640927E+04  0.50400001928E-02 0.  1.
</event>
<event>
 5   0  0.2282000E-08  0.3695733E+04  0.7818609E-02  0.8068908E-01
        1   -1    0    0  501    0  0.00000000000E+00  0.00000000000E+00  0.24381016492E+04  0.24381016492E+04  0.50400001928E-02 0.  1.
       -1   -1    0    0    0  501  0.00000000000E+00  0.00000000000E+00 -0.14005200880E+04  0.14005200880E+04  0.50400001928E-02 0. -1.
    10030    2    1    2    0    0  0.00000000000E+00  0.00000000000E+00  0.10375815612E+04  0.38386217372E+04  0.36957328563E+04 0.  0.
        5    1    3    3  502    0 -0.11938582283E+04 -0.54518969001E+03 -0.83229366979E+03  0.15541120005E+04  0.46999998093E+01 0. -1.
       -5    1    3    3    0  502  0.11938582283E+04  0.54518969001E+03  0.18698752310E+04  0.22845097367E+04  0.46999998093E+01 0.  1.
</event>
<event>
 5   0  0.7254493E-08  0.3701027E+04  0.7818609E-02  0.8067734E-01
        2   -1    0    0  501    0  0.00000000000E+00  0.00000000000E+00  0.26107860868E+04  0.26107860868E+04  0.25500000920E-02 0.  1.
       -2   -1    0    0    0  501  0.00000000000E+00  0.00000000000E+00 -0.13116359841E+04  0.13116359841E+04  0.25500000920E-02 0. -1.
    10030    2    1    2    0    0  0.00000000000E+00  0.00000000000E+00  0.12991501027E+04  0.39224220710E+04  0.37010274132E+04 0.  0.
        3    1    3    3  502    0 -0.16741961100E+04  0.72458663606E+03  0.32044587121E+03  0.18521997663E+04  0.10100000352E+00 0. -1.
       -3    1    3    3    0  502  0.16741961100E+04 -0.72458663606E+03  0.97870423145E+03  0.20702223046E+04  0.10100000352E+00 0.  1.
</event>
<event>
 5   0  0.2282000E-08  0.3700165E+04  0.7818609E-02  0.8067925E-01
       -1   -1    0    0    0  501  0.00000000000E+00  0.00000000000E+00  0.17691274082E+04  0.17691274082E+04  0.50400001928E-02 0. -1.
        1   -1    0    0  501    0  0.00000000000E+00  0.00000000000E+00 -0.19347416352E+04  0.19347416352E+04  0.50400001928E-02 0.  1.
    10030    2    1    2    0    0  0.00000000000E+00  0.00000000000E+00 -0.16561422706E+03  0.37038690434E+04  0.37001645664E+04 0.  0.
        5    1    3    3  502    0 -0.11601736801E+04  0.75026255096E+03  0.11488252660E+04  0.17968635021E+04  0.46999998093E+01 0. -1.
       -5    1    3    3    0  502  0.11601736801E+04 -0.75026255096E+03 -0.13144394931E+04  0.19070055413E+04  0.46999998093E+01 0.  1.
</event>
<event>
 5   0  0.2282000E-08  0.3683889E+04  0.7818609E-02  0.8071542E-01
        1   -1    0    0  501    0  0.00000000000E+00  0.00000000000E+00  0.15230313837E+04  0.15230313837E+04  0.50400001928E-02 0.  1.
       -1   -1    0    0    0  501  0.00000000000E+00  0.00000000000E+00 -0.22276363303E+04  0.22276363303E+04  0.50400001928E-02 0. -1.
    10030    2    1    2    0    0  0.00000000000E+00  0.00000000000E+00 -0.70460494654E+03  0.37506677140E+04  0.36838892723E+04 0.  0.
        4    1    3    3  502    0 -0.13857915979E+04  0.11895291556E+04 -0.10846056247E+03  0.18295254224E+04  0.12699999809E+01 0.  1.
       -4    1    3    3    0  502  0.13857915979E+04 -0.11895291556E+04 -0.59614438407E+03  0.19211422916E+04  0.12699999809E+01 0. -1.
</event>
<event>
 5   0  0.7203049E-08  0.3703128E+04  0.7818609E-02  0.8067269E-01
       -2   -1    0    0    0  501  0.00000000000E+00  0.00000000000E+00  0.17254515369E+04  0.17254515369E+04  0.25500000920E-02 0.  1.
        2   -1    0    0  501    0  0.00000000000E+00  0.00000000000E+00 -0.19868938876E+04  0.19868938876E+04  0.25500000920E-02 0. -1.
    10030    2    1    2    0    0  0.00000000000E+00  0.00000000000E+00 -0.26144235069E+03  0.37123454244E+04  0.37031279275E+04 0.  0.
        4    1    3    3  502    0  0.47785818039E+03 -0.17154084836E+04 -0.63924388615E+03  0.18919854822E+04  0.12699999809E+01 0. -1.
       -4    1    3    3    0  502 -0.47785818039E+03  0.17154084836E+04  0.37780153546E+03  0.18203599422E+04  0.12699999809E+01 0.  1.
</event>
<event>
 5   0  0.7362817E-08  0.3691548E+04  0.7818609E-02  0.8069837E-01
        2   -1    0    0  501    0  0.00000000000E+00  0.00000000000E+00  0.33784133777E+04  0.33784133777E+04  0.25500000920E-02 0.  1.
       -2   -1    0    0    0  501  0.00000000000E+00  0.00000000000E+00 -0.10084267181E+04  0.10084267181E+04  0.25500000920E-02 0. -1.
    10030    2    1    2    0    0  0.00000000000E+00  0.00000000000E+00  0.23699866597E+04  0.43868400958E+04  0.36915483552E+04 0.  0.
        1    1    3    3  502    0 -0.34666894513E+03 -0.14316302662E+04 -0.13676565175E+03  0.14793408735E+04  0.50400001928E-02 0. -1.
       -1    1    3    3    0  502  0.34666894513E+03  0.14316302662E+04  0.25067523114E+04  0.29074992223E+04  0.50400001928E-02 0.  1.
</event>
<event>
 5   0  0.2282000E-08  0.3697580E+04  0.7818609E-02  0.8068498E-01
        1   -1    0    0  501    0  0.00000000000E+00  0.00000000000E+00  0.14780170369E+04  0.14780170370E+04  0.50400001928E-02 0.  1.
       -1   -1    0    0    0  501  0.00000000000E+00  0.00000000000E+00 -0.23125739913E+04  0.23125739913E+04  0.50400001928E-02 0. -1.
    10030    2    1    2    0    0  0.00000000000E+00  0.00000000000E+00 -0.83455695436E+03  0.37905910283E+04  0.36975796183E+04 0.  0.
        2    1    3    3  502    0  0.20853738901E+03 -0.12550055296E+04 -0.17924756284E+04  0.21980663321E+04  0.25500000920E-02 0. -1.
       -2    1    3    3    0  502 -0.20853738901E+03  0.12550055296E+04  0.95791867401E+03  0.15925246962E+04  0.25500000920E-02 0.  1.
</event>
<event>
 5   0  0.7309833E-08  0.3767010E+04  0.7818609E-02  0.8053272E-01
        2   -1    0    0  501    0  0.00000000000E+00  0.00000000000E+00  0.12431065768E+04  0.12431065768E+04  0.25500000920E-02 0. -1.
       -2   -1    0    0    0  501  0.00000000000E+00  0.00000000000E+00 -0.28538112371E+04  0.28538112371E+04  0.25500000920E-02 0.  1.
    10030    2    1    2    0    0  0.00000000000E+00  0.00000000000E+00 -0.16107046603E+04  0.40969178139E+04  0.37670102297E+04 0.  0.
        2    1    3    3  502    0 -0.81534570240E+03  0.10641237969E+04  0.63356053158E+03  0.14827498160E+04  0.25500000920E-02 0. -1.
       -2    1    3    3    0  502  0.81534570240E+03 -0.10641237969E+04 -0.22442651919E+04  0.26141679979E+04  0.25500000920E-02 0.  1.
</event>
<event>
 5   0  0.7362817E-08  0.3698841E+04  0.7818609E-02  0.8068219E-01
       -2   -1    0    0    0  501  0.00000000000E+00  0.00000000000E+00  0.13262909941E+04  0.13262909941E+04  0.25500000920E-02 0. -1.
        2   -1    0    0  501    0  0.00000000000E+00  0.00000000000E+00 -0.25788878522E+04  0.25788878522E+04  0.25500000920E-02 0.  1.
    10030    2    1    2    0    0  0.00000000000E+00  0.00000000000E+00 -0.12525968580E+04  0.39051788463E+04  0.36988407552E+04 0.  0.
        1    1    3    3  502    0 -0.25071079305E+03 -0.81533724952E+03  0.11061937998E+04  0.13968877747E+04  0.50400001928E-02 0. -1.
       -1    1    3    3    0  502  0.25071079305E+03  0.81533724952E+03 -0.23587906579E+04  0.25082910716E+04  0.50400001928E-02 0.  1.
</event>
<event>
 5   0  0.7254493E-08  0.3708854E+04  0.7818609E-02  0.8066002E-01
       -2   -1    0    0    0  501  0.00000000000E+00  0.00000000000E+00  0.18203640705E+04  0.18203640705E+04  0.25500000920E-02 0.  1.
        2   -1    0    0  501    0  0.00000000000E+00  0.00000000000E+00 -0.18891276315E+04  0.18891276315E+04  0.25500000920E-02 0. -1.
    10030    2    1    2    0    0  0.00000000000E+00  0.00000000000E+00 -0.68763560976E+02  0.37094917021E+04  0.37088543056E+04 0.  0.
        3    1    3    3  502    0 -0.12603286781E+04  0.24916593518E+03 -0.13719178605E+04  0.18795400145E+04  0.10100000352E+00 0. -1.
       -3    1    3    3    0  502  0.12603286781E+04 -0.24916593518E+03  0.13031542996E+04  0.18299516875E+04  0.10100000352E+00 0.  1.
</event>
<event>
 5   0  0.7309833E-08  0.3697568E+04  0.7818609E-02  0.8068501E-01
       -2   -1    0    0    0  501  0.00000000000E+00  0.00000000000E+00  0.19578046793E+04  0.19578046793E+04  0.25500000920E-02 0.  1.
        2   -1    0    0  501    0  0.00000000000E+00  0.00000000000E+00 -0.17458339555E+04  0.17458339555E+04  0.25500000920E-02 0. -1.
    10030    2    1    2    0    0  0.00000000000E+00  0.00000000000E+00  0.21197072376E+03  0.37036386348E+04  0.36975677884E+04 0.  0.
        2    1    3    3  502    0 -0.98226322787E+03 -0.14933227678E+04 -0.36717560605E+03  0.18247388480E+04  0.25500000920E-02 0. -1.
       -2    1    3    3    0  502  0.98226322787E+03  0.14933227678E+04  0.57914632981E+03  0.18788997868E+04  0.25500000920E-02 0.  1.
</event>
<event>
 5   0  0.2282000E-08  0.3689341E+04  0.7818609E-02  0.8070328E-01
        1   -1    0    0  501    0  0.00000000000E+00  0.00000000000E+00  0.15703082064E+04  0.15703082064E+04  0.50400001928E-02 0. -1.
       -1   -1    0    0    0  501  0.00000000000E+00  0.00000000000E+00 -0.21669690471E+04  0.21669690471E+04  0.50400001928E-02 0.  1.
    10030    2    1    2    0    0  0.00000000000E+00  0.00000000000E+00 -0.59666084074E+03  0.37372772535E+04  0.36893410131E+04 0.  0.
        5    1    3    3  502    0 -0.15291698428E+04 -0.98385108919E+03 -0.61295216316E+03  0.19188683691E+04  0.46999998093E+01 0.  1.
       -5    1    3    3    0  502  0.15291698428E+04  0.98385108919E+03  0.16291322418E+02  0.18184088844E+04  0.46999998093E+01 0. -1.
</event>
<event>
 5   0  0.7203049E-08  0.3704661E+04  0.7818609E-02  0.8066930E-01
       -2   -1    0    0    0  501  0.00000000000E+00  0.00000000000E+00  0.12241483251E+04  0.12241483251E+04  0.25500000920E-02 0.  1.
        2   -1    0    0  501    0  0.00000000000E+00  0.00000000000E+00 -0.28028693860E+04  0.28028693860E+04  0.25500000920E-02 0. -1.
    10030    2    1    2    0    0  0.00000000000E+00  0.00000000000E+00 -0.15787210609E+04  0.40270177111E+04  0.37046607749E+04 0.  0.
        4    1    3    3  502    0  0.18354490600E+04 -0.21728125916E+03 -0.65604345583E+03  0.19612442547E+04  0.12699999809E+01 0.  1.
       -4    1    3    3    0  502 -0.18354490600E+04  0.21728125916E+03 -0.92267760507E+03  0.20657734564E+04  0.12699999809E+01 0. -1.
</event>
<event>
 5   0  0.2282000E-08  0.3694909E+04  0.7818609E-02  0.8069091E-01
        1   -1    0    0  501    0  0.00000000000E+00  0.00000000000E+00  0.30207099640E+04  0.30207099641E+04  0.50400001928E-02 0. -1.
       -1   -1    0    0    0  501  0.00000000000E+00  0.00000000000E+00 -0.11298962961E+04  0.11298962961E+04  0.50400001928E-02 0.  1.
    10030    2    1    2    0    0  0.00000000000E+00  0.00000000000E+00  0.18908136680E+04  0.41506062602E+04  0.36949094711E+04 0.  0.
        3    1    3    3  502    0  0.15214873096E+04  0.34877439721E+03  0.20554725780E+04  0.25809949133E+04  0.10100000352E+00 0. -1.
       -3    1    3    3    0  502 -0.15214873096E+04 -0.34877439721E+03 -0.16465891001E+03  0.15696113469E+04  0.10100000352E+00 0.  1.
</event>
<event>
 5   0  0.2282000E-08  0.3698657E+04  0.7818609E-02  0.8068259E-01
       -1   -1    0    0    0  501  0.00000000000E+00  0.00000000000E+00  0.16279645996E+04  0.16279645996E+04  0.50400001928E-02 0. -1.
        1   -1    0    0  501    0  0.00000000000E+00  0.00000000000E+00 -0.21007926860E+04  0.21007926860E+04  0.50400001928E-02 0.  1.
    10030    2    1    2    0    0  0.00000000000E+00  0.00000000000E+00 -0.47282808640E+03  0.37287572855E+04  0.36986571205E+04 0.  0.
        3    1    3    3  502    0  0.39145692541E+03  0.11576106528E+04 -0.16357719319E+04  0.20418253528E+04  0.10100000352E+00 0.  1.
       -3    1    3    3    0  502 -0.39145692541E+03 -0.11576106528E+04  0.11629438455E+04  0.16869319328E+04  0.10100000352E+00 0. -1.
</event>
<event>
 5   0  0.7254493E-08  0.3692143E+04  0.7818609E-02  0.8069705E-01
       -2   -1    0    0    0  501  0.00000000000E+00  0.00000000000E+00  0.28403835440E+04  0.28403835440E+04  0.25500000920E-02 0. -1.
        2   -1    0    0  501    0  0.00000000000E+00  0.00000000000E+00 -0.11998308173E+04  0.11998308173E+04  0.25500000920E-02 0.  1.
    10030    2    1    2    0    0  0.00000000000E+00  0.00000000000E+00  0.16405527266E+04  0.40402143613E+04  0.36921428516E+04 0.  0.
        3    1    3    3  502    0  0.14845911060E+03 -0.81446333577E+03 -0.98530457100E+03  0.12869404573E+04  0.10100000352E+00 0.  1.
       -3    1    3    3    0  502 -0.14845911060E+03  0.81446333577E+03  0.26258572976E+04  0.27532739040E+04  0.10100000352E+00 0. -1.
</event>
<event>
 5   0  0.2282000E-08  0.3713072E+04  0.7818609E-02  0.8065071E-01
        1   -1    0    0  501    0  0.00000000000E+00  0.00000000000E+00  0.22764969361E+04  0.22764969361E+04  0.50400001928E-02 0.  1.
       -1   -1    0    0    0  501  0.00000000000E+00  0.00000000000E+00 -0.15140479021E+04  0.15140479021E+04  0.50400001928E-02 0. -1.
    10030    2    1    2    0    0  0.00000000000E+00  0.00000000000E+00  0.76244903408E+03  0.37905448382E+04  0.37130717258E+04 0.  0.
        3    1    3    3  502    0  0.12047734354E+04  0.13121802480E+04 -0.15259061112E+03  0.17878981903E+04  0.10100000352E+00 0.  1.
       -3    1    3    3    0  502 -0.12047734354E+04 -0.13121802480E+04  0.91503964519E+03  0.20026466479E+04  0.10100000352E+00 0. -1.
</event>
<event>
 5   0  0.2282000E-08  0.3703043E+04  0.7818609E-02  0.8067288E-01
       -1   -1    0    0    0  501  0.00000000000E+00  0.00000000000E+00  0.22867854592E+04  0.22867854592E+04  0.50400001928E-02 0.  1.
        1   -1    0    0  501    0  0.00000000000E+00  0.00000000000E+00 -0.14991054128E+04  0.14991054128E+04  0.50400001928E-02 0. -1.
    10030    2    1    2    0    0  0.00000000000E+00  0.00000000000E+00  0.78768004638E+03  0.37858908720E+04  0.37030433212E+04 0.  0.
        4    1    3    3  502    0 -0.80002580265E+03  0.88622850328E+03  0.18406650469E+04  0.21939671084E+04  0.12699999809E+01 0.  1.
       -4    1    3    3    0  502  0.80002580265E+03 -0.88622850328E+03 -0.10529850005E+04  0.15919237636E+04  0.12699999809E+01 0. -1.
</event>
<event>
 5   0  0.2282000E-08  0.3698370E+04  0.7818609E-02  0.8068323E-01
       -1   -1    0    0    0  501  0.00000000000E+00  0.00000000000E+00  0.24676395950E+04  0.24676395950E+04  0.50400001928E-02 0. -1.
        1   -1    0    0  501    0  0.00000000000E+00  0.00000000000E+00 -0.13857315536E+04  0.13857315536E+04  0.50400001928E-02 0.  1.
    10030    2    1    2    0    0  0.00000000000E+00  0.00000000000E+00  0.10819080413E+04  0.38533711486E+04  0.36983704789E+04 0.  0.
        5    1    3    3  502    0  0.75620675185E+03 -0.16497869440E+04  0.91052887644E+03  0.20304508211E+04  0.46999998093E+01 0. -1.
       -5    1    3    3    0  502 -0.75620675185E+03  0.16497869440E+04  0.17137916491E+03  0.18229203275E+04  0.46999998093E+01 0.  1.
</event>
<event>
 5   0  0.2282000E-08  0.3695577E+04  0.7818609E-02  0.8068943E-01
       -1   -1    0    0    0  501  0.00000000000E+00  0.00000000000E+00  0.20720992537E+04  0.20720992537E+04  0.50400001928E-02 0.  1.
        1   -1    0    0  501    0  0.00000000000E+00  0.00000000000E+00 -0.16477597753E+04  0.16477597753E+04  0.50400001928E-02 0. -1.
    10030    2    1    2    0    0  0.00000000000E+00  0.00000000000E+00  0.42433947840E+03  0.37198590291E+04  0.36955767078E+04 0.  0.
        4    1    3    3  502    0  0.92375681544E+01  0.18052816348E+04  0.60870373736E+03  0.19051637636E+04  0.12699999809E+01 0. -1.
       -4    1    3    3    0  502 -0.92375681544E+01 -0.18052816348E+04 -0.18436425896E+03  0.18146952654E+04  0.12699999809E+01 0.  1.
</event>
<event>
 5   0  0.7254493E-08  0.3697555E+04  0.7818609E-02  0.8068504E-01
        2   -1    0    0  501    0  0.00000000000E+00  0.00000000000E+00  0.28219501494E+04  0.28219501494E+04  0.25500000920E-02 0.  1.
       -2   -1    0    0    0  501  0.00000000000E+00  0.00000000000E+00 -0.12112117109E+04  0.12112117109E+04  0.25500000920E-02 0. -1.
    10030    2    1    2    0    0  0.00000000000E+00  0.00000000000E+00  0.16107384386E+04  0.40331618603E+04  0.36975554457E+04 0.  0.
        3    1    3    3  502    0 -0.54694122066E+03 -0.15077771023E+04 -0.19756629993E+03  0.16160349446E+04  0.10100000352E+00 0. -1.
       -3    1    3    3    0  502  0.54694122066E+03  0.15077771023E+04  0.18083047385E+04  0.24171269157E+04  0.10100000352E+00 0.  1.
</event>
<event>
 5   0  0.2282000E-08  0.3704208E+04  0.7818609E-02  0.8067030E-01
       -1   -1    0    0    0  501  0.00000000000E+00  0.00000000000E+00  0.21640215970E+04  0.21640215971E+04  0.50400001928E-02 0.  1.
        1   -1    0    0  501    0  0.00000000000E+00  0.00000000000E+00 -0.15851451527E+04  0.15851451527E+04  0.50400001928E-02 0. -1.
    10030    2    1    2    0    0  0.00000000000E+00  0.00000000000E+00  0.57887644433E+03  0.37491667498E+04  0.37042075239E+04 0.  0.
        1    1    3    3  502    0 -0.92793036855E+03  0.10273497048E+04  0.15347316968E+04  0.20668583807E+04  0.50400001928E-02 0.  1.
       -1    1    3    3    0  502  0.92793036855E+03 -0.10273497048E+04 -0.95585525244E+03  0.16823083690E+04  0.50400001928E-02 0. -1.
</event>
<event>
 5   0  0.7254493E-08  0.3702365E+04  0.7818609E-02  0.8067438E-01
       -2   -1    0    0    0  501  0.00000000000E+00  0.00000000000E+00  0.22940478824E+04  0.22940478824E+04  0.25500000920E-02 0. -1.
        2   -1    0    0  501    0  0.00000000000E+00  0.00000000000E+00 -0.14938123157E+04  0.14938123157E+04  0.25500000920E-02 0.  1.
    10030    2    1    2    0    0  0.00000000000E+00  0.00000000000E+00  0.80023556668E+03  0.37878601981E+04  0.37023651789E+04 0.  0.
        3    1    3    3  502    0 -0.15178279289E+04  0.36433381791E+03 -0.61801874648E+03  0.16788352908E+04  0.10100000352E+00 0.  1.
       -3    1    3    3    0  502  0.15178279289E+04 -0.36433381791E+03  0.14182543132E+04  0.21090249073E+04  0.10100000352E+00 0. -1.
</event>
<event>
 5   0  0.7203049E-08  0.3702886E+04  0.7818609E-02  0.8067322E-01
        2   -1    0    0  501    0  0.00000000000E+00  0.00000000000E+00  0.18433793428E+04  0.18433793428E+04  0.25500000920E-02 0.  1.
       -2   -1    0    0    0  501  0.00000000000E+00  0.00000000000E+00 -0.18595422134E+04  0.18595422134E+04  0.25500000920E-02 0. -1.
    10030    2    1    2    0    0  0.00000000000E+00  0.00000000000E+00 -0.16162870654E+02  0.37029215562E+04  0.37028862814E+04 0.  0.
        4    1    3    3  502    0 -0.46940430828E+03  0.52355217972E+03  0.17046499183E+04  0.18439848824E+04  0.12699999809E+01 0.  1.
       -4    1    3    3    0  502  0.46940430828E+03 -0.52355217972E+03 -0.17208127890E+04  0.18589366738E+04  0.12699999809E+01 0. -1.
</event>
<event>
 5   0  0.2282000E-08  0.3705722E+04  0.7818609E-02  0.8066695E-01
       -1   -1    0    0    0  501  0.00000000000E+00  0.00000000000E+00  0.15394750789E+04  0.15394750789E+04  0.50400001928E-02 0.  1.
        1   -1    0    0  501    0  0.00000000000E+00  0.00000000000E+00 -0.22300424351E+04  0.22300424351E+04  0.50400001928E-02 0. -1.
    10030    2    1    2    0    0  0.00000000000E+00  0.00000000000E+00 -0.69056735625E+03  0.37695175140E+04  0.37057224686E+04 0.  0.
        1    1    3    3  502    0 -0.46712502390E+03  0.17498746741E+04 -0.74294537199E+03  0.19576095087E+04  0.50400001928E-02 0. -1.
       -1    1    3    3    0  502  0.46712502390E+03 -0.17498746741E+04  0.52378015737E+02  0.18119080052E+04  0.50400001928E-02 0.  1.
</event>
<event>
 5   0  0.2282000E-08  0.3694048E+04  0.7818609E-02  0.8069282E-01
        1   -1    0    0  501    0  0.00000000000E+00  0.00000000000E+00  0.20656476564E+04  0.20656476564E+04  0.50400001928E-02 0. -1.
       -1   -1    0    0    0  501  0.00000000000E+00  0.00000000000E+00 -0.16515390666E+04  0.16515390666E+04  0.50400001928E-02 0.  1.
    10030    2    1    2    0    0  0.00000000000E+00  0.00000000000E+00  0.41410858984E+03  0.37171867231E+04  0.36940480790E+04 0.  0.
        1    1    3    3  502    0  0.81758259644E+03 -0.99492794200E+02  0.18706361614E+04  0.20439226420E+04  0.50400001928E-02 0. -1.
       -1    1    3    3    0  502 -0.81758259644E+03  0.99492794200E+02 -0.14565275716E+04  0.16732640810E+04  0.50400001928E-02 0.  1.
</event>
<event>
 5   0  0.7309833E-08  0.3701436E+04  0.7818609E-02  0.8067644E-01
        2   -1    0    0  501    0  0.00000000000E+00  0.00000000000E+00  0.29310180695E+04  0.29310180695E+04  0.25500000920E-02 0. -1.
       -2   -1    0    0    0  501  0.00000000000E+00  0.00000000000E+00 -0.11685893723E+04  0.11685893723E+04  0.25500000920E-02 0.  1.
    10030    2    1    2    0    0  0.00000000000E+00  0.00000000000E+00  0.17624286972E+04  0.40996074418E+04  0.37014357031E+04 0.  0.
        2    1    3    3  502    0  0.96292557246E+03 -0.44213484085E+03 -0.79939567388E+03  0.13273064149E+04  0.25500000920E-02 0.  1.
       -2    1    3    3    0  502 -0.96292557246E+03  0.44213484085E+03  0.25618243710E+04  0.27723010269E+04  0.25500000920E-02 0. -1.
</event>
<event>
 5   0  0.7254493E-08  0.3659170E+04  0.7818609E-02  0.8077071E-01
        2   -1    0    0  501    0  0.00000000000E+00  0.00000000000E+00  0.18235663073E+04  0.18235663073E+04  0.25500000920E-02 0. -1.
       -2   -1    0    0    0  501  0.00000000000E+00  0.00000000000E+00 -0.18356240158E+04  0.18356240158E+04  0.25500000920E-02 0.  1.
    10030    2    1    2    0    0  0.00000000000E+00  0.00000000000E+00 -0.12057708499E+02  0.36591903232E+04  0.36591704570E+04 0.  0.
        3    1    3    3  502    0 -0.14255038737E+03  0.10353338858E+04  0.14956933961E+04  0.18246467092E+04  0.10100000352E+00 0. -1.
       -3    1    3    3    0  502  0.14255038737E+03 -0.10353338858E+04 -0.15077511046E+04  0.18345436140E+04  0.10100000352E+00 0.  1.
</event>
<event>
 5   0  0.2282000E-08  0.3702809E+04  0.7818609E-02  0.8067340E-01
       -1   -1    0    0    0  501  0.00000000000E+00  0.00000000000E+00  0.16114472374E+04  0.16114472374E+04  0.50400001928E-02 0. -1.
        1   -1    0    0  501    0  0.00000000000E+00  0.00000000000E+00 -0.21270935959E+04  0.21270935959E+04  0.50400001928E-02 0.  1.
    10030    2    1    2    0    0  0.00000000000E+00  0.00000000000E+00 -0.51564635850E+03  0.37385408332E+04  0.37028092571E+04 0.  0.
        4    1    3    3  502    0  0.14438480100E+04 -0.84764792642E+03 -0.10556979175E+04  0.19793190216E+04  0.12699999809E+01 0.  1.
       -4    1    3    3    0  502 -0.14438480100E+04  0.84764792642E+03  0.54005155905E+03  0.17592218116E+04  0.12699999809E+01 0. -1.
</event>
<event>
 5   0  0.2282000E-08  0.3705218E+04  0.7818609E-02  0.8066807E-01
       -1   -1    0    0    0  501  0.00000000000E+00  0.00000000000E+00  0.13691948118E+04  0.13691948118E+04  0.50400001928E-02 0.  1.
        1   -1    0    0  501    0  0.00000000000E+00  0.00000000000E+00 -0.25066991699E+04  0.25066991699E+04  0.50400001928E-02 0. -1.
    10030    2    1    2    0    0  0.00000000000E+00  0.00000000000E+00 -0.11375043581E+04  0.38758939817E+04  0.37052176715E+04 0.  0.
        2    1    3    3  502    0  0.17838464490E+04  0.10218738106E+03 -0.10807991506E+04  0.20882234598E+04  0.25500000920E-02 0.  1.
       -2    1    3    3    0  502 -0.17838464490E+04 -0.10218738106E+03 -0.56705207572E+02  0.17876705219E+04  0.25500000920E-02 0. -1.
</event>
<event>
 5   0  0.2282000E-08  0.3698360E+04  0.7818609E-02  0.8068325E-01
       -1   -1    0    0    0  501  0.00000000000E+00  0.00000000000E+00  0.31202566870E+04  0.31202566870E+04  0.50400001928E-02 0. -1.
        1   -1    0    0  501    0  0.00000000000E+00  0.00000000000E+00 -0.10958925184E+04  0.10958925184E+04  0.50400001928E-02 0.  1.
    10030    2    1    2    0    0  0.00000000000E+00  0.00000000000E+00  0.20243641686E+04  0.42161492054E+04  0.36983596141E+04 0.  0.
        1    1    3    3  502    0  0.32546401431E+03  0.16300705604E+04  0.19358037912E+04  0.25515472119E+04  0.50400001928E-02 0.  1.
       -1    1    3    3    0  502 -0.32546401431E+03 -0.16300705604E+04  0.88560377433E+02  0.16646019936E+04  0.50400001928E-02 0. -1.
</event>
<event>
 5   0  0.7309833E-08  0.3700135E+04  0.7818609E-02  0.8067932E-01
       -2   -1    0    0    0  501  0.00000000000E+00  0.00000000000E+00  0.23979925215E+04  0.23979925215E+04  0.25500000920E-02 0.  1.
        2   -1    0    0  501    0  0.00000000000E+00  0.00000000000E+00 -0.14273399837E+04  0.14273399837E+04  0.25500000920E-02 0. -1.
    10030    2    1    2    0    0  0.00000000000E+00  0.00000000000E+00  0.97065253784E+03  0.38253325052E+04  0.37001354605E+04 0.  0.
        2    1    3    3  502    0  0.88908282154E+03 -0.12979776133E+04  0.14916773831E+04  0.21680211169E+04  0.25500000920E-02 0.  1.
       -2    1    3    3    0  502 -0.88908282154E+03  0.12979776133E+04 -0.52102484523E+03  0.16573113882E+04  0.25500000920E-02 0. -1.
</event>
<event>
 5   0  0.2282000E-08  0.3696924E+04  0.7818609E-02  0.8068644E-01
        1   -1    0    0  501    0  0.00000000000E+00  0.00000000000E+00  0.12493105903E+04  0.12493105903E+04  0.50400001928E-02 0.  1.
       -1   -1    0    0    0  501  0.00000000000E+00  0.00000000000E+00 -0.27349572208E+04  0.27349572208E+04  0.50400001928E-02 0. -1.
    10030    2    1    2    0    0  0.00000000000E+00  0.00000000000E+00 -0.14856466305E+04  0.39842678111E+04  0.36969235968E+04 0.  0.
        5    1    3    3  502    0  0.59268501703E+03  0.28406835309E+03 -0.26047690374E+04  0.26864128846E+04  0.46999998093E+01 0. -1.
       -5    1    3    3    0  502 -0.59268501703E+03 -0.28406835309E+03  0.11191224069E+04  0.12978549265E+04  0.46999998093E+01 0.  1.
</event>
<event>
 5   0  0.2282000E-08  0.3733045E+04  0.7818609E-02  0.8060678E-01
       -1   -1    0    0    0  501  0.00000000000E+00  0.00000000000E+00  0.13561151928E+04  0.13561151928E+04  0.50400001928E-02 0. -1.
        1   -1    0    0  501    0  0.00000000000E+00  0.00000000000E+00 -0.25690346252E+04  0.25690346252E+04  0.50400001928E-02 0.  1.
    10030    2    1    2    0    0  0.00000000000E+00  0.00000000000E+00 -0.12129194324E+04  0.39251498180E+04  0.37330453446E+04 0.  0.
        3    1    3    3  502    0  0.17826104111E+04  0.53449057136E+03 -0.75710442688E+03  0.20091259722E+04  0.10100000352E+00 0.  1.
       -3    1    3    3    0  502 -0.17826104111E+04 -0.53449057136E+03 -0.45581500552E+03  0.19160238459E+04  0.10100000352E+00 0. -1.
</event>
<event>
 5   0  0.7254493E-08  0.3694611E+04  0.7818609E-02  0.8069157E-01
       -2   -1    0    0    0  501  0.00000000000E+00  0.00000000000E+00  0.12214096688E+04  0.12214096688E+04  0.25500000920E-02 0. -1.
        2   -1    0    0  501    0  0.00000000000E+00  0.00000000000E+00 -0.27939341074E+04  0.27939341074E+04  0.25500000920E-02 0.  1.
    10030    2    1    2    0    0  0.00000000000E+00  0.00000000000E+00 -0.15725244385E+04  0.40153437762E+04  0.36946112828E+04 0.  0.
        3    1    3    3  502    0 -0.16779800799E+03 -0.16376221851E+03  0.12051727269E+04  0.12277685236E+04  0.10100000352E+00 0. -1.
       -3    1    3    3    0  502  0.16779800799E+03  0.16376221851E+03 -0.27776971655E+04  0.27875752526E+04  0.10100000352E+00 0.  1.
</event>
<event>
 5   0  0.7254493E-08  0.3697188E+04  0.7818609E-02  0.8068585E-01
        2   -1    0    0  501    0  0.00000000000E+00  0.00000000000E+00  0.16267548098E+04  0.16267548098E+04  0.25500000920E-02 0. -1.
       -2   -1    0    0    0  501  0.00000000000E+00  0.00000000000E+00 -0.21006855247E+04  0.21006855247E+04  0.25500000920E-02 0.  1.
    10030    2    1    2    0    0  0.00000000000E+00  0.00000000000E+00 -0.47393071484E+03  0.37274403345E+04  0.36971882728E+04 0.  0.
        3    1    3    3  502    0 -0.18007526675E+04 -0.30599470934E+03  0.49892827818E+02  0.18272471744E+04  0.10100000352E+00 0. -1.
       -3    1    3    3    0  502  0.18007526675E+04  0.30599470934E+03 -0.52382354265E+03  0.19001931601E+04  0.10100000352E+00 0.  1.
</event>
<event>
 5   0  0.2282000E-08  0.3707682E+04  0.7818609E-02  0.8066261E-01
        1   -1    0    0  501    0  0.00000000000E+00  0.00000000000E+00  0.14875629203E+04  0.14875629204E+04  0.50400001928E-02 0. -1.
       -1   -1    0    0    0  501  0.00000000000E+00  0.00000000000E+00 -0.23103072137E+04  0.23103072137E+04  0.50400001928E-02 0.  1.
    10030    2    1    2    0    0  0.00000000000E+00  0.00000000000E+00 -0.82274429338E+03  0.37978701341E+04  0.37076824814E+04 0.  0.
        1    1    3    3  502    0 -0.20809782931E+00 -0.13924005383E+04 -0.16650499894E+04  0.21705231557E+04  0.50400001928E-02 0.  1.
       -1    1    3    3    0  502  0.20809782931E+00  0.13924005383E+04  0.84230569598E+03  0.16273469784E+04  0.50400001928E-02 0. -1.
</event>
<event>
 5   0  0.7362817E-08  0.3662088E+04  0.7818609E-02  0.8076416E-01
        2   -1    0    0  501    0  0.00000000000E+00  0.00000000000E+00  0.29187411069E+04  0.29187411069E+04  0.25500000920E-02 0.  1.
       -2   -1    0    0    0  501  0.00000000000E+00  0.00000000000E+00 -0.11486876795E+04  0.11486876795E+04  0.25500000920E-02 0. -1.
    10030    2    1    2    0    0  0.00000000000E+00  0.00000000000E+00  0.17700534273E+04  0.40674287864E+04  0.36620879013E+04 0.  0.
        1    1    3    3  502    0 -0.67186259724E+03  0.16910172270E+03  0.27675414616E+04  0.28529424256E+04  0.50400001928E-02 0.  1.
       -1    1    3    3    0  502  0.67186259724E+03 -0.16910172270E+03 -0.99748803423E+03  0.12144863608E+04  0.50400001928E-02 0. -1.
</event>
<event>
 5   0  0.2282000E-08  0.3695206E+04  0.7818609E-02  0.8069025E-01
       -1   -1    0    0    0  501  0.00000000000E+00  0.00000000000E+00  0.13591356715E+04  0.13591356715E+04  0.50400001928E-02 0. -1.
        1   -1    0    0  501    0  0.00000000000E+00  0.00000000000E+00 -0.25116236293E+04  0.25116236293E+04  0.50400001928E-02 0.  1.
    10030    2    1    2    0    0  0.00000000000E+00  0.00000000000E+00 -0.11524879578E+04  0.38707593008E+04  0.36952062286E+04 0.  0.
        4    1    3    3  502    0  0.10425375532E+04 -0.84552034702E+03 -0.19061449954E+04  0.23313471564E+04  0.12699999809E+01 0.  1.
       -4    1    3    3    0  502 -0.10425375532E+04  0.84552034702E+03  0.75365703762E+03  0.15394121444E+04  0.12699999809E+01 0. -1.
</event>
<event>
 5   0  0.2282000E-08  0.3698955E+04  0.7818609E-02  0.8068193E-01
        1   -1    0    0  501    0  0.00000000000E+00  0.00000000000E+00  0.17064391461E+04  0.17064391461E+04  0.50400001928E-02 0. -1.
       -1   -1    0    0    0  501  0.00000000000E+00  0.00000000000E+00 -0.20045062024E+04  0.20045062024E+04  0.50400001928E-02 0.  1.
    10030    2    1    2    0    0  0.00000000000E+00  0.00000000000E+00 -0.29806705628E+03  0.37109453485E+04  0.36989554484E+04 0.  0.
        1    1    3    3  502    0 -0.15191927159E+03 -0.18373565455E+04 -0.15559740800E+01  0.18436271211E+04  0.50400001928E-02 0.  1.
       -1    1    3    3    0  502  0.15191927159E+03  0.18373565455E+04 -0.29651108220E+03  0.18673182274E+04  0.50400001928E-02 0. -1.
</event>
<event>
 5   0  0.2282000E-08  0.3696839E+04  0.7818609E-02  0.8068663E-01
        1   -1    0    0  501    0  0.00000000000E+00  0.00000000000E+00  0.19951721849E+04  0.19951721849E+04  0.50400001928E-02 0. -1.
       -1   -1    0    0    0  501  0.00000000000E+00  0.00000000000E+00 -0.17124614748E+04  0.17124614748E+04  0.50400001928E-02 0.  1.
    10030    2    1    2    0    0  0.00000000000E+00  0.00000000000E+00  0.28271071016E+03  0.37076336597E+04  0.36968394622E+04 0.  0.
        2    1    3    3  502    0 -0.21599016227E+03  0.84083961121E+03 -0.14952772406E+04  0.17290219861E+04  0.25500000920E-02 0.  1.
       -2    1    3    3    0  502  0.21599016227E+03 -0.84083961121E+03  0.17779879508E+04  0.19786116737E+04  0.25500000920E-02 0. -1.
</event>
<event>
 5   0  0.7362817E-08  0.3705344E+04  0.7818609E-02  0.8066779E-01
        2   -1    0    0  501    0  0.00000000000E+00  0.00000000000E+00  0.18602405162E+04  0.18602405162E+04  0.25500000920E-02 0. -1.
       -2   -1    0    0    0  501  0.00000000000E+00  0.00000000000E+00 -0.18451342702E+04  0.18451342702E+04  0.25500000920E-02 0.  1.
    10030    2    1    2    0    0  0.00000000000E+00  0.00000000000E+00  0.15106246060E+02  0.37053747864E+04  0.37053439933E+04 0.  0.
        1    1    3    3  502    0 -0.42106648302E+03 -0.21636754791E+03  0.17987356802E+04  0.18599897704E+04  0.50400001928E-02 0. -1.
       -1    1    3    3    0  502  0.42106648302E+03  0.21636754791E+03 -0.17836294341E+04  0.18453850160E+04  0.50400001928E-02 0.  1.
</event>
<event>
 5   0  0.2282000E-08  0.3680542E+04  0.7818609E-02  0.8072288E-01
       -1   -1    0    0    0  501  0.00000000000E+00  0.00000000000E+00  0.11161727855E+04  0.11161727855E+04  0.50400001928E-02 0. -1.
        1   -1    0    0  501    0  0.00000000000E+00  0.00000000000E+00 -0.30341151680E+04  0.30341151680E+04  0.50400001928E-02 0.  1.
    10030    2    1    2    0    0  0.00000000000E+00  0.00000000000E+00 -0.19179423825E+04  0.41502879535E+04  0.36805416876E+04 0.  0.
        4    1    3    3  502    0  0.12623719600E+04  0.96928580126E+03 -0.20007308797E+04  0.25565648037E+04  0.12699999809E+01 0.  1.
       -4    1    3    3    0  502 -0.12623719600E+04 -0.96928580126E+03  0.82788497221E+02  0.15937231497E+04  0.12699999809E+01 0. -1.
</event>
<event>
 5   0  0.2282000E-08  0.3682265E+04  0.7818609E-02  0.8071903E-01
        1   -1    0    0  501    0  0.00000000000E+00  0.00000000000E+00  0.17337513652E+04  0.17337513652E+04  0.50400001928E-02 0. -1.
       -1   -1    0    0    0  501  0.00000000000E+00  0.00000000000E+00 -0.19551645116E+04  0.19551645116E+04  0.50400001928E-02 0.  1.
    10030    2    1    2    0    0  0.00000000000E+00  0.00000000000E+00 -0.22141314639E+03  0.36889158769E+04  0.36822651405E+04 0.  0.
        2    1    3    3  502    0  0.16011622744E+04 -0.32873882771E+03 -0.95957358247E+03  0.18954079524E+04  0.25500000920E-02 0.  1.
       -2    1    3    3    0  502 -0.16011622744E+04  0.32873882771E+03  0.73816043608E+03  0.17935079245E+04  0.25500000920E-02 0. -1.
</event>
<event>
 5   0  0.7309833E-08  0.3705004E+04  0.7818609E-02  0.8066854E-01
        2   -1    0    0  501    0  0.00000000000E+00  0.00000000000E+00  0.24837910985E+04  0.24837910985E+04  0.25500000920E-02 0.  1.
       -2   -1    0    0    0  501  0.00000000000E+00  0.00000000000E+00 -0.13816632707E+04  0.13816632707E+04  0.25500000920E-02 0. -1.
    10030    2    1    2    0    0  0.00000000000E+00  0.00000000000E+00  0.11021278278E+04  0.38654543692E+04  0.37050036074E+04 0.  0.
        2    1    3    3  502    0 -0.15693510542E+04  0.81472732702E+03  0.11273617083E+04  0.20970426248E+04  0.25500000920E-02 0.  1.
       -2    1    3    3    0  502  0.15693510542E+04 -0.81472732702E+03 -0.25233880447E+02  0.17684117444E+04  0.25500000920E-02 0. -1.
</event>
<event>
 5   0  0.2282000E-08  0.3702290E+04  0.7818609E-02  0.8067455E-01
       -1   -1    0    0    0  501  0.00000000000E+00  0.00000000000E+00  0.14803991405E+04  0.14803991405E+04  0.50400001928E-02 0. -1.
        1   -1    0    0  501    0  0.00000000000E+00  0.00000000000E+00 -0.23147390616E+04  0.23147390616E+04  0.50400001928E-02 0.  1.
    10030    2    1    2    0    0  0.00000000000E+00  0.00000000000E+00 -0.83433992111E+03  0.37951382021E+04  0.37022899494E+04 0.  0.
        3    1    3    3  502    0  0.13285096536E+04  0.11640658055E+04  0.15057054943E+03  0.17727545233E+04  0.10100000352E+00 0.  1.
       -3    1    3    3    0  502 -0.13285096536E+04 -0.11640658055E+04 -0.98491047054E+03  0.20223836788E+04  0.10100000352E+00 0. -1.
</event>
<event>
 5   0  0.7191801E-08  0.3682286E+04  0.7818609E-02  0.8071899E-01
       -2   -1    0    0    0  501  0.00000000000E+00  0.00000000000E+00  0.15018627549E+04  0.15018627549E+04  0.25500000920E-02 0. -1.
        2   -1    0    0  501    0  0.00000000000E+00  0.00000000000E+00 -0.22570690245E+04  0.22570690245E+04  0.25500000920E-02 0.  1.
    10030    2    1    2    0    0  0.00000000000E+00  0.00000000000E+00 -0.75520626960E+03  0.37589317794E+04  0.36822861937E+04 0.  0.
        5    1    3    3  502    0  0.50519367437E+03  0.10661377783E+04  0.10652942679E+04  0.15895736467E+04  0.46999998093E+01 0. -1.
       -5    1    3    3    0  502 -0.50519367437E+03 -0.10661377783E+04 -0.18205005375E+04  0.21693581327E+04  0.46999998093E+01 0.  1.
</event>
<event>
 5   0  0.2282000E-08  0.3682574E+04  0.7818609E-02  0.8071835E-01
       -1   -1    0    0    0  501  0.00000000000E+00  0.00000000000E+00  0.26252432439E+04  0.26252432439E+04  0.50400001928E-02 0. -1.
        1   -1    0    0  501    0  0.00000000000E+00  0.00000000000E+00 -0.12914373176E+04  0.12914373176E+04  0.50400001928E-02 0.  1.
    10030    2    1    2    0    0  0.00000000000E+00  0.00000000000E+00  0.13338059263E+04  0.39166805615E+04  0.36825736071E+04 0.  0.
        3    1    3    3  502    0 -0.18080954163E+03  0.26889296758E+03 -0.12608748623E+04  0.13018452085E+04  0.10100000352E+00 0.  1.
       -3    1    3    3    0  502  0.18080954163E+03 -0.26889296758E+03  0.25946807886E+04  0.26148353530E+04  0.10100000352E+00 0. -1.
</event>
<event>
 5   0  0.7309833E-08  0.3700991E+04  0.7818609E-02  0.8067742E-01
        2   -1    0    0  501    0  0.00000000000E+00  0.00000000000E+00  0.22285838798E+04  0.22285838798E+04  0.25500000920E-02 0.  1.
       -2   -1    0    0    0  501  0.00000000000E+00  0.00000000000E+00 -0.15365517462E+04  0.15365517463E+04  0.25500000920E-02 0. -1.
    10030    2    1    2    0    0  0.00000000000E+00  0.00000000000E+00  0.69203213356E+03  0.37651356261E+04  0.37009914629E+04 0.  0.
        2    1    3    3  502    0 -0.14849188603E+04 -0.83809650161E+03 -0.38543382249E+03  0.17481272835E+04  0.25500000920E-02 0.  1.
       -2    1    3    3    0  502  0.14849188603E+04  0.83809650161E+03  0.10774659561E+04  0.20170083426E+04  0.25500000920E-02 0. -1.
</event>
<event>
 5   0  0.7309833E-08  0.3778073E+04  0.7818609E-02  0.8050877E-01
        2   -1    0    0  501    0  0.00000000000E+00  0.00000000000E+00  0.19452043499E+04  0.19452043499E+04  0.25500000920E-02 0. -1.
       -2   -1    0    0    0  501  0.00000000000E+00  0.00000000000E+00 -0.18344904768E+04  0.18344904768E+04  0.25500000920E-02 0.  1.
    10030    2    1    2    0    0  0.00000000000E+00  0.00000000000E+00  0.11071387310E+03  0.37796948267E+04  0.37780729772E+04 0.  0.
        2    1    3    3  502    0 -0.16795769992E+04 -0.86284223246E+03  0.10999943628E+03  0.18914479877E+04  0.25500000920E-02 0. -1.
       -2    1    3    3    0  502  0.16795769992E+04  0.86284223246E+03  0.71443682519E+00  0.18882468389E+04  0.25500000920E-02 0.  1.
</event>
<event>
 5   0  0.2282000E-08  0.3687728E+04  0.7818609E-02  0.8070687E-01
       -1   -1    0    0    0  501  0.00000000000E+00  0.00000000000E+00  0.28272916895E+04  0.28272916895E+04  0.50400001928E-02 0. -1.
        1   -1    0    0  501    0  0.00000000000E+00  0.00000000000E+00 -0.12025058487E+04  0.12025058487E+04  0.50400001928E-02 0.  1.
    10030    2    1    2    0    0  0.00000000000E+00  0.00000000000E+00  0.16247858409E+04  0.40297975382E+04  0.36877281855E+04 0.  0.
        1    1    3    3  502    0  0.12224282376E+03 -0.30277363140E+03 -0.11706616761E+04  0.12153451936E+04  0.50400001928E-02 0.  1.
       -1    1    3    3    0  502 -0.12224282376E+03  0.30277363140E+03  0.27954475169E+04  0.28144523446E+04  0.50400001928E-02 0. -1.
</event>
<event>
 5   0  0.7254493E-08  0.3698118E+04  0.7818609E-02  0.8068379E-01
       -2   -1    0    0    0  501  0.00000000000E+00  0.00000000000E+00  0.14329998464E+04  0.14329998464E+04  0.25500000920E-02 0. -1.
        2   -1    0    0  501    0  0.00000000000E+00  0.00000000000E+00 -0.23859175345E+04  0.23859175345E+04  0.25500000920E-02 0.  1.
    10030    2    1    2    0    0  0.00000000000E+00  0.00000000000E+00 -0.95291768810E+03  0.38189173809E+04  0.36981181487E+04 0.  0.
        3    1    3    3  502    0 -0.10960642110E+04 -0.12874152329E+04  0.29647195400E+03  0.17165926617E+04  0.10100000352E+00 0. -1.
       -3    1    3    3    0  502  0.10960642110E+04  0.12874152329E+04 -0.12493896421E+04  0.21023247191E+04  0.10100000352E+00 0.  1.
</event>
<event>
 5   0  0.7309833E-08  0.3686349E+04  0.7818609E-02  0.8070994E-01
        2   -1    0    0  501    0  0.00000000000E+00  0.00000000000E+00  0.22032463678E+04  0.22032463678E+04  0.25500000920E-02 0. -1.
       -2   -1    0    0    0  501  0.00000000000E+00  0.00000000000E+00 -0.15419484660E+04  0.15419484660E+04  0.25500000920E-02 0.  1.
    10030    2    1    2    0    0  0.00000000000E+00  0.00000000000E+00  0.66129790180E+03  0.37451948338E+04  0.36863490649E+04 0.  0.
        2    1    3    3  502    0  0.82541830011E+03 -0.16186328321E+04  0.15856505690E+02  0.18170137710E+04  0.25500000920E-02 0.  1.
       -2    1    3    3    0  502 -0.82541830011E+03  0.16186328321E+04  0.64544139611E+03  0.19281810628E+04  0.25500000920E-02 0. -1.
</event>
<event>
 5   0  0.2282000E-08  0.3702342E+04  0.7818609E-02  0.8067443E-01
       -1   -1    0    0    0  501  0.00000000000E+00  0.00000000000E+00  0.14960676256E+04  0.14960676256E+04  0.50400001928E-02 0.  1.
        1   -1    0    0  501    0  0.00000000000E+00  0.00000000000E+00 -0.22905610249E+04  0.22905610249E+04  0.50400001928E-02 0. -1.
    10030    2    1    2    0    0  0.00000000000E+00  0.00000000000E+00 -0.79449339935E+03  0.37866286505E+04  0.37023420662E+04 0.  0.
        3    1    3    3  502    0  0.54450282958E+03 -0.12972582156E+04 -0.16277456763E+04  0.21514920884E+04  0.10100000352E+00 0. -1.
       -3    1    3    3    0  502 -0.54450282958E+03  0.12972582156E+04  0.83325227695E+03  0.16351365621E+04  0.10100000352E+00 0.  1.
</event>
<event>
 5   0  0.2282000E-08  0.3699415E+04  0.7818609E-02  0.8068092E-01
        1   -1    0    0  501    0  0.00000000000E+00  0.00000000000E+00  0.23822484931E+04  0.23822484931E+04  0.50400001928E-02 0.  1.
       -1   -1    0    0    0  501  0.00000000000E+00  0.00000000000E+00 -0.14362133779E+04  0.14362133779E+04  0.50400001928E-02 0. -1.
    10030    2    1    2    0    0  0.00000000000E+00  0.00000000000E+00  0.94603511515E+03  0.38184618710E+04  0.36994146323E+04 0.  0.
        5    1    3    3  502    0 -0.10240371959E+04  0.93189332019E+03 -0.79295774987E+03  0.15955818443E+04  0.46999998093E+01 0. -1.
       -5    1    3    3    0  502  0.10240371959E+04 -0.93189332019E+03  0.17389928650E+04  0.22228800268E+04  0.46999998093E+01 0.  1.
</event>
<event>
 5   0  0.2282000E-08  0.3698850E+04  0.7818609E-02  0.8068217E-01
        1   -1    0    0  501    0  0.00000000000E+00  0.00000000000E+00  0.16086441208E+04  0.16086441208E+04  0.50400001928E-02 0. -1.
       -1   -1    0    0    0  501  0.00000000000E+00  0.00000000000E+00 -0.21262453135E+04  0.21262453135E+04  0.50400001928E-02 0.  1.
    10030    2    1    2    0    0  0.00000000000E+00  0.00000000000E+00 -0.51760119265E+03  0.37348894343E+04  0.36988495633E+04 0.  0.
        4    1    3    3  502    0  0.51789590403E+03 -0.12899954586E+04 -0.14905494658E+04  0.20381471422E+04  0.12699999809E+01 0.  1.
       -4    1    3    3    0  502 -0.51789590403E+03  0.12899954586E+04  0.97294827311E+03  0.16967422921E+04  0.12699999809E+01 0. -1.
</event>
<event>
 5   0  0.7254493E-08  0.3699916E+04  0.7818609E-02  0.8067980E-01
        2   -1    0    0  501    0  0.00000000000E+00  0.00000000000E+00  0.26999336054E+04  0.26999336054E+04  0.25500000920E-02 0.  1.
       -2   -1    0    0    0  501  0.00000000000E+00  0.00000000000E+00 -0.12675661252E+04  0.12675661252E+04  0.25500000920E-02 0. -1.
    10030    2    1    2    0    0  0.00000000000E+00  0.00000000000E+00  0.14323674802E+04  0.39674997305E+04  0.36999158793E+04 0.  0.
        3    1    3    3  502    0  0.72699636987E+01 -0.85305216366E+03 -0.10440554523E+04  0.13482591160E+04  0.10100000352E+00 0. -1.
       -3    1    3    3    0  502 -0.72699636987E+01  0.85305216366E+03  0.24764229324E+04  0.26192406145E+04  0.10100000352E+00 0.  1.
</event>
<event>
 5   0  0.7309833E-08  0.3695410E+04  0.7818609E-02  0.8068980E-01
       -2   -1    0    0    0  501  0.00000000000E+00  0.00000000000E+00  0.11192627633E+04  0.11192627633E+04  0.25500000920E-02 0.  1.
        2   -1    0    0  501    0  0.00000000000E+00  0.00000000000E+00 -0.30502349207E+04  0.30502349207E+04  0.25500000920E-02 0. -1.
    10030    2    1    2    0    0  0.00000000000E+00  0.00000000000E+00 -0.19309721574E+04  0.41694976840E+04  0.36954103242E+04 0.  0.
        2    1    3    3  502    0  0.12147094468E+04  0.47503989354E+03 -0.24421392659E+04  0.27686144792E+04  0.25500000920E-02 0. -1.
       -2    1    3    3    0  502 -0.12147094468E+04 -0.47503989354E+03  0.51116710852E+03  0.14008832047E+04  0.25500000920E-02 0.  1.
</event>
<event>
 5   0  0.7203049E-08  0.3705128E+04  0.7818609E-02  0.8066826E-01
        2   -1    0    0  501    0  0.00000000000E+00  0.00000000000E+00  0.24423140425E+04  0.24423140425E+04  0.25500000920E-02 0.  1.
       -2   -1    0    0    0  501  0.00000000000E+00  0.00000000000E+00 -0.14052222112E+04  0.14052222112E+04  0.25500000920E-02 0. -1.
    10030    2    1    2    0    0  0.00000000000E+00  0.00000000000E+00  0.10370918313E+04  0.38475362537E+04  0.37051283051E+04 0.  0.
        4    1    3    3  502    0 -0.13076217933E+04  0.16121531294E+03 -0.83386503198E+03  0.15592298214E+04  0.12699999809E+01 0. -1.
       -4    1    3    3    0  502  0.13076217933E+04 -0.16121531294E+03  0.18709568632E+04  0.22883064324E+04  0.12699999809E+01 0.  1.
</event>
<event>
 5   0  0.2282000E-08  0.3699352E+04  0.7818609E-02  0.8068105E-01
        1   -1    0    0  501    0  0.00000000000E+00  0.00000000000E+00  0.17395421670E+04  0.17395421670E+04  0.50400001928E-02 0.  1.
       -1   -1    0    0    0  501  0.00000000000E+00  0.00000000000E+00 -0.19667827903E+04  0.19667827903E+04  0.50400001928E-02 0. -1.
    10030    2    1    2    0    0  0.00000000000E+00  0.00000000000E+00 -0.22724062333E+03  0.37063249572E+04  0.36993521579E+04 0.  0.
        2    1    3    3  502    0 -0.14300606324E+03  0.18359867995E+04  0.59920882864E+02  0.18425223945E+04  0.25500000920E-02 0. -1.
       -2    1    3    3    0  502  0.14300606324E+03 -0.18359867995E+04 -0.28716150619E+03  0.18638025627E+04  0.25500000920E-02 0.  1.
</event>
<event>
 5   0  0.7254493E-08  0.3691883E+04  0.7818609E-02  0.8069763E-01
       -2   -1    0    0    0  501  0.00000000000E+00  0.00000000000E+00  0.14399466519E+04  0.14399466519E+04  0.25500000920E-02 0.  1.
        2   -1    0    0  501    0  0.00000000000E+00  0.00000000000E+00 -0.23664068296E+04  0.23664068296E+04  0.25500000920E-02 0. -1.
    10030    2    1    2    0    0  0.00000000000E+00  0.00000000000E+00 -0.92646017774E+03  0.38063534815E+04  0.36918827670E+04 0.  0.
        3    1    3    3  502    0  0.14515725662E+04  0.99949615883E+03  0.10283269840E+03  0.17653979893E+04  0.10100000352E+00 0. -1.
       -3    1    3    3    0  502 -0.14515725662E+04 -0.99949615883E+03 -0.10292928761E+04  0.20409554923E+04  0.10100000352E+00 0.  1.
</event>
<event>
 5   0  0.7309833E-08  0.3661574E+04  0.7818609E-02  0.8076531E-01
        2   -1    0    0  501    0  0.00000000000E+00  0.00000000000E+00  0.13819594120E+04  0.13819594120E+04  0.25500000920E-02 0. -1.
       -2   -1    0    0    0  501  0.00000000000E+00  0.00000000000E+00 -0.24253830466E+04  0.24253830466E+04  0.25500000920E-02 0.  1.
    10030    2    1    2    0    0  0.00000000000E+00  0.00000000000E+00 -0.10434236346E+04  0.38073424587E+04  0.36615739397E+04 0.  0.
        2    1    3    3  502    0 -0.77928158132E+03 -0.15706219401E+04 -0.10696118225E+04  0.20538263102E+04  0.25500000920E-02 0.  1.
       -2    1    3    3    0  502  0.77928158132E+03  0.15706219401E+04  0.26188187899E+02  0.17535161484E+04  0.25500000920E-02 0. -1.
</event>
<event>
 5   0  0.2282000E-08  0.3702081E+04  0.7818609E-02  0.8067501E-01
        1   -1    0    0  501    0  0.00000000000E+00  0.00000000000E+00  0.27062534548E+04  0.27062534548E+04  0.50400001928E-02 0. -1.
       -1   -1    0    0    0  501  0.00000000000E+00  0.00000000000E+00 -0.12660866717E+04  0.12660866717E+04  0.50400001928E-02 0.  1.
    10030    2    1    2    0    0  0.00000000000E+00  0.00000000000E+00  0.14401667831E+04  0.39723401264E+04  0.37020812683E+04 0.  0.
        1    1    3    3  502    0 -0.11815841296E+04 -0.14218708319E+04  0.81897267369E+03  0.20220222448E+04  0.50400001928E-02 0. -1.
       -1    1    3    3    0  502  0.11815841296E+04  0.14218708319E+04  0.62119410944E+03  0.19503178817E+04  0.50400001928E-02 0.  1.
</event>
<event>
 5   0  0.2282000E-08  0.3706642E+04  0.7818609E-02  0.8066491E-01
       -1   -1    0    0    0  501  0.00000000000E+00  0.00000000000E+00  0.14130710676E+04  0.14130710677E+04  0.50400001928E-02 0.  1.
        1   -1    0    0  501    0  0.00000000000E+00  0.00000000000E+00 -0.24307330391E+04  0.24307330391E+04  0.50400001928E-02 0. -1.
    10030    2    1    2    0    0  0.00000000000E+00  0.00000000000E+00 -0.10176619714E+04  0.38438041068E+04  0.37066418930E+04 0.  0.
        5    1    3    3  502    0  0.24532540437E+02  0.96300772103E+03 -0.21507043448E+04  0.23565943616E+04  0.46999998093E+01 0. -1.
       -5    1    3    3    0  502 -0.24532540437E+02 -0.96300772103E+03  0.11330423734E+04  0.14872097452E+04  0.46999998093E+01 0.  1.
</event>
<event>
 5   0  0.2282000E-08  0.3702424E+04  0.7818609E-02  0.8067425E-01
       -1   -1    0    0    0  501  0.00000000000E+00  0.00000000000E+00  0.26424602529E+04  0.26424602529E+04  0.50400001928E-02 0. -1.
        1   -1    0    0  501    0  0.00000000000E+00  0.00000000000E+00 -0.12968918839E+04  0.12968918839E+04  0.50400001928E-02 0.  1.
    10030    2    1    2    0    0  0.00000000000E+00  0.00000000000E+00  0.13455683690E+04  0.39393521368E+04  0.37024236686E+04 0.  0.
        4    1    3    3  502    0  0.11814142320E+03 -0.11614634011E+04 -0.85582543871E+03  0.14475473817E+04  0.12699999809E+01 0.  1.
       -4    1    3    3    0  502 -0.11814142320E+03  0.11614634011E+04  0.22013938077E+04  0.24918047550E+04  0.12699999809E+01 0. -1.
</event>
<event>
 5   0  0.2282000E-08  0.3700206E+04  0.7818609E-02  0.8067916E-01
       -1   -1    0    0    0  501  0.00000000000E+00  0.00000000000E+00  0.14644926261E+04  0.14644926262E+04  0.50400001928E-02 0. -1.
        1   -1    0    0  501    0  0.00000000000E+00  0.00000000000E+00 -0.23372466183E+04  0.23372466183E+04  0.50400001928E-02 0.  1.
    10030    2    1    2    0    0  0.00000000000E+00  0.00000000000E+00 -0.87275399216E+03  0.38017392445E+04  0.37002056365E+04 0.  0.
        3    1    3    3  502    0 -0.68318787917E+03  0.89009141653E+03  0.10749980632E+04  0.15539077367E+04  0.10100000352E+00 0. -1.
       -3    1    3    3    0  502  0.68318787917E+03 -0.89009141653E+03 -0.19477520554E+04  0.22478315078E+04  0.10100000352E+00 0.  1.
</event>
<event>
 5   0  0.7254493E-08  0.3703326E+04  0.7818609E-02  0.8067225E-01
       -2   -1    0    0    0  501  0.00000000000E+00  0.00000000000E+00  0.16870522653E+04  0.16870522653E+04  0.25500000920E-02 0. -1.
        2   -1    0    0  501    0  0.00000000000E+00  0.00000000000E+00 -0.20323352359E+04  0.20323352359E+04  0.25500000920E-02 0.  1.
    10030    2    1    2    0    0  0.00000000000E+00  0.00000000000E+00 -0.34528297054E+03  0.37193875012E+04  0.37033259449E+04 0.  0.
        3    1    3    3  502    0  0.16495722768E+04 -0.57502125900E+03  0.44395735431E+03  0.18024528530E+04  0.10100000352E+00 0. -1.
       -3    1    3    3    0  502 -0.16495722768E+04  0.57502125900E+03 -0.78924032485E+03  0.19169346482E+04  0.10100000352E+00 0.  1.
</event>
<event>
 5   0  0.2282000E-08  0.3705180E+04  0.7818609E-02  0.8066815E-01
       -1   -1    0    0    0  501  0.00000000000E+00  0.00000000000E+00  0.32968826406E+04  0.32968826406E+04  0.50400001928E-02 0. -1.
        1   -1    0    0  501    0  0.00000000000E+00  0.00000000000E+00 -0.10410103128E+04  0.10410103128E+04  0.50400001928E-02 0.  1.
    10030    2    1    2    0    0  0.00000000000E+00  0.00000000000E+00  0.22558723278E+04  0.43378929534E+04  0.37051795254E+04 0.  0.
        4    1    3    3  502    0  0.11785852604E+04  0.90758139366E+03 -0.16485515254E+03  0.14966449266E+04  0.12699999809E+01 0.  1.
       -4    1    3    3    0  502 -0.11785852604E+04 -0.90758139366E+03  0.24207274804E+04  0.28412480267E+04  0.12699999809E+01 0. -1.
</event>
<event>
 5   0  0.7362817E-08  0.3723822E+04  0.7818609E-02  0.8062703E-01
        2   -1    0    0  501    0  0.00000000000E+00  0.00000000000E+00  0.23375994734E+04  0.23375994734E+04  0.25500000920E-02 0. -1.
       -2   -1    0    0    0  501  0.00000000000E+00  0.00000000000E+00 -0.14830222952E+04  0.14830222952E+04  0.25500000920E-02 0.  1.
    10030    2    1    2    0    0  0.00000000000E+00  0.00000000000E+00  0.85457717827E+03  0.38206217686E+04  0.37238217660E+04 0.  0.
        1    1    3    3  502    0 -0.51226545572E+02 -0.48947938715E+03 -0.14150786796E+04  0.14982195763E+04  0.50400001928E-02 0.  1.
       -1    1    3    3    0  502  0.51226545572E+02  0.48947938715E+03  0.22696558579E+04  0.23224021923E+04  0.50400001928E-02 0. -1.
</event>
<event>
 5   0  0.2282000E-08  0.3700567E+04  0.7818609E-02  0.8067836E-01
       -1   -1    0    0    0  501  0.00000000000E+00  0.00000000000E+00  0.10973513512E+04  0.10973513512E+04  0.50400001928E-02 0. -1.
        1   -1    0    0  501    0  0.00000000000E+00  0.00000000000E+00 -0.31198285973E+04  0.31198285973E+04  0.50400001928E-02 0.  1.
    10030    2    1    2    0    0  0.00000000000E+00  0.00000000000E+00 -0.20224772461E+04  0.42171799485E+04  0.37005665117E+04 0.  0.
        2    1    3    3  502    0  0.11641833691E+04  0.13531859208E+03  0.62039162793E+03  0.13260919313E+04  0.25500000920E-02 0. -1.
       -2    1    3    3    0  502 -0.11641833691E+04 -0.13531859208E+03 -0.26428688740E+04  0.28910880172E+04  0.25500000920E-02 0.  1.
</event>
<event>
 5   0  0.2282000E-08  0.3701585E+04  0.7818609E-02  0.8067611E-01
       -1   -1    0    0    0  501  0.00000000000E+00  0.00000000000E+00  0.17041732990E+04  0.17041732991E+04  0.50400001928E-02 0. -1.
        1   -1    0    0  501    0  0.00000000000E+00  0.00000000000E+00 -0.20100266389E+04  0.20100266389E+04  0.50400001928E-02 0.  1.
    10030    2    1    2    0    0  0.00000000000E+00  0.00000000000E+00 -0.30585333982E+03  0.37141999379E+04  0.37015854594E+04 0.  0.
        3    1    3    3  502    0  0.17883755901E+04  0.38518590798E+03 -0.43455786208E+03  0.18802914617E+04  0.10100000352E+00 0. -1.
       -3    1    3    3    0  502 -0.17883755901E+04 -0.38518590798E+03  0.12870452226E+03  0.18339084763E+04  0.10100000352E+00 0.  1.
</event>
<event>
 5   0  0.7203049E-08  0.3694125E+04  0.7818609E-02  0.8069265E-01
        2   -1    0    0  501    0  0.00000000000E+00  0.00000000000E+00  0.17686541245E+04  0.17686541245E+04  0.25500000920E-02 0.  1.
       -2   -1    0    0    0  501  0.00000000000E+00  0.00000000000E+00 -0.19289470768E+04  0.19289470768E+04  0.25500000920E-02 0. -1.
    10030    2    1    2    0    0  0.00000000000E+00  0.00000000000E+00 -0.16029295234E+03  0.36976012013E+04  0.36941251756E+04 0.  0.
        4    1    3    3  502    0  0.10264331748E+04 -0.15350987615E+04 -0.40798920758E+02  0.18470948635E+04  0.12699999809E+01 0.  1.
       -4    1    3    3    0  502 -0.10264331748E+04  0.15350987615E+04 -0.11949403158E+03  0.18505063378E+04  0.12699999809E+01 0. -1.
</event>
<event>
 5   0  0.2282000E-08  0.3700552E+04  0.7818609E-02  0.8067839E-01
        1   -1    0    0  501    0  0.00000000000E+00  0.00000000000E+00  0.15687981993E+04  0.15687981993E+04  0.50400001928E-02 0.  1.
       -1   -1    0    0    0  501  0.00000000000E+00  0.00000000000E+00 -0.21822573893E+04  0.21822573893E+04  0.50400001928E-02 0. -1.
    10030    2    1    2    0    0  0.00000000000E+00  0.00000000000E+00 -0.61345918994E+03  0.37510555886E+04  0.37005521009E+04 0.  0.
        4    1    3    3  502    0 -0.16745124941E+04  0.29095209721E+03 -0.10480619896E+04  0.19967675786E+04  0.12699999809E+01 0.  1.
       -4    1    3    3    0  502  0.16745124941E+04 -0.29095209721E+03  0.43460279962E+03  0.17542880101E+04  0.12699999809E+01 0. -1.
</event>
<event>
 5   0  0.7309833E-08  0.3706265E+04  0.7818609E-02  0.8066575E-01
        2   -1    0    0  501    0  0.00000000000E+00  0.00000000000E+00  0.16238101110E+04  0.16238101110E+04  0.25500000920E-02 0. -1.
       -2   -1    0    0    0  501  0.00000000000E+00  0.00000000000E+00 -0.21148406873E+04  0.21148406873E+04  0.25500000920E-02 0.  1.
    10030    2    1    2    0    0  0.00000000000E+00  0.00000000000E+00 -0.49103057629E+03  0.37386507984E+04  0.37062647997E+04 0.  0.
        2    1    3    3  502    0  0.67920561706E+03  0.50562939497E+03  0.14172568330E+04  0.16509386076E+04  0.25500000920E-02 0. -1.
       -2    1    3    3    0  502 -0.67920561706E+03 -0.50562939497E+03 -0.19082874093E+04  0.20877121908E+04  0.25500000920E-02 0.  1.
</event>
<event>
 5   0  0.2282000E-08  0.3699550E+04  0.7818609E-02  0.8068062E-01
        1   -1    0    0  501    0  0.00000000000E+00  0.00000000000E+00  0.25247613684E+04  0.25247613684E+04  0.50400001928E-02 0.  1.
       -1   -1    0    0    0  501  0.00000000000E+00  0.00000000000E+00 -0.13552436970E+04  0.13552436971E+04  0.50400001928E-02 0. -1.
    10030    2    1    2    0    0  0.00000000000E+00  0.00000000000E+00  0.11695176714E+04  0.38800050655E+04  0.36995496651E+04 0.  0.
        5    1    3    3  502    0  0.13590865079E+04 -0.12302890048E+04  0.32590472142E+03  0.18619782890E+04  0.46999998093E+01 0. -1.
       -5    1    3    3    0  502 -0.13590865079E+04  0.12302890048E+04  0.84361294997E+03  0.20180267765E+04  0.46999998093E+01 0.  1.
</event>
<event>
 5   0  0.7254493E-08  0.3700108E+04  0.7818609E-02  0.8067938E-01
       -2   -1    0    0    0  501  0.00000000000E+00  0.00000000000E+00  0.21035729148E+04  0.21035729148E+04  0.25500000920E-02 0. -1.
        2   -1    0    0  501    0  0.00000000000E+00  0.00000000000E+00 -0.16270886910E+04  0.16270886910E+04  0.25500000920E-02 0.  1.
    10030    2    1    2    0    0  0.00000000000E+00  0.00000000000E+00  0.47648422381E+03  0.37306616058E+04  0.37001079446E+04 0.  0.
        3    1    3    3  502    0 -0.20823252222E+03  0.67693761155E+03  0.19614761241E+04  0.20854241556E+04  0.10100000352E+00 0. -1.
       -3    1    3    3    0  502  0.20823252222E+03 -0.67693761155E+03 -0.14849919003E+04  0.16452374502E+04  0.10100000352E+00 0.  1.
</event>
<event>
 5   0  0.2282000E-08  0.3692088E+04  0.7818609E-02  0.8069717E-01
        1   -1    0    0  501    0  0.00000000000E+00  0.00000000000E+00  0.22501032747E+04  0.22501032747E+04  0.50400001928E-02 0. -1.
       -1   -1    0    0    0  501  0.00000000000E+00  0.00000000000E+00 -0.15145432966E+04  0.15145432966E+04  0.50400001928E-02 0.  1.
    10030    2    1    2    0    0  0.00000000000E+00  0.00000000000E+00  0.73555997809E+03  0.37646465713E+04  0.36920882066E+04 0.  0.
        2    1    3    3  502    0 -0.24585752834E+03 -0.12283897545E+04  0.17503367097E+04  0.21524557860E+04  0.25500000920E-02 0. -1.
       -2    1    3    3    0  502  0.24585752834E+03  0.12283897545E+04 -0.10147767316E+04  0.16121907853E+04  0.25500000920E-02 0.  1.
</event>
<event>
 5   0  0.7309833E-08  0.3697498E+04  0.7818609E-02  0.8068517E-01
        2   -1    0    0  501    0  0.00000000000E+00  0.00000000000E+00  0.13340542623E+04  0.13340542623E+04  0.25500000920E-02 0. -1.
       -2   -1    0    0    0  501  0.00000000000E+00  0.00000000000E+00 -0.25620188709E+04  0.25620188709E+04  0.25500000920E-02 0.  1.
    10030    2    1    2    0    0  0.00000000000E+00  0.00000000000E+00 -0.12279646087E+04  0.38960731332E+04  0.36974976375E+04 0.  0.
        2    1    3    3  502    0  0.35269354389E+03 -0.90334357694E+03 -0.22725058079E+04  0.24707701230E+04  0.25500000920E-02 0.  1.
       -2    1    3    3    0  502 -0.35269354389E+03  0.90334357694E+03  0.10445411993E+04  0.14253030102E+04  0.25500000920E-02 0. -1.
</event>
<event>
 5   0  0.7362817E-08  0.3696861E+04  0.7818609E-02  0.8068658E-01
       -2   -1    0    0    0  501  0.00000000000E+00  0.00000000000E+00  0.19946623400E+04  0.19946623400E+04  0.25500000920E-02 0.  1.
        2   -1    0    0  501    0  0.00000000000E+00  0.00000000000E+00 -0.17129194275E+04  0.17129194275E+04  0.25500000920E-02 0. -1.
    10030    2    1    2    0    0  0.00000000000E+00  0.00000000000E+00  0.28174291248E+03  0.37075817674E+04  0.36968613030E+04 0.  0.
        1    1    3    3  502    0 -0.16380291240E+04 -0.13365244661E+03 -0.70756849958E+03  0.17893170678E+04  0.50400001928E-02 0. -1.
       -1    1    3    3    0  502  0.16380291240E+04  0.13365244661E+03  0.98931141206E+03  0.19182646996E+04  0.50400001928E-02 0.  1.
</event>
<event>
 5   0  0.2282000E-08  0.3705342E+04  0.7818609E-02  0.8066779E-01
       -1   -1    0    0    0  501  0.00000000000E+00  0.00000000000E+00  0.18996843744E+04  0.18996843744E+04  0.50400001928E-02 0.  1.
        1   -1    0    0  501    0  0.00000000000E+00  0.00000000000E+00 -0.18068211507E+04  0.18068211507E+04  0.50400001928E-02 0. -1.
    10030    2    1    2    0    0  0.00000000000E+00  0.00000000000E+00  0.92863223705E+02  0.37065055251E+04  0.37053420395E+04 0.  0.
        3    1    3    3  502    0 -0.33245339055E+03 -0.28114423082E+02 -0.17765220892E+04  0.18075802669E+04  0.10100000352E+00 0. -1.
       -3    1    3    3    0  502  0.33245339055E+03  0.28114423082E+02  0.18693853130E+04  0.18989252582E+04  0.10100000352E+00 0.  1.
</event>
<event>
 5   0  0.2282000E-08  0.3698102E+04  0.7818609E-02  0.8068383E-01
       -1   -1    0    0    0  501  0.00000000000E+00  0.00000000000E+00  0.16675611260E+04  0.16675611260E+04  0.50400001928E-02 0.  1.
        1   -1    0    0  501    0  0.00000000000E+00  0.00000000000E+00 -0.20502933081E+04  0.20502933081E+04  0.50400001928E-02 0. -1.
    10030    2    1    2    0    0  0.00000000000E+00  0.00000000000E+00 -0.38273218204E+03  0.37178544341E+04  0.36981019010E+04 0.  0.
        4    1    3    3  502    0 -0.18100871179E+04  0.36108532005E+03 -0.30236333260E+03  0.18703537581E+04  0.12699999809E+01 0. -1.
       -4    1    3    3    0  502  0.18100871179E+04 -0.36108532005E+03 -0.80368849436E+02  0.18475006760E+04  0.12699999809E+01 0.  1.
</event>
<event>
 5   0  0.7309833E-08  0.3696375E+04  0.7818609E-02  0.8068766E-01
       -2   -1    0    0    0  501  0.00000000000E+00  0.00000000000E+00  0.15039508888E+04  0.15039508888E+04  0.25500000920E-02 0. -1.
        2   -1    0    0  501    0  0.00000000000E+00  0.00000000000E+00 -0.22712160243E+04  0.22712160243E+04  0.25500000920E-02 0.  1.
    10030    2    1    2    0    0  0.00000000000E+00  0.00000000000E+00 -0.76726513548E+03  0.37751669131E+04  0.36963751749E+04 0.  0.
        2    1    3    3  502    0 -0.16557416892E+04  0.76397045040E+03 -0.69115886854E+03  0.19500851192E+04  0.25500000920E-02 0.  1.
       -2    1    3    3    0  502  0.16557416892E+04 -0.76397045040E+03 -0.76106266937E+02  0.18250817939E+04  0.25500000920E-02 0. -1.
</event>
<event>
 5   0  0.7203049E-08  0.3696573E+04  0.7818609E-02  0.8068722E-01
       -2   -1    0    0    0  501  0.00000000000E+00  0.00000000000E+00  0.17784275881E+04  0.17784275881E+04  0.25500000920E-02 0.  1.
        2   -1    0    0  501    0  0.00000000000E+00  0.00000000000E+00 -0.19208895923E+04  0.19208895923E+04  0.25500000920E-02 0. -1.
    10030    2    1    2    0    0  0.00000000000E+00  0.00000000000E+00 -0.14246200422E+03  0.36993171804E+04  0.36965730316E+04 0.  0.
        4    1    3    3  502    0  0.66366426152E+02  0.15724330285E+04  0.89861757554E+03  0.18123093807E+04  0.12699999809E+01 0.  1.
       -4    1    3    3    0  502 -0.66366426152E+02 -0.15724330285E+04 -0.10410795798E+04  0.18870077996E+04  0.12699999809E+01 0. -1.
</event>
<event>
 5   0  0.7254493E-08  0.3681625E+04  0.7818609E-02  0.8072046E-01
       -2   -1    0    0    0  501  0.00000000000E+00  0.00000000000E+00  0.18114210221E+04  0.18114210221E+04  0.25500000920E-02 0. -1.
        2   -1    0    0  501    0  0.00000000000E+00  0.00000000000E+00 -0.18706805567E+04  0.18706805567E+04  0.25500000920E-02 0.  1.
    10030    2    1    2    0    0  0.00000000000E+00  0.00000000000E+00 -0.59259534559E+02  0.36821015788E+04  0.36816246881E+04 0.  0.
        3    1    3    3  502    0  0.87962188131E+03 -0.13448008199E+04 -0.92772502488E+03  0.18555046837E+04  0.10100000352E+00 0.  1.
       -3    1    3    3    0  502 -0.87962188131E+03  0.13448008199E+04  0.86846549032E+03  0.18265968951E+04  0.10100000352E+00 0. -1.
</event>
<event>
 5   0  0.7191801E-08  0.3710039E+04  0.7818609E-02  0.8065741E-01
       -2   -1    0    0    0  501  0.00000000000E+00  0.00000000000E+00  0.15345247025E+04  0.15345247025E+04  0.25500000920E-02 0.  1.
        2   -1    0    0  501    0  0.00000000000E+00  0.00000000000E+00 -0.22424509795E+04  0.22424509795E+04  0.25500000920E-02 0. -1.
    10030    2    1    2    0    0  0.00000000000E+00  0.00000000000E+00 -0.70792627701E+03  0.37769756819E+04  0.37100385022E+04 0.  0.
        5    1    3    3  502    0 -0.15809388877E+04  0.53360765775E+03  0.47119721589E+03  0.17338263481E+04  0.46999998093E+01 0.  1.
       -5    1    3    3    0  502  0.15809388877E+04 -0.53360765775E+03 -0.11791234929E+04  0.20431493339E+04  0.46999998093E+01 0. -1.
</event>
<event>
 5   0  0.2282000E-08  0.3699843E+04  0.7818609E-02  0.8067997E-01
        1   -1    0    0  501    0  0.00000000000E+00  0.00000000000E+00  0.20212983838E+04  0.20212983838E+04  0.50400001928E-02 0. -1.
       -1   -1    0    0    0  501  0.00000000000E+00  0.00000000000E+00 -0.16930746606E+04  0.16930746606E+04  0.50400001928E-02 0.  1.
    10030    2    1    2    0    0  0.00000000000E+00  0.00000000000E+00  0.32822372325E+03  0.37143730444E+04  0.36998427400E+04 0.  0.
        4    1    3    3  502    0  0.12685290398E+03 -0.37509211026E+03  0.19782564265E+04  0.20174949448E+04  0.12699999809E+01 0. -1.
       -4    1    3    3    0  502 -0.12685290398E+03  0.37509211026E+03 -0.16500327032E+04  0.16968780996E+04  0.12699999809E+01 0.  1.
</event>
<event>
 5   0  0.2282000E-08  0.3698950E+04  0.7818609E-02  0.8068195E-01
        1   -1    0    0  501    0  0.00000000000E+00  0.00000000000E+00  0.24863994194E+04  0.24863994194E+04  0.50400001928E-02 0. -1.
       -1   -1    0    0    0  501  0.00000000000E+00  0.00000000000E+00 -0.13757071511E+04  0.13757071511E+04  0.50400001928E-02 0.  1.
    10030    2    1    2    0    0  0.00000000000E+00  0.00000000000E+00  0.11106922682E+04  0.38621065705E+04  0.36989498303E+04 0.  0.
        5    1    3    3  502    0  0.34011187763E+03 -0.16466283731E+04  0.13596992804E+04  0.21623749239E+04  0.46999998093E+01 0. -1.
       -5    1    3    3    0  502 -0.34011187763E+03  0.16466283731E+04 -0.24900701211E+03  0.16997316466E+04  0.46999998093E+01 0.  1.
</event>
<event>
 5   0  0.2282000E-08  0.3663967E+04  0.7818609E-02  0.8075994E-01
       -1   -1    0    0    0  501  0.00000000000E+00  0.00000000000E+00  0.12966020920E+04  0.12966020920E+04  0.50400001928E-02 0. -1.
        1   -1    0    0  501    0  0.00000000000E+00  0.00000000000E+00 -0.25884296656E+04  0.25884296656E+04  0.50400001928E-02 0.  1.
    10030    2    1    2    0    0  0.00000000000E+00  0.00000000000E+00 -0.12918275736E+04  0.38850317576E+04  0.36639668772E+04 0.  0.
        1    1    3    3  502    0 -0.13958620419E+04 -0.54735940649E+03  0.47027697009E+03  0.15713667899E+04  0.50400001928E-02 0. -1.
       -1    1    3    3    0  502  0.13958620419E+04  0.54735940649E+03 -0.17621045437E+04  0.23136649677E+04  0.50400001928E-02 0.  1.
</event>
<event>
 5   0  0.7203049E-08  0.3701863E+04  0.7818609E-02  0.8067549E-01
        2   -1    0    0  501    0  0.00000000000E+00  0.00000000000E+00  0.30268852768E+04  0.30268852768E+04  0.25500000920E-02 0.  1.
       -2   -1    0    0    0  501  0.00000000000E+00  0.00000000000E+00 -0.11318394499E+04  0.11318394499E+04  0.25500000920E-02 0. -1.
    10030    2    1    2    0    0  0.00000000000E+00  0.00000000000E+00  0.18950458269E+04  0.41587247267E+04  0.37018634046E+04 0.  0.
        4    1    3    3  502    0  0.12120400719E+04 -0.96189881377E+03  0.20885796992E+04  0.25993186101E+04  0.12699999809E+01 0.  1.
       -4    1    3    3    0  502 -0.12120400719E+04  0.96189881377E+03 -0.19353387229E+03  0.15594061166E+04  0.12699999809E+01 0. -1.
</event>
<event>
 5   0  0.7203049E-08  0.3697245E+04  0.7818609E-02  0.8068573E-01
        2   -1    0    0  501    0  0.00000000000E+00  0.00000000000E+00  0.27956603871E+04  0.27956603871E+04  0.25500000920E-02 0.  1.
       -2   -1    0    0    0  501  0.00000000000E+00  0.00000000000E+00 -0.12223966701E+04  0.12223966701E+04  0.25500000920E-02 0. -1.
    10030    2    1    2    0    0  0.00000000000E+00  0.00000000000E+00  0.15732637169E+04  0.40180570572E+04  0.36972454330E+04 0.  0.
        4    1    3    3  502    0 -0.12014646696E+04  0.42006899657E+03 -0.67038203516E+03  0.14385371042E+04  0.12699999809E+01 0. -1.
       -4    1    3    3    0  502  0.12014646696E+04 -0.42006899657E+03  0.22436457521E+04  0.25795199530E+04  0.12699999809E+01 0.  1.
</event>
<event>
 5   0  0.7309833E-08  0.3699453E+04  0.7818609E-02  0.8068083E-01
       -2   -1    0    0    0  501  0.00000000000E+00  0.00000000000E+00  0.15482922895E+04  0.15482922895E+04  0.25500000920E-02 0.  1.
        2   -1    0    0  501    0  0.00000000000E+00  0.00000000000E+00 -0.22098468357E+04  0.22098468357E+04  0.25500000920E-02 0. -1.
    10030    2    1    2    0    0  0.00000000000E+00  0.00000000000E+00 -0.66155454620E+03  0.37581391251E+04  0.36994533740E+04 0.  0.
        2    1    3    3  502    0  0.10789410449E+04 -0.71734165859E+03  0.10103147230E+04  0.16429938141E+04  0.25500000920E-02 0.  1.
       -2    1    3    3    0  502 -0.10789410449E+04  0.71734165859E+03 -0.16718692692E+04  0.21151453110E+04  0.25500000920E-02 0. -1.
</event>
<event>
 5   0  0.2282000E-08  0.3694333E+04  0.7818609E-02  0.8069219E-01
       -1   -1    0    0    0  501  0.00000000000E+00  0.00000000000E+00  0.21072851365E+04  0.21072851365E+04  0.50400001928E-02 0.  1.
        1   -1    0    0  501    0  0.00000000000E+00  0.00000000000E+00 -0.16191564249E+04  0.16191564249E+04  0.50400001928E-02 0. -1.
    10030    2    1    2    0    0  0.00000000000E+00  0.00000000000E+00  0.48812871162E+03  0.37264415614E+04  0.36943331024E+04 0.  0.
        2    1    3    3  502    0  0.87767757165E+03 -0.10530553223E+04 -0.10047511848E+04  0.16996377187E+04  0.25500000920E-02 0. -1.
       -2    1    3    3    0  502 -0.87767757165E+03  0.10530553223E+04  0.14928798964E+04  0.20268038427E+04  0.25500000920E-02 0.  1.
</event>
<event>
 5   0  0.2282000E-08  0.3699321E+04  0.7818609E-02  0.8068112E-01
       -1   -1    0    0    0  501  0.00000000000E+00  0.00000000000E+00  0.21641450884E+04  0.21641450884E+04  0.50400001928E-02 0. -1.
        1   -1    0    0  501    0  0.00000000000E+00  0.00000000000E+00 -0.15808751568E+04  0.15808751568E+04  0.50400001928E-02 0.  1.
    10030    2    1    2    0    0  0.00000000000E+00  0.00000000000E+00  0.58326993165E+03  0.37450202452E+04  0.36993205894E+04 0.  0.
        3    1    3    3  502    0 -0.48109846474E+03 -0.12041497547E+04  0.16269483905E+04  0.20804791372E+04  0.10100000352E+00 0. -1.
       -3    1    3    3    0  502  0.48109846474E+03  0.12041497547E+04 -0.10436784589E+04  0.16645411080E+04  0.10100000352E+00 0.  1.
</event>
<event>
 5   0  0.7191801E-08  0.3693061E+04  0.7818609E-02  0.8069501E-01
        2   -1    0    0  501    0  0.00000000000E+00  0.00000000000E+00  0.17391108858E+04  0.17391108858E+04  0.25500000920E-02 0. -1.
       -2   -1    0    0    0  501  0.00000000000E+00  0.00000000000E+00 -0.19605847237E+04  0.19605847238E+04  0.25500000920E-02 0.  1.
    10030    2    1    2    0    0  0.00000000000E+00  0.00000000000E+00 -0.22147383794E+03  0.36996956096E+04  0.36930606470E+04 0.  0.
        5    1    3    3  502    0 -0.17866273073E+04  0.20884641740E+03 -0.52861723354E+03  0.18748632565E+04  0.46999998093E+01 0.  1.
       -5    1    3    3    0  502  0.17866273073E+04 -0.20884641740E+03  0.30714339560E+03  0.18248323530E+04  0.46999998093E+01 0. -1.
</event>
<event>
 5   0  0.7362817E-08  0.3615029E+04  0.7818609E-02  0.8087058E-01
       -2   -1    0    0    0  501  0.00000000000E+00  0.00000000000E+00  0.22199241455E+04  0.22199241455E+04  0.25500000920E-02 0.  1.
        2   -1    0    0  501    0  0.00000000000E+00  0.00000000000E+00 -0.14717204548E+04  0.14717204548E+04  0.25500000920E-02 0. -1.
    10030    2    1    2    0    0  0.00000000000E+00  0.00000000000E+00  0.74820369065E+03  0.36916446003E+04  0.36150285050E+04 0.  0.
        1    1    3    3  502    0  0.17629846950E+04 -0.20052971277E+03  0.22151929850E+02  0.17744908871E+04  0.50400001928E-02 0. -1.
       -1    1    3    3    0  502 -0.17629846950E+04  0.20052971277E+03  0.72605176080E+03  0.19171537132E+04  0.50400001928E-02 0.  1.
</event>
<event>
 5   0  0.2282000E-08  0.3700081E+04  0.7818609E-02  0.8067944E-01
        1   -1    0    0  501    0  0.00000000000E+00  0.00000000000E+00  0.30407286380E+04  0.30407286380E+04  0.50400001928E-02 0. -1.
       -1   -1    0    0    0  501  0.00000000000E+00  0.00000000000E+00 -0.11256019585E+04  0.11256019585E+04  0.50400001928E-02 0.  1.
    10030    2    1    2    0    0  0.00000000000E+00  0.00000000000E+00  0.19151266796E+04  0.41663305965E+04  0.37000811397E+04 0.  0.
        4    1    3    3  502    0  0.52909456354E+03 -0.61060549220E+03  0.28315739519E+04  0.29445870309E+04  0.12699999809E+01 0. -1.
       -4    1    3    3    0  502 -0.52909456354E+03  0.61060549220E+03 -0.91644727236E+03  0.12217435656E+04  0.12699999809E+01 0.  1.
</event>
<event>
 5   0  0.2282000E-08  0.3695476E+04  0.7818609E-02  0.8068965E-01
        1   -1    0    0  501    0  0.00000000000E+00  0.00000000000E+00  0.22118722898E+04  0.22118722898E+04  0.50400001928E-02 0.  1.
       -1   -1    0    0    0  501  0.00000000000E+00  0.00000000000E+00 -0.15435500408E+04  0.15435500408E+04  0.50400001928E-02 0. -1.
    10030    2    1    2    0    0  0.00000000000E+00  0.00000000000E+00  0.66832224898E+03  0.37554223306E+04  0.36954759169E+04 0.  0.
        4    1    3    3  502    0  0.18093366530E+04  0.17584093991E+03  0.67045952026E+03  0.19375594807E+04  0.12699999809E+01 0.  1.
       -4    1    3    3    0  502 -0.18093366530E+04 -0.17584093991E+03 -0.21372712753E+01  0.18178628499E+04  0.12699999809E+01 0. -1.
</event>
<event>
 5   0  0.2282000E-08  0.3687025E+04  0.7818609E-02  0.8070843E-01
        1   -1    0    0  501    0  0.00000000000E+00  0.00000000000E+00  0.26339683873E+04  0.26339683873E+04  0.50400001928E-02 0. -1.
       -1   -1    0    0    0  501  0.00000000000E+00  0.00000000000E+00 -0.12902733635E+04  0.12902733635E+04  0.50400001928E-02 0.  1.
    10030    2    1    2    0    0  0.00000000000E+00  0.00000000000E+00  0.13436950238E+04  0.39242417509E+04  0.36870254952E+04 0.  0.
        5    1    3    3  502    0  0.59882460782E+03 -0.14975275286E+04 -0.27854000250E+03  0.16366997993E+04  0.46999998093E+01 0.  1.
       -5    1    3    3    0  502 -0.59882460782E+03  0.14975275286E+04  0.16222350263E+04  0.22875419516E+04  0.46999998093E+01 0. -1.
</event>
<event>
 5   0  0.7203049E-08  0.3701905E+04  0.7818609E-02  0.8067540E-01
        2   -1    0    0  501    0  0.00000000000E+00  0.00000000000E+00  0.17515734937E+04  0.17515734937E+04  0.25500000920E-02 0. -1.
       -2   -1    0    0    0  501  0.00000000000E+00  0.00000000000E+00 -0.19559698991E+04  0.19559698991E+04  0.25500000920E-02 0.  1.
    10030    2    1    2    0    0  0.00000000000E+00  0.00000000000E+00 -0.20439640542E+03  0.37075433928E+04  0.37019049311E+04 0.  0.
        4    1    3    3  502    0  0.33656112486E+03 -0.96003517104E+03  0.14464695718E+04  0.17683938349E+04  0.12699999809E+01 0. -1.
       -4    1    3    3    0  502 -0.33656112486E+03  0.96003517104E+03 -0.16508659772E+04  0.19391495579E+04  0.12699999809E+01 0.  1.
</event>
<event>
 5   0  0.2282000E-08  0.3704103E+04  0.7818609E-02  0.8067053E-01
        3   -1    0    0  501    0  0.00000000000E+00  0.00000000000E+00  0.14775224898E+04  0.14775224933E+04  0.10100000352E+00 0.  1.
       -3   -1    0    0    0  501  0.00000000000E+00  0.00000000000E+00 -0.23215176519E+04  0.23215176541E+04  0.10100000352E+00 0. -1.
    10030    2    1    2    0    0  0.00000000000E+00  0.00000000000E+00 -0.84399516205E+03  0.37990401473E+04  0.37041028883E+04 0.  0.
        2    1    3    3  502    0 -0.24066229922E+03 -0.89478674929E+03  0.12227031394E+04  0.15341331872E+04  0.25500000920E-02 0.  1.
       -2    1    3    3    0  502  0.24066229922E+03  0.89478674929E+03 -0.20666983014E+04  0.22649069601E+04  0.25500000920E-02 0. -1.
</event>
<event>
 5   0  0.7254493E-08  0.3699265E+04  0.7818609E-02  0.8068125E-01
        2   -1    0    0  501    0  0.00000000000E+00  0.00000000000E+00  0.20274325701E+04  0.20274325701E+04  0.25500000920E-02 0.  1.
       -2   -1    0    0    0  501  0.00000000000E+00  0.00000000000E+00 -0.16874251384E+04  0.16874251384E+04  0.25500000920E-02 0. -1.
    10030    2    1    2    0    0  0.00000000000E+00  0.00000000000E+00  0.34000743174E+03  0.37148577085E+04  0.36992651622E+04 0.  0.
        3    1    3    3  502    0  0.14600590894E+04  0.80457083447E+03 -0.63464384983E+03  0.17837823854E+04  0.10100000352E+00 0. -1.
       -3    1    3    3    0  502 -0.14600590894E+04 -0.80457083447E+03  0.97465128158E+03  0.19310753230E+04  0.10100000352E+00 0.  1.
</event>
<event>
 5   0  0.7254493E-08  0.3700600E+04  0.7818609E-02  0.8067829E-01
        2   -1    0    0  501    0  0.00000000000E+00  0.00000000000E+00  0.23738629327E+04  0.23738629327E+04  0.25500000920E-02 0. -1.
       -2   -1    0    0    0  501  0.00000000000E+00  0.00000000000E+00 -0.14422108049E+04  0.14422108049E+04  0.25500000920E-02 0.  1.
    10030    2    1    2    0    0  0.00000000000E+00  0.00000000000E+00  0.93165212781E+03  0.38160737376E+04  0.37006003680E+04 0.  0.
        3    1    3    3  502    0 -0.12779209994E+04  0.45461543695E+03  0.17636090387E+04  0.22248762050E+04  0.10100000352E+00 0. -1.
       -3    1    3    3    0  502  0.12779209994E+04 -0.45461543695E+03 -0.83195691085E+03  0.15911975326E+04  0.10100000352E+00 0.  1.
</event>
<event>
 5   0  0.2282000E-08  0.3700040E+04  0.7818609E-02  0.8067953E-01
       -1   -1    0    0    0  501  0.00000000000E+00  0.00000000000E+00  0.14942004261E+04  0.14942004261E+04  0.50400001928E-02 0. -1.
        1   -1    0    0  501    0  0.00000000000E+00  0.00000000000E+00 -0.22905721261E+04  0.22905721261E+04  0.50400001928E-02 0.  1.
    10030    2    1    2    0    0  0.00000000000E+00  0.00000000000E+00 -0.79637169998E+03  0.37847725522E+04  0.37000399170E+04 0.  0.
        5    1    3    3  502    0 -0.57595756052E+03  0.60068934871E+03  0.12919221489E+04  0.15367627448E+04  0.46999998093E+01 0. -1.
       -5    1    3    3    0  502  0.57595756052E+03 -0.60068934871E+03 -0.20882938488E+04  0.22480098074E+04  0.46999998093E+01 0.  1.
</event>
<event>
 5   0  0.7254493E-08  0.3700040E+04  0.7818609E-02  0.8067953E-01
        2   -1    0    0  501    0  0.00000000000E+00  0.00000000000E+00  0.17647330128E+04  0.17647330128E+04  0.25500000920E-02 0.  1.
       -2   -1    0    0    0  501  0.00000000000E+00  0.00000000000E+00 -0.19394287068E+04  0.19394287068E+04  0.25500000920E-02 0. -1.
    10030    2    1    2    0    0  0.00000000000E+00  0.00000000000E+00 -0.17469569399E+03  0.37041617196E+04  0.37000399267E+04 0.  0.
        3    1    3    3  502    0 -0.11599439532E+04 -0.10625692274E+04 -0.10621113690E+04  0.18980526620E+04  0.10100000352E+00 0.  1.
       -3    1    3    3    0  502  0.11599439532E+04  0.10625692274E+04  0.88741567500E+03  0.18061090576E+04  0.10100000352E+00 0. -1.
</event>
<event>
 5   0  0.7309833E-08  0.3694901E+04  0.7818609E-02  0.8069093E-01
       -2   -1    0    0    0  501  0.00000000000E+00  0.00000000000E+00  0.12449925743E+04  0.12449925743E+04  0.25500000920E-02 0.  1.
        2   -1    0    0  501    0  0.00000000000E+00  0.00000000000E+00 -0.27414404183E+04  0.27414404183E+04  0.25500000920E-02 0. -1.
    10030    2    1    2    0    0  0.00000000000E+00  0.00000000000E+00 -0.14964478439E+04  0.39864329926E+04  0.36949007909E+04 0.  0.
        2    1    3    3  502    0  0.44800617646E+03 -0.69893449460E+03 -0.25288535666E+04  0.26616384659E+04  0.25500000920E-02 0. -1.
       -2    1    3    3    0  502 -0.44800617646E+03  0.69893449460E+03  0.10324057226E+04  0.13247945267E+04  0.25500000920E-02 0.  1.
</event>
<event>
 5   0  0.7362817E-08  0.3698150E+04  0.7818609E-02  0.8068372E-01
       -2   -1    0    0    0  501  0.00000000000E+00  0.00000000000E+00  0.25344979552E+04  0.25344979552E+04  0.25500000920E-02 0.  1.
        2   -1    0    0  501    0  0.00000000000E+00  0.00000000000E+00 -0.13490158834E+04  0.13490158834E+04  0.25500000920E-02 0. -1.
    10030    2    1    2    0    0  0.00000000000E+00  0.00000000000E+00  0.11854820718E+04  0.38835138387E+04  0.36981498067E+04 0.  0.
        1    1    3    3  502    0 -0.14313101089E+04  0.48778722902E+03 -0.52478620518E+03  0.16006203703E+04  0.50400001928E-02 0. -1.
       -1    1    3    3    0  502  0.14313101089E+04 -0.48778722902E+03  0.17102682770E+04  0.22828934683E+04  0.50400001928E-02 0.  1.
</event>
<event>
 5   0  0.2282000E-08  0.3691371E+04  0.7818609E-02  0.8069877E-01
        1   -1    0    0  501    0  0.00000000000E+00  0.00000000000E+00  0.15124799019E+04  0.15124799019E+04  0.50400001928E-02 0.  1.
       -1   -1    0    0    0  501  0.00000000000E+00  0.00000000000E+00 -0.22522976386E+04  0.22522976386E+04  0.50400001928E-02 0. -1.
    10030    2    1    2    0    0  0.00000000000E+00  0.00000000000E+00 -0.73981773666E+03  0.37647775405E+04  0.36913709711E+04 0.  0.
        3    1    3    3  502    0  0.61599402062E+03  0.69294600776E+03 -0.19975561969E+04  0.22022383098E+04  0.10100000352E+00 0. -1.
       -3    1    3    3    0  502 -0.61599402062E+03 -0.69294600776E+03  0.12577384602E+04  0.15625392307E+04  0.10100000352E+00 0.  1.
</event>
<event>
 5   0  0.7203049E-08  0.3688763E+04  0.7818609E-02  0.8070457E-01
       -2   -1    0    0    0  501  0.00000000000E+00  0.00000000000E+00  0.18576593918E+04  0.18576593918E+04  0.25500000920E-02 0. -1.
        2   -1    0    0  501    0  0.00000000000E+00  0.00000000000E+00 -0.18311989875E+04  0.18311989875E+04  0.25500000920E-02 0.  1.
    10030    2    1    2    0    0  0.00000000000E+00  0.00000000000E+00  0.26460404308E+02  0.36888583793E+04  0.36887634771E+04 0.  0.
        4    1    3    3  502    0  0.89432371755E+03  0.21378417139E+03 -0.15856304336E+04  0.18329604656E+04  0.12699999809E+01 0.  1.
       -4    1    3    3    0  502 -0.89432371755E+03 -0.21378417139E+03  0.16120908379E+04  0.18558979137E+04  0.12699999809E+01 0. -1.
</event>
<event>
 5   0  0.7203049E-08  0.3704396E+04  0.7818609E-02  0.8066988E-01
        2   -1    0    0  501    0  0.00000000000E+00  0.00000000000E+00  0.12553544504E+04  0.12553544504E+04  0.25500000920E-02 0.  1.
       -2   -1    0    0    0  501  0.00000000000E+00  0.00000000000E+00 -0.27328032301E+04  0.27328032301E+04  0.25500000920E-02 0. -1.
    10030    2    1    2    0    0  0.00000000000E+00  0.00000000000E+00 -0.14774487797E+04  0.39881576805E+04  0.37043956036E+04 0.  0.
        4    1    3    3  502    0 -0.13734891361E+04 -0.12336417280E+04 -0.57798680562E+03  0.19345321606E+04  0.12699999809E+01 0. -1.
       -4    1    3    3    0  502  0.13734891361E+04  0.12336417280E+04 -0.89946197405E+03  0.20536255198E+04  0.12699999809E+01 0.  1.
</event>
<event>
 5   0  0.7191801E-08  0.3671749E+04  0.7818609E-02  0.8074252E-01
       -2   -1    0    0    0  501  0.00000000000E+00  0.00000000000E+00  0.19116107143E+04  0.19116107143E+04  0.25500000920E-02 0. -1.
        2   -1    0    0  501    0  0.00000000000E+00  0.00000000000E+00 -0.17631390807E+04  0.17631390807E+04  0.25500000920E-02 0.  1.
    10030    2    1    2    0    0  0.00000000000E+00  0.00000000000E+00  0.14847163363E+03  0.36747497950E+04  0.36717492057E+04 0.  0.
        5    1    3    3  502    0  0.16866338944E+04 -0.50546421337E+03  0.59445430882E+03  0.18583933868E+04  0.46999998093E+01 0. -1.
       -5    1    3    3    0  502 -0.16866338944E+04  0.50546421337E+03 -0.44598267519E+03  0.18163564082E+04  0.46999998093E+01 0.  1.
</event>
<event>
 5   0  0.2282000E-08  0.3701162E+04  0.7818609E-02  0.8067704E-01
        1   -1    0    0  501    0  0.00000000000E+00  0.00000000000E+00  0.15760024316E+04  0.15760024316E+04  0.50400001928E-02 0.  1.
       -1   -1    0    0    0  501  0.00000000000E+00  0.00000000000E+00 -0.21729984586E+04  0.21729984587E+04  0.50400001928E-02 0. -1.
    10030    2    1    2    0    0  0.00000000000E+00  0.00000000000E+00 -0.59699602709E+03  0.37490008902E+04  0.37011624415E+04 0.  0.
        4    1    3    3  502    0 -0.77153993329E+03 -0.86870534272E+03 -0.17575064858E+04  0.21068349489E+04  0.12699999809E+01 0. -1.
       -4    1    3    3    0  502  0.77153993329E+03  0.86870534272E+03  0.11605104588E+04  0.16421659413E+04  0.12699999809E+01 0.  1.
</event>
<event>
 5   0  0.2282000E-08  0.3701228E+04  0.7818609E-02  0.8067690E-01
       -1   -1    0    0    0  501  0.00000000000E+00  0.00000000000E+00  0.22756004780E+04  0.22756004780E+04  0.50400001928E-02 0.  1.
        1   -1    0    0  501    0  0.00000000000E+00  0.00000000000E+00 -0.15049969216E+04  0.15049969216E+04  0.50400001928E-02 0. -1.
    10030    2    1    2    0    0  0.00000000000E+00  0.00000000000E+00  0.77060355638E+03  0.37805973996E+04  0.37012277499E+04 0.  0.
        2    1    3    3  502    0 -0.14035698033E+04  0.48835692158E+03  0.15117981686E+04  0.21199137666E+04  0.25500000920E-02 0.  1.
       -2    1    3    3    0  502  0.14035698033E+04 -0.48835692158E+03 -0.74119461218E+03  0.16606836329E+04  0.25500000920E-02 0. -1.
</event>
<event>
 5   0  0.7254493E-08  0.3699107E+04  0.7818609E-02  0.8068160E-01
        2   -1    0    0  501    0  0.00000000000E+00  0.00000000000E+00  0.36163254676E+04  0.36163254676E+04  0.25500000920E-02 0. -1.
       -2   -1    0    0    0  501  0.00000000000E+00  0.00000000000E+00 -0.94594581039E+03  0.94594581040E+03  0.25500000920E-02 0.  1.
    10030    2    1    2    0    0  0.00000000000E+00  0.00000000000E+00  0.26703796572E+04  0.45622712780E+04  0.36991068787E+04 0.  0.
        3    1    3    3  502    0 -0.42314386385E+03 -0.12084120886E+04 -0.31100676573E+03  0.13175870840E+04  0.10100000352E+00 0.  1.
       -3    1    3    3    0  502  0.42314386385E+03  0.12084120886E+04  0.29813864229E+04  0.32446841939E+04  0.10100000352E+00 0. -1.
</event>
<event>
 5   0  0.7203049E-08  0.3724530E+04  0.7818609E-02  0.8062547E-01
       -2   -1    0    0    0  501  0.00000000000E+00  0.00000000000E+00  0.13783596969E+04  0.13783596969E+04  0.25500000920E-02 0. -1.
        2   -1    0    0  501    0  0.00000000000E+00  0.00000000000E+00 -0.25160564671E+04  0.25160564671E+04  0.25500000920E-02 0.  1.
    10030    2    1    2    0    0  0.00000000000E+00  0.00000000000E+00 -0.11376967702E+04  0.38944161640E+04  0.37245299459E+04 0.  0.
        4    1    3    3  502    0  0.14464442919E+03  0.12808624975E+04  0.83651840792E+03  0.15366507111E+04  0.12699999809E+01 0. -1.
       -4    1    3    3    0  502 -0.14464442919E+03 -0.12808624975E+04 -0.19742151782E+04  0.23577654529E+04  0.12699999809E+01 0.  1.
</event>
<event>
 5   0  0.7203049E-08  0.3724429E+04  0.7818609E-02  0.8062570E-01
        2   -1    0    0  501    0  0.00000000000E+00  0.00000000000E+00  0.15332282101E+04  0.15332282101E+04  0.25500000920E-02 0.  1.
       -2   -1    0    0    0  501  0.00000000000E+00  0.00000000000E+00 -0.22617915503E+04  0.22617915503E+04  0.25500000920E-02 0. -1.
    10030    2    1    2    0    0  0.00000000000E+00  0.00000000000E+00 -0.72856334027E+03  0.37950197604E+04  0.37244288745E+04 0.  0.
        4    1    3    3  502    0 -0.11546426095E+04 -0.66967047287E+03 -0.16874244062E+04  0.21515252352E+04  0.12699999809E+01 0. -1.
       -4    1    3    3    0  502  0.11546426095E+04  0.66967047287E+03  0.95886106596E+03  0.16434945253E+04  0.12699999809E+01 0.  1.
</event>
<event>
 5   0  0.2282000E-08  0.3701233E+04  0.7818609E-02  0.8067689E-01
       -1   -1    0    0    0  501  0.00000000000E+00  0.00000000000E+00  0.13250273979E+04  0.13250273979E+04  0.50400001928E-02 0. -1.
        1   -1    0    0  501    0  0.00000000000E+00  0.00000000000E+00 -0.25846879111E+04  0.25846879111E+04  0.50400001928E-02 0.  1.
    10030    2    1    2    0    0  0.00000000000E+00  0.00000000000E+00 -0.12596605132E+04  0.39097153090E+04  0.37012334686E+04 0.  0.
        3    1    3    3  502    0 -0.50842181503E+02  0.23703655784E+03 -0.25678420769E+04  0.25792603977E+04  0.10100000352E+00 0.  1.
       -3    1    3    3    0  502  0.50842181503E+02 -0.23703655784E+03  0.13081815637E+04  0.13304549113E+04  0.10100000352E+00 0. -1.
</event>
<event>
 5   0  0.2282000E-08  0.3704762E+04  0.7818609E-02  0.8066907E-01
       -1   -1    0    0    0  501  0.00000000000E+00  0.00000000000E+00  0.14241472210E+04  0.14241472210E+04  0.50400001928E-02 0.  1.
        1   -1    0    0  501    0  0.00000000000E+00  0.00000000000E+00 -0.24093821454E+04  0.24093821454E+04  0.50400001928E-02 0. -1.
    10030    2    1    2    0    0  0.00000000000E+00  0.00000000000E+00 -0.98523492440E+03  0.38335293664E+04  0.37047617395E+04 0.  0.
        1    1    3    3  502    0  0.91623570850E+03  0.79559583317E+03 -0.19408542558E+04  0.22889682928E+04  0.50400001928E-02 0. -1.
       -1    1    3    3    0  502 -0.91623570850E+03 -0.79559583317E+03  0.95561933142E+03  0.15445610735E+04  0.50400001928E-02 0.  1.
</event>
<event>
 5   0  0.2282000E-08  0.3680341E+04  0.7818609E-02  0.8072332E-01
        1   -1    0    0  501    0  0.00000000000E+00  0.00000000000E+00  0.12984226688E+04  0.12984226688E+04  0.50400001928E-02 0. -1.
       -1   -1    0    0    0  501  0.00000000000E+00  0.00000000000E+00 -0.26079550600E+04  0.26079550600E+04  0.50400001928E-02 0.  1.
    10030    2    1    2    0    0  0.00000000000E+00  0.00000000000E+00 -0.13095323912E+04  0.39063777288E+04  0.36803412717E+04 0.  0.
        4    1    3    3  502    0 -0.63883619725E+03  0.60131665619E+03  0.10621505928E+04  0.13776279986E+04  0.12699999809E+01 0. -1.
       -4    1    3    3    0  502  0.63883619725E+03 -0.60131665619E+03 -0.23716829840E+04  0.25287497301E+04  0.12699999809E+01 0.  1.
</event>
<event>
 5   0  0.7362817E-08  0.3692965E+04  0.7818609E-02  0.8069523E-01
        2   -1    0    0  501    0  0.00000000000E+00  0.00000000000E+00  0.27416220290E+04  0.27416220290E+04  0.25500000920E-02 0.  1.
       -2   -1    0    0    0  501  0.00000000000E+00  0.00000000000E+00 -0.12436062612E+04  0.12436062612E+04  0.25500000920E-02 0. -1.
    10030    2    1    2    0    0  0.00000000000E+00  0.00000000000E+00  0.14980157678E+04  0.39852282901E+04  0.36929653781E+04 0.  0.
        1    1    3    3  502    0 -0.12449109067E+04 -0.13608089649E+04  0.84488826144E+03  0.20286548200E+04  0.50400001928E-02 0. -1.
       -1    1    3    3    0  502  0.12449109067E+04  0.13608089649E+04  0.65312750639E+03  0.19565734701E+04  0.50400001928E-02 0.  1.
</event>
<event>
 5   0  0.7203049E-08  0.3699803E+04  0.7818609E-02  0.8068005E-01
       -2   -1    0    0    0  501  0.00000000000E+00  0.00000000000E+00  0.24309369092E+04  0.24309369092E+04  0.25500000920E-02 0.  1.
        2   -1    0    0  501    0  0.00000000000E+00  0.00000000000E+00 -0.14077435940E+04  0.14077435940E+04  0.25500000920E-02 0. -1.
    10030    2    1    2    0    0  0.00000000000E+00  0.00000000000E+00  0.10231933152E+04  0.38386805032E+04  0.36998031631E+04 0.  0.
        4    1    3    3  502    0  0.13878624395E+04  0.10212012455E+04  0.12100059643E+04  0.21054999837E+04  0.12699999809E+01 0.  1.
       -4    1    3    3    0  502 -0.13878624395E+04 -0.10212012455E+04 -0.18681264909E+03  0.17331805196E+04  0.12699999809E+01 0. -1.
</event>
<event>
 5   0  0.2282000E-08  0.3694288E+04  0.7818609E-02  0.8069229E-01
       -1   -1    0    0    0  501  0.00000000000E+00  0.00000000000E+00  0.15251474947E+04  0.15251474947E+04  0.50400001928E-02 0.  1.
        1   -1    0    0  501    0  0.00000000000E+00  0.00000000000E+00 -0.22371217337E+04  0.22371217337E+04  0.50400001928E-02 0. -1.
    10030    2    1    2    0    0  0.00000000000E+00  0.00000000000E+00 -0.71197423900E+03  0.37622692284E+04  0.36942878109E+04 0.  0.
        5    1    3    3  502    0  0.17273254977E+04  0.42800946841E+02 -0.10210223597E+04  0.20069863091E+04  0.46999998093E+01 0. -1.
       -5    1    3    3    0  502 -0.17273254977E+04 -0.42800946841E+02  0.30904812072E+03  0.17552829193E+04  0.46999998093E+01 0.  1.
</event>
<event>
 5   0  0.7362817E-08  0.3684815E+04  0.7818609E-02  0.8071335E-01
       -2   -1    0    0    0  501  0.00000000000E+00  0.00000000000E+00  0.20835361400E+04  0.20835361400E+04  0.25500000920E-02 0.  1.
        2   -1    0    0  501    0  0.00000000000E+00  0.00000000000E+00 -0.16291845348E+04  0.16291845348E+04  0.25500000920E-02 0. -1.
    10030    2    1    2    0    0  0.00000000000E+00  0.00000000000E+00  0.45435160518E+03  0.37127206748E+04  0.36848147074E+04 0.  0.
        1    1    3    3  502    0 -0.39132990962E+03  0.55951965611E+03 -0.14970006140E+04  0.16453608060E+04  0.50400001928E-02 0. -1.
       -1    1    3    3    0  502  0.39132990962E+03 -0.55951965611E+03  0.19513522191E+04  0.20673598687E+04  0.50400001928E-02 0.  1.
</event>
<event>
 5   0  0.2282000E-08  0.3680409E+04  0.7818609E-02  0.8072317E-01
       -1   -1    0    0    0  501  0.00000000000E+00  0.00000000000E+00  0.21168890834E+04  0.21168890835E+04  0.50400001928E-02 0. -1.
        1   -1    0    0  501    0  0.00000000000E+00  0.00000000000E+00 -0.15996839554E+04  0.15996839554E+04  0.50400001928E-02 0.  1.
    10030    2    1    2    0    0  0.00000000000E+00  0.00000000000E+00  0.51720512803E+03  0.37165730389E+04  0.36804094893E+04 0.  0.
        3    1    3    3  502    0  0.17629547603E+04 -0.49921099575E+03  0.43096180203E+03  0.18822723475E+04  0.10100000352E+00 0. -1.
       -3    1    3    3    0  502 -0.17629547603E+04  0.49921099575E+03  0.86243325999E+02  0.18343006914E+04  0.10100000352E+00 0.  1.
</event>
<event>
 5   0  0.2282000E-08  0.3693184E+04  0.7818609E-02  0.8069474E-01
        3   -1    0    0  501    0  0.00000000000E+00  0.00000000000E+00  0.12254919577E+04  0.12254919619E+04  0.10100000352E+00 0.  1.
       -3   -1    0    0    0  501  0.00000000000E+00  0.00000000000E+00 -0.27824763524E+04  0.27824763543E+04  0.10100000352E+00 0. -1.
    10030    2    1    2    0    0  0.00000000000E+00  0.00000000000E+00 -0.15569843947E+04  0.40079683162E+04  0.36931842112E+04 0.  0.
        3    1    3    3  502    0 -0.52634893109E+03  0.10594045997E+04  0.76029167584E+03  0.14062093534E+04  0.10100000352E+00 0.  1.
       -3    1    3    3    0  502  0.52634893109E+03 -0.10594045997E+04 -0.23172760705E+04  0.26017589628E+04  0.10100000352E+00 0. -1.
</event>
<event>
 5   0  0.2282000E-08  0.3697954E+04  0.7818609E-02  0.8068415E-01
        1   -1    0    0  501    0  0.00000000000E+00  0.00000000000E+00  0.15605260325E+04  0.15605260325E+04  0.50400001928E-02 0. -1.
       -1   -1    0    0    0  501  0.00000000000E+00  0.00000000000E+00 -0.21907459984E+04  0.21907459984E+04  0.50400001928E-02 0.  1.
    10030    2    1    2    0    0  0.00000000000E+00  0.00000000000E+00 -0.63021996597E+03  0.37512720309E+04  0.36979541160E+04 0.  0.
        5    1    3    3  502    0  0.22902703372E+03  0.15251705055E+04  0.71944523196E+03  0.17018290116E+04  0.46999998093E+01 0. -1.
       -5    1    3    3    0  502 -0.22902703372E+03 -0.15251705055E+04 -0.13496651979E+04  0.20494430193E+04  0.46999998093E+01 0.  1.
</event>
<event>
 5   0  0.2282000E-08  0.3704404E+04  0.7818609E-02  0.8066987E-01
        4   -1    0    0  501    0  0.00000000000E+00  0.00000000000E+00  0.20746576228E+04  0.20746580115E+04  0.12699999809E+01 0. -1.
       -4   -1    0    0    0  501  0.00000000000E+00  0.00000000000E+00 -0.16535981710E+04  0.16535986587E+04  0.12699999809E+01 0.  1.
    10030    2    1    2    0    0  0.00000000000E+00  0.00000000000E+00  0.42105945179E+03  0.37282566702E+04  0.37044036951E+04 0.  0.
        3    1    3    3  502    0  0.12599844922E+04 -0.79461628656E+03  0.13183790468E+04  0.19892459085E+04  0.10100000352E+00 0. -1.
       -3    1    3    3    0  502 -0.12599844922E+04  0.79461628656E+03 -0.89731959497E+03  0.17390107616E+04  0.10100000352E+00 0.  1.
</event>
<event>
 5   0  0.7191801E-08  0.3698429E+04  0.7818609E-02  0.8068310E-01
       -2   -1    0    0    0  501  0.00000000000E+00  0.00000000000E+00  0.18061819192E+04  0.18061819192E+04  0.25500000920E-02 0. -1.
        2   -1    0    0  501    0  0.00000000000E+00  0.00000000000E+00 -0.18932722312E+04  0.18932722312E+04  0.25500000920E-02 0.  1.
    10030    2    1    2    0    0  0.00000000000E+00  0.00000000000E+00 -0.87090311972E+02  0.36994541504E+04  0.36984288946E+04 0.  0.
        5    1    3    3  502    0  0.58788783075E+03 -0.12620248793E+04 -0.12609499557E+04  0.18783864827E+04  0.46999998093E+01 0.  1.
       -5    1    3    3    0  502 -0.58788783075E+03  0.12620248793E+04  0.11738596437E+04  0.18210676678E+04  0.46999998093E+01 0. -1.
</event>
<event>
 5   0  0.7203049E-08  0.3693667E+04  0.7818609E-02  0.8069367E-01
       -2   -1    0    0    0  501  0.00000000000E+00  0.00000000000E+00  0.15729812431E+04  0.15729812431E+04  0.25500000920E-02 0. -1.
        2   -1    0    0  501    0  0.00000000000E+00  0.00000000000E+00 -0.21683632151E+04  0.21683632151E+04  0.25500000920E-02 0.  1.
    10030    2    1    2    0    0  0.00000000000E+00  0.00000000000E+00 -0.59538197196E+03  0.37413444582E+04  0.36936673730E+04 0.  0.
        4    1    3    3  502    0 -0.64258849266E+03 -0.37644455167E+03  0.14141419343E+04  0.15982582691E+04  0.12699999809E+01 0. -1.
       -4    1    3    3    0  502  0.64258849266E+03  0.37644455167E+03 -0.20095239063E+04  0.21430861891E+04  0.12699999809E+01 0.  1.
</event>
<event>
 5   0  0.2282000E-08  0.3699478E+04  0.7818609E-02  0.8068078E-01
       -1   -1    0    0    0  501  0.00000000000E+00  0.00000000000E+00  0.16362316450E+04  0.16362316450E+04  0.50400001928E-02 0.  1.
        1   -1    0    0  501    0  0.00000000000E+00  0.00000000000E+00 -0.20911062622E+04  0.20911062622E+04  0.50400001928E-02 0. -1.
    10030    2    1    2    0    0  0.00000000000E+00  0.00000000000E+00 -0.45487461717E+03  0.37273379072E+04  0.36994779303E+04 0.  0.
        1    1    3    3  502    0 -0.22784934910E+03  0.17357122504E+04  0.37449121207E+03  0.17902111635E+04  0.50400001928E-02 0.  1.
       -1    1    3    3    0  502  0.22784934910E+03 -0.17357122504E+04 -0.82936582925E+03  0.19371267436E+04  0.50400001928E-02 0. -1.
</event>
<event>
 5   0  0.7191801E-08  0.3702830E+04  0.7818609E-02  0.8067335E-01
        2   -1    0    0  501    0  0.00000000000E+00  0.00000000000E+00  0.23510705811E+04  0.23510705811E+04  0.25500000920E-02 0. -1.
       -2   -1    0    0    0  501  0.00000000000E+00  0.00000000000E+00 -0.14579473565E+04  0.14579473565E+04  0.25500000920E-02 0.  1.
    10030    2    1    2    0    0  0.00000000000E+00  0.00000000000E+00  0.89312322461E+03  0.38090179376E+04  0.37028298036E+04 0.  0.
        5    1    3    3  502    0  0.14264911310E+04 -0.11727259661E+04  0.31027868200E+03  0.18725538948E+04  0.46999998093E+01 0.  1.
       -5    1    3    3    0  502 -0.14264911310E+04  0.11727259661E+04  0.58284454261E+03  0.19364640428E+04  0.46999998093E+01 0. -1.
</event>
<event>
 5   0  0.2282000E-08  0.3686092E+04  0.7818609E-02  0.8071051E-01
        1   -1    0    0  501    0  0.00000000000E+00  0.00000000000E+00  0.22410635083E+04  0.22410635083E+04  0.50400001928E-02 0. -1.
       -1   -1    0    0    0  501  0.00000000000E+00  0.00000000000E+00 -0.15157173524E+04  0.15157173524E+04  0.50400001928E-02 0.  1.
    10030    2    1    2    0    0  0.00000000000E+00  0.00000000000E+00  0.72534615587E+03  0.37567808607E+04  0.36860921569E+04 0.  0.
        5    1    3    3  502    0  0.12645831483E+04 -0.63165342844E+03 -0.84264777884E+03  0.16456712800E+04  0.46999998093E+01 0.  1.
       -5    1    3    3    0  502 -0.12645831483E+04  0.63165342844E+03  0.15679939347E+04  0.21111095807E+04  0.46999998093E+01 0. -1.
</event>
<event>
 5   0  0.7254493E-08  0.3691823E+04  0.7818609E-02  0.8069776E-01
       -2   -1    0    0    0  501  0.00000000000E+00  0.00000000000E+00  0.18774498518E+04  0.18774498518E+04  0.25500000920E-02 0. -1.
        2   -1    0    0  501    0  0.00000000000E+00  0.00000000000E+00 -0.18149034339E+04  0.18149034339E+04  0.25500000920E-02 0.  1.
    10030    2    1    2    0    0  0.00000000000E+00  0.00000000000E+00  0.62546417848E+02  0.36923532857E+04  0.36918234969E+04 0.  0.
        3    1    3    3  502    0  0.68408790964E+03  0.63736083472E+03  0.16230998842E+04  0.18731413043E+04  0.10100000352E+00 0. -1.
       -3    1    3    3    0  502 -0.68408790964E+03 -0.63736083472E+03 -0.15605534663E+04  0.18192119814E+04  0.10100000352E+00 0.  1.
</event>
<event>
 5   0  0.7191801E-08  0.3700506E+04  0.7818609E-02  0.8067850E-01
       -2   -1    0    0    0  501  0.00000000000E+00  0.00000000000E+00  0.15289475048E+04  0.15289475048E+04  0.25500000920E-02 0.  1.
        2   -1    0    0  501    0  0.00000000000E+00  0.00000000000E+00 -0.22390808092E+04  0.22390808092E+04  0.25500000920E-02 0. -1.
    10030    2    1    2    0    0  0.00000000000E+00  0.00000000000E+00 -0.71013330446E+03  0.37680283140E+04  0.37005064606E+04 0.  0.
        5    1    3    3  502    0 -0.82688463153E+03 -0.95925062769E+03 -0.17285734298E+04  0.21428691404E+04  0.46999998093E+01 0. -1.
       -5    1    3    3    0  502  0.82688463153E+03  0.95925062769E+03  0.10184401253E+04  0.16251591736E+04  0.46999998093E+01 0.  1.
</event>
<event>
 5   0  0.2282000E-08  0.3709991E+04  0.7818609E-02  0.8065751E-01
       -1   -1    0    0    0  501  0.00000000000E+00  0.00000000000E+00  0.17212015310E+04  0.17212015310E+04  0.50400001928E-02 0. -1.
        1   -1    0    0  501    0  0.00000000000E+00  0.00000000000E+00 -0.19991894482E+04  0.19991894482E+04  0.50400001928E-02 0.  1.
    10030    2    1    2    0    0  0.00000000000E+00  0.00000000000E+00 -0.27798791724E+03  0.37203909792E+04  0.37099908026E+04 0.  0.
        4    1    3    3  502    0 -0.35334167956E+03 -0.12998764546E+04  0.11399153185E+04  0.17646352841E+04  0.12699999809E+01 0. -1.
       -4    1    3    3    0  502  0.35334167956E+03  0.12998764546E+04 -0.14179032357E+04  0.19557556950E+04  0.12699999809E+01 0.  1.
</event>
<event>
 5   0  0.7254493E-08  0.3701653E+04  0.7818609E-02  0.8067596E-01
       -2   -1    0    0    0  501  0.00000000000E+00  0.00000000000E+00  0.19068355475E+04  0.19068355475E+04  0.25500000920E-02 0. -1.
        2   -1    0    0  501    0  0.00000000000E+00  0.00000000000E+00 -0.17964628735E+04  0.17964628735E+04  0.25500000920E-02 0.  1.
    10030    2    1    2    0    0  0.00000000000E+00  0.00000000000E+00  0.11037267406E+03  0.37032984210E+04  0.37016532884E+04 0.  0.
        3    1    3    3  502    0 -0.11439568314E+03 -0.71736554957E+02 -0.17915286039E+04  0.17966099339E+04  0.10100000352E+00 0.  1.
       -3    1    3    3    0  502  0.11439568314E+03  0.71736554957E+02  0.19019012780E+04  0.19066884871E+04  0.10100000352E+00 0. -1.
</event>
<event>
 5   0  0.7309833E-08  0.3654712E+04  0.7818609E-02  0.8078073E-01
       -2   -1    0    0    0  501  0.00000000000E+00  0.00000000000E+00  0.19848250783E+04  0.19848250783E+04  0.25500000920E-02 0.  1.
        2   -1    0    0  501    0  0.00000000000E+00  0.00000000000E+00 -0.16823797116E+04  0.16823797116E+04  0.25500000920E-02 0. -1.
    10030    2    1    2    0    0  0.00000000000E+00  0.00000000000E+00  0.30244536679E+03  0.36672047899E+04  0.36547117220E+04 0.  0.
        2    1    3    3  502    0 -0.14505075518E+04 -0.75121313531E+03  0.97312957179E+03  0.19013875186E+04  0.25500000920E-02 0.  1.
       -2    1    3    3    0  502  0.14505075518E+04  0.75121313531E+03 -0.67068420500E+03  0.17658172712E+04  0.25500000920E-02 0. -1.
</event>
<event>
 5   0  0.7203049E-08  0.3696285E+04  0.7818609E-02  0.8068786E-01
        2   -1    0    0  501    0  0.00000000000E+00  0.00000000000E+00  0.20503708461E+04  0.20503708461E+04  0.25500000920E-02 0. -1.
       -2   -1    0    0    0  501  0.00000000000E+00  0.00000000000E+00 -0.16658597447E+04  0.16658597447E+04  0.25500000920E-02 0.  1.
    10030    2    1    2    0    0  0.00000000000E+00  0.00000000000E+00  0.38451110137E+03  0.37162305909E+04  0.36962847587E+04 0.  0.
        4    1    3    3  502    0 -0.52060751173E+03  0.39118309632E+03 -0.15466939897E+04  0.16781895920E+04  0.12699999809E+01 0.  1.
       -4    1    3    3    0  502  0.52060751173E+03 -0.39118309632E+03  0.19312050911E+04  0.20380409988E+04  0.12699999809E+01 0. -1.
</event>
<event>
 5   0  0.7191801E-08  0.3699559E+04  0.7818609E-02  0.8068059E-01
       -2   -1    0    0    0  501  0.00000000000E+00  0.00000000000E+00  0.14608962675E+04  0.14608962675E+04  0.25500000920E-02 0.  1.
        2   -1    0    0  501    0  0.00000000000E+00  0.00000000000E+00 -0.23421819800E+04  0.23421819800E+04  0.25500000920E-02 0. -1.
    10030    2    1    2    0    0  0.00000000000E+00  0.00000000000E+00 -0.88128571250E+03  0.38030782474E+04  0.36995593858E+04 0.  0.
        5    1    3    3  502    0 -0.13654427588E+04  0.55690742848E+03 -0.15886192018E+04  0.21675591963E+04  0.46999998093E+01 0.  1.
       -5    1    3    3    0  502  0.13654427588E+04 -0.55690742848E+03  0.70733348926E+03  0.16355190511E+04  0.46999998093E+01 0. -1.
</event>
<event>
 5   0  0.7362817E-08  0.3700659E+04  0.7818609E-02  0.8067816E-01
        2   -1    0    0  501    0  0.00000000000E+00  0.00000000000E+00  0.27723803694E+04  0.27723803694E+04  0.25500000920E-02 0. -1.
       -2   -1    0    0    0  501  0.00000000000E+00  0.00000000000E+00 -0.12349381971E+04  0.12349381971E+04  0.25500000920E-02 0.  1.
    10030    2    1    2    0    0  0.00000000000E+00  0.00000000000E+00  0.15374421723E+04  0.40073185665E+04  0.37006585442E+04 0.  0.
        1    1    3    3  502    0 -0.78884205713E+03  0.10412139593E+04  0.21877801825E+04  0.25480934887E+04  0.50400001928E-02 0. -1.
       -1    1    3    3    0  502  0.78884205713E+03 -0.10412139593E+04 -0.65033801029E+03  0.14592250778E+04  0.50400001928E-02 0.  1.
</event>
<event>
 5   0  0.7362817E-08  0.3714913E+04  0.7818609E-02  0.8064665E-01
        2   -1    0    0  501    0  0.00000000000E+00  0.00000000000E+00  0.20925498125E+04  0.20925498125E+04  0.25500000920E-02 0. -1.
       -2   -1    0    0    0  501  0.00000000000E+00  0.00000000000E+00 -0.16487754090E+04  0.16487754090E+04  0.25500000920E-02 0.  1.
    10030    2    1    2    0    0  0.00000000000E+00  0.00000000000E+00  0.44377440344E+03  0.37413252215E+04  0.37149130127E+04 0.  0.
        1    1    3    3  502    0  0.14509726307E+03 -0.12639885465E+04  0.15848101754E+04  0.20323246673E+04  0.50400001928E-02 0. -1.
       -1    1    3    3    0  502 -0.14509726307E+03  0.12639885465E+04 -0.11410357719E+04  0.17090005542E+04  0.50400001928E-02 0.  1.
</event>
<event>
 5   0  0.2282000E-08  0.3619095E+04  0.7818609E-02  0.8086132E-01
        1   -1    0    0  501    0  0.00000000000E+00  0.00000000000E+00  0.22471064266E+04  0.22471064266E+04  0.50400001928E-02 0. -1.
       -1   -1    0    0    0  501  0.00000000000E+00  0.00000000000E+00 -0.14571905763E+04  0.14571905763E+04  0.50400001928E-02 0.  1.
    10030    2    1    2    0    0  0.00000000000E+00  0.00000000000E+00  0.78991585028E+03  0.37042970029E+04  0.36190950851E+04 0.  0.
        1    1    3    3  502    0 -0.42124871655E+03 -0.10859274321E+04  0.18123971814E+04  0.21544076708E+04  0.50400001928E-02 0. -1.
       -1    1    3    3    0  502  0.42124871655E+03  0.10859274321E+04 -0.10224813311E+04  0.15498893320E+04  0.50400001928E-02 0.  1.
</event>
<event>
 5   0  0.2282000E-08  0.3706593E+04  0.7818609E-02  0.8066502E-01
       -1   -1    0    0    0  501  0.00000000000E+00  0.00000000000E+00  0.12598008626E+04  0.12598008626E+04  0.50400001928E-02 0. -1.
        1   -1    0    0  501    0  0.00000000000E+00  0.00000000000E+00 -0.27263891888E+04  0.27263891888E+04  0.50400001928E-02 0.  1.
    10030    2    1    2    0    0  0.00000000000E+00  0.00000000000E+00 -0.14665883262E+04  0.39861900514E+04  0.37065927491E+04 0.  0.
        2    1    3    3  502    0  0.78940883565E+03  0.13220388707E+04  0.37589037509E+03  0.15850068326E+04  0.25500000920E-02 0. -1.
       -2    1    3    3    0  502 -0.78940883565E+03 -0.13220388707E+04 -0.18424787013E+04  0.24011832188E+04  0.25500000920E-02 0.  1.
</event>
<event>
 5   0  0.7362817E-08  0.3695649E+04  0.7818609E-02  0.8068927E-01
       -2   -1    0    0    0  501  0.00000000000E+00  0.00000000000E+00  0.20303353145E+04  0.20303353145E+04  0.25500000920E-02 0.  1.
        2   -1    0    0  501    0  0.00000000000E+00  0.00000000000E+00 -0.16817199391E+04  0.16817199391E+04  0.25500000920E-02 0. -1.
    10030    2    1    2    0    0  0.00000000000E+00  0.00000000000E+00  0.34861537545E+03  0.37120552536E+04  0.36956489992E+04 0.  0.
        1    1    3    3  502    0  0.14032310561E+04 -0.11287199998E+04  0.59013726219E+03  0.18950800043E+04  0.50400001928E-02 0.  1.
       -1    1    3    3    0  502 -0.14032310561E+04  0.11287199998E+04 -0.24152188674E+03  0.18169752492E+04  0.50400001928E-02 0. -1.
</event>
<event>
 5   0  0.2282000E-08  0.3710569E+04  0.7818609E-02  0.8065624E-01
        1   -1    0    0  501    0  0.00000000000E+00  0.00000000000E+00  0.20995495363E+04  0.20995495363E+04  0.50400001928E-02 0. -1.
       -1   -1    0    0    0  501  0.00000000000E+00  0.00000000000E+00 -0.16394377062E+04  0.16394377063E+04  0.50400001928E-02 0.  1.
    10030    2    1    2    0    0  0.00000000000E+00  0.00000000000E+00  0.46011183002E+03  0.37389872425E+04  0.37105690539E+04 0.  0.
        5    1    3    3  502    0 -0.16741008711E+04  0.61213189453E+03 -0.28841304128E+03  0.18056919325E+04  0.46999998093E+01 0. -1.
       -5    1    3    3    0  502  0.16741008711E+04 -0.61213189453E+03  0.74852487130E+03  0.19332953100E+04  0.46999998093E+01 0.  1.
</event>
<event>
 5   0  0.7191801E-08  0.3701748E+04  0.7818609E-02  0.8067575E-01
       -2   -1    0    0    0  501  0.00000000000E+00  0.00000000000E+00  0.22754731700E+04  0.22754731700E+04  0.25500000920E-02 0. -1.
        2   -1    0    0  501    0  0.00000000000E+00  0.00000000000E+00 -0.15055038682E+04  0.15055038682E+04  0.25500000920E-02 0.  1.
    10030    2    1    2    0    0  0.00000000000E+00  0.00000000000E+00  0.76996930182E+03  0.37809770382E+04  0.37017475113E+04 0.  0.
        5    1    3    3  502    0  0.88181211201E+03 -0.13350567784E+04 -0.56538286262E+03  0.16969528791E+04  0.46999998093E+01 0.  1.
       -5    1    3    3    0  502 -0.88181211201E+03  0.13350567784E+04  0.13353521644E+04  0.20840241591E+04  0.46999998093E+01 0. -1.
</event>
<event>
 5   0  0.2282000E-08  0.3694921E+04  0.7818609E-02  0.8069088E-01
        1   -1    0    0  501    0  0.00000000000E+00  0.00000000000E+00  0.22118098844E+04  0.22118098844E+04  0.50400001928E-02 0.  1.
       -1   -1    0    0    0  501  0.00000000000E+00  0.00000000000E+00 -0.15431304060E+04  0.15431304060E+04  0.50400001928E-02 0. -1.
    10030    2    1    2    0    0  0.00000000000E+00  0.00000000000E+00  0.66867947834E+03  0.37549402904E+04  0.36949214254E+04 0.  0.
        3    1    3    3  502    0 -0.27717696415E+03 -0.15215203770E+03  0.21841079568E+04  0.22068767272E+04  0.10100000352E+00 0.  1.
       -3    1    3    3    0  502  0.27717696415E+03  0.15215203770E+03 -0.15154284785E+04  0.15480635632E+04  0.10100000352E+00 0. -1.
</event>
<event>
 5   0  0.7309833E-08  0.3697500E+04  0.7818609E-02  0.8068516E-01
        2   -1    0    0  501    0  0.00000000000E+00  0.00000000000E+00  0.21358694876E+04  0.21358694876E+04  0.25500000920E-02 0. -1.
       -2   -1    0    0    0  501  0.00000000000E+00  0.00000000000E+00 -0.16002268510E+04  0.16002268510E+04  0.25500000920E-02 0.  1.
    10030    2    1    2    0    0  0.00000000000E+00  0.00000000000E+00  0.53564263661E+03  0.37360963385E+04  0.36974995357E+04 0.  0.
        2    1    3    3  502    0  0.81527540745E+03 -0.10836574447E+04  0.15374760500E+04  0.20500780599E+04  0.25500000920E-02 0. -1.
       -2    1    3    3    0  502 -0.81527540745E+03  0.10836574447E+04 -0.10018334134E+04  0.16860182786E+04  0.25500000920E-02 0.  1.
</event>
<event>
 5   0  0.2282000E-08  0.3697264E+04  0.7818609E-02  0.8068568E-01
        1   -1    0    0  501    0  0.00000000000E+00  0.00000000000E+00  0.18868648388E+04  0.18868648388E+04  0.50400001928E-02 0. -1.
       -1   -1    0    0    0  501  0.00000000000E+00  0.00000000000E+00 -0.18111737971E+04  0.18111737971E+04  0.50400001928E-02 0.  1.
    10030    2    1    2    0    0  0.00000000000E+00  0.00000000000E+00  0.75691041674E+02  0.36980386359E+04  0.36972639369E+04 0.  0.
        4    1    3    3  502    0 -0.66963837252E+02 -0.59113653757E+03 -0.17128103360E+04  0.18131870895E+04  0.12699999809E+01 0.  1.
       -4    1    3    3    0  502  0.66963837252E+02  0.59113653757E+03  0.17885013776E+04  0.18848515465E+04  0.12699999809E+01 0. -1.
</event>
<event>
 5   0  0.2282000E-08  0.3703653E+04  0.7818609E-02  0.8067153E-01
        1   -1    0    0  501    0  0.00000000000E+00  0.00000000000E+00  0.24692872401E+04  0.24692872401E+04  0.50400001928E-02 0.  1.
       -1   -1    0    0    0  501  0.00000000000E+00  0.00000000000E+00 -0.13887654994E+04  0.13887654994E+04  0.50400001928E-02 0. -1.
    10030    2    1    2    0    0  0.00000000000E+00  0.00000000000E+00  0.10805217408E+04  0.38580527395E+04  0.37036527521E+04 0.  0.
        5    1    3    3  502    0 -0.82774467356E+03 -0.16493749155E+04  0.70042359829E+03  0.19738830167E+04  0.46999998093E+01 0.  1.
       -5    1    3    3    0  502  0.82774467356E+03  0.16493749155E+04  0.38009814248E+03  0.18841697228E+04  0.46999998093E+01 0. -1.
</event>
<event>
 5   0  0.2282000E-08  0.3700874E+04  0.7818609E-02  0.8067768E-01
        1   -1    0    0  501    0  0.00000000000E+00  0.00000000000E+00  0.25828284304E+04  0.25828284304E+04  0.50400001928E-02 0. -1.
       -1   -1    0    0    0  501  0.00000000000E+00  0.00000000000E+00 -0.13257236657E+04  0.13257236657E+04  0.50400001928E-02 0.  1.
    10030    2    1    2    0    0  0.00000000000E+00  0.00000000000E+00  0.12571047646E+04  0.39085520961E+04  0.37008738291E+04 0.  0.
        3    1    3    3  502    0  0.93783130171E+03  0.13414210582E+04  0.15402311888E+04  0.22474986388E+04  0.10100000352E+00 0. -1.
       -3    1    3    3    0  502 -0.93783130171E+03 -0.13414210582E+04 -0.28312642421E+03  0.16610534574E+04  0.10100000352E+00 0.  1.
</event>
<event>
 5   0  0.2282000E-08  0.3689537E+04  0.7818609E-02  0.8070285E-01
        1   -1    0    0  501    0  0.00000000000E+00  0.00000000000E+00  0.13116217864E+04  0.13116217864E+04  0.50400001928E-02 0. -1.
       -1   -1    0    0    0  501  0.00000000000E+00  0.00000000000E+00 -0.25946281224E+04  0.25946281224E+04  0.50400001928E-02 0.  1.
    10030    2    1    2    0    0  0.00000000000E+00  0.00000000000E+00 -0.12830063360E+04  0.39062499088E+04  0.36895369753E+04 0.  0.
        2    1    3    3  502    0  0.79683049330E+03  0.80616539879E+03 -0.21824402020E+04  0.24592451526E+04  0.25500000920E-02 0.  1.
       -2    1    3    3    0  502 -0.79683049330E+03 -0.80616539879E+03  0.89943386597E+03  0.14470047562E+04  0.25500000920E-02 0. -1.
</event>
<event>
 5   0  0.7254493E-08  0.3705079E+04  0.7818609E-02  0.8066837E-01
       -2   -1    0    0    0  501  0.00000000000E+00  0.00000000000E+00  0.12683148504E+04  0.12683148504E+04  0.25500000920E-02 0.  1.
        2   -1    0    0  501    0  0.00000000000E+00  0.00000000000E+00 -0.27058756042E+04  0.27058756042E+04  0.25500000920E-02 0. -1.
    10030    2    1    2    0    0  0.00000000000E+00  0.00000000000E+00 -0.14375607537E+04  0.39741904546E+04  0.37050787911E+04 0.  0.
        3    1    3    3  502    0 -0.33693715430E+03 -0.10156479481E+04 -0.23408467620E+04  0.25738358483E+04  0.10100000352E+00 0. -1.
       -3    1    3    3    0  502  0.33693715430E+03  0.10156479481E+04  0.90328600826E+03  0.14003546063E+04  0.10100000352E+00 0.  1.
</event>
<event>
 5   0  0.7362817E-08  0.3702646E+04  0.7818609E-02  0.8067376E-01
        2   -1    0    0  501    0  0.00000000000E+00  0.00000000000E+00  0.12893524941E+04  0.12893524941E+04  0.25500000920E-02 0.  1.
       -2   -1    0    0    0  501  0.00000000000E+00  0.00000000000E+00 -0.26582303650E+04  0.26582303650E+04  0.25500000920E-02 0. -1.
    10030    2    1    2    0    0  0.00000000000E+00  0.00000000000E+00 -0.13688778709E+04  0.39475828591E+04  0.37026455142E+04 0.  0.
        1    1    3    3  502    0  0.14286471720E+04 -0.82266258180E+03 -0.15825348175E+04  0.22852183515E+04  0.50400001928E-02 0. -1.
       -1    1    3    3    0  502 -0.14286471720E+04  0.82266258180E+03  0.21365694653E+03  0.16623645076E+04  0.50400001928E-02 0.  1.
</event>
<event>
 5   0  0.2282000E-08  0.3698173E+04  0.7818609E-02  0.8068367E-01
        1   -1    0    0  501    0  0.00000000000E+00  0.00000000000E+00  0.11298278925E+04  0.11298278925E+04  0.50400001928E-02 0.  1.
       -1   -1    0    0    0  501  0.00000000000E+00  0.00000000000E+00 -0.30262318459E+04  0.30262318459E+04  0.50400001928E-02 0. -1.
    10030    2    1    2    0    0  0.00000000000E+00  0.00000000000E+00 -0.18964039534E+04  0.41560597384E+04  0.36981731429E+04 0.  0.
        2    1    3    3  502    0  0.11213229410E+04 -0.91113614730E+03  0.34861683935E+03  0.14862933485E+04  0.25500000920E-02 0.  1.
       -2    1    3    3    0  502 -0.11213229410E+04  0.91113614730E+03 -0.22450207927E+04  0.26697663899E+04  0.25500000920E-02 0. -1.
</event>
<event>
 5   0  0.2282000E-08  0.3695104E+04  0.7818609E-02  0.8069048E-01
        1   -1    0    0  501    0  0.00000000000E+00  0.00000000000E+00  0.15803231090E+04  0.15803231090E+04  0.50400001928E-02 0.  1.
       -1   -1    0    0    0  501  0.00000000000E+00  0.00000000000E+00 -0.21599683278E+04  0.21599683279E+04  0.50400001928E-02 0. -1.
    10030    2    1    2    0    0  0.00000000000E+00  0.00000000000E+00 -0.57964521887E+03  0.37402914368E+04  0.36951037134E+04 0.  0.
        4    1    3    3  502    0 -0.52321770569E+03 -0.16204296549E+04 -0.10154554721E+04  0.19825994207E+04  0.12699999809E+01 0.  1.
       -4    1    3    3    0  502  0.52321770569E+03  0.16204296549E+04  0.43581025327E+03  0.17576920162E+04  0.12699999809E+01 0. -1.
</event>
<event>
 5   0  0.2282000E-08  0.3695510E+04  0.7818609E-02  0.8068958E-01
        1   -1    0    0  501    0  0.00000000000E+00  0.00000000000E+00  0.24029581706E+04  0.24029581706E+04  0.50400001928E-02 0. -1.
       -1   -1    0    0    0  501  0.00000000000E+00  0.00000000000E+00 -0.14208312128E+04  0.14208312128E+04  0.50400001928E-02 0.  1.
    10030    2    1    2    0    0  0.00000000000E+00  0.00000000000E+00  0.98212695778E+03  0.38237893834E+04  0.36955096925E+04 0.  0.
        3    1    3    3  502    0  0.20956312696E+03  0.17608739734E+04  0.10283214523E+04  0.20498875271E+04  0.10100000352E+00 0. -1.
       -3    1    3    3    0  502 -0.20956312696E+03 -0.17608739734E+04 -0.46194494502E+02  0.17739018563E+04  0.10100000352E+00 0.  1.
</event>
<event>
 5   0  0.2282000E-08  0.3698695E+04  0.7818609E-02  0.8068251E-01
        1   -1    0    0  501    0  0.00000000000E+00  0.00000000000E+00  0.19129413204E+04  0.19129413204E+04  0.50400001928E-02 0. -1.
       -1   -1    0    0    0  501  0.00000000000E+00  0.00000000000E+00 -0.17878675679E+04  0.17878675679E+04  0.50400001928E-02 0.  1.
    10030    2    1    2    0    0  0.00000000000E+00  0.00000000000E+00  0.12507375250E+03  0.37008088883E+04  0.36986947677E+04 0.  0.
        4    1    3    3  502    0 -0.27221228552E+03 -0.81885559796E+03  0.16991551877E+04  0.19057161341E+04  0.12699999809E+01 0. -1.
       -4    1    3    3    0  502  0.27221228552E+03  0.81885559796E+03 -0.15740814352E+04  0.17950927543E+04  0.12699999809E+01 0.  1.
</event>
<event>
 5   0  0.7309833E-08  0.3697237E+04  0.7818609E-02  0.8068574E-01
       -2   -1    0    0    0  501  0.00000000000E+00  0.00000000000E+00  0.10703695375E+04  0.10703695375E+04  0.25500000920E-02 0. -1.
        2   -1    0    0  501    0  0.00000000000E+00  0.00000000000E+00 -0.31927206552E+04  0.31927206552E+04  0.25500000920E-02 0.  1.
    10030    2    1    2    0    0  0.00000000000E+00  0.00000000000E+00 -0.21223511178E+04  0.42630901927E+04  0.36972373097E+04 0.  0.
        2    1    3    3  502    0 -0.16786932729E+04 -0.27634686301E+03 -0.22729640027E+03  0.17164038996E+04  0.25500000920E-02 0. -1.
       -2    1    3    3    0  502  0.16786932729E+04  0.27634686301E+03 -0.18950547175E+04  0.25466862931E+04  0.25500000920E-02 0.  1.
</event>
<event>
 5   0  0.7362817E-08  0.3700876E+04  0.7818609E-02  0.8067768E-01
        2   -1    0    0  501    0  0.00000000000E+00  0.00000000000E+00  0.25752521680E+04  0.25752521680E+04  0.25500000920E-02 0. -1.
       -2   -1    0    0    0  501  0.00000000000E+00  0.00000000000E+00 -0.13296254945E+04  0.13296254945E+04  0.25500000920E-02 0.  1.
    10030    2    1    2    0    0  0.00000000000E+00  0.00000000000E+00  0.12456266735E+04  0.39048776625E+04  0.37008760786E+04 0.  0.
        1    1    3    3  502    0 -0.10458282220E+04 -0.49835909966E+03 -0.89963831496E+03  0.14667881783E+04  0.50400001928E-02 0.  1.
       -1    1    3    3    0  502  0.10458282220E+04  0.49835909966E+03  0.21452649885E+04  0.24380894842E+04  0.50400001928E-02 0. -1.
</event>
<event>
 5   0  0.2282000E-08  0.3741479E+04  0.7818609E-02  0.8058831E-01
       -1   -1    0    0    0  501  0.00000000000E+00  0.00000000000E+00  0.18822282880E+04  0.18822282880E+04  0.50400001928E-02 0. -1.
        1   -1    0    0  501    0  0.00000000000E+00  0.00000000000E+00 -0.18593205887E+04  0.18593205887E+04  0.50400001928E-02 0.  1.
    10030    2    1    2    0    0  0.00000000000E+00  0.00000000000E+00  0.22907699324E+02  0.37415488767E+04  0.37414787496E+04 0.  0.
        1    1    3    3  502    0  0.95621968942E+03  0.10608873899E+04  0.12197097762E+04  0.18781720067E+04  0.50400001928E-02 0. -1.
       -1    1    3    3    0  502 -0.95621968942E+03 -0.10608873899E+04 -0.11968020769E+04  0.18633768700E+04  0.50400001928E-02 0.  1.
</event>
<event>
 5   0  0.7309833E-08  0.3713265E+04  0.7818609E-02  0.8065028E-01
        2   -1    0    0  501    0  0.00000000000E+00  0.00000000000E+00  0.19476897617E+04  0.19476897617E+04  0.25500000920E-02 0. -1.
       -2   -1    0    0    0  501  0.00000000000E+00  0.00000000000E+00 -0.17698322893E+04  0.17698322893E+04  0.25500000920E-02 0.  1.
    10030    2    1    2    0    0  0.00000000000E+00  0.00000000000E+00  0.17785747238E+03  0.37175220509E+04  0.37132649944E+04 0.  0.
        2    1    3    3  502    0 -0.44995898439E+03 -0.15110154720E+04 -0.89273269074E+03  0.18117953807E+04  0.25500000920E-02 0.  1.
       -2    1    3    3    0  502  0.44995898439E+03  0.15110154720E+04  0.10705901631E+04  0.19057266703E+04  0.25500000920E-02 0. -1.
</event>
<event>
 5   0  0.2282000E-08  0.3700478E+04  0.7818609E-02  0.8067856E-01
       -1   -1    0    0    0  501  0.00000000000E+00  0.00000000000E+00  0.13218435642E+04  0.13218435642E+04  0.50400001928E-02 0.  1.
        1   -1    0    0  501    0  0.00000000000E+00  0.00000000000E+00 -0.25898554052E+04  0.25898554052E+04  0.50400001928E-02 0. -1.
    10030    2    1    2    0    0  0.00000000000E+00  0.00000000000E+00 -0.12680118410E+04  0.39116989694E+04  0.37004776447E+04 0.  0.
        3    1    3    3  502    0 -0.35359294420E+03 -0.10023223241E+04  0.96693935028E+03  0.14368889062E+04  0.10100000352E+00 0.  1.
       -3    1    3    3    0  502  0.35359294420E+03  0.10023223241E+04 -0.22349511912E+04  0.24748100632E+04  0.10100000352E+00 0. -1.
</event>
<event>
 5   0  0.7362817E-08  0.3704189E+04  0.7818609E-02  0.8067034E-01
        2   -1    0    0  501    0  0.00000000000E+00  0.00000000000E+00  0.17096612555E+04  0.17096612555E+04  0.25500000920E-02 0.  1.
       -2   -1    0    0    0  501  0.00000000000E+00  0.00000000000E+00 -0.20063934640E+04  0.20063934640E+04  0.25500000920E-02 0. -1.
    10030    2    1    2    0    0  0.00000000000E+00  0.00000000000E+00 -0.29673220847E+03  0.37160547194E+04  0.37041885312E+04 0.  0.
        1    1    3    3  502    0  0.83114522260E+03 -0.15789141012E+04 -0.64642509493E+03  0.18977980723E+04  0.50400001928E-02 0. -1.
       -1    1    3    3    0  502 -0.83114522260E+03  0.15789141012E+04  0.34969288645E+03  0.18182566471E+04  0.50400001928E-02 0.  1.
</event>
<event>
 5   0  0.2282000E-08  0.3711564E+04  0.7818609E-02  0.8065404E-01
        1   -1    0    0  501    0  0.00000000000E+00  0.00000000000E+00  0.21306894308E+04  0.21306894308E+04  0.50400001928E-02 0. -1.
       -1   -1    0    0    0  501  0.00000000000E+00  0.00000000000E+00 -0.16163437621E+04  0.16163437621E+04  0.50400001928E-02 0.  1.
    10030    2    1    2    0    0  0.00000000000E+00  0.00000000000E+00  0.51434566868E+03  0.37470331929E+04  0.37115638593E+04 0.  0.
        3    1    3    3  502    0 -0.76409564687E+03  0.10543958381E+04 -0.10777088749E+04  0.16902807963E+04  0.10100000352E+00 0.  1.
       -3    1    3    3    0  502  0.76409564687E+03 -0.10543958381E+04  0.15920545436E+04  0.20567523966E+04  0.10100000352E+00 0. -1.
</event>
<event>
 5   0  0.7191801E-08  0.3701863E+04  0.7818609E-02  0.8067549E-01
       -2   -1    0    0    0  501  0.00000000000E+00  0.00000000000E+00  0.24501990764E+04  0.24501990764E+04  0.25500000920E-02 0.  1.
        2   -1    0    0  501    0  0.00000000000E+00  0.00000000000E+00 -0.13982320722E+04  0.13982320722E+04  0.25500000920E-02 0. -1.
    10030    2    1    2    0    0  0.00000000000E+00  0.00000000000E+00  0.10519670042E+04  0.38484311486E+04  0.37018627375E+04 0.  0.
        5    1    3    3  502    0 -0.96339847080E+03  0.50030393677E+02  0.21681738834E+04  0.23731076108E+04  0.46999998093E+01 0.  1.
       -5    1    3    3    0  502  0.96339847080E+03 -0.50030393677E+02 -0.11162068792E+04  0.14753235378E+04  0.46999998093E+01 0. -1.
</event>
<event>
 5   0  0.7362817E-08  0.3702887E+04  0.7818609E-02  0.8067322E-01
        2   -1    0    0  501    0  0.00000000000E+00  0.00000000000E+00  0.19019237349E+04  0.19019237349E+04  0.25500000920E-02 0. -1.
       -2   -1    0    0    0  501  0.00000000000E+00  0.00000000000E+00 -0.18023033080E+04  0.18023033080E+04  0.25500000920E-02 0.  1.
    10030    2    1    2    0    0  0.00000000000E+00  0.00000000000E+00  0.99620426868E+02  0.37042270429E+04  0.37028872189E+04 0.  0.
        1    1    3    3  502    0  0.99937111209E+03 -0.12052835233E+04 -0.93867304701E+03  0.18255295342E+04  0.50400001928E-02 0.  1.
       -1    1    3    3    0  502 -0.99937111209E+03  0.12052835233E+04  0.10382934739E+04  0.18786975087E+04  0.50400001928E-02 0. -1.
</event>
<event>
 5   0  0.2282000E-08  0.3698413E+04  0.7818609E-02  0.8068314E-01
       -1   -1    0    0    0  501  0.00000000000E+00  0.00000000000E+00  0.15957586363E+04  0.15957586363E+04  0.50400001928E-02 0.  1.
        1   -1    0    0  501    0  0.00000000000E+00  0.00000000000E+00 -0.21429080920E+04  0.21429080920E+04  0.50400001928E-02 0. -1.
    10030    2    1    2    0    0  0.00000000000E+00  0.00000000000E+00 -0.54714945565E+03  0.37386667283E+04  0.36984126837E+04 0.  0.
        2    1    3    3  502    0 -0.86290712601E+03  0.10135743122E+04 -0.15711430674E+04  0.20592309566E+04  0.25500000920E-02 0. -1.
       -2    1    3    3    0  502  0.86290712601E+03 -0.10135743122E+04  0.10239936117E+04  0.16794357717E+04  0.25500000920E-02 0.  1.
</event>
<event>
 5   0  0.7309833E-08  0.3703758E+04  0.7818609E-02  0.8067130E-01
        2   -1    0    0  501    0  0.00000000000E+00  0.00000000000E+00  0.20433450554E+04  0.20433450554E+04  0.25500000920E-02 0. -1.
       -2   -1    0    0    0  501  0.00000000000E+00  0.00000000000E+00 -0.16783533937E+04  0.16783533937E+04  0.25500000920E-02 0.  1.
    10030    2    1    2    0    0  0.00000000000E+00  0.00000000000E+00  0.36499166177E+03  0.37216984491E+04  0.37037576099E+04 0.  0.
        2    1    3    3  502    0 -0.57675614589E+02  0.13018765102E+04 -0.11396459795E+04  0.17311851093E+04  0.25500000920E-02 0.  1.
       -2    1    3    3    0  502  0.57675614589E+02 -0.13018765102E+04  0.15046376413E+04  0.19905133398E+04  0.25500000920E-02 0. -1.
</event>
<event>
 5   0  0.7362817E-08  0.3706838E+04  0.7818609E-02  0.8066448E-01
        2   -1    0    0  501    0  0.00000000000E+00  0.00000000000E+00  0.14443848084E+04  0.14443848084E+04  0.25500000920E-02 0.  1.
       -2   -1    0    0    0  501  0.00000000000E+00  0.00000000000E+00 -0.23782872367E+04  0.23782872368E+04  0.25500000920E-02 0. -1.
    10030    2    1    2    0    0  0.00000000000E+00  0.00000000000E+00 -0.93390242830E+03  0.38226720452E+04  0.37068379813E+04 0.  0.
        1    1    3    3  502    0 -0.84262629734E+02  0.14099981464E+04 -0.17044355340E+04  0.22136610972E+04  0.50400001928E-02 0. -1.
       -1    1    3    3    0  502  0.84262629734E+02 -0.14099981464E+04  0.77053310571E+03  0.16090109480E+04  0.50400001928E-02 0.  1.
</event>
<event>
 5   0  0.2282000E-08  0.3696394E+04  0.7818609E-02  0.8068761E-01
        1   -1    0    0  501    0  0.00000000000E+00  0.00000000000E+00  0.14035323310E+04  0.14035323310E+04  0.50400001928E-02 0.  1.
       -1   -1    0    0    0  501  0.00000000000E+00  0.00000000000E+00 -0.24337398986E+04  0.24337398986E+04  0.50400001928E-02 0. -1.
    10030    2    1    2    0    0  0.00000000000E+00  0.00000000000E+00 -0.10302075676E+04  0.38372722296E+04  0.36963942609E+04 0.  0.
        2    1    3    3  502    0  0.56074902945E+03  0.11166983741E+04  0.89855125277E+03  0.15391065872E+04  0.25500000920E-02 0.  1.
       -2    1    3    3    0  502 -0.56074902945E+03 -0.11166983741E+04 -0.19287588204E+04  0.22981656425E+04  0.25500000920E-02 0. -1.
</event>
<event>
 5   0  0.2282000E-08  0.3702020E+04  0.7818609E-02  0.8067514E-01
       -1   -1    0    0    0  501  0.00000000000E+00  0.00000000000E+00  0.21292465084E+04  0.21292465084E+04  0.50400001928E-02 0. -1.
        1   -1    0    0  501    0  0.00000000000E+00  0.00000000000E+00 -0.16091317137E+04  0.16091317137E+04  0.50400001928E-02 0.  1.
    10030    2    1    2    0    0  0.00000000000E+00  0.00000000000E+00  0.52011479477E+03  0.37383782221E+04  0.37020200340E+04 0.  0.
        4    1    3    3  502    0  0.33719310815E+03 -0.12334110413E+03 -0.15736300064E+04  0.16140710114E+04  0.12699999809E+01 0.  1.
       -4    1    3    3    0  502 -0.33719310815E+03  0.12334110413E+03  0.20937448011E+04  0.21243072107E+04  0.12699999809E+01 0. -1.
</event>
<event>
 5   0  0.7191801E-08  0.3688989E+04  0.7818609E-02  0.8070406E-01
       -2   -1    0    0    0  501  0.00000000000E+00  0.00000000000E+00  0.16537873715E+04  0.16537873715E+04  0.25500000920E-02 0. -1.
        2   -1    0    0  501    0  0.00000000000E+00  0.00000000000E+00 -0.20571932028E+04  0.20571932028E+04  0.25500000920E-02 0.  1.
    10030    2    1    2    0    0  0.00000000000E+00  0.00000000000E+00 -0.40340583134E+03  0.37109805742E+04  0.36889890970E+04 0.  0.
        5    1    3    3  502    0  0.70975878453E+02  0.16094423821E+04  0.70186977169E+03  0.17572665202E+04  0.46999998093E+01 0. -1.
       -5    1    3    3    0  502 -0.70975878453E+02 -0.16094423821E+04 -0.11052756030E+04  0.19537140541E+04  0.46999998093E+01 0.  1.
</event>
<event>
 5   0  0.2282000E-08  0.3696900E+04  0.7818609E-02  0.8068649E-01
        1   -1    0    0  501    0  0.00000000000E+00  0.00000000000E+00  0.14092465759E+04  0.14092465760E+04  0.50400001928E-02 0. -1.
       -1   -1    0    0    0  501  0.00000000000E+00  0.00000000000E+00 -0.24245349920E+04  0.24245349920E+04  0.50400001928E-02 0.  1.
    10030    2    1    2    0    0  0.00000000000E+00  0.00000000000E+00 -0.10152884161E+04  0.38337815680E+04  0.36969001262E+04 0.  0.
        5    1    3    3  502    0  0.35341709664E+03 -0.18050601776E+04 -0.31755517240E+03  0.18665500975E+04  0.46999998093E+01 0. -1.
       -5    1    3    3    0  502 -0.35341709664E+03  0.18050601776E+04 -0.69773324368E+03  0.19672314705E+04  0.46999998093E+01 0.  1.
</event>
<event>
 5   0  0.2282000E-08  0.3697830E+04  0.7818609E-02  0.8068443E-01
       -1   -1    0    0    0  501  0.00000000000E+00  0.00000000000E+00  0.18046988178E+04  0.18046988178E+04  0.50400001928E-02 0.  1.
        1   -1    0    0  501    0  0.00000000000E+00  0.00000000000E+00 -0.18942144784E+04  0.18942144784E+04  0.50400001928E-02 0. -1.
    10030    2    1    2    0    0  0.00000000000E+00  0.00000000000E+00 -0.89515660618E+02  0.36989132963E+04  0.36978299744E+04 0.  0.
        3    1    3    3  502    0  0.13958598446E+04  0.11739960969E+04  0.25830795654E+03  0.18421222956E+04  0.10100000352E+00 0. -1.
       -3    1    3    3    0  502 -0.13958598446E+04 -0.11739960969E+04 -0.34782361716E+03  0.18567910007E+04  0.10100000352E+00 0.  1.
</event>
<event>
 5   0  0.7254493E-08  0.3694487E+04  0.7818609E-02  0.8069185E-01
        2   -1    0    0  501    0  0.00000000000E+00  0.00000000000E+00  0.17090705697E+04  0.17090705697E+04  0.25500000920E-02 0.  1.
       -2   -1    0    0    0  501  0.00000000000E+00  0.00000000000E+00 -0.19965874710E+04  0.19965874710E+04  0.25500000920E-02 0. -1.
    10030    2    1    2    0    0  0.00000000000E+00  0.00000000000E+00 -0.28751690133E+03  0.37056580407E+04  0.36944871831E+04 0.  0.
        3    1    3    3  502    0 -0.45916122129E+03 -0.70304287508E+02 -0.19370506290E+04  0.19919680895E+04  0.10100000352E+00 0. -1.
       -3    1    3    3    0  502  0.45916122129E+03  0.70304287508E+02  0.16495337277E+04  0.17136899512E+04  0.10100000352E+00 0.  1.
</event>
<event>
 5   0  0.7191801E-08  0.3699976E+04  0.7818609E-02  0.8067967E-01
        2   -1    0    0  501    0  0.00000000000E+00  0.00000000000E+00  0.16502569424E+04  0.16502569424E+04  0.25500000920E-02 0.  1.
       -2   -1    0    0    0  501  0.00000000000E+00  0.00000000000E+00 -0.20738920783E+04  0.20738920783E+04  0.25500000920E-02 0. -1.
    10030    2    1    2    0    0  0.00000000000E+00  0.00000000000E+00 -0.42363513582E+03  0.37241490207E+04  0.36999755675E+04 0.  0.
        5    1    3    3  502    0  0.11053167033E+04  0.96034327041E+03 -0.13498897638E+04  0.19915342518E+04  0.46999998093E+01 0. -1.
       -5    1    3    3    0  502 -0.11053167033E+04 -0.96034327041E+03  0.92625462798E+03  0.17326147689E+04  0.46999998093E+01 0.  1.
</event>
<event>
 5   0  0.2282000E-08  0.3696979E+04  0.7818609E-02  0.8068632E-01
        1   -1    0    0  501    0  0.00000000000E+00  0.00000000000E+00  0.24316650875E+04  0.24316650875E+04  0.50400001928E-02 0. -1.
       -1   -1    0    0    0  501  0.00000000000E+00  0.00000000000E+00 -0.14051746149E+04  0.14051746150E+04  0.50400001928E-02 0.  1.
    10030    2    1    2    0    0  0.00000000000E+00  0.00000000000E+00  0.10264904726E+04  0.38368397025E+04  0.36969793362E+04 0.  0.
        5    1    3    3  502    0  0.34675224965E+03  0.16699283991E+04  0.12529457429E+04  0.21163159276E+04  0.46999998093E+01 0. -1.
       -5    1    3    3    0  502 -0.34675224965E+03 -0.16699283991E+04 -0.22645527032E+03  0.17205237749E+04  0.46999998093E+01 0.  1.
</event>
<event>
 5   0  0.2282000E-08  0.3700242E+04  0.7818609E-02  0.8067908E-01
       -1   -1    0    0    0  501  0.00000000000E+00  0.00000000000E+00  0.14332234462E+04  0.14332234463E+04  0.50400001928E-02 0.  1.
        1   -1    0    0  501    0  0.00000000000E+00  0.00000000000E+00 -0.23882867804E+04  0.23882867804E+04  0.50400001928E-02 0. -1.
    10030    2    1    2    0    0  0.00000000000E+00  0.00000000000E+00 -0.95506333414E+03  0.38215102266E+04  0.37002424840E+04 0.  0.
        2    1    3    3  502    0  0.16199533631E+04  0.68807458514E+03 -0.10665320101E+04  0.20579567687E+04  0.25500000920E-02 0. -1.
       -2    1    3    3    0  502 -0.16199533631E+04 -0.68807458514E+03  0.11146867595E+03  0.17635534579E+04  0.25500000920E-02 0.  1.
</event>
<event>
 5   0  0.7203049E-08  0.3710189E+04  0.7818609E-02  0.8065707E-01
       -2   -1    0    0    0  501  0.00000000000E+00  0.00000000000E+00  0.14598735500E+04  0.14598735500E+04  0.25500000920E-02 0.  1.
        2   -1    0    0  501    0  0.00000000000E+00  0.00000000000E+00 -0.23573113424E+04  0.23573113424E+04  0.25500000920E-02 0. -1.
    10030    2    1    2    0    0  0.00000000000E+00  0.00000000000E+00 -0.89743779237E+03  0.38171848924E+04  0.37101894712E+04 0.  0.
        4    1    3    3  502    0  0.16448014982E+04 -0.31451579960E+03  0.37247368375E+03  0.17155262792E+04  0.12699999809E+01 0.  1.
       -4    1    3    3    0  502 -0.16448014982E+04  0.31451579960E+03 -0.12699114761E+04  0.21016586133E+04  0.12699999809E+01 0. -1.
</event>
<event>
 5   0  0.7191801E-08  0.3686874E+04  0.7818609E-02  0.8070877E-01
       -2   -1    0    0    0  501  0.00000000000E+00  0.00000000000E+00  0.26170701053E+04  0.26170701053E+04  0.25500000920E-02 0. -1.
        2   -1    0    0  501    0  0.00000000000E+00  0.00000000000E+00 -0.12984978329E+04  0.12984978329E+04  0.25500000920E-02 0.  1.
    10030    2    1    2    0    0  0.00000000000E+00  0.00000000000E+00  0.13185722723E+04  0.39155679382E+04  0.36868739389E+04 0.  0.
        5    1    3    3  502    0 -0.15472204322E+04  0.50635274306E+03  0.15777748091E+04  0.22670861484E+04  0.46999998093E+01 0. -1.
       -5    1    3    3    0  502  0.15472204322E+04 -0.50635274306E+03 -0.25920253675E+03  0.16484817898E+04  0.46999998093E+01 0.  1.
</event>
<event>
 5   0  0.2282000E-08  0.3704316E+04  0.7818609E-02  0.8067006E-01
        1   -1    0    0  501    0  0.00000000000E+00  0.00000000000E+00  0.20669106297E+04  0.20669106297E+04  0.50400001928E-02 0.  1.
       -1   -1    0    0    0  501  0.00000000000E+00  0.00000000000E+00 -0.16597184115E+04  0.16597184115E+04  0.50400001928E-02 0. -1.
    10030    2    1    2    0    0  0.00000000000E+00  0.00000000000E+00  0.40719221820E+03  0.37266290413E+04  0.37043161999E+04 0.  0.
        1    1    3    3  502    0  0.17481622252E+04  0.53778072976E+03  0.49726252501E+03  0.18954021467E+04  0.50400001928E-02 0.  1.
       -1    1    3    3    0  502 -0.17481622252E+04 -0.53778072976E+03 -0.90070306808E+02  0.18312268945E+04  0.50400001928E-02 0. -1.
</event>
<event>
 5   0  0.7309833E-08  0.3705985E+04  0.7818609E-02  0.8066637E-01
       -2   -1    0    0    0  501  0.00000000000E+00  0.00000000000E+00  0.31177254446E+04  0.31177254446E+04  0.25500000920E-02 0. -1.
        2   -1    0    0  501    0  0.00000000000E+00  0.00000000000E+00 -0.11013094560E+04  0.11013094560E+04  0.25500000920E-02 0.  1.
    10030    2    1    2    0    0  0.00000000000E+00  0.00000000000E+00  0.20164159886E+04  0.42190349006E+04  0.37059846267E+04 0.  0.
        2    1    3    3  502    0  0.17795164793E+04 -0.31639257418E+03  0.54326031907E+03  0.18873036151E+04  0.25500000920E-02 0. -1.
       -2    1    3    3    0  502 -0.17795164793E+04  0.31639257418E+03  0.14731556696E+04  0.23317312855E+04  0.25500000920E-02 0.  1.
</event>
<event>
 5   0  0.2282000E-08  0.3699833E+04  0.7818609E-02  0.8067999E-01
       -1   -1    0    0    0  501  0.00000000000E+00  0.00000000000E+00  0.13440776745E+04  0.13440776745E+04  0.50400001928E-02 0. -1.
        1   -1    0    0  501    0  0.00000000000E+00  0.00000000000E+00 -0.25461261782E+04  0.25461261782E+04  0.50400001928E-02 0.  1.
    10030    2    1    2    0    0  0.00000000000E+00  0.00000000000E+00 -0.12020485037E+04  0.38902038527E+04  0.36998331598E+04 0.  0.
        2    1    3    3  502    0  0.72764396820E+03  0.92271413078E+03  0.90123959465E+03  0.14809118537E+04  0.25500000920E-02 0. -1.
       -2    1    3    3    0  502 -0.72764396820E+03 -0.92271413078E+03 -0.21032880983E+04  0.24092919989E+04  0.25500000920E-02 0.  1.
</event>
<event>
 5   0  0.7362817E-08  0.3689538E+04  0.7818609E-02  0.8070284E-01
       -2   -1    0    0    0  501  0.00000000000E+00  0.00000000000E+00  0.13959404716E+04  0.13959404716E+04  0.25500000920E-02 0.  1.
        2   -1    0    0  501    0  0.00000000000E+00  0.00000000000E+00 -0.24379064505E+04  0.24379064505E+04  0.25500000920E-02 0. -1.
    10030    2    1    2    0    0  0.00000000000E+00  0.00000000000E+00 -0.10419659789E+04  0.38338469220E+04  0.36895377923E+04 0.  0.
        1    1    3    3  502    0  0.58100561919E+03 -0.14649439393E+03 -0.23339730016E+04  0.24096593347E+04  0.50400001928E-02 0. -1.
       -1    1    3    3    0  502 -0.58100561919E+03  0.14649439393E+03  0.12920070228E+04  0.14241875873E+04  0.50400001928E-02 0.  1.
</event>
<event>
 5   0  0.2282000E-08  0.3700721E+04  0.7818609E-02  0.8067802E-01
        1   -1    0    0  501    0  0.00000000000E+00  0.00000000000E+00  0.16360532438E+04  0.16360532438E+04  0.50400001928E-02 0.  1.
       -1   -1    0    0    0  501  0.00000000000E+00  0.00000000000E+00 -0.20927401718E+04  0.20927401718E+04  0.50400001928E-02 0. -1.
    10030    2    1    2    0    0  0.00000000000E+00  0.00000000000E+00 -0.45668692803E+03  0.37287934156E+04  0.37007211981E+04 0.  0.
        3    1    3    3  502    0 -0.14896482375E+04  0.67953212550E+03  0.64018045823E+03  0.17580235523E+04  0.10100000352E+00 0.  1.
       -3    1    3    3    0  502  0.14896482375E+04 -0.67953212550E+03 -0.10968673863E+04  0.19707698633E+04  0.10100000352E+00 0. -1.
</event>
<event>
 5   0  0.2282000E-08  0.3699947E+04  0.7818609E-02  0.8067974E-01
       -1   -1    0    0    0  501  0.00000000000E+00  0.00000000000E+00  0.13981416335E+04  0.13981416335E+04  0.50400001928E-02 0.  1.
        1   -1    0    0  501    0  0.00000000000E+00  0.00000000000E+00 -0.24478222404E+04  0.24478222404E+04  0.50400001928E-02 0. -1.
    10030    2    1    2    0    0  0.00000000000E+00  0.00000000000E+00 -0.10496806069E+04  0.38459638740E+04  0.36999471271E+04 0.  0.
        3    1    3    3  502    0  0.36407927785E+03  0.71661873366E+03 -0.22568222146E+04  0.23956925196E+04  0.10100000352E+00 0. -1.
       -3    1    3    3    0  502 -0.36407927785E+03 -0.71661873366E+03  0.12071416077E+04  0.14502713543E+04  0.10100000352E+00 0.  1.
</event>
<event>
 5   0  0.7203049E-08  0.3697543E+04  0.7818609E-02  0.8068506E-01
        2   -1    0    0  501    0  0.00000000000E+00  0.00000000000E+00  0.17880224550E+04  0.17880224550E+04  0.25500000920E-02 0. -1.
       -2   -1    0    0    0  501  0.00000000000E+00  0.00000000000E+00 -0.19115847481E+04  0.19115847481E+04  0.25500000920E-02 0.  1.
    10030    2    1    2    0    0  0.00000000000E+00  0.00000000000E+00 -0.12356229312E+03  0.36996072030E+04  0.36975432136E+04 0.  0.
        4    1    3    3  502    0  0.28227410368E+03  0.17862283987E+04  0.32270445690E+03  0.18369622591E+04  0.12699999809E+01 0. -1.
       -4    1    3    3    0  502 -0.28227410368E+03 -0.17862283987E+04 -0.44626675002E+03  0.18626449439E+04  0.12699999809E+01 0.  1.
</event>
<event>
 5   0  0.7362817E-08  0.3690249E+04  0.7818609E-02  0.8070126E-01
       -2   -1    0    0    0  501  0.00000000000E+00  0.00000000000E+00  0.11475214799E+04  0.11475214799E+04  0.25500000920E-02 0.  1.
        2   -1    0    0  501    0  0.00000000000E+00  0.00000000000E+00 -0.29668155083E+04  0.29668155083E+04  0.25500000920E-02 0. -1.
    10030    2    1    2    0    0  0.00000000000E+00  0.00000000000E+00 -0.18192940284E+04  0.41143369882E+04  0.36902490553E+04 0.  0.
        1    1    3    3  502    0 -0.77269488310E+03 -0.65865645769E+03  0.80805506049E+03  0.12976281025E+04  0.50400001928E-02 0.  1.
       -1    1    3    3    0  502  0.77269488310E+03  0.65865645769E+03 -0.26273490889E+04  0.28167088856E+04  0.50400001928E-02 0. -1.
</event>
<event>
 5   0  0.2282000E-08  0.3696280E+04  0.7818609E-02  0.8068787E-01
        1   -1    0    0  501    0  0.00000000000E+00  0.00000000000E+00  0.13717884081E+04  0.13717884081E+04  0.50400001928E-02 0.  1.
       -1   -1    0    0    0  501  0.00000000000E+00  0.00000000000E+00 -0.24899035024E+04  0.24899035025E+04  0.50400001928E-02 0. -1.
    10030    2    1    2    0    0  0.00000000000E+00  0.00000000000E+00 -0.11181150944E+04  0.38616919105E+04  0.36962796225E+04 0.  0.
        2    1    3    3  502    0 -0.15893995939E+04  0.30119897276E+03  0.37464180726E+03  0.16605024463E+04  0.25500000920E-02 0.  1.
       -2    1    3    3    0  502  0.15893995939E+04 -0.30119897276E+03 -0.14927569016E+04  0.22011894643E+04  0.25500000920E-02 0. -1.
</event>
<event>
 5   0  0.2282000E-08  0.3697568E+04  0.7818609E-02  0.8068501E-01
       -1   -1    0    0    0  501  0.00000000000E+00  0.00000000000E+00  0.21052125409E+04  0.21052125409E+04  0.50400001928E-02 0. -1.
        1   -1    0    0  501    0  0.00000000000E+00  0.00000000000E+00 -0.16235903676E+04  0.16235903676E+04  0.50400001928E-02 0.  1.
    10030    2    1    2    0    0  0.00000000000E+00  0.00000000000E+00  0.48162217330E+03  0.37288029085E+04  0.36975682837E+04 0.  0.
        4    1    3    3  502    0 -0.13142145723E+04  0.10439160182E+04  0.10226541360E+04  0.19653863971E+04  0.12699999809E+01 0. -1.
       -4    1    3    3    0  502  0.13142145723E+04 -0.10439160182E+04 -0.54103196268E+03  0.17634165114E+04  0.12699999809E+01 0.  1.
</event>
<event>
 5   0  0.2282000E-08  0.3702792E+04  0.7818609E-02  0.8067343E-01
       -1   -1    0    0    0  501  0.00000000000E+00  0.00000000000E+00  0.22890812625E+04  0.22890812625E+04  0.50400001928E-02 0.  1.
        1   -1    0    0  501    0  0.00000000000E+00  0.00000000000E+00 -0.14973983909E+04  0.14973983909E+04  0.50400001928E-02 0. -1.
    10030    2    1    2    0    0  0.00000000000E+00  0.00000000000E+00  0.79168287164E+03  0.37864796534E+04  0.37027917031E+04 0.  0.
        5    1    3    3  502    0  0.52835474150E+03  0.14935080252E+04 -0.58389363982E+03  0.16883953408E+04  0.46999998093E+01 0. -1.
       -5    1    3    3    0  502 -0.52835474150E+03 -0.14935080252E+04  0.13755765115E+04  0.20980843127E+04  0.46999998093E+01 0.  1.
</event>
<event>
 5   0  0.7309833E-08  0.3699682E+04  0.7818609E-02  0.8068032E-01
       -2   -1    0    0    0  501  0.00000000000E+00  0.00000000000E+00  0.12502741213E+04  0.12502741213E+04  0.25500000920E-02 0. -1.
        2   -1    0    0  501    0  0.00000000000E+00  0.00000000000E+00 -0.27369291905E+04  0.27369291905E+04  0.25500000920E-02 0.  1.
    10030    2    1    2    0    0  0.00000000000E+00  0.00000000000E+00 -0.14866550692E+04  0.39872033118E+04  0.36996820072E+04 0.  0.
        2    1    3    3  502    0  0.78812751326E+03 -0.15970128089E+03  0.10520508782E+04  0.13241829657E+04  0.25500000920E-02 0. -1.
       -2    1    3    3    0  502 -0.78812751326E+03  0.15970128089E+03 -0.25387059474E+04  0.26630203461E+04  0.25500000920E-02 0.  1.
</event>
<event>
 5   0  0.2282000E-08  0.3694374E+04  0.7818609E-02  0.8069210E-01
       -1   -1    0    0    0  501  0.00000000000E+00  0.00000000000E+00  0.13780235469E+04  0.13780235469E+04  0.50400001928E-02 0.  1.
        1   -1    0    0  501    0  0.00000000000E+00  0.00000000000E+00 -0.24760819108E+04  0.24760819108E+04  0.50400001928E-02 0. -1.
    10030    2    1    2    0    0  0.00000000000E+00  0.00000000000E+00 -0.10980583638E+04  0.38541054577E+04  0.36943736558E+04 0.  0.
        4    1    3    3  502    0 -0.32713131790E+03  0.14964641567E+03  0.13411266894E+04  0.13885356887E+04  0.12699999809E+01 0.  1.
       -4    1    3    3    0  502  0.32713131790E+03 -0.14964641567E+03 -0.24391850532E+04  0.24655697690E+04  0.12699999809E+01 0. -1.
</event>
<event>
 5   0  0.7191801E-08  0.3700078E+04  0.7818609E-02  0.8067945E-01
        2   -1    0    0  501    0  0.00000000000E+00  0.00000000000E+00  0.31038756676E+04  0.31038756676E+04  0.25500000920E-02 0.  1.
       -2   -1    0    0    0  501  0.00000000000E+00  0.00000000000E+00 -0.11027002250E+04  0.11027002250E+04  0.25500000920E-02 0. -1.
    10030    2    1    2    0    0  0.00000000000E+00  0.00000000000E+00  0.20011754426E+04  0.42065758926E+04  0.37000780516E+04 0.  0.
        5    1    3    3  502    0 -0.10029428022E+04  0.13599624432E+04  0.14434377500E+03  0.16959508622E+04  0.46999998093E+01 0. -1.
       -5    1    3    3    0  502  0.10029428022E+04 -0.13599624432E+04  0.18568316676E+04  0.25106250304E+04  0.46999998093E+01 0.  1.
</event>
<event>
 5   0  0.2282000E-08  0.3701385E+04  0.7818609E-02  0.8067655E-01
        1   -1    0    0  501    0  0.00000000000E+00  0.00000000000E+00  0.17035069338E+04  0.17035069339E+04  0.50400001928E-02 0.  1.
       -1   -1    0    0    0  501  0.00000000000E+00  0.00000000000E+00 -0.20105954409E+04  0.20105954409E+04  0.50400001928E-02 0. -1.
    10030    2    1    2    0    0  0.00000000000E+00  0.00000000000E+00 -0.30708850703E+03  0.37141023747E+04  0.37013852946E+04 0.  0.
        5    1    3    3  502    0 -0.34297603464E+02 -0.11573897862E+04 -0.16022197725E+04  0.19768302234E+04  0.46999998093E+01 0. -1.
       -5    1    3    3    0  502  0.34297603464E+02  0.11573897862E+04  0.12951312655E+04  0.17372721513E+04  0.46999998093E+01 0.  1.
</event>
<event>
 5   0  0.2282000E-08  0.3702871E+04  0.7818609E-02  0.8067326E-01
       -1   -1    0    0    0  501  0.00000000000E+00  0.00000000000E+00  0.14393670021E+04  0.14393670021E+04  0.50400001928E-02 0. -1.
        1   -1    0    0  501    0  0.00000000000E+00  0.00000000000E+00 -0.23814731648E+04  0.23814731648E+04  0.50400001928E-02 0.  1.
    10030    2    1    2    0    0  0.00000000000E+00  0.00000000000E+00 -0.94210616272E+03  0.38208401669E+04  0.37028712588E+04 0.  0.
        1    1    3    3  502    0 -0.46972718458E+03  0.38234212492E+03  0.13342529857E+04  0.14652850092E+04  0.50400001928E-02 0. -1.
       -1    1    3    3    0  502  0.46972718458E+03 -0.38234212492E+03 -0.22763591484E+04  0.23555551577E+04  0.50400001928E-02 0.  1.
</event>
<event>
 5   0  0.7309833E-08  0.3694683E+04  0.7818609E-02  0.8069141E-01
        2   -1    0    0  501    0  0.00000000000E+00  0.00000000000E+00  0.18968954736E+04  0.18968954736E+04  0.25500000920E-02 0. -1.
       -2   -1    0    0    0  501  0.00000000000E+00  0.00000000000E+00 -0.17990824505E+04  0.17990824505E+04  0.25500000920E-02 0.  1.
    10030    2    1    2    0    0  0.00000000000E+00  0.00000000000E+00  0.97813023078E+02  0.36959779241E+04  0.36946834003E+04 0.  0.
        2    1    3    3  502    0  0.66493798214E+03 -0.11698893072E+04 -0.12171940235E+04  0.18144819652E+04  0.25500000920E-02 0.  1.
       -2    1    3    3    0  502 -0.66493798214E+03  0.11698893072E+04  0.13150070466E+04  0.18814959590E+04  0.25500000920E-02 0. -1.
</event>
<event>
 5   0  0.2282000E-08  0.3704372E+04  0.7818609E-02  0.8066994E-01
        1   -1    0    0  501    0  0.00000000000E+00  0.00000000000E+00  0.13933930941E+04  0.13933930942E+04  0.50400001928E-02 0.  1.
       -1   -1    0    0    0  501  0.00000000000E+00  0.00000000000E+00 -0.24620421123E+04  0.24620421123E+04  0.50400001928E-02 0. -1.
    10030    2    1    2    0    0  0.00000000000E+00  0.00000000000E+00 -0.10686490182E+04  0.38554352065E+04  0.37043717291E+04 0.  0.
        5    1    3    3  502    0  0.55814287290E+03  0.62273441181E+03  0.11857191769E+04  0.14509561229E+04  0.46999998093E+01 0.  1.
       -5    1    3    3    0  502 -0.55814287290E+03 -0.62273441181E+03 -0.22543681951E+04  0.24044790835E+04  0.46999998093E+01 0. -1.
</event>
<event>
 5   0  0.7362817E-08  0.3697756E+04  0.7818609E-02  0.8068459E-01
       -2   -1    0    0    0  501  0.00000000000E+00  0.00000000000E+00  0.11389405558E+04  0.11389405558E+04  0.25500000920E-02 0.  1.
        2   -1    0    0  501    0  0.00000000000E+00  0.00000000000E+00 -0.30013420972E+04  0.30013420972E+04  0.25500000920E-02 0. -1.
    10030    2    1    2    0    0  0.00000000000E+00  0.00000000000E+00 -0.18624015414E+04  0.41402826530E+04  0.36977562041E+04 0.  0.
        1    1    3    3  502    0  0.53867979878E+03 -0.11846718247E+04 -0.24016563006E+04  0.27315885935E+04  0.50400001928E-02 0. -1.
       -1    1    3    3    0  502 -0.53867979878E+03  0.11846718247E+04  0.53925475921E+03  0.14086940594E+04  0.50400001928E-02 0.  1.
</event>
<event>
 5   0  0.2282000E-08  0.3697942E+04  0.7818609E-02  0.8068418E-01
        1   -1    0    0  501    0  0.00000000000E+00  0.00000000000E+00  0.19752321754E+04  0.19752321754E+04  0.50400001928E-02 0.  1.
       -1   -1    0    0    0  501  0.00000000000E+00  0.00000000000E+00 -0.17307811474E+04  0.17307811474E+04  0.50400001928E-02 0. -1.
    10030    2    1    2    0    0  0.00000000000E+00  0.00000000000E+00  0.24445102803E+03  0.37060133229E+04  0.36979424609E+04 0.  0.
        1    1    3    3  502    0 -0.15197920180E+04 -0.47084851801E+02 -0.93207329156E+03  0.17834644325E+04  0.50400001928E-02 0. -1.
       -1    1    3    3    0  502  0.15197920180E+04  0.47084851801E+02  0.11765243196E+04  0.19225488903E+04  0.50400001928E-02 0.  1.
</event>
<event>
 5   0  0.2282000E-08  0.3701192E+04  0.7818609E-02  0.8067698E-01
       -1   -1    0    0    0  501  0.00000000000E+00  0.00000000000E+00  0.12755858870E+04  0.12755858870E+04  0.50400001928E-02 0. -1.
        1   -1    0    0  501    0  0.00000000000E+00  0.00000000000E+00 -0.26848097529E+04  0.26848097529E+04  0.50400001928E-02 0.  1.
    10030    2    1    2    0    0  0.00000000000E+00  0.00000000000E+00 -0.14092238659E+04  0.39603956398E+04  0.37011919323E+04 0.  0.
        2    1    3    3  502    0 -0.92106429709E+02  0.16733980003E+04 -0.15444074720E+04  0.22790214789E+04  0.25500000920E-02 0.  1.
       -2    1    3    3    0  502  0.92106429709E+02 -0.16733980003E+04  0.13518360607E+03  0.16813741610E+04  0.25500000920E-02 0. -1.
</event>
<event>
 5   0  0.7203049E-08  0.3703642E+04  0.7818609E-02  0.8067155E-01
        2   -1    0    0  501    0  0.00000000000E+00  0.00000000000E+00  0.16524076875E+04  0.16524076875E+04  0.25500000920E-02 0.  1.
       -2   -1    0    0    0  501  0.00000000000E+00  0.00000000000E+00 -0.20752996105E+04  0.20752996105E+04  0.25500000920E-02 0. -1.
    10030    2    1    2    0    0  0.00000000000E+00  0.00000000000E+00 -0.42289192295E+03  0.37277072980E+04  0.37036420077E+04 0.  0.
        4    1    3    3  502    0  0.17135534559E+04  0.26359151564E+03 -0.86643822295E+03  0.19381596272E+04  0.12699999809E+01 0. -1.
       -4    1    3    3    0  502 -0.17135534559E+04 -0.26359151564E+03  0.44354630000E+03  0.17895476709E+04  0.12699999809E+01 0.  1.
</event>
<event>
 5   0  0.7309833E-08  0.3711312E+04  0.7818609E-02  0.8065460E-01
       -2   -1    0    0    0  501  0.00000000000E+00  0.00000000000E+00  0.22143239187E+04  0.22143239187E+04  0.25500000920E-02 0.  1.
        2   -1    0    0  501    0  0.00000000000E+00  0.00000000000E+00 -0.15550835764E+04  0.15550835764E+04  0.25500000920E-02 0. -1.
    10030    2    1    2    0    0  0.00000000000E+00  0.00000000000E+00  0.65924034232E+03  0.37694074952E+04  0.37113117675E+04 0.  0.
        2    1    3    3  502    0  0.12620289466E+04 -0.13431084854E+04  0.10989764792E+03  0.18462759704E+04  0.25500000920E-02 0.  1.
       -2    1    3    3    0  502 -0.12620289466E+04  0.13431084854E+04  0.54934269440E+03  0.19231315248E+04  0.25500000920E-02 0. -1.
</event>
<event>
 5   0  0.7203049E-08  0.3705341E+04  0.7818609E-02  0.8066779E-01
       -2   -1    0    0    0  501  0.00000000000E+00  0.00000000000E+00  0.10282552496E+04  0.10282552496E+04  0.25500000920E-02 0.  1.
        2   -1    0    0  501    0  0.00000000000E+00  0.00000000000E+00 -0.33380704488E+04  0.33380704488E+04  0.25500000920E-02 0. -1.
    10030    2    1    2    0    0  0.00000000000E+00  0.00000000000E+00 -0.23098151993E+04  0.43663256984E+04  0.37053412596E+04 0.  0.
        4    1    3    3  502    0  0.54917502970E+03 -0.12990158021E+04 -0.25706165636E+04  0.29320822631E+04  0.12699999809E+01 0. -1.
       -4    1    3    3    0  502 -0.54917502970E+03  0.12990158021E+04  0.26080136438E+03  0.14342434353E+04  0.12699999809E+01 0.  1.
</event>
<event>
 5   0  0.2282000E-08  0.3693211E+04  0.7818609E-02  0.8069468E-01
       -1   -1    0    0    0  501  0.00000000000E+00  0.00000000000E+00  0.14773467847E+04  0.14773467847E+04  0.50400001928E-02 0. -1.
        1   -1    0    0  501    0  0.00000000000E+00  0.00000000000E+00 -0.23081592290E+04  0.23081592290E+04  0.50400001928E-02 0.  1.
    10030    2    1    2    0    0  0.00000000000E+00  0.00000000000E+00 -0.83081244425E+03  0.37855060137E+04  0.36932108608E+04 0.  0.
        2    1    3    3  502    0  0.15728932015E+04 -0.67185316747E+03  0.29810195650E+03  0.17361579647E+04  0.25500000920E-02 0. -1.
       -2    1    3    3    0  502 -0.15728932015E+04  0.67185316747E+03 -0.11289144008E+04  0.20493480490E+04  0.25500000920E-02 0.  1.
</event>
<event>
 5   0  0.7362817E-08  0.3702524E+04  0.7818609E-02  0.8067403E-01
       -2   -1    0    0    0  501  0.00000000000E+00  0.00000000000E+00  0.22510812424E+04  0.22510812424E+04  0.25500000920E-02 0. -1.
        2   -1    0    0  501    0  0.00000000000E+00  0.00000000000E+00 -0.15224553585E+04  0.15224553585E+04  0.25500000920E-02 0.  1.
    10030    2    1    2    0    0  0.00000000000E+00  0.00000000000E+00  0.72862588383E+03  0.37735366009E+04  0.37025238419E+04 0.  0.
        1    1    3    3  502    0 -0.13942457256E+04  0.12098649794E+04  0.22207881813E+03  0.18593045509E+04  0.50400001928E-02 0. -1.
       -1    1    3    3    0  502  0.13942457256E+04 -0.12098649794E+04  0.50654706571E+03  0.19142320500E+04  0.50400001928E-02 0.  1.
</event>
<event>
 5   0  0.2282000E-08  0.3693209E+04  0.7818609E-02  0.8069468E-01
       -1   -1    0    0    0  501  0.00000000000E+00  0.00000000000E+00  0.14074441636E+04  0.14074441636E+04  0.50400001928E-02 0. -1.
        1   -1    0    0  501    0  0.00000000000E+00  0.00000000000E+00 -0.24227945966E+04  0.24227945966E+04  0.50400001928E-02 0.  1.
    10030    2    1    2    0    0  0.00000000000E+00  0.00000000000E+00 -0.10153504331E+04  0.38302387602E+04  0.36932089649E+04 0.  0.
        4    1    3    3  502    0  0.33879450968E+03  0.27211798154E+03 -0.23690129766E+04  0.24085377331E+04  0.12699999809E+01 0.  1.
       -4    1    3    3    0  502 -0.33879450968E+03 -0.27211798154E+03  0.13536625435E+04  0.14217010271E+04  0.12699999809E+01 0. -1.
</event>
<event>
 5   0  0.2282000E-08  0.3701080E+04  0.7818609E-02  0.8067723E-01
        1   -1    0    0  501    0  0.00000000000E+00  0.00000000000E+00  0.14463343975E+04  0.14463343975E+04  0.50400001928E-02 0. -1.
       -1   -1    0    0    0  501  0.00000000000E+00  0.00000000000E+00 -0.23677082318E+04  0.23677082318E+04  0.50400001928E-02 0.  1.
    10030    2    1    2    0    0  0.00000000000E+00  0.00000000000E+00 -0.92137383434E+03  0.38140426293E+04  0.37010797661E+04 0.  0.
        2    1    3    3  502    0  0.98802625678E+03 -0.10937499262E+04 -0.16137724666E+04  0.21855768939E+04  0.25500000920E-02 0.  1.
       -2    1    3    3    0  502 -0.98802625678E+03  0.10937499262E+04  0.69239863229E+03  0.16284657353E+04  0.25500000920E-02 0. -1.
</event>
<event>
 5   0  0.2282000E-08  0.3697292E+04  0.7818609E-02  0.8068562E-01
        1   -1    0    0  501    0  0.00000000000E+00  0.00000000000E+00  0.28195419417E+04  0.28195419417E+04  0.50400001928E-02 0.  1.
       -1   -1    0    0    0  501  0.00000000000E+00  0.00000000000E+00 -0.12120734054E+04  0.12120734054E+04  0.50400001928E-02 0. -1.
    10030    2    1    2    0    0  0.00000000000E+00  0.00000000000E+00  0.16074685363E+04  0.40316153471E+04  0.36972918754E+04 0.  0.
        1    1    3    3  502    0 -0.39110005425E+03  0.15187224755E+04 -0.26355321355E+03  0.15902633450E+04  0.50400001928E-02 0. -1.
       -1    1    3    3    0  502  0.39110005425E+03 -0.15187224755E+04  0.18710217498E+04  0.24413520021E+04  0.50400001928E-02 0.  1.
</event>
<event>
 5   0  0.7362817E-08  0.3698333E+04  0.7818609E-02  0.8068331E-01
       -2   -1    0    0    0  501  0.00000000000E+00  0.00000000000E+00  0.13956083625E+04  0.13956083625E+04  0.25500000920E-02 0.  1.
        2   -1    0    0  501    0  0.00000000000E+00  0.00000000000E+00 -0.24501259176E+04  0.24501259176E+04  0.25500000920E-02 0. -1.
    10030    2    1    2    0    0  0.00000000000E+00  0.00000000000E+00 -0.10545175551E+04  0.38457342800E+04  0.36983327160E+04 0.  0.
        1    1    3    3  502    0 -0.16247778994E+03 -0.16802049540E+04  0.25776621167E+03  0.17076097738E+04  0.50400001928E-02 0.  1.
       -1    1    3    3    0  502  0.16247778994E+03  0.16802049540E+04 -0.13122837668E+04  0.21381245063E+04  0.50400001928E-02 0. -1.
</event>
<event>
 5   0  0.2282000E-08  0.3708060E+04  0.7818609E-02  0.8066178E-01
        1   -1    0    0  501    0  0.00000000000E+00  0.00000000000E+00  0.11749401098E+04  0.11749401098E+04  0.50400001928E-02 0.  1.
       -1   -1    0    0    0  501  0.00000000000E+00  0.00000000000E+00 -0.29256186190E+04  0.29256186190E+04  0.50400001928E-02 0. -1.
    10030    2    1    2    0    0  0.00000000000E+00  0.00000000000E+00 -0.17506785091E+04  0.41005587288E+04  0.37080596875E+04 0.  0.
        3    1    3    3  502    0 -0.10390574043E+04 -0.14059748343E+04 -0.19273207973E+03  0.17588493935E+04  0.10100000352E+00 0.  1.
       -3    1    3    3    0  502  0.10390574043E+04  0.14059748343E+04 -0.15579464294E+04  0.23417093354E+04  0.10100000352E+00 0. -1.
</event>
<event>
 5   0  0.2282000E-08  0.3683538E+04  0.7818609E-02  0.8071620E-01
       -1   -1    0    0    0  501  0.00000000000E+00  0.00000000000E+00  0.18320310791E+04  0.18320310791E+04  0.50400001928E-02 0.  1.
        1   -1    0    0  501    0  0.00000000000E+00  0.00000000000E+00 -0.18515587229E+04  0.18515587229E+04  0.50400001928E-02 0. -1.
    10030    2    1    2    0    0  0.00000000000E+00  0.00000000000E+00 -0.19527643838E+02  0.36835898020E+04  0.36835380412E+04 0.  0.
        5    1    3    3  502    0  0.15890593306E+04 -0.82094757389E+03 -0.44911787590E+03  0.18441240283E+04  0.46999998093E+01 0. -1.
       -5    1    3    3    0  502 -0.15890593306E+04  0.82094757389E+03  0.42959023207E+03  0.18394657737E+04  0.46999998093E+01 0.  1.
</event>
<event>
 5   0  0.2282000E-08  0.3700936E+04  0.7818609E-02  0.8067754E-01
        1   -1    0    0  501    0  0.00000000000E+00  0.00000000000E+00  0.17095463386E+04  0.17095463386E+04  0.50400001928E-02 0. -1.
       -1   -1    0    0    0  501  0.00000000000E+00  0.00000000000E+00 -0.20030061008E+04  0.20030061009E+04  0.50400001928E-02 0.  1.
    10030    2    1    2    0    0  0.00000000000E+00  0.00000000000E+00 -0.29345976224E+03  0.37125524395E+04  0.37009359605E+04 0.  0.
        3    1    3    3  502    0 -0.13183761405E+04 -0.53155941358E+03  0.10417083730E+04  0.17623357803E+04  0.10100000352E+00 0. -1.
       -3    1    3    3    0  502  0.13183761405E+04  0.53155941358E+03 -0.13351681353E+04  0.19502166591E+04  0.10100000352E+00 0.  1.
</event>
<event>
 5   0  0.7309833E-08  0.3697800E+04  0.7818609E-02  0.8068449E-01
        2   -1    0    0  501    0  0.00000000000E+00  0.00000000000E+00  0.10341112741E+04  0.10341112741E+04  0.25500000920E-02 0. -1.
       -2   -1    0    0    0  501  0.00000000000E+00  0.00000000000E+00 -0.33056712470E+04  0.33056712470E+04  0.25500000920E-02 0.  1.
    10030    2    1    2    0    0  0.00000000000E+00  0.00000000000E+00 -0.22715599729E+04  0.43397825211E+04  0.36978003759E+04 0.  0.
        2    1    3    3  502    0  0.11421238184E+04 -0.11125025402E+04 -0.37136828425E+02  0.15948316095E+04  0.25500000920E-02 0. -1.
       -2    1    3    3    0  502 -0.11421238184E+04  0.11125025402E+04 -0.22344231445E+04  0.27449509116E+04  0.25500000920E-02 0.  1.
</event>
<event>
 5   0  0.7309833E-08  0.3700535E+04  0.7818609E-02  0.8067843E-01
        2   -1    0    0  501    0  0.00000000000E+00  0.00000000000E+00  0.21815375996E+04  0.21815375996E+04  0.25500000920E-02 0. -1.
       -2   -1    0    0    0  501  0.00000000000E+00  0.00000000000E+00 -0.15693012318E+04  0.15693012318E+04  0.25500000920E-02 0.  1.
    10030    2    1    2    0    0  0.00000000000E+00  0.00000000000E+00  0.61223636774E+03  0.37508388314E+04  0.37005349031E+04 0.  0.
        2    1    3    3  502    0 -0.47593021658E+02  0.75703739670E+03 -0.14044601171E+04  0.15962076733E+04  0.25500000920E-02 0.  1.
       -2    1    3    3    0  502  0.47593021658E+02 -0.75703739670E+03  0.20166964848E+04  0.21546311581E+04  0.25500000920E-02 0. -1.
</event>
<event>
 5   0  0.7203049E-08  0.3707941E+04  0.7818609E-02  0.8066204E-01
        2   -1    0    0  501    0  0.00000000000E+00  0.00000000000E+00  0.15816993441E+04  0.15816993441E+04  0.25500000920E-02 0. -1.
       -2   -1    0    0    0  501  0.00000000000E+00  0.00000000000E+00 -0.21731097967E+04  0.21731097967E+04  0.25500000920E-02 0.  1.
    10030    2    1    2    0    0  0.00000000000E+00  0.00000000000E+00 -0.59141045253E+03  0.37548091408E+04  0.37079408518E+04 0.  0.
        4    1    3    3  502    0 -0.93652393702E+03 -0.19523447608E+03  0.13124522317E+04  0.16241077731E+04  0.12699999809E+01 0. -1.
       -4    1    3    3    0  502  0.93652393702E+03  0.19523447608E+03 -0.19038626842E+04  0.21307013677E+04  0.12699999809E+01 0.  1.
</event>
<event>
 5   0  0.2282000E-08  0.3700629E+04  0.7818609E-02  0.8067822E-01
       -1   -1    0    0    0  501  0.00000000000E+00  0.00000000000E+00  0.18176506279E+04  0.18176506279E+04  0.50400001928E-02 0. -1.
        1   -1    0    0  501    0  0.00000000000E+00  0.00000000000E+00 -0.18835651357E+04  0.18835651357E+04  0.50400001928E-02 0.  1.
    10030    2    1    2    0    0  0.00000000000E+00  0.00000000000E+00 -0.65914507865E+02  0.37012157636E+04  0.37006287853E+04 0.  0.
        3    1    3    3  502    0 -0.15794635170E+04 -0.92439907566E+03  0.23993156392E+03  0.18457480376E+04  0.10100000352E+00 0. -1.
       -3    1    3    3    0  502  0.15794635170E+04  0.92439907566E+03 -0.30584607178E+03  0.18554677260E+04  0.10100000352E+00 0.  1.
</event>
<event>
 5   0  0.2282000E-08  0.3617509E+04  0.7818609E-02  0.8086493E-01
       -1   -1    0    0    0  501  0.00000000000E+00  0.00000000000E+00  0.13255216761E+04  0.13255216761E+04  0.50400001928E-02 0.  1.
        1   -1    0    0  501    0  0.00000000000E+00  0.00000000000E+00 -0.24681542535E+04  0.24681542535E+04  0.50400001928E-02 0. -1.
    10030    2    1    2    0    0  0.00000000000E+00  0.00000000000E+00 -0.11426325774E+04  0.37936759296E+04  0.36175085145E+04 0.  0.
        4    1    3    3  502    0  0.59978485860E+03  0.31639137278E+03  0.11871685599E+04  0.13671928101E+04  0.12699999809E+01 0.  1.
       -4    1    3    3    0  502 -0.59978485860E+03 -0.31639137278E+03 -0.23298011373E+04  0.24264831196E+04  0.12699999809E+01 0. -1.
</event>
<event>
 5   0  0.7191801E-08  0.3697628E+04  0.7818609E-02  0.8068488E-01
       -2   -1    0    0    0  501  0.00000000000E+00  0.00000000000E+00  0.18678918527E+04  0.18678918527E+04  0.25500000920E-02 0. -1.
        2   -1    0    0  501    0  0.00000000000E+00  0.00000000000E+00 -0.18299307281E+04  0.18299307281E+04  0.25500000920E-02 0.  1.
    10030    2    1    2    0    0  0.00000000000E+00  0.00000000000E+00  0.37961124649E+02  0.36978225808E+04  0.36976277249E+04 0.  0.
        5    1    3    3  502    0  0.18033862549E+04  0.23805637764E+02  0.42559996628E+03  0.18530855658E+04  0.46999998093E+01 0.  1.
       -5    1    3    3    0  502 -0.18033862549E+04 -0.23805637764E+02 -0.38763884163E+03  0.18447370150E+04  0.46999998093E+01 0. -1.
</event>
<event>
 5   0  0.2282000E-08  0.3702536E+04  0.7818609E-02  0.8067400E-01
        1   -1    0    0  501    0  0.00000000000E+00  0.00000000000E+00  0.26751492593E+04  0.26751492593E+04  0.50400001928E-02 0. -1.
       -1   -1    0    0    0  501  0.00000000000E+00  0.00000000000E+00 -0.12811222376E+04  0.12811222376E+04  0.50400001928E-02 0.  1.
    10030    2    1    2    0    0  0.00000000000E+00  0.00000000000E+00  0.13940270217E+04  0.39562714968E+04  0.37025359984E+04 0.  0.
        5    1    3    3  502    0  0.33731432171E+03 -0.14078757158E+04 -0.53586666767E+03  0.15437195854E+04  0.46999998093E+01 0.  1.
       -5    1    3    3    0  502 -0.33731432171E+03  0.14078757158E+04  0.19298936894E+04  0.24125519114E+04  0.46999998093E+01 0. -1.
</event>
<event>
 5   0  0.2282000E-08  0.3691359E+04  0.7818609E-02  0.8069880E-01
        1   -1    0    0  501    0  0.00000000000E+00  0.00000000000E+00  0.22609172850E+04  0.22609172850E+04  0.50400001928E-02 0.  1.
       -1   -1    0    0    0  501  0.00000000000E+00  0.00000000000E+00 -0.15067036747E+04  0.15067036747E+04  0.50400001928E-02 0. -1.
    10030    2    1    2    0    0  0.00000000000E+00  0.00000000000E+00  0.75421361025E+03  0.37676209597E+04  0.36913587642E+04 0.  0.
        2    1    3    3  502    0 -0.13508441117E+04 -0.51724490068E+03  0.15471809365E+04  0.21180394122E+04  0.25500000920E-02 0.  1.
       -2    1    3    3    0  502  0.13508441117E+04  0.51724490068E+03 -0.79296732622E+03  0.16495815475E+04  0.25500000920E-02 0. -1.
</event>
<event>
 5   0  0.7254493E-08  0.3696575E+04  0.7818609E-02  0.8068721E-01
       -2   -1    0    0    0  501  0.00000000000E+00  0.00000000000E+00  0.10611624285E+04  0.10611624285E+04  0.25500000920E-02 0. -1.
        2   -1    0    0  501    0  0.00000000000E+00  0.00000000000E+00 -0.32192678631E+04  0.32192678631E+04  0.25500000920E-02 0.  1.
    10030    2    1    2    0    0  0.00000000000E+00  0.00000000000E+00 -0.21581054346E+04  0.42804302916E+04  0.36965746867E+04 0.  0.
        3    1    3    3  502    0  0.80789216060E+03  0.41099894306E+03 -0.29442272902E+04  0.30805980298E+04  0.10100000352E+00 0.  1.
       -3    1    3    3    0  502 -0.80789216060E+03 -0.41099894306E+03  0.78612185561E+03  0.11998322618E+04  0.10100000352E+00 0. -1.
</event>
<event>
 5   0  0.2282000E-08  0.3727795E+04  0.7818609E-02  0.8061830E-01
       -1   -1    0    0    0  501  0.00000000000E+00  0.00000000000E+00  0.27743213064E+04  0.27743213064E+04  0.50400001928E-02 0.  1.
        1   -1    0    0  501    0  0.00000000000E+00  0.00000000000E+00 -0.12522388839E+04  0.12522388839E+04  0.50400001928E-02 0. -1.
    10030    2    1    2    0    0  0.00000000000E+00  0.00000000000E+00  0.15220824225E+04  0.40265601902E+04  0.37277945309E+04 0.  0.
        3    1    3    3  502    0 -0.11691348470E+04  0.73308611328E+03  0.21143825888E+04  0.25248574776E+04  0.10100000352E+00 0.  1.
       -3    1    3    3    0  502  0.11691348470E+04 -0.73308611328E+03 -0.59230016628E+03  0.15017027127E+04  0.10100000352E+00 0. -1.
</event>
<event>
 5   0  0.2282000E-08  0.3695130E+04  0.7818609E-02  0.8069042E-01
        1   -1    0    0  501    0  0.00000000000E+00  0.00000000000E+00  0.17488289554E+04  0.17488289554E+04  0.50400001928E-02 0. -1.
       -1   -1    0    0    0  501  0.00000000000E+00  0.00000000000E+00 -0.19518760494E+04  0.19518760494E+04  0.50400001928E-02 0.  1.
    10030    2    1    2    0    0  0.00000000000E+00  0.00000000000E+00 -0.20304709401E+03  0.37007050049E+04  0.36951304998E+04 0.  0.
        3    1    3    3  502    0  0.14031562391E+04 -0.11927028720E+04 -0.25044141202E+03  0.18585231996E+04  0.10100000352E+00 0. -1.
       -3    1    3    3    0  502 -0.14031562391E+04  0.11927028720E+04  0.47394318013E+02  0.18421818053E+04  0.10100000352E+00 0.  1.
</event>
<event>
 5   0  0.2282000E-08  0.3692757E+04  0.7818609E-02  0.8069569E-01
       -1   -1    0    0    0  501  0.00000000000E+00  0.00000000000E+00  0.16402901101E+04  0.16402901101E+04  0.50400001928E-02 0. -1.
        1   -1    0    0  501    0  0.00000000000E+00  0.00000000000E+00 -0.20783606898E+04  0.20783606898E+04  0.50400001928E-02 0.  1.
    10030    2    1    2    0    0  0.00000000000E+00  0.00000000000E+00 -0.43807057973E+03  0.37186507999E+04  0.36927574980E+04 0.  0.
        3    1    3    3  502    0  0.14844610694E+04  0.10957891409E+04 -0.28833619886E+03  0.18674892989E+04  0.10100000352E+00 0. -1.
       -3    1    3    3    0  502 -0.14844610694E+04 -0.10957891409E+04 -0.14973438088E+03  0.18511615010E+04  0.10100000352E+00 0.  1.
</event>
<event>
 5   0  0.2282000E-08  0.3688867E+04  0.7818609E-02  0.8070433E-01
        1   -1    0    0  501    0  0.00000000000E+00  0.00000000000E+00  0.26343212545E+04  0.26343212545E+04  0.50400001928E-02 0.  1.
       -1   -1    0    0    0  501  0.00000000000E+00  0.00000000000E+00 -0.12913898446E+04  0.12913898446E+04  0.50400001928E-02 0. -1.
    10030    2    1    2    0    0  0.00000000000E+00  0.00000000000E+00  0.13429314099E+04  0.39257110991E+04  0.36888674227E+04 0.  0.
        2    1    3    3  502    0 -0.95249203269E+02 -0.20847913116E+03  0.26191061340E+04  0.26291163724E+04  0.25500000920E-02 0.  1.
       -2    1    3    3    0  502  0.95249203269E+02  0.20847913116E+03 -0.12761747241E+04  0.12965947267E+04  0.25500000920E-02 0. -1.
</event>
<event>
 5   0  0.2282000E-08  0.3700898E+04  0.7818609E-02  0.8067763E-01
        1   -1    0    0  501    0  0.00000000000E+00  0.00000000000E+00  0.28813266904E+04  0.28813266904E+04  0.50400001928E-02 0.  1.
       -1   -1    0    0    0  501  0.00000000000E+00  0.00000000000E+00 -0.11883976473E+04  0.11883976473E+04  0.50400001928E-02 0. -1.
    10030    2    1    2    0    0  0.00000000000E+00  0.00000000000E+00  0.16929290431E+04  0.40697243377E+04  0.37008981936E+04 0.  0.
        4    1    3    3  502    0  0.82150246760E+03  0.14685466508E+04  0.16930335521E+04  0.23870190178E+04  0.12699999809E+01 0.  1.
       -4    1    3    3    0  502 -0.82150246760E+03 -0.14685466508E+04 -0.10450893446E+00  0.16827053199E+04  0.12699999809E+01 0. -1.
</event>
<event>
 5   0  0.2282000E-08  0.3692390E+04  0.7818609E-02  0.8069650E-01
        1   -1    0    0  501    0  0.00000000000E+00  0.00000000000E+00  0.26042376413E+04  0.26042376413E+04  0.50400001928E-02 0. -1.
       -1   -1    0    0    0  501  0.00000000000E+00  0.00000000000E+00 -0.13088034602E+04  0.13088034602E+04  0.50400001928E-02 0.  1.
    10030    2    1    2    0    0  0.00000000000E+00  0.00000000000E+00  0.12954341811E+04  0.39130411015E+04  0.36923895982E+04 0.  0.
        4    1    3    3  502    0  0.48261927671E+03 -0.16011940794E+04  0.14765605256E+04  0.22309138139E+04  0.12699999809E+01 0. -1.
       -4    1    3    3    0  502 -0.48261927671E+03  0.16011940794E+04 -0.18112634453E+03  0.16821272876E+04  0.12699999809E+01 0.  1.
</event>
<event>
 5   0  0.7254493E-08  0.3698010E+04  0.7818609E-02  0.8068403E-01
        2   -1    0    0  501    0  0.00000000000E+00  0.00000000000E+00  0.20896528849E+04  0.20896528849E+04  0.25500000920E-02 0. -1.
       -2   -1    0    0    0  501  0.00000000000E+00  0.00000000000E+00 -0.16360709436E+04  0.16360709436E+04  0.25500000920E-02 0.  1.
    10030    2    1    2    0    0  0.00000000000E+00  0.00000000000E+00  0.45358194132E+03  0.37257238285E+04  0.36980104744E+04 0.  0.
        3    1    3    3  502    0  0.18222471424E+04  0.30324336561E+03  0.30662602914E+03  0.18725812983E+04  0.10100000352E+00 0. -1.
       -3    1    3    3    0  502 -0.18222471424E+04 -0.30324336561E+03  0.14695591218E+03  0.18531425302E+04  0.10100000352E+00 0.  1.
</event>
<event>
 5   0  0.7203049E-08  0.3698950E+04  0.7818609E-02  0.8068195E-01
       -2   -1    0    0    0  501  0.00000000000E+00  0.00000000000E+00  0.23576079678E+04  0.23576079678E+04  0.25500000920E-02 0.  1.
        2   -1    0    0  501    0  0.00000000000E+00  0.00000000000E+00 -0.14508593236E+04  0.14508593236E+04  0.25500000920E-02 0. -1.
    10030    2    1    2    0    0  0.00000000000E+00  0.00000000000E+00  0.90674864424E+03  0.38084672914E+04  0.36989498518E+04 0.  0.
        4    1    3    3  502    0  0.25960461342E+03 -0.83343297812E+03 -0.12254075410E+04  0.15045365860E+04  0.12699999809E+01 0. -1.
       -4    1    3    3    0  502 -0.25960461342E+03  0.83343297812E+03  0.21321561852E+04  0.23039307054E+04  0.12699999809E+01 0.  1.
</event>
<event>
 5   0  0.7203049E-08  0.3694906E+04  0.7818609E-02  0.8069092E-01
       -2   -1    0    0    0  501  0.00000000000E+00  0.00000000000E+00  0.18392257396E+04  0.18392257396E+04  0.25500000920E-02 0. -1.
        2   -1    0    0  501    0  0.00000000000E+00  0.00000000000E+00 -0.18557166711E+04  0.18557166711E+04  0.25500000920E-02 0.  1.
    10030    2    1    2    0    0  0.00000000000E+00  0.00000000000E+00 -0.16490931525E+02  0.36949424107E+04  0.36949056101E+04 0.  0.
        4    1    3    3  502    0 -0.72420639921E+03  0.11229341436E+03 -0.17041383938E+04  0.18550401607E+04  0.12699999809E+01 0.  1.
       -4    1    3    3    0  502  0.72420639921E+03 -0.11229341436E+03  0.16876474623E+04  0.18399022500E+04  0.12699999809E+01 0. -1.
</event>
<event>
 5   0  0.2282000E-08  0.3703420E+04  0.7818609E-02  0.8067204E-01
       -1   -1    0    0    0  501  0.00000000000E+00  0.00000000000E+00  0.22620094877E+04  0.22620094878E+04  0.50400001928E-02 0.  1.
        1   -1    0    0  501    0  0.00000000000E+00  0.00000000000E+00 -0.15158331679E+04  0.15158331679E+04  0.50400001928E-02 0. -1.
    10030    2    1    2    0    0  0.00000000000E+00  0.00000000000E+00  0.74617631984E+03  0.37778426557E+04  0.37034195051E+04 0.  0.
        5    1    3    3  502    0  0.16194834255E+03 -0.10866973962E+04  0.18935676888E+04  0.21892371225E+04  0.46999998093E+01 0.  1.
       -5    1    3    3    0  502 -0.16194834255E+03  0.10866973962E+04 -0.11473913689E+04  0.15886055332E+04  0.46999998093E+01 0. -1.
</event>
<event>
 5   0  0.2282000E-08  0.3699891E+04  0.7818609E-02  0.8067986E-01
        1   -1    0    0  501    0  0.00000000000E+00  0.00000000000E+00  0.24597763159E+04  0.24597763159E+04  0.50400001928E-02 0. -1.
       -1   -1    0    0    0  501  0.00000000000E+00  0.00000000000E+00 -0.13913048054E+04  0.13913048054E+04  0.50400001928E-02 0.  1.
    10030    2    1    2    0    0  0.00000000000E+00  0.00000000000E+00  0.10684715105E+04  0.38510811213E+04  0.36998911382E+04 0.  0.
        3    1    3    3  502    0 -0.14064357773E+04  0.83227611266E+03  0.14365829334E+04  0.21758942203E+04  0.10100000352E+00 0. -1.
       -3    1    3    3    0  502  0.14064357773E+04 -0.83227611266E+03 -0.36811142297E+03  0.16751869010E+04  0.10100000352E+00 0.  1.
</event>
<event>
 5   0  0.7203049E-08  0.3698924E+04  0.7818609E-02  0.8068200E-01
        2   -1    0    0  501    0  0.00000000000E+00  0.00000000000E+00  0.14998131285E+04  0.14998131285E+04  0.25500000920E-02 0.  1.
       -2   -1    0    0    0  501  0.00000000000E+00  0.00000000000E+00 -0.22806244286E+04  0.22806244286E+04  0.25500000920E-02 0. -1.
    10030    2    1    2    0    0  0.00000000000E+00  0.00000000000E+00 -0.78081130008E+03  0.37804375571E+04  0.36989244162E+04 0.  0.
        4    1    3    3  502    0  0.12219650628E+04 -0.31435543141E+02  0.10280999630E+04  0.15972407317E+04  0.12699999809E+01 0.  1.
       -4    1    3    3    0  502 -0.12219650628E+04  0.31435543141E+02 -0.18089112631E+04  0.21831968255E+04  0.12699999809E+01 0. -1.
</event>
<event>
 5   0  0.7191801E-08  0.3705769E+04  0.7818609E-02  0.8066685E-01
       -2   -1    0    0    0  501  0.00000000000E+00  0.00000000000E+00  0.15425977489E+04  0.15425977489E+04  0.25500000920E-02 0. -1.
        2   -1    0    0  501    0  0.00000000000E+00  0.00000000000E+00 -0.22255835269E+04  0.22255835269E+04  0.25500000920E-02 0.  1.
    10030    2    1    2    0    0  0.00000000000E+00  0.00000000000E+00 -0.68298577793E+03  0.37681812758E+04  0.37057685511E+04 0.  0.
        5    1    3    3  502    0 -0.77399145485E+03  0.15223884722E+04 -0.10722257625E+04  0.20165365378E+04  0.46999998093E+01 0.  1.
       -5    1    3    3    0  502  0.77399145485E+03 -0.15223884722E+04  0.38923998453E+03  0.17516447380E+04  0.46999998093E+01 0. -1.
</event>
<event>
 5   0  0.2282000E-08  0.3700482E+04  0.7818609E-02  0.8067855E-01
       -1   -1    0    0    0  501  0.00000000000E+00  0.00000000000E+00  0.21403910796E+04  0.21403910796E+04  0.50400001928E-02 0.  1.
        1   -1    0    0  501    0  0.00000000000E+00  0.00000000000E+00 -0.15994233567E+04  0.15994233567E+04  0.50400001928E-02 0. -1.
    10030    2    1    2    0    0  0.00000000000E+00  0.00000000000E+00  0.54096772296E+03  0.37398144363E+04  0.37004818525E+04 0.  0.
        5    1    3    3  502    0 -0.11949439823E+04 -0.11453930737E+04 -0.56507657068E+03  0.17490426052E+04  0.46999998093E+01 0. -1.
       -5    1    3    3    0  502  0.11949439823E+04  0.11453930737E+04  0.11060442936E+04  0.19907718311E+04  0.46999998093E+01 0.  1.
</event>
<event>
 5   0  0.2282000E-08  0.3698499E+04  0.7818609E-02  0.8068295E-01
       -1   -1    0    0    0  501  0.00000000000E+00  0.00000000000E+00  0.13215350196E+04  0.13215350196E+04  0.50400001928E-02 0. -1.
        1   -1    0    0  501    0  0.00000000000E+00  0.00000000000E+00 -0.25876901389E+04  0.25876901389E+04  0.50400001928E-02 0.  1.
    10030    2    1    2    0    0  0.00000000000E+00  0.00000000000E+00 -0.12661551193E+04  0.39092251585E+04  0.36984986891E+04 0.  0.
        3    1    3    3  502    0 -0.49370355165E+03 -0.47601543729E+03  0.11821507722E+04  0.13666800474E+04  0.10100000352E+00 0. -1.
       -3    1    3    3    0  502  0.49370355165E+03  0.47601543729E+03 -0.24483058915E+04  0.25425451111E+04  0.10100000352E+00 0.  1.
</event>
<event>
 5   0  0.7309833E-08  0.3694432E+04  0.7818609E-02  0.8069197E-01
        2   -1    0    0  501    0  0.00000000000E+00  0.00000000000E+00  0.25542019098E+04  0.25542019098E+04  0.25500000920E-02 0.  1.
       -2   -1    0    0    0  501  0.00000000000E+00  0.00000000000E+00 -0.13359191393E+04  0.13359191393E+04  0.25500000920E-02 0. -1.
    10030    2    1    2    0    0  0.00000000000E+00  0.00000000000E+00  0.12182827705E+04  0.38901210492E+04  0.36944321442E+04 0.  0.
        2    1    3    3  502    0  0.38183118774E+03  0.17596248724E+04  0.10434605808E+04  0.20810777811E+04  0.25500000920E-02 0.  1.
       -2    1    3    3    0  502 -0.38183118774E+03 -0.17596248724E+04  0.17482218977E+03  0.18090432680E+04  0.25500000920E-02 0. -1.
</event>
<event>
 5   0  0.7191801E-08  0.3697402E+04  0.7818609E-02  0.8068538E-01
       -2   -1    0    0    0  501  0.00000000000E+00  0.00000000000E+00  0.17124595396E+04  0.17124595396E+04  0.25500000920E-02 0. -1.
        2   -1    0    0  501    0  0.00000000000E+00  0.00000000000E+00 -0.19957817459E+04  0.19957817459E+04  0.25500000920E-02 0.  1.
    10030    2    1    2    0    0  0.00000000000E+00  0.00000000000E+00 -0.28332220633E+03  0.37082412855E+04  0.36974020554E+04 0.  0.
        5    1    3    3  502    0 -0.11561665218E+04 -0.95958407819E+02 -0.15852362247E+04  0.19644146762E+04  0.46999998093E+01 0.  1.
       -5    1    3    3    0  502  0.11561665218E+04  0.95958407819E+02  0.13019140183E+04  0.17438266093E+04  0.46999998093E+01 0. -1.
</event>
<event>
 5   0  0.7362817E-08  0.3699709E+04  0.7818609E-02  0.8068026E-01
        2   -1    0    0  501    0  0.00000000000E+00  0.00000000000E+00  0.24698039459E+04  0.24698039459E+04  0.25500000920E-02 0. -1.
       -2   -1    0    0    0  501  0.00000000000E+00  0.00000000000E+00 -0.13855198849E+04  0.13855198849E+04  0.25500000920E-02 0.  1.
    10030    2    1    2    0    0  0.00000000000E+00  0.00000000000E+00  0.10842840610E+04  0.38553238308E+04  0.36997094366E+04 0.  0.
        1    1    3    3  502    0  0.69052530558E+03 -0.46484631194E+03  0.22636118161E+04  0.24118137874E+04  0.50400001928E-02 0. -1.
       -1    1    3    3    0  502 -0.69052530558E+03  0.46484631194E+03 -0.11793277550E+04  0.14435100433E+04  0.50400001928E-02 0.  1.
</event>
<event>
 5   0  0.7203049E-08  0.3679853E+04  0.7818609E-02  0.8072441E-01
        2   -1    0    0  501    0  0.00000000000E+00  0.00000000000E+00  0.18822762733E+04  0.18822762733E+04  0.25500000920E-02 0.  1.
       -2   -1    0    0    0  501  0.00000000000E+00  0.00000000000E+00 -0.17985298742E+04  0.17985298742E+04  0.25500000920E-02 0. -1.
    10030    2    1    2    0    0  0.00000000000E+00  0.00000000000E+00  0.83746399065E+02  0.36808061474E+04  0.36798533171E+04 0.  0.
        4    1    3    3  502    0  0.10726081486E+04  0.10405211000E+03  0.15335719955E+04  0.18743424874E+04  0.12699999809E+01 0.  1.
       -4    1    3    3    0  502 -0.10726081486E+04 -0.10405211000E+03 -0.14498255964E+04  0.18064636600E+04  0.12699999809E+01 0. -1.
</event>
<event>
 5   0  0.7191801E-08  0.3645759E+04  0.7818609E-02  0.8080090E-01
        2   -1    0    0  501    0  0.00000000000E+00  0.00000000000E+00  0.16277392291E+04  0.16277392291E+04  0.25500000920E-02 0.  1.
       -2   -1    0    0    0  501  0.00000000000E+00  0.00000000000E+00 -0.20414144626E+04  0.20414144626E+04  0.25500000920E-02 0. -1.
    10030    2    1    2    0    0  0.00000000000E+00  0.00000000000E+00 -0.41367523348E+03  0.36691536917E+04  0.36457594016E+04 0.  0.
        5    1    3    3  502    0 -0.61672130515E+03 -0.16500776660E+04  0.26496351949E+03  0.17813840767E+04  0.46999998093E+01 0. -1.
       -5    1    3    3    0  502  0.61672130515E+03  0.16500776660E+04 -0.67863875296E+03  0.18877696150E+04  0.46999998093E+01 0.  1.
</event>
<event>
 5   0  0.7254493E-08  0.3703005E+04  0.7818609E-02  0.8067296E-01
       -2   -1    0    0    0  501  0.00000000000E+00  0.00000000000E+00  0.18788363721E+04  0.18788363721E+04  0.25500000920E-02 0.  1.
        2   -1    0    0  501    0  0.00000000000E+00  0.00000000000E+00 -0.18245658285E+04  0.18245658285E+04  0.25500000920E-02 0. -1.
    10030    2    1    2    0    0  0.00000000000E+00  0.00000000000E+00  0.54270543623E+02  0.37034022005E+04  0.37030045324E+04 0.  0.
        3    1    3    3  502    0  0.38086427395E+03  0.11395867007E+04 -0.13816838831E+04  0.18310559266E+04  0.10100000352E+00 0. -1.
       -3    1    3    3    0  502 -0.38086427395E+03 -0.11395867007E+04  0.14359544267E+04  0.18723462739E+04  0.10100000352E+00 0.  1.
</event>
<event>
 5   0  0.2282000E-08  0.3709510E+04  0.7818609E-02  0.8065858E-01
       -1   -1    0    0    0  501  0.00000000000E+00  0.00000000000E+00  0.12024071388E+04  0.12024071388E+04  0.50400001928E-02 0.  1.
        1   -1    0    0  501    0  0.00000000000E+00  0.00000000000E+00 -0.28610242697E+04  0.28610242697E+04  0.50400001928E-02 0. -1.
    10030    2    1    2    0    0  0.00000000000E+00  0.00000000000E+00 -0.16586171309E+04  0.40634314085E+04  0.37095099440E+04 0.  0.
        4    1    3    3  502    0 -0.16604242471E+03 -0.15881971900E+04  0.20419943831E+03  0.16098569579E+04  0.12699999809E+01 0.  1.
       -4    1    3    3    0  502  0.16604242471E+03  0.15881971900E+04 -0.18628165692E+04  0.24535744506E+04  0.12699999809E+01 0. -1.
</event>
<event>
 5   0  0.7191801E-08  0.3702231E+04  0.7818609E-02  0.8067468E-01
        2   -1    0    0  501    0  0.00000000000E+00  0.00000000000E+00  0.24637583068E+04  0.24637583068E+04  0.25500000920E-02 0. -1.
       -2   -1    0    0    0  501  0.00000000000E+00  0.00000000000E+00 -0.13908136468E+04  0.13908136468E+04  0.25500000920E-02 0.  1.
    10030    2    1    2    0    0  0.00000000000E+00  0.00000000000E+00  0.10729446600E+04  0.38545719536E+04  0.37022310439E+04 0.  0.
        5    1    3    3  502    0 -0.26262951785E+03 -0.36057690807E+03 -0.13340100014E+04  0.14066253034E+04  0.46999998093E+01 0.  1.
       -5    1    3    3    0  502  0.26262951785E+03  0.36057690807E+03  0.24069546614E+04  0.24479466502E+04  0.46999998093E+01 0. -1.
</event>
<event>
 5   0  0.2282000E-08  0.3679244E+04  0.7818609E-02  0.8072577E-01
       -1   -1    0    0    0  501  0.00000000000E+00  0.00000000000E+00  0.16904479256E+04  0.16904479256E+04  0.50400001928E-02 0.  1.
        1   -1    0    0  501    0  0.00000000000E+00  0.00000000000E+00 -0.20019602042E+04  0.20019602042E+04  0.50400001928E-02 0. -1.
    10030    2    1    2    0    0  0.00000000000E+00  0.00000000000E+00 -0.31151227864E+03  0.36924081298E+04  0.36792442019E+04 0.  0.
        5    1    3    3  502    0 -0.42746917972E+02 -0.87640307388E+03 -0.17784139577E+04  0.19831005879E+04  0.46999998093E+01 0. -1.
       -5    1    3    3    0  502  0.42746917972E+02  0.87640307388E+03  0.14669016790E+04  0.17093075419E+04  0.46999998093E+01 0.  1.
</event>
<event>
 5   0  0.2282000E-08  0.3712565E+04  0.7818609E-02  0.8065183E-01
       -1   -1    0    0    0  501  0.00000000000E+00  0.00000000000E+00  0.16592802499E+04  0.16592802500E+04  0.50400001928E-02 0.  1.
        1   -1    0    0  501    0  0.00000000000E+00  0.00000000000E+00 -0.20766737881E+04  0.20766737881E+04  0.50400001928E-02 0. -1.
    10030    2    1    2    0    0  0.00000000000E+00  0.00000000000E+00 -0.41739353818E+03  0.37359540381E+04  0.37125645057E+04 0.  0.
        5    1    3    3  502    0  0.17056925810E+04  0.42810544498E+03 -0.80666282924E+03  0.19347838285E+04  0.46999998093E+01 0. -1.
       -5    1    3    3    0  502 -0.17056925810E+04 -0.42810544498E+03  0.38926929107E+03  0.18011702096E+04  0.46999998093E+01 0.  1.
</event>
<event>
 5   0  0.2282000E-08  0.3695926E+04  0.7818609E-02  0.8068865E-01
       -1   -1    0    0    0  501  0.00000000000E+00  0.00000000000E+00  0.12915705886E+04  0.12915705886E+04  0.50400001928E-02 0.  1.
        1   -1    0    0  501    0  0.00000000000E+00  0.00000000000E+00 -0.26440427741E+04  0.26440427741E+04  0.50400001928E-02 0. -1.
    10030    2    1    2    0    0  0.00000000000E+00  0.00000000000E+00 -0.13524721855E+04  0.39356133627E+04  0.36959263424E+04 0.  0.
        5    1    3    3  502    0  0.77984411720E+02 -0.12166846108E+04 -0.21550167380E+04  0.24759891441E+04  0.46999998093E+01 0. -1.
       -5    1    3    3    0  502 -0.77984411720E+02  0.12166846108E+04  0.80254455254E+03  0.14596242186E+04  0.46999998093E+01 0.  1.
</event>
<event>
 5   0  0.2282000E-08  0.3699910E+04  0.7818609E-02  0.8067982E-01
       -1   -1    0    0    0  501  0.00000000000E+00  0.00000000000E+00  0.16958510346E+04  0.16958510346E+04  0.50400001928E-02 0. -1.
        1   -1    0    0  501    0  0.00000000000E+00  0.00000000000E+00 -0.20180627783E+04  0.20180627783E+04  0.50400001928E-02 0.  1.
    10030    2    1    2    0    0  0.00000000000E+00  0.00000000000E+00 -0.32221174375E+03  0.37139138129E+04  0.36999101884E+04 0.  0.
        1    1    3    3  502    0 -0.15200023567E+04  0.75904677780E+03  0.57363082207E+03  0.17932126185E+04  0.50400001928E-02 0. -1.
       -1    1    3    3    0  502  0.15200023567E+04 -0.75904677780E+03 -0.89584256582E+03  0.19207011944E+04  0.50400001928E-02 0.  1.
</event>
<event>
 5   0  0.7254493E-08  0.3710004E+04  0.7818609E-02  0.8065748E-01
       -2   -1    0    0    0  501  0.00000000000E+00  0.00000000000E+00  0.26524435108E+04  0.26524435108E+04  0.25500000920E-02 0.  1.
        2   -1    0    0  501    0  0.00000000000E+00  0.00000000000E+00 -0.12973066673E+04  0.12973066673E+04  0.25500000920E-02 0. -1.
    10030    2    1    2    0    0  0.00000000000E+00  0.00000000000E+00  0.13551368436E+04  0.39497501781E+04  0.37100041246E+04 0.  0.
        3    1    3    3  502    0  0.34534365663E+03  0.17392517606E+04  0.97595189218E+02  0.17758895684E+04  0.10100000352E+00 0.  1.
       -3    1    3    3    0  502 -0.34534365663E+03 -0.17392517606E+04  0.12575416543E+04  0.21738606097E+04  0.10100000352E+00 0. -1.
</event>
<event>
 5   0  0.2282000E-08  0.3706000E+04  0.7818609E-02  0.8066633E-01
       -1   -1    0    0    0  501  0.00000000000E+00  0.00000000000E+00  0.15056633030E+04  0.15056633030E+04  0.50400001928E-02 0.  1.
        1   -1    0    0  501    0  0.00000000000E+00  0.00000000000E+00 -0.22804628273E+04  0.22804628273E+04  0.50400001928E-02 0. -1.
    10030    2    1    2    0    0  0.00000000000E+00  0.00000000000E+00 -0.77479952434E+03  0.37861261303E+04  0.37060001041E+04 0.  0.
        2    1    3    3  502    0  0.12287409673E+03 -0.11313020126E+04  0.11066367984E+04  0.15873207902E+04  0.25500000920E-02 0.  1.
       -2    1    3    3    0  502 -0.12287409673E+03  0.11313020126E+04 -0.18814363227E+04  0.21988053401E+04  0.25500000920E-02 0. -1.
</event>
<event>
 5   0  0.2282000E-08  0.3696413E+04  0.7818609E-02  0.8068757E-01
        1   -1    0    0  501    0  0.00000000000E+00  0.00000000000E+00  0.26437726397E+04  0.26437726397E+04  0.50400001928E-02 0. -1.
       -1   -1    0    0    0  501  0.00000000000E+00  0.00000000000E+00 -0.12920424243E+04  0.12920424243E+04  0.50400001928E-02 0.  1.
    10030    2    1    2    0    0  0.00000000000E+00  0.00000000000E+00  0.13517302154E+04  0.39358150640E+04  0.36964125369E+04 0.  0.
        4    1    3    3  502    0 -0.69190142585E+02  0.15204849852E+03  0.26357172488E+04  0.26410060678E+04  0.12699999809E+01 0. -1.
       -4    1    3    3    0  502  0.69190142585E+02 -0.15204849852E+03 -0.12839870334E+04  0.12948089962E+04  0.12699999809E+01 0.  1.
</event>
<event>
 5   0  0.7309833E-08  0.3719362E+04  0.7818609E-02  0.8063685E-01
        2   -1    0    0  501    0  0.00000000000E+00  0.00000000000E+00  0.20276087668E+04  0.20276087668E+04  0.25500000920E-02 0. -1.
       -2   -1    0    0    0  501  0.00000000000E+00  0.00000000000E+00 -0.17056609812E+04  0.17056609812E+04  0.25500000920E-02 0.  1.
    10030    2    1    2    0    0  0.00000000000E+00  0.00000000000E+00  0.32194778562E+03  0.37332697480E+04  0.37193618586E+04 0.  0.
        2    1    3    3  502    0  0.23394740601E+03 -0.17571465844E+04 -0.40337192480E+03  0.18179671113E+04  0.25500000920E-02 0. -1.
       -2    1    3    3    0  502 -0.23394740601E+03  0.17571465844E+04  0.72531971042E+03  0.19153026368E+04  0.25500000920E-02 0.  1.
</event>
<event>
 5   0  0.7309833E-08  0.3696481E+04  0.7818609E-02  0.8068742E-01
        2   -1    0    0  501    0  0.00000000000E+00  0.00000000000E+00  0.32261418051E+04  0.32261418051E+04  0.25500000920E-02 0. -1.
       -2   -1    0    0    0  501  0.00000000000E+00  0.00000000000E+00 -0.10588479973E+04  0.10588479973E+04  0.25500000920E-02 0.  1.
    10030    2    1    2    0    0  0.00000000000E+00  0.00000000000E+00  0.21672938078E+04  0.42849898024E+04  0.36964814564E+04 0.  0.
        2    1    3    3  502    0 -0.24780389648E+03 -0.16218559625E+02  0.32067142177E+04  0.32163155764E+04  0.25500000920E-02 0. -1.
       -2    1    3    3    0  502  0.24780389648E+03  0.16218559625E+02 -0.10394204099E+04  0.10686742260E+04  0.25500000920E-02 0.  1.
</event>
<event>
 5   0  0.2282000E-08  0.3695810E+04  0.7818609E-02  0.8068891E-01
       -1   -1    0    0    0  501  0.00000000000E+00  0.00000000000E+00  0.24043240237E+04  0.24043240237E+04  0.50400001928E-02 0. -1.
        1   -1    0    0  501    0  0.00000000000E+00  0.00000000000E+00 -0.14202546353E+04  0.14202546353E+04  0.50400001928E-02 0.  1.
    10030    2    1    2    0    0  0.00000000000E+00  0.00000000000E+00  0.98406938842E+03  0.38245786591E+04  0.36958097026E+04 0.  0.
        1    1    3    3  502    0  0.17034477145E+04  0.66808110689E+03  0.75926817480E+03  0.19810488744E+04  0.50400001928E-02 0. -1.
       -1    1    3    3    0  502 -0.17034477145E+04 -0.66808110689E+03  0.22480121362E+03  0.18435297847E+04  0.50400001928E-02 0.  1.
</event>
<event>
 5   0  0.7191801E-08  0.3703645E+04  0.7818609E-02  0.8067155E-01
        2   -1    0    0  501    0  0.00000000000E+00  0.00000000000E+00  0.25853160626E+04  0.25853160626E+04  0.25500000920E-02 0.  1.
       -2   -1    0    0    0  501  0.00000000000E+00  0.00000000000E+00 -0.13264322744E+04  0.13264322744E+04  0.25500000920E-02 0. -1.
    10030    2    1    2    0    0  0.00000000000E+00  0.00000000000E+00  0.12588837882E+04  0.39117483370E+04  0.37036450504E+04 0.  0.
        5    1    3    3  502    0  0.17139350438E+03 -0.13267359397E+04 -0.72298322944E+03  0.15206350078E+04  0.46999998093E+01 0. -1.
       -5    1    3    3    0  502 -0.17139350438E+03  0.13267359397E+04  0.19818670177E+04  0.23911133291E+04  0.46999998093E+01 0.  1.
</event>
<event>
 5   0  0.2282000E-08  0.3620898E+04  0.7818609E-02  0.8085721E-01
        1   -1    0    0  501    0  0.00000000000E+00  0.00000000000E+00  0.16288906543E+04  0.16288906543E+04  0.50400001928E-02 0. -1.
       -1   -1    0    0    0  501  0.00000000000E+00  0.00000000000E+00 -0.20122442760E+04  0.20122442760E+04  0.50400001928E-02 0.  1.
    10030    2    1    2    0    0  0.00000000000E+00  0.00000000000E+00 -0.38335362173E+03  0.36411349303E+04  0.36208981733E+04 0.  0.
        3    1    3    3  502    0  0.10979736964E+04  0.12763247209E+04  0.47775757502E+03  0.17500866669E+04  0.10100000352E+00 0.  1.
       -3    1    3    3    0  502 -0.10979736964E+04 -0.12763247209E+04 -0.86111119675E+03  0.18910482634E+04  0.10100000352E+00 0. -1.
</event>
<event>
 5   0  0.7203049E-08  0.3694142E+04  0.7818609E-02  0.8069261E-01
        2   -1    0    0  501    0  0.00000000000E+00  0.00000000000E+00  0.26475269210E+04  0.26475269210E+04  0.25500000920E-02 0. -1.
       -2   -1    0    0    0  501  0.00000000000E+00  0.00000000000E+00 -0.12886257392E+04  0.12886257392E+04  0.25500000920E-02 0.  1.
    10030    2    1    2    0    0  0.00000000000E+00  0.00000000000E+00  0.13589011818E+04  0.39361526602E+04  0.36941420307E+04 0.  0.
        4    1    3    3  502    0  0.12924540939E+04  0.63587464611E+03  0.19114403203E+04  0.23934034055E+04  0.12699999809E+01 0. -1.
       -4    1    3    3    0  502 -0.12924540939E+04 -0.63587464611E+03 -0.55253913854E+03  0.15427492547E+04  0.12699999809E+01 0.  1.
</event>
<event>
 5   0  0.2282000E-08  0.3692549E+04  0.7818609E-02  0.8069615E-01
        1   -1    0    0  501    0  0.00000000000E+00  0.00000000000E+00  0.15139883357E+04  0.15139883357E+04  0.50400001928E-02 0.  1.
       -1   -1    0    0    0  501  0.00000000000E+00  0.00000000000E+00 -0.22514894256E+04  0.22514894256E+04  0.50400001928E-02 0. -1.
    10030    2    1    2    0    0  0.00000000000E+00  0.00000000000E+00 -0.73750108988E+03  0.37654777614E+04  0.36925485662E+04 0.  0.
        2    1    3    3  502    0  0.11287296314E+04 -0.37018111305E+03  0.10725518308E+04  0.16004474584E+04  0.25500000920E-02 0.  1.
       -2    1    3    3    0  502 -0.11287296314E+04  0.37018111305E+03 -0.18100529207E+04  0.21650303030E+04  0.25500000920E-02 0. -1.
</event>
<event>
 5   0  0.2282000E-08  0.3697984E+04  0.7818609E-02  0.8068409E-01
       -1   -1    0    0    0  501  0.00000000000E+00  0.00000000000E+00  0.14906286117E+04  0.14906286117E+04  0.50400001928E-02 0.  1.
        1   -1    0    0  501    0  0.00000000000E+00  0.00000000000E+00 -0.22935102738E+04  0.22935102739E+04  0.50400001928E-02 0. -1.
    10030    2    1    2    0    0  0.00000000000E+00  0.00000000000E+00 -0.80288166212E+03  0.37841388856E+04  0.36979843350E+04 0.  0.
        3    1    3    3  502    0  0.86110887688E+03  0.12865268861E+04  0.63310864462E+03  0.16725688305E+04  0.10100000352E+00 0.  1.
       -3    1    3    3    0  502 -0.86110887688E+03 -0.12865268861E+04 -0.14359903067E+04  0.21115700551E+04  0.10100000352E+00 0. -1.
</event>
<event>
 5   0  0.2282000E-08  0.3700532E+04  0.7818609E-02  0.8067844E-01
        1   -1    0    0  501    0  0.00000000000E+00  0.00000000000E+00  0.20795086988E+04  0.20795086988E+04  0.50400001928E-02 0. -1.
       -1   -1    0    0    0  501  0.00000000000E+00  0.00000000000E+00 -0.16462950613E+04  0.16462950613E+04  0.50400001928E-02 0.  1.
    10030    2    1    2    0    0  0.00000000000E+00  0.00000000000E+00  0.43321363749E+03  0.37258037601E+04  0.37005323405E+04 0.  0.
        1    1    3    3  502    0  0.59055058216E+03  0.36505094957E+02  0.19816912235E+04  0.20681350820E+04  0.50400001928E-02 0. -1.
       -1    1    3    3    0  502 -0.59055058216E+03 -0.36505094957E+02 -0.15484775860E+04  0.16576686781E+04  0.50400001928E-02 0.  1.
</event>
<event>
 5   0  0.2282000E-08  0.3712490E+04  0.7818609E-02  0.8065200E-01
       -1   -1    0    0    0  501  0.00000000000E+00  0.00000000000E+00  0.31628062242E+04  0.31628062242E+04  0.50400001928E-02 0. -1.
        1   -1    0    0  501    0  0.00000000000E+00  0.00000000000E+00 -0.10894264491E+04  0.10894264491E+04  0.50400001928E-02 0.  1.
    10030    2    1    2    0    0  0.00000000000E+00  0.00000000000E+00  0.20733797751E+04  0.42522326733E+04  0.37124895981E+04 0.  0.
        3    1    3    3  502    0  0.12566806175E+04 -0.68301611596E+03  0.23918741543E+04  0.27869013562E+04  0.10100000352E+00 0. -1.
       -3    1    3    3    0  502 -0.12566806175E+04  0.68301611596E+03 -0.31849437922E+03  0.14653313171E+04  0.10100000352E+00 0.  1.
</event>
<event>
 5   0  0.7203049E-08  0.3704374E+04  0.7818609E-02  0.8066993E-01
       -2   -1    0    0    0  501  0.00000000000E+00  0.00000000000E+00  0.12578948919E+04  0.12578948919E+04  0.25500000920E-02 0. -1.
        2   -1    0    0  501    0  0.00000000000E+00  0.00000000000E+00 -0.27272523681E+04  0.27272523681E+04  0.25500000920E-02 0.  1.
    10030    2    1    2    0    0  0.00000000000E+00  0.00000000000E+00 -0.14693574762E+04  0.39851472600E+04  0.37043740754E+04 0.  0.
        4    1    3    3  502    0 -0.98556162881E+03  0.71533043696E+03 -0.22360068390E+04  0.25461259896E+04  0.12699999809E+01 0.  1.
       -4    1    3    3    0  502  0.98556162881E+03 -0.71533043696E+03  0.76664936275E+03  0.14390212704E+04  0.12699999809E+01 0. -1.
</event>
<event>
 5   0  0.7362817E-08  0.3699224E+04  0.7818609E-02  0.8068134E-01
       -2   -1    0    0    0  501  0.00000000000E+00  0.00000000000E+00  0.18810435203E+04  0.18810435203E+04  0.25500000920E-02 0.  1.
        2   -1    0    0  501    0  0.00000000000E+00  0.00000000000E+00 -0.18187054955E+04  0.18187054955E+04  0.25500000920E-02 0. -1.
    10030    2    1    2    0    0  0.00000000000E+00  0.00000000000E+00  0.62338024733E+02  0.36997490158E+04  0.36992238038E+04 0.  0.
        1    1    3    3  502    0  0.17773236076E+04 -0.50566388445E+03 -0.49396863052E+02  0.18485170327E+04  0.50400001928E-02 0. -1.
       -1    1    3    3    0  502 -0.17773236076E+04  0.50566388445E+03  0.11173488779E+03  0.18512319831E+04  0.50400001928E-02 0.  1.
</event>
<event>
 5   0  0.2282000E-08  0.3701993E+04  0.7818609E-02  0.8067520E-01
        1   -1    0    0  501    0  0.00000000000E+00  0.00000000000E+00  0.14591645445E+04  0.14591645445E+04  0.50400001928E-02 0.  1.
       -1   -1    0    0    0  501  0.00000000000E+00  0.00000000000E+00 -0.23480475762E+04  0.23480475762E+04  0.50400001928E-02 0. -1.
    10030    2    1    2    0    0  0.00000000000E+00  0.00000000000E+00 -0.88888303172E+03  0.38072121208E+04  0.37019928536E+04 0.  0.
        2    1    3    3  502    0  0.16532736242E+04 -0.63545168711E+03 -0.99738017177E+03  0.20327025681E+04  0.25500000920E-02 0. -1.
       -2    1    3    3    0  502 -0.16532736242E+04  0.63545168711E+03  0.10849714005E+03  0.17745095527E+04  0.25500000920E-02 0.  1.
</event>
<event>
 5   0  0.2282000E-08  0.3702832E+04  0.7818609E-02  0.8067334E-01
       -1   -1    0    0    0  501  0.00000000000E+00  0.00000000000E+00  0.14057193579E+04  0.14057193579E+04  0.50400001928E-02 0. -1.
        1   -1    0    0  501    0  0.00000000000E+00  0.00000000000E+00 -0.24384251838E+04  0.24384251838E+04  0.50400001928E-02 0.  1.
    10030    2    1    2    0    0  0.00000000000E+00  0.00000000000E+00 -0.10327058259E+04  0.38441445417E+04  0.37028321505E+04 0.  0.
        2    1    3    3  502    0 -0.69349707844E+03  0.69429021985E+03  0.11135186680E+04  0.14842172790E+04  0.25500000920E-02 0. -1.
       -2    1    3    3    0  502  0.69349707844E+03 -0.69429021985E+03 -0.21462244939E+04  0.23599272627E+04  0.25500000920E-02 0.  1.
</event>
<event>
 5   0  0.2282000E-08  0.3699977E+04  0.7818609E-02  0.8067967E-01
        3   -1    0    0  501    0  0.00000000000E+00  0.00000000000E+00  0.20516319259E+04  0.20516319284E+04  0.10100000352E+00 0.  1.
       -3   -1    0    0    0  501  0.00000000000E+00  0.00000000000E+00 -0.16681633781E+04  0.16681633812E+04  0.10100000352E+00 0. -1.
    10030    2    1    2    0    0  0.00000000000E+00  0.00000000000E+00  0.38346854776E+03  0.37197953095E+04  0.36999768942E+04 0.  0.
        3    1    3    3  502    0  0.18081263308E+04 -0.11575725220E+03  0.56755024486E+03  0.18986400028E+04  0.10100000352E+00 0.  1.
       -3    1    3    3    0  502 -0.18081263308E+04  0.11575725220E+03 -0.18408169711E+03  0.18211553067E+04  0.10100000352E+00 0. -1.
</event>
<event>
 5   0  0.7203049E-08  0.3691070E+04  0.7818609E-02  0.8069944E-01
        2   -1    0    0  501    0  0.00000000000E+00  0.00000000000E+00  0.31195115396E+04  0.31195115396E+04  0.25500000920E-02 0. -1.
       -2   -1    0    0    0  501  0.00000000000E+00  0.00000000000E+00 -0.10918376894E+04  0.10918376894E+04  0.25500000920E-02 0.  1.
    10030    2    1    2    0    0  0.00000000000E+00  0.00000000000E+00  0.20276738502E+04  0.42113492289E+04  0.36910704525E+04 0.  0.
        4    1    3    3  502    0  0.11193366395E+04  0.14115791041E+04  0.55670126301E+03  0.18855736498E+04  0.12699999809E+01 0.  1.
       -4    1    3    3    0  502 -0.11193366395E+04 -0.14115791041E+04  0.14709725872E+04  0.23257755792E+04  0.12699999809E+01 0. -1.
</event>
<event>
 5   0  0.2282000E-08  0.3701833E+04  0.7818609E-02  0.8067556E-01
       -1   -1    0    0    0  501  0.00000000000E+00  0.00000000000E+00  0.35013176626E+04  0.35013176626E+04  0.50400001928E-02 0.  1.
        1   -1    0    0  501    0  0.00000000000E+00  0.00000000000E+00 -0.97845789859E+03  0.97845789860E+03  0.50400001928E-02 0. -1.
    10030    2    1    2    0    0  0.00000000000E+00  0.00000000000E+00  0.25228597640E+04  0.44797755612E+04  0.37018330176E+04 0.  0.
        3    1    3    3  502    0  0.84702522308E+02 -0.18426106607E+04  0.14469556755E+04  0.23443697024E+04  0.10100000352E+00 0.  1.
       -3    1    3    3    0  502 -0.84702522308E+02  0.18426106607E+04  0.10759040885E+04  0.21354058589E+04  0.10100000352E+00 0. -1.
</event>
<event>
 5   0  0.7203049E-08  0.3751888E+04  0.7818609E-02  0.8056559E-01
        2   -1    0    0  501    0  0.00000000000E+00  0.00000000000E+00  0.21448991547E+04  0.21448991547E+04  0.25500000920E-02 0. -1.
       -2   -1    0    0    0  501  0.00000000000E+00  0.00000000000E+00 -0.16407142879E+04  0.16407142879E+04  0.25500000920E-02 0.  1.
    10030    2    1    2    0    0  0.00000000000E+00  0.00000000000E+00  0.50418486684E+03  0.37856134425E+04  0.37518884254E+04 0.  0.
        4    1    3    3  502    0 -0.54178041069E+03 -0.11231992688E+03 -0.15565107363E+04  0.16519288921E+04  0.12699999809E+01 0.  1.
       -4    1    3    3    0  502  0.54178041069E+03  0.11231992688E+03  0.20606956031E+04  0.21336845505E+04  0.12699999809E+01 0. -1.
</event>
<event>
 5   0  0.2282000E-08  0.3688303E+04  0.7818609E-02  0.8070559E-01
       -1   -1    0    0    0  501  0.00000000000E+00  0.00000000000E+00  0.12659388041E+04  0.12659388041E+04  0.50400001928E-02 0.  1.
        1   -1    0    0  501    0  0.00000000000E+00  0.00000000000E+00 -0.26864600145E+04  0.26864600145E+04  0.50400001928E-02 0. -1.
    10030    2    1    2    0    0  0.00000000000E+00  0.00000000000E+00 -0.14205212104E+04  0.39523988187E+04  0.36883025788E+04 0.  0.
        3    1    3    3  502    0 -0.11066923325E+04  0.55896722318E+03 -0.21731789573E+04  0.25019830267E+04  0.10100000352E+00 0. -1.
       -3    1    3    3    0  502  0.11066923325E+04 -0.55896722318E+03  0.75265774683E+03  0.14504157919E+04  0.10100000352E+00 0.  1.
</event>
<event>
 5   0  0.2282000E-08  0.3703101E+04  0.7818609E-02  0.8067275E-01
        1   -1    0    0  501    0  0.00000000000E+00  0.00000000000E+00  0.29738056296E+04  0.29738056296E+04  0.50400001928E-02 0.  1.
       -1   -1    0    0    0  501  0.00000000000E+00  0.00000000000E+00 -0.11528121719E+04  0.11528121719E+04  0.50400001928E-02 0. -1.
    10030    2    1    2    0    0  0.00000000000E+00  0.00000000000E+00  0.18209934577E+04  0.41266178014E+04  0.37031010392E+04 0.  0.
        3    1    3    3  502    0  0.68716791750E+03  0.65150896536E+03 -0.86256615712E+03  0.12808919019E+04  0.10100000352E+00 0. -1.
       -3    1    3    3    0  502 -0.68716791750E+03 -0.65150896536E+03  0.26835596148E+04  0.28457258995E+04  0.10100000352E+00 0.  1.
</event>
<event>
 5   0  0.7203049E-08  0.3710294E+04  0.7818609E-02  0.8065684E-01
        2   -1    0    0  501    0  0.00000000000E+00  0.00000000000E+00  0.29422514539E+04  0.29422514539E+04  0.25500000920E-02 0. -1.
       -2   -1    0    0    0  501  0.00000000000E+00  0.00000000000E+00 -0.11697062180E+04  0.11697062180E+04  0.25500000920E-02 0.  1.
    10030    2    1    2    0    0  0.00000000000E+00  0.00000000000E+00  0.17725452359E+04  0.41119576719E+04  0.37102936922E+04 0.  0.
        4    1    3    3  502    0  0.12834326223E+04  0.11917598269E+04  0.15641031050E+04  0.23481718244E+04  0.12699999809E+01 0. -1.
       -4    1    3    3    0  502 -0.12834326223E+04 -0.11917598269E+04  0.20844213091E+03  0.17637858475E+04  0.12699999809E+01 0.  1.
</event>
<event>
 5   0  0.7362817E-08  0.3704971E+04  0.7818609E-02  0.8066861E-01
        2   -1    0    0  501    0  0.00000000000E+00  0.00000000000E+00  0.28852247133E+04  0.28852247133E+04  0.25500000920E-02 0. -1.
       -2   -1    0    0    0  501  0.00000000000E+00  0.00000000000E+00 -0.11894058991E+04  0.11894058991E+04  0.25500000920E-02 0.  1.
    10030    2    1    2    0    0  0.00000000000E+00  0.00000000000E+00  0.16958188142E+04  0.40746306125E+04  0.37049714139E+04 0.  0.
        1    1    3    3  502    0 -0.40339299272E+03  0.95030590111E+03 -0.84370437472E+03  0.13332832723E+04  0.50400001928E-02 0.  1.
       -1    1    3    3    0  502  0.40339299272E+03 -0.95030590111E+03  0.25395231889E+04  0.27413473402E+04  0.50400001928E-02 0. -1.
</event>
<event>
 5   0  0.7309833E-08  0.3683324E+04  0.7818609E-02  0.8071667E-01
        2   -1    0    0  501    0  0.00000000000E+00  0.00000000000E+00  0.12023522973E+04  0.12023522973E+04  0.25500000920E-02 0. -1.
       -2   -1    0    0    0  501  0.00000000000E+00  0.00000000000E+00 -0.28209034097E+04  0.28209034097E+04  0.25500000920E-02 0.  1.
    10030    2    1    2    0    0  0.00000000000E+00  0.00000000000E+00 -0.16185511124E+04  0.40232557070E+04  0.36833244197E+04 0.  0.
        2    1    3    3  502    0  0.12321031281E+04 -0.12024963917E+03  0.68008061789E+03  0.14124615892E+04  0.25500000920E-02 0. -1.
       -2    1    3    3    0  502 -0.12321031281E+04  0.12024963917E+03 -0.22986317303E+04  0.26107941178E+04  0.25500000920E-02 0.  1.
</event>
<event>
 5   0  0.7203049E-08  0.3732388E+04  0.7818609E-02  0.8060822E-01
        2   -1    0    0  501    0  0.00000000000E+00  0.00000000000E+00  0.36184868775E+04  0.36184868775E+04  0.25500000920E-02 0.  1.
       -2   -1    0    0    0  501  0.00000000000E+00  0.00000000000E+00 -0.96246848726E+03  0.96246848726E+03  0.25500000920E-02 0. -1.
    10030    2    1    2    0    0  0.00000000000E+00  0.00000000000E+00  0.26560183902E+04  0.45809553648E+04  0.37323877565E+04 0.  0.
        4    1    3    3  502    0 -0.29398605006E+03  0.39296846988E+03  0.35378660969E+04  0.35717432926E+04  0.12699999809E+01 0.  1.
       -4    1    3    3    0  502  0.29398605006E+03 -0.39296846988E+03 -0.88184770665E+03  0.10092120721E+04  0.12699999809E+01 0. -1.
</event>
<event>
 5   0  0.2282000E-08  0.3702630E+04  0.7818609E-02  0.8067379E-01
        1   -1    0    0  501    0  0.00000000000E+00  0.00000000000E+00  0.19397255074E+04  0.19397255074E+04  0.50400001928E-02 0. -1.
       -1   -1    0    0    0  501  0.00000000000E+00  0.00000000000E+00 -0.17669341358E+04  0.17669341359E+04  0.50400001928E-02 0.  1.
    10030    2    1    2    0    0  0.00000000000E+00  0.00000000000E+00  0.17279137153E+03  0.37066596432E+04  0.37026299913E+04 0.  0.
        1    1    3    3  502    0 -0.13505121756E+04 -0.11602453880E+04 -0.42141835839E+03  0.18296573257E+04  0.50400001928E-02 0.  1.
       -1    1    3    3    0  502  0.13505121756E+04  0.11602453880E+04  0.59420972993E+03  0.18770023175E+04  0.50400001928E-02 0. -1.
</event>
<event>
 5   0  0.2282000E-08  0.3703744E+04  0.7818609E-02  0.8067133E-01
        1   -1    0    0  501    0  0.00000000000E+00  0.00000000000E+00  0.22690380716E+04  0.22690380716E+04  0.50400001928E-02 0.  1.
       -1   -1    0    0    0  501  0.00000000000E+00  0.00000000000E+00 -0.15114029188E+04  0.15114029188E+04  0.50400001928E-02 0. -1.
    10030    2    1    2    0    0  0.00000000000E+00  0.00000000000E+00  0.75763515280E+03  0.37804409904E+04  0.37037444644E+04 0.  0.
        3    1    3    3  502    0  0.70044678764E+03  0.81845876395E+03  0.19163066067E+04  0.21983474411E+04  0.10100000352E+00 0.  1.
       -3    1    3    3    0  502 -0.70044678764E+03 -0.81845876395E+03 -0.11586714539E+04  0.15820935494E+04  0.10100000352E+00 0. -1.
</event>
<event>
 5   0  0.7309833E-08  0.3702281E+04  0.7818609E-02  0.8067457E-01
        2   -1    0    0  501    0  0.00000000000E+00  0.00000000000E+00  0.15560282705E+04  0.15560282705E+04  0.25500000920E-02 0. -1.
       -2   -1    0    0    0  501  0.00000000000E+00  0.00000000000E+00 -0.22022224430E+04  0.22022224430E+04  0.25500000920E-02 0.  1.
    10030    2    1    2    0    0  0.00000000000E+00  0.00000000000E+00 -0.64619417252E+03  0.37582507135E+04  0.37022805832E+04 0.  0.
        2    1    3    3  502    0  0.64167636123E+03 -0.16947883563E+04  0.60322244021E+02  0.18132001815E+04  0.25500000920E-02 0.  1.
       -2    1    3    3    0  502 -0.64167636123E+03  0.16947883563E+04 -0.70651641654E+03  0.19450505320E+04  0.25500000920E-02 0. -1.
</event>
<event>
 5   0  0.2282000E-08  0.3685511E+04  0.7818609E-02  0.8071180E-01
        1   -1    0    0  501    0  0.00000000000E+00  0.00000000000E+00  0.23474515921E+04  0.23474515921E+04  0.50400001928E-02 0.  1.
       -1   -1    0    0    0  501  0.00000000000E+00  0.00000000000E+00 -0.14465674144E+04  0.14465674145E+04  0.50400001928E-02 0. -1.
    10030    2    1    2    0    0  0.00000000000E+00  0.00000000000E+00  0.90088417769E+03  0.37940190066E+04  0.36855105373E+04 0.  0.
        2    1    3    3  502    0  0.16478735292E+04  0.30158799178E+03 -0.33982104420E+03  0.17093626962E+04  0.25500000920E-02 0.  1.
       -2    1    3    3    0  502 -0.16478735292E+04 -0.30158799178E+03  0.12407052219E+04  0.20846563104E+04  0.25500000920E-02 0. -1.
</event>
<event>
 5   0  0.2282000E-08  0.3696369E+04  0.7818609E-02  0.8068767E-01
       -1   -1    0    0    0  501  0.00000000000E+00  0.00000000000E+00  0.16205735151E+04  0.16205735151E+04  0.50400001928E-02 0.  1.
        1   -1    0    0  501    0  0.00000000000E+00  0.00000000000E+00 -0.21077635312E+04  0.21077635312E+04  0.50400001928E-02 0. -1.
    10030    2    1    2    0    0  0.00000000000E+00  0.00000000000E+00 -0.48719001614E+03  0.37283370463E+04  0.36963688965E+04 0.  0.
        4    1    3    3  502    0 -0.19513729183E+03 -0.17632655875E+04 -0.76634363578E+03  0.19324772381E+04  0.12699999809E+01 0. -1.
       -4    1    3    3    0  502  0.19513729183E+03  0.17632655875E+04  0.27915361964E+03  0.17958598083E+04  0.12699999809E+01 0.  1.
</event>
<event>
 5   0  0.2282000E-08  0.3708065E+04  0.7818609E-02  0.8066177E-01
       -1   -1    0    0    0  501  0.00000000000E+00  0.00000000000E+00  0.14288642542E+04  0.14288642542E+04  0.50400001928E-02 0.  1.
        1   -1    0    0  501    0  0.00000000000E+00  0.00000000000E+00 -0.24057130108E+04  0.24057130108E+04  0.50400001928E-02 0. -1.
    10030    2    1    2    0    0  0.00000000000E+00  0.00000000000E+00 -0.97684875653E+03  0.38345772650E+04  0.37080654401E+04 0.  0.
        4    1    3    3  502    0 -0.12919822040E+04 -0.57937218225E+03 -0.17261498440E+04  0.22325960311E+04  0.12699999809E+01 0. -1.
       -4    1    3    3    0  502  0.12919822040E+04  0.57937218225E+03  0.74930108750E+03  0.16019812339E+04  0.12699999809E+01 0.  1.
</event>
<event>
 5   0  0.7309833E-08  0.3695664E+04  0.7818609E-02  0.8068923E-01
       -2   -1    0    0    0  501  0.00000000000E+00  0.00000000000E+00  0.16721112990E+04  0.16721112990E+04  0.25500000920E-02 0. -1.
        2   -1    0    0  501    0  0.00000000000E+00  0.00000000000E+00 -0.20420192346E+04  0.20420192346E+04  0.25500000920E-02 0.  1.
    10030    2    1    2    0    0  0.00000000000E+00  0.00000000000E+00 -0.36990793566E+03  0.37141305336E+04  0.36956641811E+04 0.  0.
        2    1    3    3  502    0  0.30515530463E+03  0.18224023894E+04 -0.19962850504E+03  0.18585267738E+04  0.25500000920E-02 0. -1.
       -2    1    3    3    0  502 -0.30515530463E+03 -0.18224023894E+04 -0.17027943062E+03  0.18556037598E+04  0.25500000920E-02 0.  1.
</event>
<event>
 5   0  0.2282000E-08  0.3698722E+04  0.7818609E-02  0.8068245E-01
       -1   -1    0    0    0  501  0.00000000000E+00  0.00000000000E+00  0.28546242592E+04  0.28546242592E+04  0.50400001928E-02 0.  1.
        1   -1    0    0  501    0  0.00000000000E+00  0.00000000000E+00 -0.11981038254E+04  0.11981038254E+04  0.50400001928E-02 0. -1.
    10030    2    1    2    0    0  0.00000000000E+00  0.00000000000E+00  0.16565204338E+04  0.40527280846E+04  0.36987220739E+04 0.  0.
        1    1    3    3  502    0 -0.67498810664E+03  0.13985821286E+04 -0.27209450793E+03  0.15766027832E+04  0.50400001928E-02 0. -1.
       -1    1    3    3    0  502  0.67498810664E+03 -0.13985821286E+04  0.19286149418E+04  0.24761253014E+04  0.50400001928E-02 0.  1.
</event>
<event>
 5   0  0.7309833E-08  0.3694489E+04  0.7818609E-02  0.8069184E-01
        2   -1    0    0  501    0  0.00000000000E+00  0.00000000000E+00  0.23897924135E+04  0.23897924135E+04  0.25500000920E-02 0. -1.
       -2   -1    0    0    0  501  0.00000000000E+00  0.00000000000E+00 -0.14278699572E+04  0.14278699572E+04  0.25500000920E-02 0.  1.
    10030    2    1    2    0    0  0.00000000000E+00  0.00000000000E+00  0.96192245632E+03  0.38176623708E+04  0.36944892969E+04 0.  0.
        2    1    3    3  502    0 -0.50271139817E+03  0.97306687887E+03 -0.10561588539E+04  0.15215286475E+04  0.25500000920E-02 0.  1.
       -2    1    3    3    0  502  0.50271139817E+03 -0.97306687887E+03  0.20180813102E+04  0.22961337233E+04  0.25500000920E-02 0. -1.
</event>
<event>
 5   0  0.7309833E-08  0.3701113E+04  0.7818609E-02  0.8067715E-01
        2   -1    0    0  501    0  0.00000000000E+00  0.00000000000E+00  0.18876707072E+04  0.18876707072E+04  0.25500000920E-02 0.  1.
       -2   -1    0    0    0  501  0.00000000000E+00  0.00000000000E+00 -0.18141717130E+04  0.18141717130E+04  0.25500000920E-02 0. -1.
    10030    2    1    2    0    0  0.00000000000E+00  0.00000000000E+00  0.73498994187E+02  0.37018424201E+04  0.37011126977E+04 0.  0.
        2    1    3    3  502    0 -0.16501950879E+04  0.16492173002E+02  0.87425739941E+03  0.18675496835E+04  0.25500000920E-02 0.  1.
       -2    1    3    3    0  502  0.16501950879E+04 -0.16492173002E+02 -0.80075840523E+03  0.18342927366E+04  0.25500000920E-02 0. -1.
</event>
<event>
 5   0  0.7309833E-08  0.3706065E+04  0.7818609E-02  0.8066619E-01
       -2   -1    0    0    0  501  0.00000000000E+00  0.00000000000E+00  0.11980694865E+04  0.11980694865E+04  0.25500000920E-02 0.  1.
        2   -1    0    0  501    0  0.00000000000E+00  0.00000000000E+00 -0.28660512492E+04  0.28660512492E+04  0.25500000920E-02 0. -1.
    10030    2    1    2    0    0  0.00000000000E+00  0.00000000000E+00 -0.16679817627E+04  0.40641207357E+04  0.37060645156E+04 0.  0.
        2    1    3    3  502    0 -0.13067207448E+04 -0.46517930828E+03  0.51346909984E+03  0.14790407061E+04  0.25500000920E-02 0.  1.
       -2    1    3    3    0  502  0.13067207448E+04  0.46517930828E+03 -0.21814508625E+04  0.25850800296E+04  0.25500000920E-02 0. -1.
</event>
<event>
 5   0  0.7362817E-08  0.3695856E+04  0.7818609E-02  0.8068881E-01
        2   -1    0    0  501    0  0.00000000000E+00  0.00000000000E+00  0.22809677715E+04  0.22809677715E+04  0.25500000920E-02 0.  1.
       -2   -1    0    0    0  501  0.00000000000E+00  0.00000000000E+00 -0.14971000776E+04  0.14971000776E+04  0.25500000920E-02 0. -1.
    10030    2    1    2    0    0  0.00000000000E+00  0.00000000000E+00  0.78386769395E+03  0.37780678491E+04  0.36958555316E+04 0.  0.
        1    1    3    3  502    0 -0.76415558506E+03  0.15990045895E+04  0.92711332825E+03  0.20000721384E+04  0.50400001928E-02 0.  1.
       -1    1    3    3    0  502  0.76415558506E+03 -0.15990045895E+04 -0.14324563430E+03  0.17779957107E+04  0.50400001928E-02 0. -1.
</event>
<event>
 5   0  0.2282000E-08  0.3673557E+04  0.7818609E-02  0.8073847E-01
        1   -1    0    0  501    0  0.00000000000E+00  0.00000000000E+00  0.12952558259E+04  0.12952558259E+04  0.50400001928E-02 0.  1.
       -1   -1    0    0    0  501  0.00000000000E+00  0.00000000000E+00 -0.26047015912E+04  0.26047015912E+04  0.50400001928E-02 0. -1.
    10030    2    1    2    0    0  0.00000000000E+00  0.00000000000E+00 -0.13094457652E+04  0.38999574171E+04  0.36735568109E+04 0.  0.
        2    1    3    3  502    0  0.81848236626E+03 -0.13415600186E+04  0.35469573329E+03  0.16110573331E+04  0.25500000920E-02 0.  1.
       -2    1    3    3    0  502 -0.81848236626E+03  0.13415600186E+04 -0.16641414985E+04  0.22889000840E+04  0.25500000920E-02 0. -1.
</event>
<event>
 5   0  0.7203049E-08  0.3702963E+04  0.7818609E-02  0.8067306E-01
       -2   -1    0    0    0  501  0.00000000000E+00  0.00000000000E+00  0.21680009008E+04  0.21680009008E+04  0.25500000920E-02 0.  1.
        2   -1    0    0  501    0  0.00000000000E+00  0.00000000000E+00 -0.15811723965E+04  0.15811723965E+04  0.25500000920E-02 0. -1.
    10030    2    1    2    0    0  0.00000000000E+00  0.00000000000E+00  0.58682850425E+03  0.37491732973E+04  0.37029626949E+04 0.  0.
        4    1    3    3  502    0  0.12403917630E+04  0.10821233657E+03 -0.10939780279E+04  0.16574290857E+04  0.12699999809E+01 0. -1.
       -4    1    3    3    0  502 -0.12403917630E+04 -0.10821233657E+03  0.16808065321E+04  0.20917442117E+04  0.12699999809E+01 0.  1.
</event>
<event>
 5   0  0.7191801E-08  0.3708947E+04  0.7818609E-02  0.8065982E-01
        2   -1    0    0  501    0  0.00000000000E+00  0.00000000000E+00  0.21892819626E+04  0.21892819626E+04  0.25500000920E-02 0.  1.
       -2   -1    0    0    0  501  0.00000000000E+00  0.00000000000E+00 -0.15708674352E+04  0.15708674352E+04  0.25500000920E-02 0. -1.
    10030    2    1    2    0    0  0.00000000000E+00  0.00000000000E+00  0.61841452735E+03  0.37601493978E+04  0.37089468810E+04 0.  0.
        5    1    3    3  502    0 -0.15468829452E+04  0.42387081597E+03 -0.63452298752E+03  0.17248637124E+04  0.46999998093E+01 0. -1.
       -5    1    3    3    0  502  0.15468829452E+04 -0.42387081597E+03  0.12529375149E+04  0.20352856853E+04  0.46999998093E+01 0.  1.
</event>
<event>
 5   0  0.2282000E-08  0.3699329E+04  0.7818609E-02  0.8068111E-01
       -1   -1    0    0    0  501  0.00000000000E+00  0.00000000000E+00  0.22296476169E+04  0.22296476169E+04  0.50400001928E-02 0. -1.
        1   -1    0    0  501    0  0.00000000000E+00  0.00000000000E+00 -0.15344389390E+04  0.15344389390E+04  0.50400001928E-02 0.  1.
    10030    2    1    2    0    0  0.00000000000E+00  0.00000000000E+00  0.69520867797E+03  0.37640865559E+04  0.36993286545E+04 0.  0.
        5    1    3    3  502    0 -0.58541227997E+02  0.10673067766E+04  0.18835538685E+04  0.21657257666E+04  0.46999998093E+01 0. -1.
       -5    1    3    3    0  502  0.58541227997E+02 -0.10673067766E+04 -0.11883451905E+04  0.15983607892E+04  0.46999998093E+01 0.  1.
</event>
<event>
 5   0  0.7191801E-08  0.3694603E+04  0.7818609E-02  0.8069159E-01
       -2   -1    0    0    0  501  0.00000000000E+00  0.00000000000E+00  0.18814598897E+04  0.18814598897E+04  0.25500000920E-02 0.  1.
        2   -1    0    0  501    0  0.00000000000E+00  0.00000000000E+00 -0.18137633784E+04  0.18137633784E+04  0.25500000920E-02 0. -1.
    10030    2    1    2    0    0  0.00000000000E+00  0.00000000000E+00  0.67696511304E+02  0.36952232680E+04  0.36946031157E+04 0.  0.
        5    1    3    3  502    0  0.39491990613E+03  0.17964359968E+04  0.20521566554E+03  0.18507510859E+04  0.46999998093E+01 0.  1.
       -5    1    3    3    0  502 -0.39491990613E+03 -0.17964359968E+04 -0.13751915423E+03  0.18444721821E+04  0.46999998093E+01 0. -1.
</event>
<event>
 5   0  0.2282000E-08  0.3695887E+04  0.7818609E-02  0.8068874E-01
        1   -1    0    0  501    0  0.00000000000E+00  0.00000000000E+00  0.20975442759E+04  0.20975442759E+04  0.50400001928E-02 0. -1.
       -1   -1    0    0    0  501  0.00000000000E+00  0.00000000000E+00 -0.16280444358E+04  0.16280444358E+04  0.50400001928E-02 0.  1.
    10030    2    1    2    0    0  0.00000000000E+00  0.00000000000E+00  0.46949984004E+03  0.37255887117E+04  0.36958870585E+04 0.  0.
        5    1    3    3  502    0  0.17236629271E+04  0.56842717350E+03 -0.11553346214E+03  0.18186515359E+04  0.46999998093E+01 0.  1.
       -5    1    3    3    0  502 -0.17236629271E+04 -0.56842717350E+03  0.58503330218E+03  0.19069371759E+04  0.46999998093E+01 0. -1.
</event>
<event>
 5   0  0.7191801E-08  0.3698742E+04  0.7818609E-02  0.8068241E-01
       -2   -1    0    0    0  501  0.00000000000E+00  0.00000000000E+00  0.23294910306E+04  0.23294910306E+04  0.25500000920E-02 0.  1.
        2   -1    0    0  501    0  0.00000000000E+00  0.00000000000E+00 -0.14682061930E+04  0.14682061930E+04  0.25500000920E-02 0. -1.
    10030    2    1    2    0    0  0.00000000000E+00  0.00000000000E+00  0.86128483761E+03  0.37976972236E+04  0.36987420335E+04 0.  0.
        5    1    3    3  502    0  0.13317450140E+04  0.29087643890E+03 -0.85259323421E+03  0.16078218801E+04  0.46999998093E+01 0. -1.
       -5    1    3    3    0  502 -0.13317450140E+04 -0.29087643890E+03  0.17138780718E+04  0.21898753435E+04  0.46999998093E+01 0.  1.
</event>
<event>
 5   0  0.7309833E-08  0.3698347E+04  0.7818609E-02  0.8068328E-01
       -2   -1    0    0    0  501  0.00000000000E+00  0.00000000000E+00  0.12239074995E+04  0.12239074995E+04  0.25500000920E-02 0. -1.
        2   -1    0    0  501    0  0.00000000000E+00  0.00000000000E+00 -0.27938738071E+04  0.27938738071E+04  0.25500000920E-02 0.  1.
    10030    2    1    2    0    0  0.00000000000E+00  0.00000000000E+00 -0.15699663076E+04  0.40177813065E+04  0.36983472552E+04 0.  0.
        2    1    3    3  502    0 -0.79397765670E+03 -0.15934165341E+04 -0.24172504021E+03  0.17966100761E+04  0.25500000920E-02 0.  1.
       -2    1    3    3    0  502  0.79397765670E+03  0.15934165341E+04 -0.13282412674E+04  0.22211712304E+04  0.25500000920E-02 0. -1.
</event>
<event>
 5   0  0.2282000E-08  0.3697636E+04  0.7818609E-02  0.8068486E-01
       -1   -1    0    0    0  501  0.00000000000E+00  0.00000000000E+00  0.14026214726E+04  0.14026214726E+04  0.50400001928E-02 0. -1.
        1   -1    0    0  501    0  0.00000000000E+00  0.00000000000E+00 -0.24369563894E+04  0.24369563894E+04  0.50400001928E-02 0.  1.
    10030    2    1    2    0    0  0.00000000000E+00  0.00000000000E+00 -0.10343349168E+04  0.38395778621E+04  0.36976356552E+04 0.  0.
        1    1    3    3  502    0 -0.15122752783E+04  0.45853110020E+03 -0.15136406440E+04  0.21882265162E+04  0.50400001928E-02 0. -1.
       -1    1    3    3    0  502  0.15122752783E+04 -0.45853110020E+03  0.47930572723E+03  0.16513513458E+04  0.50400001928E-02 0.  1.
</event>
<event>
 5   0  0.2282000E-08  0.3699973E+04  0.7818609E-02  0.8067968E-01
       -1   -1    0    0    0  501  0.00000000000E+00  0.00000000000E+00  0.22011413968E+04  0.22011413968E+04  0.50400001928E-02 0. -1.
        1   -1    0    0  501    0  0.00000000000E+00  0.00000000000E+00 -0.15548525458E+04  0.15548525458E+04  0.50400001928E-02 0.  1.
    10030    2    1    2    0    0  0.00000000000E+00  0.00000000000E+00  0.64628885103E+03  0.37559939426E+04  0.36999731374E+04 0.  0.
        3    1    3    3  502    0 -0.29031305304E+03 -0.81186301684E+03 -0.13384173170E+04  0.15920942659E+04  0.10100000352E+00 0.  1.
       -3    1    3    3    0  502  0.29031305304E+03  0.81186301684E+03  0.19847061680E+04  0.21638996766E+04  0.10100000352E+00 0. -1.
</event>
<event>
 5   0  0.7203049E-08  0.3692008E+04  0.7818609E-02  0.8069735E-01
        2   -1    0    0  501    0  0.00000000000E+00  0.00000000000E+00  0.24450136313E+04  0.24450136313E+04  0.25500000920E-02 0.  1.
       -2   -1    0    0    0  501  0.00000000000E+00  0.00000000000E+00 -0.13937472209E+04  0.13937472209E+04  0.25500000920E-02 0. -1.
    10030    2    1    2    0    0  0.00000000000E+00  0.00000000000E+00  0.10512664104E+04  0.38387608522E+04  0.36920081006E+04 0.  0.
        4    1    3    3  502    0  0.13783248537E+04 -0.12237984484E+04  0.42027788836E+03  0.18905282757E+04  0.12699999809E+01 0.  1.
       -4    1    3    3    0  502 -0.13783248537E+04  0.12237984484E+04  0.63098852203E+03  0.19482325766E+04  0.12699999809E+01 0. -1.
</event>
<event>
 5   0  0.7203049E-08  0.3592727E+04  0.7818609E-02  0.8092160E-01
       -2   -1    0    0    0  501  0.00000000000E+00  0.00000000000E+00  0.20239931063E+04  0.20239931063E+04  0.25500000920E-02 0. -1.
        2   -1    0    0  501    0  0.00000000000E+00  0.00000000000E+00 -0.15943343751E+04  0.15943343751E+04  0.25500000920E-02 0.  1.
    10030    2    1    2    0    0  0.00000000000E+00  0.00000000000E+00  0.42965873118E+03  0.36183274814E+04  0.35927269779E+04 0.  0.
        4    1    3    3  502    0  0.10028564932E+04  0.10564637170E+04  0.12735495454E+04  0.19348815956E+04  0.12699999809E+01 0. -1.
       -4    1    3    3    0  502 -0.10028564932E+04 -0.10564637170E+04 -0.84389081421E+03  0.16834458859E+04  0.12699999809E+01 0.  1.
</event>
<event>
 5   0  0.7362817E-08  0.3699182E+04  0.7818609E-02  0.8068143E-01
        2   -1    0    0  501    0  0.00000000000E+00  0.00000000000E+00  0.17755677052E+04  0.17755677052E+04  0.25500000920E-02 0. -1.
       -2   -1    0    0    0  501  0.00000000000E+00  0.00000000000E+00 -0.19267001066E+04  0.19267001066E+04  0.25500000920E-02 0.  1.
    10030    2    1    2    0    0  0.00000000000E+00  0.00000000000E+00 -0.15113240138E+03  0.37022678118E+04  0.36991817943E+04 0.  0.
        1    1    3    3  502    0  0.17018388247E+04 -0.35488162249E+03  0.55645894833E+03  0.18253336442E+04  0.50400001928E-02 0.  1.
       -1    1    3    3    0  502 -0.17018388247E+04  0.35488162249E+03 -0.70759134971E+03  0.18769341676E+04  0.50400001928E-02 0. -1.
</event>
<event>
 5   0  0.7191801E-08  0.3697533E+04  0.7818609E-02  0.8068509E-01
       -2   -1    0    0    0  501  0.00000000000E+00  0.00000000000E+00  0.10214299616E+04  0.10214299616E+04  0.25500000920E-02 0. -1.
        2   -1    0    0  501    0  0.00000000000E+00  0.00000000000E+00 -0.33462284583E+04  0.33462284583E+04  0.25500000920E-02 0.  1.
    10030    2    1    2    0    0  0.00000000000E+00  0.00000000000E+00 -0.23247984967E+04  0.43676584199E+04  0.36975332348E+04 0.  0.
        5    1    3    3  502    0  0.33922881543E+03 -0.17097719642E+04 -0.43469709498E+03  0.17964910279E+04  0.46999998093E+01 0. -1.
       -5    1    3    3    0  502 -0.33922881543E+03  0.17097719642E+04 -0.18901014017E+04  0.25711673920E+04  0.46999998093E+01 0.  1.
</event>
<event>
 5   0  0.2282000E-08  0.3679124E+04  0.7818609E-02  0.8072604E-01
        1   -1    0    0  501    0  0.00000000000E+00  0.00000000000E+00  0.19041858282E+04  0.19041858282E+04  0.50400001928E-02 0. -1.
       -1   -1    0    0    0  501  0.00000000000E+00  0.00000000000E+00 -0.17771318350E+04  0.17771318350E+04  0.50400001928E-02 0.  1.
    10030    2    1    2    0    0  0.00000000000E+00  0.00000000000E+00  0.12705399317E+03  0.36813176633E+04  0.36791244911E+04 0.  0.
        3    1    3    3  502    0  0.13762558613E+04 -0.10713603900E+04 -0.52171136596E+03  0.18204603925E+04  0.10100000352E+00 0.  1.
       -3    1    3    3    0  502 -0.13762558613E+04  0.10713603900E+04  0.64876535913E+03  0.18608572708E+04  0.10100000352E+00 0. -1.
</event>
<event>
 5   0  0.2282000E-08  0.3699672E+04  0.7818609E-02  0.8068035E-01
        1   -1    0    0  501    0  0.00000000000E+00  0.00000000000E+00  0.14091209678E+04  0.14091209678E+04  0.50400001928E-02 0.  1.
       -1   -1    0    0    0  501  0.00000000000E+00  0.00000000000E+00 -0.24283880286E+04  0.24283880286E+04  0.50400001928E-02 0. -1.
    10030    2    1    2    0    0  0.00000000000E+00  0.00000000000E+00 -0.10192670608E+04  0.38375089964E+04  0.36996716011E+04 0.  0.
        1    1    3    3  502    0 -0.15209565057E+04 -0.92516296031E+03  0.11743808016E+02  0.17802733252E+04  0.50400001928E-02 0. -1.
       -1    1    3    3    0  502  0.15209565057E+04  0.92516296031E+03 -0.10310108688E+04  0.20572356712E+04  0.50400001928E-02 0.  1.
</event>
<event>
 5   0  0.7309833E-08  0.3734270E+04  0.7818609E-02  0.8060409E-01
        2   -1    0    0  501    0  0.00000000000E+00  0.00000000000E+00  0.13220635776E+04  0.13220635776E+04  0.25500000920E-02 0. -1.
       -2   -1    0    0    0  501  0.00000000000E+00  0.00000000000E+00 -0.26369331106E+04  0.26369331106E+04  0.25500000920E-02 0.  1.
    10030    2    1    2    0    0  0.00000000000E+00  0.00000000000E+00 -0.13148695331E+04  0.39589966882E+04  0.37342700610E+04 0.  0.
        2    1    3    3  502    0 -0.16195871162E+04 -0.79964218289E+03 -0.11588707420E+04  0.21460362169E+04  0.25500000920E-02 0.  1.
       -2    1    3    3    0  502  0.16195871162E+04  0.79964218289E+03 -0.15599879102E+03  0.18129604713E+04  0.25500000920E-02 0. -1.
</event>
<event>
 5   0  0.2282000E-08  0.3699328E+04  0.7818609E-02  0.8068111E-01
       -1   -1    0    0    0  501  0.00000000000E+00  0.00000000000E+00  0.16958598001E+04  0.16958598002E+04  0.50400001928E-02 0.  1.
        1   -1    0    0  501    0  0.00000000000E+00  0.00000000000E+00 -0.20174173318E+04  0.20174173318E+04  0.50400001928E-02 0. -1.
    10030    2    1    2    0    0  0.00000000000E+00  0.00000000000E+00 -0.32155753161E+03  0.37132771319E+04  0.36993280217E+04 0.  0.
        5    1    3    3  502    0  0.85201884573E+03 -0.56858652000E+03 -0.17067186663E+04  0.19905118538E+04  0.46999998093E+01 0. -1.
       -5    1    3    3    0  502 -0.85201884573E+03  0.56858652000E+03  0.13851611347E+04  0.17227652781E+04  0.46999998093E+01 0.  1.
</event>
<event>
 5   0  0.2282000E-08  0.3703041E+04  0.7818609E-02  0.8067288E-01
       -1   -1    0    0    0  501  0.00000000000E+00  0.00000000000E+00  0.17345581547E+04  0.17345581547E+04  0.50400001928E-02 0.  1.
        1   -1    0    0  501    0  0.00000000000E+00  0.00000000000E+00 -0.19763695266E+04  0.19763695266E+04  0.50400001928E-02 0. -1.
    10030    2    1    2    0    0  0.00000000000E+00  0.00000000000E+00 -0.24181137191E+03  0.37109276814E+04  0.37030408473E+04 0.  0.
        3    1    3    3  502    0  0.60605367683E+02 -0.17237642642E+04  0.55364875077E+03  0.18115085422E+04  0.10100000352E+00 0. -1.
       -3    1    3    3    0  502 -0.60605367683E+02  0.17237642642E+04 -0.79546012268E+03  0.18994191391E+04  0.10100000352E+00 0.  1.
</event>
<event>
 5   0  0.2282000E-08  0.3703348E+04  0.7818609E-02  0.8067220E-01
       -1   -1    0    0    0  501  0.00000000000E+00  0.00000000000E+00  0.21398348818E+04  0.21398348818E+04  0.50400001928E-02 0. -1.
        1   -1    0    0  501    0  0.00000000000E+00  0.00000000000E+00 -0.16023181996E+04  0.16023181996E+04  0.50400001928E-02 0.  1.
    10030    2    1    2    0    0  0.00000000000E+00  0.00000000000E+00  0.53751668227E+03  0.37421530814E+04  0.37033478774E+04 0.  0.
        2    1    3    3  502    0  0.56107318342E+03 -0.84140213661E+03  0.18361193836E+04  0.20962096898E+04  0.25500000920E-02 0. -1.
       -2    1    3    3    0  502 -0.56107318342E+03  0.84140213661E+03 -0.12986027013E+04  0.16459433917E+04  0.25500000920E-02 0.  1.
</event>
<event>
 5   0  0.7309833E-08  0.3705687E+04  0.7818609E-02  0.8066703E-01
        2   -1    0    0  501    0  0.00000000000E+00  0.00000000000E+00  0.14679581269E+04  0.14679581269E+04  0.25500000920E-02 0. -1.
       -2   -1    0    0    0  501  0.00000000000E+00  0.00000000000E+00 -0.23386422089E+04  0.23386422089E+04  0.25500000920E-02 0.  1.
    10030    2    1    2    0    0  0.00000000000E+00  0.00000000000E+00 -0.87068408203E+03  0.38066003358E+04  0.37056868926E+04 0.  0.
        2    1    3    3  502    0  0.18121104969E+04 -0.23989876701E+03 -0.74646443827E+03  0.19744632255E+04  0.25500000920E-02 0. -1.
       -2    1    3    3    0  502 -0.18121104969E+04  0.23989876701E+03 -0.12421964376E+03  0.18321371104E+04  0.25500000920E-02 0.  1.
</event>
<event>
 5   0  0.7254493E-08  0.3696600E+04  0.7818609E-02  0.8068716E-01
       -2   -1    0    0    0  501  0.00000000000E+00  0.00000000000E+00  0.12940194964E+04  0.12940194964E+04  0.25500000920E-02 0. -1.
        2   -1    0    0  501    0  0.00000000000E+00  0.00000000000E+00 -0.26400004228E+04  0.26400004228E+04  0.25500000920E-02 0.  1.
    10030    2    1    2    0    0  0.00000000000E+00  0.00000000000E+00 -0.13459809264E+04  0.39340199192E+04  0.36965995280E+04 0.  0.
        3    1    3    3  502    0  0.77645515325E+03 -0.13723160838E+04 -0.16993365466E+04  0.23181627958E+04  0.10100000352E+00 0.  1.
       -3    1    3    3    0  502 -0.77645515325E+03  0.13723160838E+04  0.35335562020E+03  0.16158571234E+04  0.10100000352E+00 0. -1.
</event>
<event>
 5   0  0.2282000E-08  0.3698044E+04  0.7818609E-02  0.8068395E-01
       -1   -1    0    0    0  501  0.00000000000E+00  0.00000000000E+00  0.15285342527E+04  0.15285342527E+04  0.50400001928E-02 0. -1.
        1   -1    0    0  501    0  0.00000000000E+00  0.00000000000E+00 -0.22367064785E+04  0.22367064785E+04  0.50400001928E-02 0.  1.
    10030    2    1    2    0    0  0.00000000000E+00  0.00000000000E+00 -0.70817222581E+03  0.37652407311E+04  0.36980440590E+04 0.  0.
        5    1    3    3  502    0  0.12579066348E+04  0.12906380071E+04 -0.77485661417E+03  0.19617595239E+04  0.46999998093E+01 0. -1.
       -5    1    3    3    0  502 -0.12579066348E+04 -0.12906380071E+04  0.66684388362E+02  0.18034812072E+04  0.46999998093E+01 0.  1.
</event>
<event>
 5   0  0.2282000E-08  0.3698634E+04  0.7818609E-02  0.8068265E-01
        1   -1    0    0  501    0  0.00000000000E+00  0.00000000000E+00  0.21279680414E+04  0.21279680414E+04  0.50400001928E-02 0.  1.
       -1   -1    0    0    0  501  0.00000000000E+00  0.00000000000E+00 -0.16071548377E+04  0.16071548377E+04  0.50400001928E-02 0. -1.
    10030    2    1    2    0    0  0.00000000000E+00  0.00000000000E+00  0.52081320370E+03  0.37351228791E+04  0.36986344141E+04 0.  0.
        1    1    3    3  502    0  0.88038445223E+03  0.14232991978E+04  0.10550087994E+04  0.19783581468E+04  0.50400001928E-02 0.  1.
       -1    1    3    3    0  502 -0.88038445223E+03 -0.14232991978E+04 -0.53419559572E+03  0.17567647323E+04  0.50400001928E-02 0. -1.
</event>
<event>
 5   0  0.2282000E-08  0.3703488E+04  0.7818609E-02  0.8067189E-01
       -1   -1    0    0    0  501  0.00000000000E+00  0.00000000000E+00  0.19450564342E+04  0.19450564342E+04  0.50400001928E-02 0.  1.
        1   -1    0    0  501    0  0.00000000000E+00  0.00000000000E+00 -0.17629077274E+04  0.17629077274E+04  0.50400001928E-02 0. -1.
    10030    2    1    2    0    0  0.00000000000E+00  0.00000000000E+00  0.18214870678E+03  0.37079641617E+04  0.37034875554E+04 0.  0.
        5    1    3    3  502    0  0.16669158124E+04 -0.80277599145E+03  0.14331130160E+02  0.18502121742E+04  0.46999998093E+01 0.  1.
       -5    1    3    3    0  502 -0.16669158124E+04  0.80277599145E+03  0.16781757662E+03  0.18577519875E+04  0.46999998093E+01 0. -1.
</event>
<event>
 5   0  0.7191801E-08  0.3723046E+04  0.7818609E-02  0.8062874E-01
        2   -1    0    0  501    0  0.00000000000E+00  0.00000000000E+00  0.22620404494E+04  0.22620404494E+04  0.25500000920E-02 0. -1.
       -2   -1    0    0    0  501  0.00000000000E+00  0.00000000000E+00 -0.15319215817E+04  0.15319215817E+04  0.25500000920E-02 0.  1.
    10030    2    1    2    0    0  0.00000000000E+00  0.00000000000E+00  0.73011886769E+03  0.37939620311E+04  0.37230463780E+04 0.  0.
        5    1    3    3  502    0 -0.75355753249E+02  0.93656472669E+03  0.20026582330E+04  0.22121243331E+04  0.46999998093E+01 0. -1.
       -5    1    3    3    0  502  0.75355753249E+02 -0.93656472669E+03 -0.12725393653E+04  0.15818376981E+04  0.46999998093E+01 0.  1.
</event>
<event>
 5   0  0.7309833E-08  0.3692033E+04  0.7818609E-02  0.8069730E-01
        2   -1    0    0  501    0  0.00000000000E+00  0.00000000000E+00  0.24871769643E+04  0.24871769643E+04  0.25500000920E-02 0. -1.
       -2   -1    0    0    0  501  0.00000000000E+00  0.00000000000E+00 -0.13701387131E+04  0.13701387131E+04  0.25500000920E-02 0.  1.
    10030    2    1    2    0    0  0.00000000000E+00  0.00000000000E+00  0.11170382511E+04  0.38573156774E+04  0.36920332854E+04 0.  0.
        2    1    3    3  502    0  0.14521142023E+04  0.21610106008E+03  0.17277449718E+04  0.22672534071E+04  0.25500000920E-02 0. -1.
       -2    1    3    3    0  502 -0.14521142023E+04 -0.21610106008E+03 -0.61070672067E+03  0.15900622703E+04  0.25500000920E-02 0.  1.
</event>
<event>
 5   0  0.7309833E-08  0.3705502E+04  0.7818609E-02  0.8066744E-01
        2   -1    0    0  501    0  0.00000000000E+00  0.00000000000E+00  0.22758820129E+04  0.22758820129E+04  0.25500000920E-02 0.  1.
       -2   -1    0    0    0  501  0.00000000000E+00  0.00000000000E+00 -0.15082879916E+04  0.15082879916E+04  0.25500000920E-02 0. -1.
    10030    2    1    2    0    0  0.00000000000E+00  0.00000000000E+00  0.76759402122E+03  0.37841700045E+04  0.37055015911E+04 0.  0.
        2    1    3    3  502    0  0.37524979115E+03  0.56572259776E+03  0.21442956453E+04  0.22491905828E+04  0.25500000920E-02 0.  1.
       -2    1    3    3    0  502 -0.37524979115E+03 -0.56572259776E+03 -0.13767016241E+04  0.15349794217E+04  0.25500000920E-02 0. -1.
</event>
<event>
 5   0  0.7191801E-08  0.3641156E+04  0.7818609E-02  0.8081129E-01
        2   -1    0    0  501    0  0.00000000000E+00  0.00000000000E+00  0.25092995728E+04  0.25092995728E+04  0.25500000920E-02 0.  1.
       -2   -1    0    0    0  501  0.00000000000E+00  0.00000000000E+00 -0.13208884450E+04  0.13208884450E+04  0.25500000920E-02 0. -1.
    10030    2    1    2    0    0  0.00000000000E+00  0.00000000000E+00  0.11884111278E+04  0.38301880178E+04  0.36411563057E+04 0.  0.
        5    1    3    3  502    0  0.95123431374E+02  0.17225881983E+04  0.12058779402E+04  0.21048805821E+04  0.46999998093E+01 0. -1.
       -5    1    3    3    0  502 -0.95123431374E+02 -0.17225881983E+04 -0.17466812398E+02  0.17253074357E+04  0.46999998093E+01 0.  1.
</event>
<event>
 5   0  0.7362817E-08  0.3691839E+04  0.7818609E-02  0.8069773E-01
        2   -1    0    0  501    0  0.00000000000E+00  0.00000000000E+00  0.17101226464E+04  0.17101226464E+04  0.25500000920E-02 0.  1.
       -2   -1    0    0    0  501  0.00000000000E+00  0.00000000000E+00 -0.19924993822E+04  0.19924993822E+04  0.25500000920E-02 0. -1.
    10030    2    1    2    0    0  0.00000000000E+00  0.00000000000E+00 -0.28237673573E+03  0.37026220286E+04  0.36918387378E+04 0.  0.
        1    1    3    3  502    0 -0.49547698619E+03 -0.16785266994E+04 -0.72981746341E+03  0.18962022188E+04  0.50400001928E-02 0. -1.
       -1    1    3    3    0  502  0.49547698619E+03  0.16785266994E+04  0.44744072768E+03  0.18064198098E+04  0.50400001928E-02 0.  1.
</event>
<event>
 5   0  0.7309833E-08  0.3701319E+04  0.7818609E-02  0.8067670E-01
       -2   -1    0    0    0  501  0.00000000000E+00  0.00000000000E+00  0.20780011715E+04  0.20780011715E+04  0.25500000920E-02 0. -1.
        2   -1    0    0  501    0  0.00000000000E+00  0.00000000000E+00 -0.16481895729E+04  0.16481895729E+04  0.25500000920E-02 0.  1.
    10030    2    1    2    0    0  0.00000000000E+00  0.00000000000E+00  0.42981159856E+03  0.37261907445E+04  0.37013186101E+04 0.  0.
        2    1    3    3  502    0 -0.39154384821E+03  0.14031656267E+04 -0.93414898866E+03  0.17305532913E+04  0.25500000920E-02 0.  1.
       -2    1    3    3    0  502  0.39154384821E+03 -0.14031656267E+04  0.13639605872E+04  0.19956374532E+04  0.25500000920E-02 0. -1.
</event>
<event>
 5   0  0.7362817E-08  0.3698225E+04  0.7818609E-02  0.8068355E-01
       -2   -1    0    0    0  501  0.00000000000E+00  0.00000000000E+00  0.19768787202E+04  0.19768787202E+04  0.25500000920E-02 0. -1.
        2   -1    0    0  501    0  0.00000000000E+00  0.00000000000E+00 -0.17296040478E+04  0.17296040478E+04  0.25500000920E-02 0.  1.
    10030    2    1    2    0    0  0.00000000000E+00  0.00000000000E+00  0.24727467235E+03  0.37064827680E+04  0.36982252156E+04 0.  0.
        1    1    3    3  502    0 -0.15183503703E+04 -0.10472387158E+04  0.25477544071E+03  0.18619901450E+04  0.50400001928E-02 0. -1.
       -1    1    3    3    0  502  0.15183503703E+04  0.10472387158E+04 -0.75007683553E+01  0.18444926230E+04  0.50400001928E-02 0.  1.
</event>
<event>
 5   0  0.2282000E-08  0.3704322E+04  0.7818609E-02  0.8067005E-01
       -1   -1    0    0    0  501  0.00000000000E+00  0.00000000000E+00  0.13733740386E+04  0.13733740386E+04  0.50400001928E-02 0.  1.
        1   -1    0    0  501    0  0.00000000000E+00  0.00000000000E+00 -0.24978634487E+04  0.24978634487E+04  0.50400001928E-02 0. -1.
    10030    2    1    2    0    0  0.00000000000E+00  0.00000000000E+00 -0.11244894101E+04  0.38712374873E+04  0.37043222389E+04 0.  0.
        4    1    3    3  502    0  0.86748973792E+03 -0.13131376274E+04  0.45829776423E+03  0.16391788577E+04  0.12699999809E+01 0.  1.
       -4    1    3    3    0  502 -0.86748973792E+03  0.13131376274E+04 -0.15827871744E+04  0.22320586297E+04  0.12699999809E+01 0. -1.
</event>
<event>
 5   0  0.2282000E-08  0.3708321E+04  0.7818609E-02  0.8066120E-01
        1   -1    0    0  501    0  0.00000000000E+00  0.00000000000E+00  0.21847192016E+04  0.21847192016E+04  0.50400001928E-02 0.  1.
       -1   -1    0    0    0  501  0.00000000000E+00  0.00000000000E+00 -0.15736167734E+04  0.15736167734E+04  0.50400001928E-02 0. -1.
    10030    2    1    2    0    0  0.00000000000E+00  0.00000000000E+00  0.61110242821E+03  0.37583359750E+04  0.37083207956E+04 0.  0.
        1    1    3    3  502    0  0.17634793316E+03 -0.47383941202E+03 -0.15024056825E+04  0.15851956399E+04  0.50400001928E-02 0. -1.
       -1    1    3    3    0  502 -0.17634793316E+03  0.47383941202E+03  0.21135081107E+04  0.21731403351E+04  0.50400001928E-02 0.  1.
</event>
<event>
 5   0  0.2282000E-08  0.3691566E+04  0.7818609E-02  0.8069834E-01
        1   -1    0    0  501    0  0.00000000000E+00  0.00000000000E+00  0.18981050432E+04  0.18981050432E+04  0.50400001928E-02 0. -1.
       -1   -1    0    0    0  501  0.00000000000E+00  0.00000000000E+00 -0.17949030321E+04  0.17949030321E+04  0.50400001928E-02 0.  1.
    10030    2    1    2    0    0  0.00000000000E+00  0.00000000000E+00  0.10320201115E+03  0.36930080753E+04  0.36915657910E+04 0.  0.
        4    1    3    3  502    0 -0.16916311065E+03  0.69963715638E+03 -0.16487114105E+04  0.17989883926E+04  0.12699999809E+01 0.  1.
       -4    1    3    3    0  502  0.16916311065E+03 -0.69963715638E+03  0.17519134217E+04  0.18940196827E+04  0.12699999809E+01 0. -1.
</event>
<event>
 5   0  0.7203049E-08  0.3707755E+04  0.7818609E-02  0.8066245E-01
        2   -1    0    0  501    0  0.00000000000E+00  0.00000000000E+00  0.24581510470E+04  0.24581510470E+04  0.25500000920E-02 0.  1.
       -2   -1    0    0    0  501  0.00000000000E+00  0.00000000000E+00 -0.13981492849E+04  0.13981492849E+04  0.25500000920E-02 0. -1.
    10030    2    1    2    0    0  0.00000000000E+00  0.00000000000E+00  0.10600017621E+04  0.38563003319E+04  0.37077551853E+04 0.  0.
        4    1    3    3  502    0  0.13392260150E+04  0.47331702168E+03  0.17690761669E+04  0.22687413734E+04  0.12699999809E+01 0.  1.
       -4    1    3    3    0  502 -0.13392260150E+04 -0.47331702168E+03 -0.70907440480E+03  0.15875589585E+04  0.12699999809E+01 0. -1.
</event>
<event>
 5   0  0.2282000E-08  0.3704492E+04  0.7818609E-02  0.8066967E-01
       -1   -1    0    0    0  501  0.00000000000E+00  0.00000000000E+00  0.15574152404E+04  0.15574152404E+04  0.50400001928E-02 0. -1.
        1   -1    0    0  501    0  0.00000000000E+00  0.00000000000E+00 -0.22028899430E+04  0.22028899430E+04  0.50400001928E-02 0.  1.
    10030    2    1    2    0    0  0.00000000000E+00  0.00000000000E+00 -0.64547470254E+03  0.37603051834E+04  0.37044915279E+04 0.  0.
        5    1    3    3  502    0 -0.14659224438E+04  0.54435137918E+02 -0.14706606311E+04  0.20771992146E+04  0.46999998093E+01 0.  1.
       -5    1    3    3    0  502  0.14659224438E+04 -0.54435137918E+02  0.82518592855E+03  0.16831059688E+04  0.46999998093E+01 0. -1.
</event>
<event>
 5   0  0.2282000E-08  0.3697923E+04  0.7818609E-02  0.8068422E-01
        1   -1    0    0  501    0  0.00000000000E+00  0.00000000000E+00  0.22698304706E+04  0.22698304706E+04  0.50400001928E-02 0. -1.
       -1   -1    0    0    0  501  0.00000000000E+00  0.00000000000E+00 -0.15061292275E+04  0.15061292275E+04  0.50400001928E-02 0.  1.
    10030    2    1    2    0    0  0.00000000000E+00  0.00000000000E+00  0.76370124311E+03  0.37759596982E+04  0.36979226673E+04 0.  0.
        2    1    3    3  502    0 -0.33078139850E+03 -0.12294252116E+04  0.17509495103E+04  0.21648849558E+04  0.25500000920E-02 0. -1.
       -2    1    3    3    0  502  0.33078139850E+03  0.12294252116E+04 -0.98724826715E+03  0.16110747424E+04  0.25500000920E-02 0.  1.
</event>
<event>
 5   0  0.2282000E-08  0.3699784E+04  0.7818609E-02  0.8068010E-01
        1   -1    0    0  501    0  0.00000000000E+00  0.00000000000E+00  0.91657992701E+03  0.91657992703E+03  0.50400001928E-02 0.  1.
       -1   -1    0    0    0  501  0.00000000000E+00  0.00000000000E+00 -0.37335541353E+04  0.37335541353E+04  0.50400001928E-02 0. -1.
    10030    2    1    2    0    0  0.00000000000E+00  0.00000000000E+00 -0.28169742083E+04  0.46501340624E+04  0.36997841974E+04 0.  0.
        4    1    3    3  502    0  0.10167849865E+04  0.15390480951E+04 -0.15843514727E+04  0.24316027533E+04  0.12699999809E+01 0. -1.
       -4    1    3    3    0  502 -0.10167849865E+04 -0.15390480951E+04 -0.12326227356E+04  0.22185313091E+04  0.12699999809E+01 0.  1.
</event>
<event>
 5   0  0.2282000E-08  0.3698377E+04  0.7818609E-02  0.8068322E-01
       -1   -1    0    0    0  501  0.00000000000E+00  0.00000000000E+00  0.18649968768E+04  0.18649968768E+04  0.50400001928E-02 0.  1.
        1   -1    0    0  501    0  0.00000000000E+00  0.00000000000E+00 -0.18335145519E+04  0.18335145520E+04  0.50400001928E-02 0. -1.
    10030    2    1    2    0    0  0.00000000000E+00  0.00000000000E+00  0.31482324853E+02  0.36985114288E+04  0.36983774350E+04 0.  0.
        1    1    3    3  502    0 -0.74046474267E+03 -0.12310105437E+04 -0.11486995467E+04  0.18393438076E+04  0.50400001928E-02 0. -1.
       -1    1    3    3    0  502  0.74046474267E+03  0.12310105437E+04  0.11801818716E+04  0.18591676212E+04  0.50400001928E-02 0.  1.
</event>
<event>
 5   0  0.7254493E-08  0.3700711E+04  0.7818609E-02  0.8067804E-01
        2   -1    0    0  501    0  0.00000000000E+00  0.00000000000E+00  0.23094075799E+04  0.23094075799E+04  0.25500000920E-02 0. -1.
       -2   -1    0    0    0  501  0.00000000000E+00  0.00000000000E+00 -0.14825515599E+04  0.14825515599E+04  0.25500000920E-02 0.  1.
    10030    2    1    2    0    0  0.00000000000E+00  0.00000000000E+00  0.82685601998E+03  0.37919591399E+04  0.37007111804E+04 0.  0.
        3    1    3    3  502    0 -0.50164104785E+03 -0.12059986458E+04  0.17563694829E+04  0.21888148037E+04  0.10100000352E+00 0. -1.
       -3    1    3    3    0  502  0.50164104785E+03  0.12059986458E+04 -0.92951346287E+03  0.16031443361E+04  0.10100000352E+00 0.  1.
</event>
<event>
 5   0  0.2282000E-08  0.3705589E+04  0.7818609E-02  0.8066724E-01
        1   -1    0    0  501    0  0.00000000000E+00  0.00000000000E+00  0.16164897975E+04  0.16164897975E+04  0.50400001928E-02 0. -1.
       -1   -1    0    0    0  501  0.00000000000E+00  0.00000000000E+00 -0.21236433777E+04  0.21236433777E+04  0.50400001928E-02 0.  1.
    10030    2    1    2    0    0  0.00000000000E+00  0.00000000000E+00 -0.50715358022E+03  0.37401331752E+04  0.37055892129E+04 0.  0.
        2    1    3    3  502    0 -0.45235296042E+02 -0.29736331610E+03 -0.20988364573E+04  0.21202796155E+04  0.25500000920E-02 0.  1.
       -2    1    3    3    0  502  0.45235296042E+02  0.29736331610E+03  0.15916828770E+04  0.16198535597E+04  0.25500000920E-02 0. -1.
</event>
<event>
 5   0  0.7254493E-08  0.3689903E+04  0.7818609E-02  0.8070203E-01
       -2   -1    0    0    0  501  0.00000000000E+00  0.00000000000E+00  0.12459823087E+04  0.12459823087E+04  0.25500000920E-02 0.  1.
        2   -1    0    0  501    0  0.00000000000E+00  0.00000000000E+00 -0.27318576351E+04  0.27318576351E+04  0.25500000920E-02 0. -1.
    10030    2    1    2    0    0  0.00000000000E+00  0.00000000000E+00 -0.14858753264E+04  0.39778399438E+04  0.36899031333E+04 0.  0.
        3    1    3    3  502    0 -0.12902012880E+04  0.13170263785E+04 -0.66928004517E+03  0.19614060350E+04  0.10100000352E+00 0. -1.
       -3    1    3    3    0  502  0.12902012880E+04 -0.13170263785E+04 -0.81659528122E+03  0.20164339088E+04  0.10100000352E+00 0.  1.
</event>
<event>
 5   0  0.2282000E-08  0.3697872E+04  0.7818609E-02  0.8068434E-01
       -3   -1    0    0    0  501  0.00000000000E+00  0.00000000000E+00  0.12481182889E+04  0.12481182930E+04  0.10100000352E+00 0. -1.
        3   -1    0    0  501    0  0.00000000000E+00  0.00000000000E+00 -0.27389746320E+04  0.27389746338E+04  0.10100000352E+00 0.  1.
    10030    2    1    2    0    0  0.00000000000E+00  0.00000000000E+00 -0.14908563430E+04  0.39870929269E+04  0.36978720059E+04 0.  0.
        2    1    3    3  502    0  0.33416548127E+03  0.33254062614E+03 -0.26730828463E+04  0.27143363351E+04  0.25500000920E-02 0.  1.
       -2    1    3    3    0  502 -0.33416548127E+03 -0.33254062614E+03  0.11822265033E+04  0.12727565918E+04  0.25500000920E-02 0. -1.
</event>
<event>
 5   0  0.7254493E-08  0.3706114E+04  0.7818609E-02  0.8066608E-01
        2   -1    0    0  501    0  0.00000000000E+00  0.00000000000E+00  0.14672592006E+04  0.14672592006E+04  0.25500000920E-02 0. -1.
       -2   -1    0    0    0  501  0.00000000000E+00  0.00000000000E+00 -0.23402956831E+04  0.23402956831E+04  0.25500000920E-02 0.  1.
    10030    2    1    2    0    0  0.00000000000E+00  0.00000000000E+00 -0.87303648255E+03  0.38075548837E+04  0.37061140690E+04 0.  0.
        3    1    3    3  502    0  0.54607554258E+03  0.15189220416E+03 -0.22490499035E+04  0.23193738851E+04  0.10100000352E+00 0.  1.
       -3    1    3    3    0  502 -0.54607554258E+03 -0.15189220416E+03  0.13760134210E+04  0.14881809987E+04  0.10100000352E+00 0. -1.
</event>
<event>
 5   0  0.2282000E-08  0.3701894E+04  0.7818609E-02  0.8067542E-01
       -1   -1    0    0    0  501  0.00000000000E+00  0.00000000000E+00  0.35924736218E+04  0.35924736218E+04  0.50400001928E-02 0.  1.
        1   -1    0    0  501    0  0.00000000000E+00  0.00000000000E+00 -0.95366200401E+03  0.95366200403E+03  0.50400001928E-02 0. -1.
    10030    2    1    2    0    0  0.00000000000E+00  0.00000000000E+00  0.26388116178E+04  0.45461356259E+04  0.37018944305E+04 0.  0.
        3    1    3    3  502    0  0.85112609145E+03  0.15997087297E+04  0.85578894898E+03  0.20039606730E+04  0.10100000352E+00 0. -1.
       -3    1    3    3    0  502 -0.85112609145E+03 -0.15997087297E+04  0.17830226688E+04  0.25421749529E+04  0.10100000352E+00 0.  1.
</event>
<event>
 5   0  0.2282000E-08  0.3695710E+04  0.7818609E-02  0.8068913E-01
        1   -1    0    0  501    0  0.00000000000E+00  0.00000000000E+00  0.16065064272E+04  0.16065064272E+04  0.50400001928E-02 0.  1.
       -1   -1    0    0    0  501  0.00000000000E+00  0.00000000000E+00 -0.21254612790E+04  0.21254612790E+04  0.50400001928E-02 0. -1.
    10030    2    1    2    0    0  0.00000000000E+00  0.00000000000E+00 -0.51895485173E+03  0.37319677062E+04  0.36957095154E+04 0.  0.
        5    1    3    3  502    0 -0.11165412529E+04 -0.34557448263E+03  0.11858082197E+04  0.16650073021E+04  0.46999998093E+01 0.  1.
       -5    1    3    3    0  502  0.11165412529E+04  0.34557448263E+03 -0.17047630714E+04  0.20669604041E+04  0.46999998093E+01 0. -1.
</event>
<event>
 5   0  0.7191801E-08  0.3704405E+04  0.7818609E-02  0.8066986E-01
       -2   -1    0    0    0  501  0.00000000000E+00  0.00000000000E+00  0.17288062385E+04  0.17288062385E+04  0.25500000920E-02 0. -1.
        2   -1    0    0  501    0  0.00000000000E+00  0.00000000000E+00 -0.19844064265E+04  0.19844064265E+04  0.25500000920E-02 0.  1.
    10030    2    1    2    0    0  0.00000000000E+00  0.00000000000E+00 -0.25560018806E+03  0.37132126650E+04  0.37044050587E+04 0.  0.
        5    1    3    3  502    0  0.14895908863E+04 -0.10020699486E+04 -0.58452245701E+03  0.18880449632E+04  0.46999998093E+01 0.  1.
       -5    1    3    3    0  502 -0.14895908863E+04  0.10020699486E+04  0.32892226895E+03  0.18251677017E+04  0.46999998093E+01 0. -1.
</event>
<event>
 5   0  0.2282000E-08  0.3703132E+04  0.7818609E-02  0.8067268E-01
       -1   -1    0    0    0  501  0.00000000000E+00  0.00000000000E+00  0.13905174508E+04  0.13905174509E+04  0.50400001928E-02 0.  1.
        1   -1    0    0  501    0  0.00000000000E+00  0.00000000000E+00 -0.24654821400E+04  0.24654821400E+04  0.50400001928E-02 0. -1.
    10030    2    1    2    0    0  0.00000000000E+00  0.00000000000E+00 -0.10749646891E+04  0.38559995908E+04  0.37031316155E+04 0.  0.
        3    1    3    3  502    0  0.10165899317E+03 -0.36050312627E+03  0.13506553452E+04  0.14016300962E+04  0.10100000352E+00 0.  1.
       -3    1    3    3    0  502 -0.10165899317E+03  0.36050312627E+03 -0.24256200343E+04  0.24543694946E+04  0.10100000352E+00 0. -1.
</event>
<event>
 5   0  0.2282000E-08  0.3697997E+04  0.7818609E-02  0.8068406E-01
        1   -1    0    0  501    0  0.00000000000E+00  0.00000000000E+00  0.19556322281E+04  0.19556322282E+04  0.50400001928E-02 0. -1.
       -1   -1    0    0    0  501  0.00000000000E+00  0.00000000000E+00 -0.17481790046E+04  0.17481790046E+04  0.50400001928E-02 0.  1.
    10030    2    1    2    0    0  0.00000000000E+00  0.00000000000E+00  0.20745322354E+03  0.37038112328E+04  0.36979968642E+04 0.  0.
        2    1    3    3  502    0 -0.10187634236E+04  0.44109868698E+03 -0.13772287698E+04  0.17689562033E+04  0.25500000920E-02 0.  1.
       -2    1    3    3    0  502  0.10187634236E+04 -0.44109868698E+03  0.15846819934E+04  0.19348550294E+04  0.25500000920E-02 0. -1.
</event>
<event>
 5   0  0.7309833E-08  0.3693341E+04  0.7818609E-02  0.8069439E-01
       -2   -1    0    0    0  501  0.00000000000E+00  0.00000000000E+00  0.16389520668E+04  0.16389520668E+04  0.25500000920E-02 0. -1.
        2   -1    0    0  501    0  0.00000000000E+00  0.00000000000E+00 -0.20807147065E+04  0.20807147065E+04  0.25500000920E-02 0.  1.
    10030    2    1    2    0    0  0.00000000000E+00  0.00000000000E+00 -0.44176263968E+03  0.37196667734E+04  0.36933408555E+04 0.  0.
        2    1    3    3  502    0 -0.80941177494E+03 -0.29843387868E+03  0.14235404143E+04  0.16645352242E+04  0.25500000920E-02 0. -1.
       -2    1    3    3    0  502  0.80941177494E+03  0.29843387868E+03 -0.18653030540E+04  0.20551315492E+04  0.25500000920E-02 0.  1.
</event>
<event>
 5   0  0.7309833E-08  0.3700309E+04  0.7818609E-02  0.8067893E-01
        2   -1    0    0  501    0  0.00000000000E+00  0.00000000000E+00  0.23627795099E+04  0.23627795099E+04  0.25500000920E-02 0. -1.
       -2   -1    0    0    0  501  0.00000000000E+00  0.00000000000E+00 -0.14487474998E+04  0.14487474998E+04  0.25500000920E-02 0.  1.
    10030    2    1    2    0    0  0.00000000000E+00  0.00000000000E+00  0.91403201012E+03  0.38115270096E+04  0.37003085857E+04 0.  0.
        2    1    3    3  502    0 -0.76374701544E+03 -0.34998687916E+03  0.21549761896E+04  0.23129467562E+04  0.25500000920E-02 0. -1.
       -2    1    3    3    0  502  0.76374701544E+03  0.34998687916E+03 -0.12409441795E+04  0.14985802534E+04  0.25500000920E-02 0.  1.
</event>
<event>
 5   0  0.7203049E-08  0.3702720E+04  0.7818609E-02  0.8067359E-01
       -2   -1    0    0    0  501  0.00000000000E+00  0.00000000000E+00  0.17259790438E+04  0.17259790438E+04  0.25500000920E-02 0. -1.
        2   -1    0    0  501    0  0.00000000000E+00  0.00000000000E+00 -0.19858493407E+04  0.19858493407E+04  0.25500000920E-02 0.  1.
    10030    2    1    2    0    0  0.00000000000E+00  0.00000000000E+00 -0.25987029689E+03  0.37118283845E+04  0.37027202683E+04 0.  0.
        4    1    3    3  502    0  0.62747444967E+02 -0.18321328426E+04  0.12932185821E+03  0.18377632466E+04  0.12699999809E+01 0.  1.
       -4    1    3    3    0  502 -0.62747444967E+02  0.18321328426E+04 -0.38919215510E+03  0.18740651379E+04  0.12699999809E+01 0. -1.
</event>
<event>
 5   0  0.7362817E-08  0.3706535E+04  0.7818609E-02  0.8066515E-01
       -2   -1    0    0    0  501  0.00000000000E+00  0.00000000000E+00  0.16614487805E+04  0.16614487805E+04  0.25500000920E-02 0. -1.
        2   -1    0    0  501    0  0.00000000000E+00  0.00000000000E+00 -0.20672319992E+04  0.20672319992E+04  0.25500000920E-02 0.  1.
    10030    2    1    2    0    0  0.00000000000E+00  0.00000000000E+00 -0.40578321866E+03  0.37286807797E+04  0.37065348153E+04 0.  0.
        1    1    3    3  502    0 -0.63899323538E+03  0.14527545284E+04  0.75979636166E+03  0.17595734102E+04  0.50400001928E-02 0. -1.
       -1    1    3    3    0  502  0.63899323538E+03 -0.14527545284E+04 -0.11655795803E+04  0.19691073695E+04  0.50400001928E-02 0.  1.
</event>
<event>
 5   0  0.2282000E-08  0.3644077E+04  0.7818609E-02  0.8080469E-01
       -1   -1    0    0    0  501  0.00000000000E+00  0.00000000000E+00  0.24688473633E+04  0.24688473633E+04  0.50400001928E-02 0. -1.
        1   -1    0    0  501    0  0.00000000000E+00  0.00000000000E+00 -0.13446857782E+04  0.13446857782E+04  0.50400001928E-02 0.  1.
    10030    2    1    2    0    0  0.00000000000E+00  0.00000000000E+00  0.11241615851E+04  0.38135331415E+04  0.36440768038E+04 0.  0.
        2    1    3    3  502    0 -0.58894411450E+03  0.12298212311E+04  0.18267939850E+04  0.22795814735E+04  0.25500000920E-02 0. -1.
       -2    1    3    3    0  502  0.58894411450E+03 -0.12298212311E+04 -0.70263239995E+03  0.15339516680E+04  0.25500000920E-02 0.  1.
</event>
<event>
 5   0  0.7203049E-08  0.3702210E+04  0.7818609E-02  0.8067472E-01
       -2   -1    0    0    0  501  0.00000000000E+00  0.00000000000E+00  0.17865429637E+04  0.17865429637E+04  0.25500000920E-02 0. -1.
        2   -1    0    0  501    0  0.00000000000E+00  0.00000000000E+00 -0.19180003325E+04  0.19180003325E+04  0.25500000920E-02 0.  1.
    10030    2    1    2    0    0  0.00000000000E+00  0.00000000000E+00 -0.13145736883E+03  0.37045432962E+04  0.37022101498E+04 0.  0.
        4    1    3    3  502    0  0.15836654530E+04  0.71288085574E+03 -0.70675163967E+03  0.18750186331E+04  0.12699999809E+01 0.  1.
       -4    1    3    3    0  502 -0.15836654530E+04 -0.71288085574E+03  0.57529427084E+03  0.18295246630E+04  0.12699999809E+01 0. -1.
</event>
<event>
 5   0  0.7254493E-08  0.3697456E+04  0.7818609E-02  0.8068526E-01
        2   -1    0    0  501    0  0.00000000000E+00  0.00000000000E+00  0.23229746599E+04  0.23229746599E+04  0.25500000920E-02 0.  1.
       -2   -1    0    0    0  501  0.00000000000E+00  0.00000000000E+00 -0.14713013871E+04  0.14713013871E+04  0.25500000920E-02 0. -1.
    10030    2    1    2    0    0  0.00000000000E+00  0.00000000000E+00  0.85167327285E+03  0.37942760470E+04  0.36974563361E+04 0.  0.
        3    1    3    3  502    0 -0.70856681298E+03 -0.51566884888E+03 -0.12446138582E+04  0.15221842715E+04  0.10100000352E+00 0. -1.
       -3    1    3    3    0  502  0.70856681298E+03  0.51566884888E+03  0.20962871311E+04  0.22720917755E+04  0.10100000352E+00 0.  1.
</event>
<event>
 5   0  0.2282000E-08  0.3698139E+04  0.7818609E-02  0.8068374E-01
       -1   -1    0    0    0  501  0.00000000000E+00  0.00000000000E+00  0.15968959214E+04  0.15968959214E+04  0.50400001928E-02 0.  1.
        1   -1    0    0  501    0  0.00000000000E+00  0.00000000000E+00 -0.21410651578E+04  0.21410651578E+04  0.50400001928E-02 0. -1.
    10030    2    1    2    0    0  0.00000000000E+00  0.00000000000E+00 -0.54416923635E+03  0.37379610792E+04  0.36981391093E+04 0.  0.
        3    1    3    3  502    0 -0.77294285016E+03  0.11444402762E+04 -0.15149077632E+04  0.20499096898E+04  0.10100000352E+00 0. -1.
       -3    1    3    3    0  502  0.77294285016E+03 -0.11444402762E+04  0.97073852685E+03  0.16880513893E+04  0.10100000352E+00 0.  1.
</event>
<event>
 5   0  0.7191801E-08  0.3714862E+04  0.7818609E-02  0.8064676E-01
        2   -1    0    0  501    0  0.00000000000E+00  0.00000000000E+00  0.21765642122E+04  0.21765642122E+04  0.25500000920E-02 0.  1.
       -2   -1    0    0    0  501  0.00000000000E+00  0.00000000000E+00 -0.15850901570E+04  0.15850901570E+04  0.25500000920E-02 0. -1.
    10030    2    1    2    0    0  0.00000000000E+00  0.00000000000E+00  0.59147405525E+03  0.37616543692E+04  0.37148623172E+04 0.  0.
        5    1    3    3  502    0 -0.68349172444E+02  0.91465484795E+02  0.21730010464E+04  0.21760039481E+04  0.46999998093E+01 0.  1.
       -5    1    3    3    0  502  0.68349172444E+02 -0.91465484795E+02 -0.15815269912E+04  0.15856504212E+04  0.46999998093E+01 0. -1.
</event>
<event>
 5   0  0.2282000E-08  0.3700528E+04  0.7818609E-02  0.8067845E-01
        1   -1    0    0  501    0  0.00000000000E+00  0.00000000000E+00  0.24646082920E+04  0.24646082920E+04  0.50400001928E-02 0.  1.
       -1   -1    0    0    0  501  0.00000000000E+00  0.00000000000E+00 -0.13890548664E+04  0.13890548664E+04  0.50400001928E-02 0. -1.
    10030    2    1    2    0    0  0.00000000000E+00  0.00000000000E+00  0.10755534256E+04  0.38536631584E+04  0.37005276066E+04 0.  0.
        4    1    3    3  502    0  0.16213219732E+04 -0.35136906529E+03  0.13910299129E+04  0.21649736701E+04  0.12699999809E+01 0.  1.
       -4    1    3    3    0  502 -0.16213219732E+04  0.35136906529E+03 -0.31547648734E+03  0.16886894883E+04  0.12699999809E+01 0. -1.
</event>
<event>
 5   0  0.7362817E-08  0.3697541E+04  0.7818609E-02  0.8068507E-01
       -2   -1    0    0    0  501  0.00000000000E+00  0.00000000000E+00  0.18045794803E+04  0.18045794803E+04  0.25500000920E-02 0. -1.
        2   -1    0    0  501    0  0.00000000000E+00  0.00000000000E+00 -0.18940436856E+04  0.18940436856E+04  0.25500000920E-02 0.  1.
    10030    2    1    2    0    0  0.00000000000E+00  0.00000000000E+00 -0.89464205263E+02  0.36986231658E+04  0.36975410044E+04 0.  0.
        1    1    3    3  502    0  0.81972155455E+03  0.34253619021E+03  0.15770622122E+04  0.18100827853E+04  0.50400001928E-02 0. -1.
       -1    1    3    3    0  502 -0.81972155455E+03 -0.34253619021E+03 -0.16665264175E+04  0.18885403805E+04  0.50400001928E-02 0.  1.
</event>
<event>
 5   0  0.7309833E-08  0.3706595E+04  0.7818609E-02  0.8066502E-01
       -2   -1    0    0    0  501  0.00000000000E+00  0.00000000000E+00  0.15892789630E+04  0.15892789630E+04  0.25500000920E-02 0.  1.
        2   -1    0    0  501    0  0.00000000000E+00  0.00000000000E+00 -0.21611754675E+04  0.21611754675E+04  0.25500000920E-02 0. -1.
    10030    2    1    2    0    0  0.00000000000E+00  0.00000000000E+00 -0.57189650452E+03  0.37504544305E+04  0.37065945049E+04 0.  0.
        2    1    3    3  502    0 -0.73658745908E+03  0.37664814985E+03  0.13920740478E+04  0.16193501994E+04  0.25500000920E-02 0.  1.
       -2    1    3    3    0  502  0.73658745908E+03 -0.37664814985E+03 -0.19639705523E+04  0.21311042312E+04  0.25500000920E-02 0. -1.
</event>
<event>
 5   0  0.2282000E-08  0.3702126E+04  0.7818609E-02  0.8067491E-01
       -1   -1    0    0    0  501  0.00000000000E+00  0.00000000000E+00  0.15102853899E+04  0.15102853899E+04  0.50400001928E-02 0.  1.
        1   -1    0    0  501    0  0.00000000000E+00  0.00000000000E+00 -0.22687329126E+04  0.22687329126E+04  0.50400001928E-02 0. -1.
    10030    2    1    2    0    0  0.00000000000E+00  0.00000000000E+00 -0.75844752275E+03  0.37790183025E+04  0.37021259684E+04 0.  0.
        5    1    3    3  502    0 -0.56471256508E+03  0.62124365498E+03 -0.20632056177E+04  0.22274836634E+04  0.46999998093E+01 0. -1.
       -5    1    3    3    0  502  0.56471256508E+03 -0.62124365498E+03  0.13047580949E+04  0.15515346391E+04  0.46999998093E+01 0.  1.
</event>
<event>
 5   0  0.7203049E-08  0.3697105E+04  0.7818609E-02  0.8068604E-01
        2   -1    0    0  501    0  0.00000000000E+00  0.00000000000E+00  0.22618011769E+04  0.22618011769E+04  0.25500000920E-02 0. -1.
       -2   -1    0    0    0  501  0.00000000000E+00  0.00000000000E+00 -0.15108078046E+04  0.15108078046E+04  0.25500000920E-02 0.  1.
    10030    2    1    2    0    0  0.00000000000E+00  0.00000000000E+00  0.75099337235E+03  0.37726089815E+04  0.36971052841E+04 0.  0.
        4    1    3    3  502    0 -0.10368091715E+04  0.14150315850E+04 -0.21938209375E+03  0.17678851095E+04  0.12699999809E+01 0.  1.
       -4    1    3    3    0  502  0.10368091715E+04 -0.14150315850E+04  0.97037546611E+03  0.20047238719E+04  0.12699999809E+01 0. -1.
</event>
<event>
 5   0  0.7191801E-08  0.3703948E+04  0.7818609E-02  0.8067087E-01
        2   -1    0    0  501    0  0.00000000000E+00  0.00000000000E+00  0.14688397416E+04  0.14688397416E+04  0.25500000920E-02 0.  1.
       -2   -1    0    0    0  501  0.00000000000E+00  0.00000000000E+00 -0.23350460886E+04  0.23350460886E+04  0.25500000920E-02 0. -1.
    10030    2    1    2    0    0  0.00000000000E+00  0.00000000000E+00 -0.86620634697E+03  0.38038858301E+04  0.37039484302E+04 0.  0.
        5    1    3    3  502    0  0.72918493225E+02  0.14190154170E+04 -0.16529497220E+04  0.21797217102E+04  0.46999998093E+01 0. -1.
       -5    1    3    3    0  502 -0.72918493225E+02 -0.14190154170E+04  0.78674337506E+03  0.16241641200E+04  0.46999998093E+01 0.  1.
</event>
<event>
 5   0  0.2282000E-08  0.3689467E+04  0.7818609E-02  0.8070300E-01
       -1   -1    0    0    0  501  0.00000000000E+00  0.00000000000E+00  0.18847975705E+04  0.18847975705E+04  0.50400001928E-02 0. -1.
        1   -1    0    0  501    0  0.00000000000E+00  0.00000000000E+00 -0.18055206460E+04  0.18055206460E+04  0.50400001928E-02 0.  1.
    10030    2    1    2    0    0  0.00000000000E+00  0.00000000000E+00  0.79276924500E+02  0.36903182166E+04  0.36894665887E+04 0.  0.
        4    1    3    3  502    0 -0.14305475173E+04  0.25474523519E+03  0.11764209204E+04  0.18695799338E+04  0.12699999809E+01 0.  1.
       -4    1    3    3    0  502  0.14305475173E+04 -0.25474523519E+03 -0.10971439959E+04  0.18207382828E+04  0.12699999809E+01 0. -1.
</event>
<event>
 5   0  0.7254493E-08  0.3694262E+04  0.7818609E-02  0.8069235E-01
       -2   -1    0    0    0  501  0.00000000000E+00  0.00000000000E+00  0.13747367541E+04  0.13747367541E+04  0.25500000920E-02 0. -1.
        2   -1    0    0  501    0  0.00000000000E+00  0.00000000000E+00 -0.24818524144E+04  0.24818524144E+04  0.25500000920E-02 0.  1.
    10030    2    1    2    0    0  0.00000000000E+00  0.00000000000E+00 -0.11071156603E+04  0.38565891684E+04  0.36942624337E+04 0.  0.
        3    1    3    3  502    0 -0.11510809723E+04  0.53964345917E+03 -0.19524732819E+04  0.23298829143E+04  0.10100000352E+00 0.  1.
       -3    1    3    3    0  502  0.11510809723E+04 -0.53964345917E+03  0.84535762161E+03  0.15267062541E+04  0.10100000352E+00 0. -1.
</event>
<event>
 5   0  0.2282000E-08  0.3697726E+04  0.7818609E-02  0.8068466E-01
       -3   -1    0    0    0  501  0.00000000000E+00  0.00000000000E+00  0.20908224658E+04  0.20908224682E+04  0.10100000352E+00 0.  1.
        3   -1    0    0  501    0  0.00000000000E+00  0.00000000000E+00 -0.16349038326E+04  0.16349038357E+04  0.10100000352E+00 0. -1.
    10030    2    1    2    0    0  0.00000000000E+00  0.00000000000E+00  0.45591863323E+03  0.37257263039E+04  0.36977256106E+04 0.  0.
        1    1    3    3  502    0 -0.15742374620E+04  0.74475779978E+03  0.85347103366E+03  0.19394072735E+04  0.50400001928E-02 0.  1.
       -1    1    3    3    0  502  0.15742374620E+04 -0.74475779978E+03 -0.39755240043E+03  0.17863190304E+04  0.50400001928E-02 0. -1.
</event>
<event>
 5   0  0.2282000E-08  0.3743488E+04  0.7818609E-02  0.8058392E-01
        1   -1    0    0  501    0  0.00000000000E+00  0.00000000000E+00  0.17177323386E+04  0.17177323386E+04  0.50400001928E-02 0.  1.
       -1   -1    0    0    0  501  0.00000000000E+00  0.00000000000E+00 -0.20395647970E+04  0.20395647970E+04  0.50400001928E-02 0. -1.
    10030    2    1    2    0    0  0.00000000000E+00  0.00000000000E+00 -0.32183245838E+03  0.37572971357E+04  0.37434884312E+04 0.  0.
        3    1    3    3  502    0  0.52167434413E+03  0.56976147458E+03 -0.18720963462E+04  0.20252202346E+04  0.10100000352E+00 0. -1.
       -3    1    3    3    0  502 -0.52167434413E+03 -0.56976147458E+03  0.15502638878E+04  0.17320769011E+04  0.10100000352E+00 0.  1.
</event>
<event>
 5   0  0.2282000E-08  0.3699595E+04  0.7818609E-02  0.8068051E-01
       -1   -1    0    0    0  501  0.00000000000E+00  0.00000000000E+00  0.17345868664E+04  0.17345868664E+04  0.50400001928E-02 0.  1.
        1   -1    0    0  501    0  0.00000000000E+00  0.00000000000E+00 -0.19726609126E+04  0.19726609126E+04  0.50400001928E-02 0. -1.
    10030    2    1    2    0    0  0.00000000000E+00  0.00000000000E+00 -0.23807404614E+03  0.37072477790E+04  0.36995954973E+04 0.  0.
        3    1    3    3  502    0  0.14724282275E+04 -0.87625433465E+03  0.57945940150E+03  0.18087674677E+04  0.10100000352E+00 0.  1.
       -3    1    3    3    0  502 -0.14724282275E+04  0.87625433465E+03 -0.81753344764E+03  0.18984803113E+04  0.10100000352E+00 0. -1.
</event>
<event>
 5   0  0.2282000E-08  0.3698869E+04  0.7818609E-02  0.8068213E-01
        1   -1    0    0  501    0  0.00000000000E+00  0.00000000000E+00  0.18909807950E+04  0.18909807951E+04  0.50400001928E-02 0. -1.
       -1   -1    0    0    0  501  0.00000000000E+00  0.00000000000E+00 -0.18088007283E+04  0.18088007283E+04  0.50400001928E-02 0.  1.
    10030    2    1    2    0    0  0.00000000000E+00  0.00000000000E+00  0.82180066776E+02  0.36997815233E+04  0.36988687131E+04 0.  0.
        1    1    3    3  502    0  0.93433772459E+03 -0.80201257921E+03 -0.13391766919E+04  0.18192320833E+04  0.50400001928E-02 0.  1.
       -1    1    3    3    0  502 -0.93433772459E+03  0.80201257921E+03  0.14213567587E+04  0.18805494400E+04  0.50400001928E-02 0. -1.
</event>
<event>
 5   0  0.7254493E-08  0.3682752E+04  0.7818609E-02  0.8071795E-01
       -2   -1    0    0    0  501  0.00000000000E+00  0.00000000000E+00  0.14637063169E+04  0.14637063169E+04  0.25500000920E-02 0. -1.
        2   -1    0    0  501    0  0.00000000000E+00  0.00000000000E+00 -0.23164931534E+04  0.23164931534E+04  0.25500000920E-02 0.  1.
    10030    2    1    2    0    0  0.00000000000E+00  0.00000000000E+00 -0.85278683646E+03  0.37801994703E+04  0.36827520479E+04 0.  0.
        3    1    3    3  502    0 -0.18005617907E+04 -0.22717647333E+02 -0.31337061376E+02  0.18009777554E+04  0.10100000352E+00 0. -1.
       -3    1    3    3    0  502  0.18005617907E+04  0.22717647333E+02 -0.82144977508E+03  0.19792217149E+04  0.10100000352E+00 0.  1.
</event>
<event>
 5   0  0.7254493E-08  0.3696565E+04  0.7818609E-02  0.8068723E-01
        2   -1    0    0  501    0  0.00000000000E+00  0.00000000000E+00  0.25729509226E+04  0.25729509226E+04  0.25500000920E-02 0.  1.
       -2   -1    0    0    0  501  0.00000000000E+00  0.00000000000E+00 -0.13277161599E+04  0.13277161599E+04  0.25500000920E-02 0. -1.
    10030    2    1    2    0    0  0.00000000000E+00  0.00000000000E+00  0.12452347627E+04  0.39006670826E+04  0.36965651725E+04 0.  0.
        3    1    3    3  502    0  0.51177523338E+03 -0.16047697762E+04  0.14255156402E+04  0.22066478592E+04  0.10100000352E+00 0.  1.
       -3    1    3    3    0  502 -0.51177523338E+03  0.16047697762E+04 -0.18028087751E+03  0.16940192233E+04  0.10100000352E+00 0. -1.
</event>
<event>
 5   0  0.7191801E-08  0.3695637E+04  0.7818609E-02  0.8068929E-01
        2   -1    0    0  501    0  0.00000000000E+00  0.00000000000E+00  0.19271120874E+04  0.19271120874E+04  0.25500000920E-02 0.  1.
       -2   -1    0    0    0  501  0.00000000000E+00  0.00000000000E+00 -0.17717874446E+04  0.17717874446E+04  0.25500000920E-02 0. -1.
    10030    2    1    2    0    0  0.00000000000E+00  0.00000000000E+00  0.15532464273E+03  0.36988995320E+04  0.36956368874E+04 0.  0.
        5    1    3    3  502    0 -0.97489704273E+03  0.40194800640E+03 -0.14410514740E+04  0.17856757501E+04  0.46999998093E+01 0. -1.
       -5    1    3    3    0  502  0.97489704273E+03 -0.40194800640E+03  0.15963761167E+04  0.19132237819E+04  0.46999998093E+01 0.  1.
</event>
<event>
 5   0  0.2282000E-08  0.3698726E+04  0.7818609E-02  0.8068244E-01
        1   -1    0    0  501    0  0.00000000000E+00  0.00000000000E+00  0.24451047982E+04  0.24451047982E+04  0.50400001928E-02 0. -1.
       -1   -1    0    0    0  501  0.00000000000E+00  0.00000000000E+00 -0.13987717633E+04  0.13987717633E+04  0.50400001928E-02 0.  1.
    10030    2    1    2    0    0  0.00000000000E+00  0.00000000000E+00  0.10463330349E+04  0.38438765614E+04  0.36987260239E+04 0.  0.
        4    1    3    3  502    0  0.18750967598E+03 -0.17244786903E+04 -0.14321082001E+03  0.17405451973E+04  0.12699999809E+01 0.  1.
       -4    1    3    3    0  502 -0.18750967598E+03  0.17244786903E+04  0.11895438549E+04  0.21033313642E+04  0.12699999809E+01 0. -1.
</event>
<event>
 5   0  0.2282000E-08  0.3698503E+04  0.7818609E-02  0.8068294E-01
        1   -1    0    0  501    0  0.00000000000E+00  0.00000000000E+00  0.19487734360E+04  0.19487734360E+04  0.50400001928E-02 0. -1.
       -1   -1    0    0    0  501  0.00000000000E+00  0.00000000000E+00 -0.17548117751E+04  0.17548117751E+04  0.50400001928E-02 0.  1.
    10030    2    1    2    0    0  0.00000000000E+00  0.00000000000E+00  0.19396166095E+03  0.37035852111E+04  0.36985027092E+04 0.  0.
        1    1    3    3  502    0  0.99767228959E+03 -0.62522398456E+03  0.15249402872E+04  0.19265767329E+04  0.50400001928E-02 0. -1.
       -1    1    3    3    0  502 -0.99767228959E+03  0.62522398456E+03 -0.13309786262E+04  0.17770084782E+04  0.50400001928E-02 0.  1.
</event>
<event>
 5   0  0.7309833E-08  0.3703610E+04  0.7818609E-02  0.8067162E-01
       -2   -1    0    0    0  501  0.00000000000E+00  0.00000000000E+00  0.26369118329E+04  0.26369118329E+04  0.25500000920E-02 0.  1.
        2   -1    0    0  501    0  0.00000000000E+00  0.00000000000E+00 -0.13004536696E+04  0.13004536696E+04  0.25500000920E-02 0. -1.
    10030    2    1    2    0    0  0.00000000000E+00  0.00000000000E+00  0.13364581632E+04  0.39373655025E+04  0.37036099522E+04 0.  0.
        2    1    3    3  502    0  0.94761929718E+03 -0.14820214405E+04  0.12833788415E+04  0.21774827516E+04  0.25500000920E-02 0.  1.
       -2    1    3    3    0  502 -0.94761929718E+03  0.14820214405E+04  0.53079321732E+02  0.17598827509E+04  0.25500000920E-02 0. -1.
</event>
<event>
 5   0  0.7254493E-08  0.3698272E+04  0.7818609E-02  0.8068345E-01
        2   -1    0    0  501    0  0.00000000000E+00  0.00000000000E+00  0.20532401417E+04  0.20532401417E+04  0.25500000920E-02 0.  1.
       -2   -1    0    0    0  501  0.00000000000E+00  0.00000000000E+00 -0.16653211089E+04  0.16653211089E+04  0.25500000920E-02 0. -1.
    10030    2    1    2    0    0  0.00000000000E+00  0.00000000000E+00  0.38791903275E+03  0.37185612506E+04  0.36982721099E+04 0.  0.
        3    1    3    3  502    0  0.13199023565E+03  0.16069686175E+04 -0.71628845254E+03  0.17643238698E+04  0.10100000352E+00 0. -1.
       -3    1    3    3    0  502 -0.13199023565E+03 -0.16069686175E+04  0.11042074853E+04  0.19542373809E+04  0.10100000352E+00 0.  1.
</event>
<event>
 5   0  0.2282000E-08  0.3694873E+04  0.7818609E-02  0.8069099E-01
       -1   -1    0    0    0  501  0.00000000000E+00  0.00000000000E+00  0.14424236193E+04  0.14424236193E+04  0.50400001928E-02 0. -1.
        1   -1    0    0  501    0  0.00000000000E+00  0.00000000000E+00 -0.23661708375E+04  0.23661708375E+04  0.50400001928E-02 0.  1.
    10030    2    1    2    0    0  0.00000000000E+00  0.00000000000E+00 -0.92374721820E+03  0.38085944567E+04  0.36948725029E+04 0.  0.
        1    1    3    3  502    0  0.93836052060E+03  0.14796466205E+04 -0.10656898876E+04  0.20507485279E+04  0.50400001928E-02 0.  1.
       -1    1    3    3    0  502 -0.93836052060E+03 -0.14796466205E+04  0.14194266944E+03  0.17578459288E+04  0.50400001928E-02 0. -1.
</event>
<event>
 5   0  0.7191801E-08  0.3698802E+04  0.7818609E-02  0.8068227E-01
        2   -1    0    0  501    0  0.00000000000E+00  0.00000000000E+00  0.31059513205E+04  0.31059513205E+04  0.25500000920E-02 0.  1.
       -2   -1    0    0    0  501  0.00000000000E+00  0.00000000000E+00 -0.11012034300E+04  0.11012034300E+04  0.25500000920E-02 0. -1.
    10030    2    1    2    0    0  0.00000000000E+00  0.00000000000E+00  0.20047478905E+04  0.42071547506E+04  0.36988021022E+04 0.  0.
        5    1    3    3  502    0  0.11634485596E+04  0.12104995580E+04  0.12033534406E+03  0.16832778784E+04  0.46999998093E+01 0. -1.
       -5    1    3    3    0  502 -0.11634485596E+04 -0.12104995580E+04  0.18844125464E+04  0.25238768722E+04  0.46999998093E+01 0.  1.
</event>
<event>
 5   0  0.2282000E-08  0.3694537E+04  0.7818609E-02  0.8069174E-01
       -1   -1    0    0    0  501  0.00000000000E+00  0.00000000000E+00  0.13757985755E+04  0.13757985755E+04  0.50400001928E-02 0. -1.
        1   -1    0    0  501    0  0.00000000000E+00  0.00000000000E+00 -0.24803054237E+04  0.24803054237E+04  0.50400001928E-02 0.  1.
    10030    2    1    2    0    0  0.00000000000E+00  0.00000000000E+00 -0.11045068482E+04  0.38561039992E+04  0.36945368688E+04 0.  0.
        1    1    3    3  502    0  0.15702448862E+04 -0.72262304633E+03 -0.12323207790E+04  0.21228442176E+04  0.50400001928E-02 0. -1.
       -1    1    3    3    0  502 -0.15702448862E+04  0.72262304633E+03  0.12781393083E+03  0.17332597816E+04  0.50400001928E-02 0.  1.
</event>
<event>
 5   0  0.2282000E-08  0.3692513E+04  0.7818609E-02  0.8069623E-01
        1   -1    0    0  501    0  0.00000000000E+00  0.00000000000E+00  0.13618792252E+04  0.13618792252E+04  0.50400001928E-02 0.  1.
       -1   -1    0    0    0  501  0.00000000000E+00  0.00000000000E+00 -0.25029117361E+04  0.25029117361E+04  0.50400001928E-02 0. -1.
    10030    2    1    2    0    0  0.00000000000E+00  0.00000000000E+00 -0.11410325110E+04  0.38647909613E+04  0.36925132340E+04 0.  0.
        5    1    3    3  502    0 -0.16799710330E+04 -0.41380264056E+03  0.10383086999E+03  0.17333026962E+04  0.46999998093E+01 0.  1.
       -5    1    3    3    0  502  0.16799710330E+04  0.41380264056E+03 -0.12448633809E+04  0.21314882651E+04  0.46999998093E+01 0. -1.
</event>
<event>
 5   0  0.7309833E-08  0.3694080E+04  0.7818609E-02  0.8069275E-01
       -2   -1    0    0    0  501  0.00000000000E+00  0.00000000000E+00  0.19771937374E+04  0.19771937374E+04  0.25500000920E-02 0.  1.
        2   -1    0    0  501    0  0.00000000000E+00  0.00000000000E+00 -0.17254538369E+04  0.17254538369E+04  0.25500000920E-02 0. -1.
    10030    2    1    2    0    0  0.00000000000E+00  0.00000000000E+00  0.25173990050E+03  0.37026475743E+04  0.36940798694E+04 0.  0.
        2    1    3    3  502    0 -0.47386265127E+03  0.75470781955E+03 -0.14957286829E+04  0.17410726573E+04  0.25500000920E-02 0. -1.
       -2    1    3    3    0  502  0.47386265127E+03 -0.75470781955E+03  0.17474685834E+04  0.19615749170E+04  0.25500000920E-02 0.  1.
</event>
<event>
 5   0  0.2282000E-08  0.3702214E+04  0.7818609E-02  0.8067471E-01
        1   -1    0    0  501    0  0.00000000000E+00  0.00000000000E+00  0.21212299436E+04  0.21212299436E+04  0.50400001928E-02 0.  1.
       -1   -1    0    0    0  501  0.00000000000E+00  0.00000000000E+00 -0.16153821579E+04  0.16153821580E+04  0.50400001928E-02 0. -1.
    10030    2    1    2    0    0  0.00000000000E+00  0.00000000000E+00  0.50584778563E+03  0.37366121015E+04  0.37022139343E+04 0.  0.
        1    1    3    3  502    0  0.16092863760E+04 -0.86973753588E+03  0.53902010005E+03  0.19070366251E+04  0.50400001928E-02 0. -1.
       -1    1    3    3    0  502 -0.16092863760E+04  0.86973753588E+03 -0.33172314419E+02  0.18295754764E+04  0.50400001928E-02 0.  1.
</event>
<event>
 5   0  0.2282000E-08  0.3656297E+04  0.7818609E-02  0.8077717E-01
        1   -1    0    0  501    0  0.00000000000E+00  0.00000000000E+00  0.20787846954E+04  0.20787846954E+04  0.50400001928E-02 0.  1.
       -1   -1    0    0    0  501  0.00000000000E+00  0.00000000000E+00 -0.16077307844E+04  0.16077307844E+04  0.50400001928E-02 0. -1.
    10030    2    1    2    0    0  0.00000000000E+00  0.00000000000E+00  0.47105391107E+03  0.36865154798E+04  0.36562965684E+04 0.  0.
        2    1    3    3  502    0  0.14337717707E+04  0.52994163685E+03  0.12466042752E+04  0.19724507213E+04  0.25500000920E-02 0.  1.
       -2    1    3    3    0  502 -0.14337717707E+04 -0.52994163685E+03 -0.77555036412E+03  0.17140647585E+04  0.25500000920E-02 0. -1.
</event>
<event>
 5   0  0.7191801E-08  0.3701083E+04  0.7818609E-02  0.8067722E-01
       -2   -1    0    0    0  501  0.00000000000E+00  0.00000000000E+00  0.17120897615E+04  0.17120897615E+04  0.25500000920E-02 0.  1.
        2   -1    0    0  501    0  0.00000000000E+00  0.00000000000E+00 -0.20001889086E+04  0.20001889086E+04  0.25500000920E-02 0. -1.
    10030    2    1    2    0    0  0.00000000000E+00  0.00000000000E+00 -0.28809914714E+03  0.37122786701E+04  0.37010825181E+04 0.  0.
        5    1    3    3  502    0  0.11578813112E+04 -0.28010819504E+03  0.12763314117E+04  0.17459076992E+04  0.46999998093E+01 0.  1.
       -5    1    3    3    0  502 -0.11578813112E+04  0.28010819504E+03 -0.15644305588E+04  0.19663709709E+04  0.46999998093E+01 0. -1.
</event>
<event>
 5   0  0.7203049E-08  0.3713245E+04  0.7818609E-02  0.8065033E-01
        2   -1    0    0  501    0  0.00000000000E+00  0.00000000000E+00  0.22976270384E+04  0.22976270384E+04  0.25500000920E-02 0.  1.
       -2   -1    0    0    0  501  0.00000000000E+00  0.00000000000E+00 -0.15002636505E+04  0.15002636505E+04  0.25500000920E-02 0. -1.
    10030    2    1    2    0    0  0.00000000000E+00  0.00000000000E+00  0.79736338788E+03  0.37978906890E+04  0.37132445803E+04 0.  0.
        4    1    3    3  502    0 -0.17741404716E+04  0.51017670966E+03  0.60115915534E+03  0.19414552869E+04  0.12699999809E+01 0.  1.
       -4    1    3    3    0  502  0.17741404716E+04 -0.51017670966E+03  0.19620423255E+03  0.18564354020E+04  0.12699999809E+01 0. -1.
</event>
<event>
 5   0  0.2282000E-08  0.3697701E+04  0.7818609E-02  0.8068471E-01
       -1   -1    0    0    0  501  0.00000000000E+00  0.00000000000E+00  0.14409373655E+04  0.14409373655E+04  0.50400001928E-02 0. -1.
        1   -1    0    0  501    0  0.00000000000E+00  0.00000000000E+00 -0.23722394762E+04  0.23722394762E+04  0.50400001928E-02 0.  1.
    10030    2    1    2    0    0  0.00000000000E+00  0.00000000000E+00 -0.93130211067E+03  0.38131768417E+04  0.36977011784E+04 0.  0.
        2    1    3    3  502    0  0.64660210533E+03  0.97565890233E+03  0.10102116990E+04  0.15461346168E+04  0.25500000920E-02 0. -1.
       -2    1    3    3    0  502 -0.64660210533E+03 -0.97565890233E+03 -0.19415138097E+04  0.22670422249E+04  0.25500000920E-02 0.  1.
</event>
<event>
 5   0  0.2282000E-08  0.3698948E+04  0.7818609E-02  0.8068195E-01
       -1   -1    0    0    0  501  0.00000000000E+00  0.00000000000E+00  0.21726798388E+04  0.21726798388E+04  0.50400001928E-02 0. -1.
        1   -1    0    0  501    0  0.00000000000E+00  0.00000000000E+00 -0.15743480778E+04  0.15743480778E+04  0.50400001928E-02 0.  1.
    10030    2    1    2    0    0  0.00000000000E+00  0.00000000000E+00  0.59833176099E+03  0.37470279166E+04  0.36989481358E+04 0.  0.
        3    1    3    3  502    0  0.98996207814E+03 -0.87320524555E+03 -0.10130645361E+04  0.16639747839E+04  0.10100000352E+00 0.  1.
       -3    1    3    3    0  502 -0.98996207814E+03  0.87320524555E+03  0.16113962971E+04  0.20830531327E+04  0.10100000352E+00 0. -1.
</event>
<event>
 5   0  0.2282000E-08  0.3733253E+04  0.7818609E-02  0.8060632E-01
        1   -1    0    0  501    0  0.00000000000E+00  0.00000000000E+00  0.15553220686E+04  0.15553220686E+04  0.50400001928E-02 0. -1.
       -1   -1    0    0    0  501  0.00000000000E+00  0.00000000000E+00 -0.22402400237E+04  0.22402400237E+04  0.50400001928E-02 0.  1.
    10030    2    1    2    0    0  0.00000000000E+00  0.00000000000E+00 -0.68491795514E+03  0.37955620924E+04  0.37332531379E+04 0.  0.
        2    1    3    3  502    0 -0.11761959987E+04 -0.14475020551E+04 -0.41851067828E+03  0.19115047514E+04  0.25500000920E-02 0.  1.
       -2    1    3    3    0  502  0.11761959987E+04  0.14475020551E+04 -0.26640727685E+03  0.18840573409E+04  0.25500000920E-02 0. -1.
</event>
<event>
 5   0  0.7254493E-08  0.3701650E+04  0.7818609E-02  0.8067596E-01
       -2   -1    0    0    0  501  0.00000000000E+00  0.00000000000E+00  0.16114830856E+04  0.16114830856E+04  0.25500000920E-02 0.  1.
        2   -1    0    0  501    0  0.00000000000E+00  0.00000000000E+00 -0.21257146865E+04  0.21257146865E+04  0.25500000920E-02 0. -1.
    10030    2    1    2    0    0  0.00000000000E+00  0.00000000000E+00 -0.51423160089E+03  0.37371977721E+04  0.37016500440E+04 0.  0.
        3    1    3    3  502    0  0.93464409006E+03 -0.32076972211E+03  0.13228730544E+04  0.16511952998E+04  0.10100000352E+00 0.  1.
       -3    1    3    3    0  502 -0.93464409006E+03  0.32076972211E+03 -0.18371046553E+04  0.20860024723E+04  0.10100000352E+00 0. -1.
</event>
<event>
 5   0  0.2282000E-08  0.3674602E+04  0.7818609E-02  0.8073614E-01
        3   -1    0    0  501    0  0.00000000000E+00  0.00000000000E+00  0.24351432772E+04  0.24351432793E+04  0.10100000352E+00 0. -1.
       -3   -1    0    0    0  501  0.00000000000E+00  0.00000000000E+00 -0.13862326918E+04  0.13862326955E+04  0.10100000352E+00 0.  1.
    10030    2    1    2    0    0  0.00000000000E+00  0.00000000000E+00  0.10489105854E+04  0.38213759748E+04  0.36746021451E+04 0.  0.
        3    1    3    3  502    0 -0.48204519965E+03 -0.17729027279E+04  0.53601522284E+03  0.19138610154E+04  0.10100000352E+00 0. -1.
       -3    1    3    3    0  502  0.48204519965E+03  0.17729027279E+04  0.51289536260E+03  0.19075149594E+04  0.10100000352E+00 0.  1.
</event>
<event>
 5   0  0.2282000E-08  0.3700044E+04  0.7818609E-02  0.8067952E-01
       -1   -1    0    0    0  501  0.00000000000E+00  0.00000000000E+00  0.12463407800E+04  0.12463407800E+04  0.50400001928E-02 0. -1.
        1   -1    0    0  501    0  0.00000000000E+00  0.00000000000E+00 -0.27461038826E+04  0.27461038826E+04  0.50400001928E-02 0.  1.
    10030    2    1    2    0    0  0.00000000000E+00  0.00000000000E+00 -0.14997631026E+04  0.39924446626E+04  0.37000439214E+04 0.  0.
        4    1    3    3  502    0  0.53807786073E+03 -0.82208080498E+03 -0.24413167848E+04  0.26316105127E+04  0.12699999809E+01 0.  1.
       -4    1    3    3    0  502 -0.53807786073E+03  0.82208080498E+03  0.94155368223E+03  0.13608341499E+04  0.12699999809E+01 0. -1.
</event>
<event>
 5   0  0.2282000E-08  0.3699231E+04  0.7818609E-02  0.8068132E-01
       -1   -1    0    0    0  501  0.00000000000E+00  0.00000000000E+00  0.25599056326E+04  0.25599056326E+04  0.50400001928E-02 0.  1.
        1   -1    0    0  501    0  0.00000000000E+00  0.00000000000E+00 -0.13364078520E+04  0.13364078520E+04  0.50400001928E-02 0. -1.
    10030    2    1    2    0    0  0.00000000000E+00  0.00000000000E+00  0.12234977806E+04  0.38963134846E+04  0.36992312649E+04 0.  0.
        3    1    3    3  502    0  0.67647130258E+03 -0.15801812633E+04 -0.10764108693E+03  0.17222580707E+04  0.10100000352E+00 0. -1.
       -3    1    3    3    0  502 -0.67647130258E+03  0.15801812633E+04  0.13311388675E+04  0.21740554140E+04  0.10100000352E+00 0.  1.
</event>
<event>
 5   0  0.7362817E-08  0.3684256E+04  0.7818609E-02  0.8071460E-01
        2   -1    0    0  501    0  0.00000000000E+00  0.00000000000E+00  0.23547437185E+04  0.23547437185E+04  0.25500000920E-02 0.  1.
       -2   -1    0    0    0  501  0.00000000000E+00  0.00000000000E+00 -0.14411062073E+04  0.14411062073E+04  0.25500000920E-02 0. -1.
    10030    2    1    2    0    0  0.00000000000E+00  0.00000000000E+00  0.91363751124E+03  0.37958499258E+04  0.36842561200E+04 0.  0.
        1    1    3    3  502    0  0.62362190550E+03  0.30245249574E+03  0.22152827789E+04  0.23211763362E+04  0.50400001928E-02 0.  1.
       -1    1    3    3    0  502 -0.62362190550E+03 -0.30245249574E+03 -0.13016452677E+04  0.14746735897E+04  0.50400001928E-02 0. -1.
</event>
<event>
 5   0  0.2282000E-08  0.3700339E+04  0.7818609E-02  0.8067887E-01
        1   -1    0    0  501    0  0.00000000000E+00  0.00000000000E+00  0.11754863699E+04  0.11754863699E+04  0.50400001928E-02 0. -1.
       -1   -1    0    0    0  501  0.00000000000E+00  0.00000000000E+00 -0.29120945770E+04  0.29120945770E+04  0.50400001928E-02 0.  1.
    10030    2    1    2    0    0  0.00000000000E+00  0.00000000000E+00 -0.17366082070E+04  0.40875809469E+04  0.37003391646E+04 0.  0.
        1    1    3    3  502    0 -0.16438683104E+04  0.84809327735E+03 -0.91196580912E+03  0.20623401431E+04  0.50400001928E-02 0. -1.
       -1    1    3    3    0  502  0.16438683104E+04 -0.84809327735E+03 -0.82464239793E+03  0.20252408038E+04  0.50400001928E-02 0.  1.
</event>
<event>
 5   0  0.7254493E-08  0.3700049E+04  0.7818609E-02  0.8067951E-01
       -2   -1    0    0    0  501  0.00000000000E+00  0.00000000000E+00  0.12185497128E+04  0.12185497128E+04  0.25500000920E-02 0.  1.
        2   -1    0    0  501    0  0.00000000000E+00  0.00000000000E+00 -0.28087406952E+04  0.28087406952E+04  0.25500000920E-02 0. -1.
    10030    2    1    2    0    0  0.00000000000E+00  0.00000000000E+00 -0.15901909824E+04  0.40272904080E+04  0.37000487389E+04 0.  0.
        3    1    3    3  502    0 -0.66274595893E+03 -0.15550605994E+04  0.23153067921E+02  0.16905566387E+04  0.10100000352E+00 0.  1.
       -3    1    3    3    0  502  0.66274595893E+03  0.15550605994E+04 -0.16133440503E+04  0.23367337694E+04  0.10100000352E+00 0. -1.
</event>
<event>
 5   0  0.7254493E-08  0.3682832E+04  0.7818609E-02  0.8071777E-01
       -2   -1    0    0    0  501  0.00000000000E+00  0.00000000000E+00  0.13559737013E+04  0.13559737013E+04  0.25500000920E-02 0. -1.
        2   -1    0    0  501    0  0.00000000000E+00  0.00000000000E+00 -0.25006480446E+04  0.25006480446E+04  0.25500000920E-02 0.  1.
    10030    2    1    2    0    0  0.00000000000E+00  0.00000000000E+00 -0.11446743433E+04  0.38566217460E+04  0.36828320542E+04 0.  0.
        3    1    3    3  502    0 -0.12206094990E+04 -0.95704118828E+03 -0.16116414501E+04  0.22367842004E+04  0.10100000352E+00 0.  1.
       -3    1    3    3    0  502  0.12206094990E+04  0.95704118828E+03  0.46696710683E+03  0.16198375456E+04  0.10100000352E+00 0. -1.
</event>
<event>
 5   0  0.7203049E-08  0.3701241E+04  0.7818609E-02  0.8067687E-01
       -2   -1    0    0    0  501  0.00000000000E+00  0.00000000000E+00  0.17941927900E+04  0.17941927900E+04  0.25500000920E-02 0. -1.
        2   -1    0    0  501    0  0.00000000000E+00  0.00000000000E+00 -0.19088233735E+04  0.19088233735E+04  0.25500000920E-02 0.  1.
    10030    2    1    2    0    0  0.00000000000E+00  0.00000000000E+00 -0.11463058349E+03  0.37030161636E+04  0.37012414859E+04 0.  0.
        4    1    3    3  502    0  0.14329761310E+04 -0.17181748844E+03 -0.12162547971E+04  0.18873842178E+04  0.12699999809E+01 0.  1.
       -4    1    3    3    0  502 -0.14329761310E+04  0.17181748844E+03  0.11016242136E+04  0.18156319457E+04  0.12699999809E+01 0. -1.
</event>
<event>
 5   0  0.2282000E-08  0.3703747E+04  0.7818609E-02  0.8067132E-01
       -1   -1    0    0    0  501  0.00000000000E+00  0.00000000000E+00  0.12800208158E+04  0.12800208158E+04  0.50400001928E-02 0. -1.
        1   -1    0    0  501    0  0.00000000000E+00  0.00000000000E+00 -0.26792029578E+04  0.26792029578E+04  0.50400001928E-02 0.  1.
    10030    2    1    2    0    0  0.00000000000E+00  0.00000000000E+00 -0.13991821420E+04  0.39592237736E+04  0.37037470517E+04 0.  0.
        5    1    3    3  502    0  0.20560139980E+03 -0.16120963817E+04  0.24950648078E+03  0.16442026194E+04  0.46999998093E+01 0. -1.
       -5    1    3    3    0  502 -0.20560139980E+03  0.16120963817E+04 -0.16486886227E+04  0.23150211542E+04  0.46999998093E+01 0.  1.
</event>
<event>
 5   0  0.7203049E-08  0.3706485E+04  0.7818609E-02  0.8066526E-01
        2   -1    0    0  501    0  0.00000000000E+00  0.00000000000E+00  0.18604291678E+04  0.18604291678E+04  0.25500000920E-02 0. -1.
       -2   -1    0    0    0  501  0.00000000000E+00  0.00000000000E+00 -0.18460831790E+04  0.18460831790E+04  0.25500000920E-02 0.  1.
    10030    2    1    2    0    0  0.00000000000E+00  0.00000000000E+00  0.14345988807E+02  0.37065123468E+04  0.37064845838E+04 0.  0.
        4    1    3    3  502    0  0.83685346314E+03  0.11429974537E+04  0.12020620563E+04  0.18578809699E+04  0.12699999809E+01 0. -1.
       -4    1    3    3    0  502 -0.83685346314E+03 -0.11429974537E+04 -0.11877160675E+04  0.18486313770E+04  0.12699999809E+01 0.  1.
</event>
<event>
 5   0  0.2282000E-08  0.3693088E+04  0.7818609E-02  0.8069495E-01
       -1   -1    0    0    0  501  0.00000000000E+00  0.00000000000E+00  0.29699650199E+04  0.29699650199E+04  0.50400001928E-02 0.  1.
        1   -1    0    0  501    0  0.00000000000E+00  0.00000000000E+00 -0.11480689331E+04  0.11480689331E+04  0.50400001928E-02 0. -1.
    10030    2    1    2    0    0  0.00000000000E+00  0.00000000000E+00  0.18218960868E+04  0.41180339531E+04  0.36930879068E+04 0.  0.
        5    1    3    3  502    0 -0.83359071774E+02  0.16562222660E+04  0.52833289074E+01  0.16583337820E+04  0.46999998093E+01 0. -1.
       -5    1    3    3    0  502  0.83359071774E+02 -0.16562222660E+04  0.18166127579E+04  0.24597001710E+04  0.46999998093E+01 0.  1.
</event>
<event>
 5   0  0.7362817E-08  0.3687520E+04  0.7818609E-02  0.8070733E-01
       -2   -1    0    0    0  501  0.00000000000E+00  0.00000000000E+00  0.14208103225E+04  0.14208103225E+04  0.25500000920E-02 0. -1.
        2   -1    0    0  501    0  0.00000000000E+00  0.00000000000E+00 -0.23926145558E+04  0.23926145558E+04  0.25500000920E-02 0.  1.
    10030    2    1    2    0    0  0.00000000000E+00  0.00000000000E+00 -0.97180423330E+03  0.38134248783E+04  0.36875202826E+04 0.  0.
        1    1    3    3  502    0  0.60358728832E+02  0.10388443110E+04 -0.20599114898E+04  0.23078292884E+04  0.50400001928E-02 0.  1.
       -1    1    3    3    0  502 -0.60358728832E+02 -0.10388443110E+04  0.10881072565E+04  0.15055955899E+04  0.50400001928E-02 0. -1.
</event>
<event>
 5   0  0.2282000E-08  0.3695648E+04  0.7818609E-02  0.8068927E-01
        1   -1    0    0  501    0  0.00000000000E+00  0.00000000000E+00  0.23734086061E+04  0.23734086061E+04  0.50400001928E-02 0.  1.
       -1   -1    0    0    0  501  0.00000000000E+00  0.00000000000E+00 -0.14386288639E+04  0.14386288639E+04  0.50400001928E-02 0. -1.
    10030    2    1    2    0    0  0.00000000000E+00  0.00000000000E+00  0.93477974218E+03  0.38120374700E+04  0.36956483202E+04 0.  0.
        2    1    3    3  502    0 -0.41906631010E+03  0.70791819494E+03 -0.12393157150E+04  0.14875040115E+04  0.25500000920E-02 0. -1.
       -2    1    3    3    0  502  0.41906631010E+03 -0.70791819494E+03  0.21740954571E+04  0.23245334585E+04  0.25500000920E-02 0.  1.
</event>
<event>
 5   0  0.7191801E-08  0.3706304E+04  0.7818609E-02  0.8066566E-01
        2   -1    0    0  501    0  0.00000000000E+00  0.00000000000E+00  0.20976850475E+04  0.20976850475E+04  0.25500000920E-02 0. -1.
       -2   -1    0    0    0  501  0.00000000000E+00  0.00000000000E+00 -0.16371251930E+04  0.16371251930E+04  0.25500000920E-02 0.  1.
    10030    2    1    2    0    0  0.00000000000E+00  0.00000000000E+00  0.46055985451E+03  0.37348102406E+04  0.37063043795E+04 0.  0.
        5    1    3    3  502    0  0.17200359034E+04  0.24051760798E+03 -0.42104937295E+03  0.17870861460E+04  0.46999998093E+01 0.  1.
       -5    1    3    3    0  502 -0.17200359034E+04 -0.24051760798E+03  0.88160922746E+03  0.19477240946E+04  0.46999998093E+01 0. -1.
</event>
<event>
 5   0  0.2282000E-08  0.3712328E+04  0.7818609E-02  0.8065235E-01
        1   -1    0    0  501    0  0.00000000000E+00  0.00000000000E+00  0.31275195282E+04  0.31275195282E+04  0.50400001928E-02 0.  1.
       -1   -1    0    0    0  501  0.00000000000E+00  0.00000000000E+00 -0.11016223425E+04  0.11016223425E+04  0.50400001928E-02 0. -1.
    10030    2    1    2    0    0  0.00000000000E+00  0.00000000000E+00  0.20258971857E+04  0.42291418708E+04  0.37123283201E+04 0.  0.
        3    1    3    3  502    0 -0.17047436237E+03  0.70185630097E+03 -0.93497049497E+03  0.11814540245E+04  0.10100000352E+00 0. -1.
       -3    1    3    3    0  502  0.17047436237E+03 -0.70185630097E+03  0.29608676807E+04  0.30476878462E+04  0.10100000352E+00 0.  1.
</event>
<event>
 5   0  0.2282000E-08  0.3696252E+04  0.7818609E-02  0.8068793E-01
       -1   -1    0    0    0  501  0.00000000000E+00  0.00000000000E+00  0.13939798430E+04  0.13939798430E+04  0.50400001928E-02 0.  1.
        1   -1    0    0  501    0  0.00000000000E+00  0.00000000000E+00 -0.24502291525E+04  0.24502291526E+04  0.50400001928E-02 0. -1.
    10030    2    1    2    0    0  0.00000000000E+00  0.00000000000E+00 -0.10562493095E+04  0.38442089956E+04  0.36962521827E+04 0.  0.
        3    1    3    3  502    0  0.13238413614E+04  0.44887304530E+03  0.72920404749E+03  0.15766361387E+04  0.10100000352E+00 0.  1.
       -3    1    3    3    0  502 -0.13238413614E+04 -0.44887304530E+03 -0.17854533570E+04  0.22675728569E+04  0.10100000352E+00 0. -1.
</event>
<event>
 5   0  0.2282000E-08  0.3695251E+04  0.7818609E-02  0.8069015E-01
       -1   -1    0    0    0  501  0.00000000000E+00  0.00000000000E+00  0.16085765338E+04  0.16085765338E+04  0.50400001928E-02 0. -1.
        1   -1    0    0  501    0  0.00000000000E+00  0.00000000000E+00 -0.21221991517E+04  0.21221991517E+04  0.50400001928E-02 0.  1.
    10030    2    1    2    0    0  0.00000000000E+00  0.00000000000E+00 -0.51362261795E+03  0.37307756855E+04  0.36952508740E+04 0.  0.
        3    1    3    3  502    0  0.47351133323E+03  0.41219719610E+03  0.14975940065E+04  0.16238556985E+04  0.10100000352E+00 0. -1.
       -3    1    3    3    0  502 -0.47351133323E+03 -0.41219719610E+03 -0.20112166244E+04  0.21069199870E+04  0.10100000352E+00 0.  1.
</event>
<event>
 5   0  0.2282000E-08  0.3725924E+04  0.7818609E-02  0.8062241E-01
        1   -1    0    0  501    0  0.00000000000E+00  0.00000000000E+00  0.15166243076E+04  0.15166243076E+04  0.50400001928E-02 0. -1.
       -1   -1    0    0    0  501  0.00000000000E+00  0.00000000000E+00 -0.22883893756E+04  0.22883893756E+04  0.50400001928E-02 0.  1.
    10030    2    1    2    0    0  0.00000000000E+00  0.00000000000E+00 -0.77176506798E+03  0.38050136832E+04  0.37259237524E+04 0.  0.
        2    1    3    3  502    0 -0.15463718206E+04 -0.52683659585E+03 -0.13003251610E+04  0.20879818319E+04  0.25500000920E-02 0. -1.
       -2    1    3    3    0  502  0.15463718206E+04  0.52683659585E+03  0.52856009298E+03  0.17170318512E+04  0.25500000920E-02 0.  1.
</event>
<event>
 5   0  0.2282000E-08  0.3695233E+04  0.7818609E-02  0.8069019E-01
        1   -1    0    0  501    0  0.00000000000E+00  0.00000000000E+00  0.22599203809E+04  0.22599203809E+04  0.50400001928E-02 0.  1.
       -1   -1    0    0    0  501  0.00000000000E+00  0.00000000000E+00 -0.15105340952E+04  0.15105340952E+04  0.50400001928E-02 0. -1.
    10030    2    1    2    0    0  0.00000000000E+00  0.00000000000E+00  0.74938628569E+03  0.37704544760E+04  0.36952330306E+04 0.  0.
        5    1    3    3  502    0  0.70970603426E+03  0.93570759474E+03  0.18300637594E+04  0.21744854130E+04  0.46999998093E+01 0.  1.
       -5    1    3    3    0  502 -0.70970603426E+03 -0.93570759474E+03 -0.10806774737E+04  0.15959690630E+04  0.46999998093E+01 0. -1.
</event>
<event>
 5   0  0.7191801E-08  0.3701811E+04  0.7818609E-02  0.8067561E-01
        2   -1    0    0  501    0  0.00000000000E+00  0.00000000000E+00  0.24989518041E+04  0.24989518041E+04  0.25500000920E-02 0.  1.
       -2   -1    0    0    0  501  0.00000000000E+00  0.00000000000E+00 -0.13709153559E+04  0.13709153559E+04  0.25500000920E-02 0. -1.
    10030    2    1    2    0    0  0.00000000000E+00  0.00000000000E+00  0.11280364482E+04  0.38698671600E+04  0.37018111253E+04 0.  0.
        5    1    3    3  502    0 -0.15903267284E+04  0.61566175158E+03 -0.18812448971E+03  0.17156897765E+04  0.46999998093E+01 0. -1.
       -5    1    3    3    0  502  0.15903267284E+04 -0.61566175158E+03  0.13161609379E+04  0.21541773835E+04  0.46999998093E+01 0.  1.
</event>
<event>
 5   0  0.2282000E-08  0.3697705E+04  0.7818609E-02  0.8068471E-01
       -3   -1    0    0    0  501  0.00000000000E+00  0.00000000000E+00  0.20924008258E+04  0.20924008282E+04  0.10100000352E+00 0.  1.
        3   -1    0    0  501    0  0.00000000000E+00  0.00000000000E+00 -0.16336525116E+04  0.16336525147E+04  0.10100000352E+00 0. -1.
    10030    2    1    2    0    0  0.00000000000E+00  0.00000000000E+00  0.45874831415E+03  0.37260533429E+04  0.36977051665E+04 0.  0.
        3    1    3    3  502    0 -0.15154020212E+04 -0.10206853954E+04  0.51441002483E+03  0.18981200294E+04  0.10100000352E+00 0.  1.
       -3    1    3    3    0  502  0.15154020212E+04  0.10206853954E+04 -0.55661710685E+02  0.18279333135E+04  0.10100000352E+00 0. -1.
</event>
<event>
 5   0  0.7362817E-08  0.3696627E+04  0.7818609E-02  0.8068710E-01
       -2   -1    0    0    0  501  0.00000000000E+00  0.00000000000E+00  0.21226522821E+04  0.21226522821E+04  0.25500000920E-02 0. -1.
        2   -1    0    0  501    0  0.00000000000E+00  0.00000000000E+00 -0.16094314397E+04  0.16094314397E+04  0.25500000920E-02 0.  1.
    10030    2    1    2    0    0  0.00000000000E+00  0.00000000000E+00  0.51322084244E+03  0.37320837218E+04  0.36966272835E+04 0.  0.
        1    1    3    3  502    0  0.45674809534E+03 -0.12309840075E+04  0.15699811254E+04  0.20466512120E+04  0.50400001928E-02 0. -1.
       -1    1    3    3    0  502 -0.45674809534E+03  0.12309840075E+04 -0.10567602830E+04  0.16854325098E+04  0.50400001928E-02 0.  1.
</event>
<event>
 5   0  0.2282000E-08  0.3702765E+04  0.7818609E-02  0.8067349E-01
       -1   -1    0    0    0  501  0.00000000000E+00  0.00000000000E+00  0.10620408476E+04  0.10620408476E+04  0.50400001928E-02 0. -1.
        1   -1    0    0  501    0  0.00000000000E+00  0.00000000000E+00 -0.32273873553E+04  0.32273873553E+04  0.50400001928E-02 0.  1.
    10030    2    1    2    0    0  0.00000000000E+00  0.00000000000E+00 -0.21653465077E+04  0.42894282028E+04  0.37027650221E+04 0.  0.
        1    1    3    3  502    0  0.16620971405E+04  0.72469923558E+03 -0.64943973028E+03  0.19260134605E+04  0.50400001928E-02 0. -1.
       -1    1    3    3    0  502 -0.16620971405E+04 -0.72469923558E+03 -0.15159067774E+04  0.23634147424E+04  0.50400001928E-02 0.  1.
</event>
<event>
 5   0  0.7203049E-08  0.3707908E+04  0.7818609E-02  0.8066212E-01
       -2   -1    0    0    0  501  0.00000000000E+00  0.00000000000E+00  0.15232172654E+04  0.15232172654E+04  0.25500000920E-02 0.  1.
        2   -1    0    0  501    0  0.00000000000E+00  0.00000000000E+00 -0.22565036798E+04  0.22565036799E+04  0.25500000920E-02 0. -1.
    10030    2    1    2    0    0  0.00000000000E+00  0.00000000000E+00 -0.73328641441E+03  0.37797209453E+04  0.37079079626E+04 0.  0.
        4    1    3    3  502    0  0.15676916599E+04 -0.65629364933E+03  0.38849091597E+03  0.17433603470E+04  0.12699999809E+01 0.  1.
       -4    1    3    3    0  502 -0.15676916599E+04  0.65629364933E+03 -0.11217773304E+04  0.20363605983E+04  0.12699999809E+01 0. -1.
</event>
<event>
 5   0  0.7254493E-08  0.3684882E+04  0.7818609E-02  0.8071320E-01
       -2   -1    0    0    0  501  0.00000000000E+00  0.00000000000E+00  0.15635121392E+04  0.15635121392E+04  0.25500000920E-02 0. -1.
        2   -1    0    0  501    0  0.00000000000E+00  0.00000000000E+00 -0.21711309198E+04  0.21711309198E+04  0.25500000920E-02 0.  1.
    10030    2    1    2    0    0  0.00000000000E+00  0.00000000000E+00 -0.60761878055E+03  0.37346430590E+04  0.36848823856E+04 0.  0.
        3    1    3    3  502    0  0.13534250560E+04 -0.72993133948E+03  0.72480001260E+03  0.16999688853E+04  0.10100000352E+00 0. -1.
       -3    1    3    3    0  502 -0.13534250560E+04  0.72993133948E+03 -0.13324187931E+04  0.20346741737E+04  0.10100000352E+00 0.  1.
</event>
<event>
 5   0  0.2282000E-08  0.3700932E+04  0.7818609E-02  0.8067755E-01
        1   -1    0    0  501    0  0.00000000000E+00  0.00000000000E+00  0.13106138485E+04  0.13106138485E+04  0.50400001928E-02 0. -1.
       -1   -1    0    0    0  501  0.00000000000E+00  0.00000000000E+00 -0.26126870596E+04  0.26126870596E+04  0.50400001928E-02 0.  1.
    10030    2    1    2    0    0  0.00000000000E+00  0.00000000000E+00 -0.13020732111E+04  0.39233009082E+04  0.37009316893E+04 0.  0.
        3    1    3    3  502    0 -0.18642669797E+03 -0.17368764733E+04 -0.38386122278E+01  0.17468570469E+04  0.10100000352E+00 0.  1.
       -3    1    3    3    0  502  0.18642669797E+03  0.17368764733E+04 -0.12982345989E+04  0.21764438613E+04  0.10100000352E+00 0. -1.
</event>
<event>
 5   0  0.2282000E-08  0.3698803E+04  0.7818609E-02  0.8068227E-01
       -1   -1    0    0    0  501  0.00000000000E+00  0.00000000000E+00  0.25595116281E+04  0.25595116281E+04  0.50400001928E-02 0. -1.
        1   -1    0    0  501    0  0.00000000000E+00  0.00000000000E+00 -0.13363039436E+04  0.13363039436E+04  0.50400001928E-02 0.  1.
    10030    2    1    2    0    0  0.00000000000E+00  0.00000000000E+00  0.12232076846E+04  0.38958155717E+04  0.36988027697E+04 0.  0.
        5    1    3    3  502    0 -0.47365258093E+03  0.16052284861E+04 -0.21717375991E+03  0.16876882983E+04  0.46999998093E+01 0.  1.
       -5    1    3    3    0  502  0.47365258093E+03 -0.16052284861E+04  0.14403814445E+04  0.22081272734E+04  0.46999998093E+01 0. -1.
</event>
<event>
 5   0  0.2282000E-08  0.3698567E+04  0.7818609E-02  0.8068279E-01
        1   -1    0    0  501    0  0.00000000000E+00  0.00000000000E+00  0.28248134512E+04  0.28248134512E+04  0.50400001928E-02 0. -1.
       -1   -1    0    0    0  501  0.00000000000E+00  0.00000000000E+00 -0.12106464478E+04  0.12106464478E+04  0.50400001928E-02 0.  1.
    10030    2    1    2    0    0  0.00000000000E+00  0.00000000000E+00  0.16141670035E+04  0.40354598990E+04  0.36985674904E+04 0.  0.
        4    1    3    3  502    0 -0.92008739796E+03 -0.34391996870E+03  0.25166494340E+04  0.27015491392E+04  0.12699999809E+01 0. -1.
       -4    1    3    3    0  502  0.92008739796E+03  0.34391996870E+03 -0.90248243055E+03  0.13339107598E+04  0.12699999809E+01 0.  1.
</event>
<event>
 5   0  0.7191801E-08  0.3692937E+04  0.7818609E-02  0.8069529E-01
       -2   -1    0    0    0  501  0.00000000000E+00  0.00000000000E+00  0.19701856448E+04  0.19701856448E+04  0.25500000920E-02 0. -1.
        2   -1    0    0  501    0  0.00000000000E+00  0.00000000000E+00 -0.17305203311E+04  0.17305203311E+04  0.25500000920E-02 0.  1.
    10030    2    1    2    0    0  0.00000000000E+00  0.00000000000E+00  0.23966531371E+03  0.37007059758E+04  0.36929372127E+04 0.  0.
        5    1    3    3  502    0 -0.10315325496E+04  0.40638467596E+03  0.15994944181E+04  0.19461789202E+04  0.46999998093E+01 0. -1.
       -5    1    3    3    0  502  0.10315325496E+04 -0.40638467596E+03 -0.13598291044E+04  0.17545270557E+04  0.46999998093E+01 0.  1.
</event>
<event>
 5   0  0.7309833E-08  0.3660229E+04  0.7818609E-02  0.8076833E-01
        2   -1    0    0  501    0  0.00000000000E+00  0.00000000000E+00  0.19002526233E+04  0.19002526233E+04  0.25500000920E-02 0. -1.
       -2   -1    0    0    0  501  0.00000000000E+00  0.00000000000E+00 -0.17625649915E+04  0.17625649915E+04  0.25500000920E-02 0.  1.
    10030    2    1    2    0    0  0.00000000000E+00  0.00000000000E+00  0.13768763178E+03  0.36628176149E+04  0.36602288174E+04 0.  0.
        2    1    3    3  502    0  0.44569054852E+03  0.27222183953E+03 -0.16864132809E+04  0.17654275825E+04  0.25500000920E-02 0.  1.
       -2    1    3    3    0  502 -0.44569054852E+03 -0.27222183953E+03  0.18241009127E+04  0.18973900323E+04  0.25500000920E-02 0. -1.
</event>
<event>
 5   0  0.7254493E-08  0.3701386E+04  0.7818609E-02  0.8067655E-01
       -2   -1    0    0    0  501  0.00000000000E+00  0.00000000000E+00  0.25678466934E+04  0.25678466934E+04  0.25500000920E-02 0.  1.
        2   -1    0    0  501    0  0.00000000000E+00  0.00000000000E+00 -0.13338278203E+04  0.13338278204E+04  0.25500000920E-02 0. -1.
    10030    2    1    2    0    0  0.00000000000E+00  0.00000000000E+00  0.12340188731E+04  0.39016745138E+04  0.37013864203E+04 0.  0.
        3    1    3    3  502    0 -0.70457902852E+03 -0.13794397021E+04 -0.45060316440E+03  0.16131734938E+04  0.10100000352E+00 0. -1.
       -3    1    3    3    0  502  0.70457902852E+03  0.13794397021E+04  0.16846220375E+04  0.22885010200E+04  0.10100000352E+00 0.  1.
</event>
<event>
 5   0  0.7309833E-08  0.3698530E+04  0.7818609E-02  0.8068288E-01
       -2   -1    0    0    0  501  0.00000000000E+00  0.00000000000E+00  0.26093281161E+04  0.26093281161E+04  0.25500000920E-02 0. -1.
        2   -1    0    0  501    0  0.00000000000E+00  0.00000000000E+00 -0.13105981985E+04  0.13105981985E+04  0.25500000920E-02 0.  1.
    10030    2    1    2    0    0  0.00000000000E+00  0.00000000000E+00  0.12987299175E+04  0.39199263146E+04  0.36985298314E+04 0.  0.
        2    1    3    3  502    0  0.61911716424E+02 -0.18375451170E+04  0.85967617241E+03  0.20296423919E+04  0.25500000920E-02 0.  1.
       -2    1    3    3    0  502 -0.61911716424E+02  0.18375451170E+04  0.43905374513E+03  0.18902839228E+04  0.25500000920E-02 0. -1.
</event>
<event>
 5   0  0.7254493E-08  0.3699784E+04  0.7818609E-02  0.8068010E-01
        2   -1    0    0  501    0  0.00000000000E+00  0.00000000000E+00  0.19158011568E+04  0.19158011568E+04  0.25500000920E-02 0. -1.
       -2   -1    0    0    0  501  0.00000000000E+00  0.00000000000E+00 -0.17862500975E+04  0.17862500975E+04  0.25500000920E-02 0.  1.
    10030    2    1    2    0    0  0.00000000000E+00  0.00000000000E+00  0.12955105930E+03  0.37020512543E+04  0.36997837792E+04 0.  0.
        3    1    3    3  502    0 -0.13999605313E+04 -0.94200434761E+03 -0.69387005787E+03  0.18244772807E+04  0.10100000352E+00 0.  1.
       -3    1    3    3    0  502  0.13999605313E+04  0.94200434761E+03  0.82342111717E+03  0.18775739737E+04  0.10100000352E+00 0. -1.
</event>
<event>
 5   0  0.7191801E-08  0.3699589E+04  0.7818609E-02  0.8068053E-01
        2   -1    0    0  501    0  0.00000000000E+00  0.00000000000E+00  0.19059736276E+04  0.19059736276E+04  0.25500000920E-02 0. -1.
       -2   -1    0    0    0  501  0.00000000000E+00  0.00000000000E+00 -0.17952710846E+04  0.17952710846E+04  0.25500000920E-02 0.  1.
    10030    2    1    2    0    0  0.00000000000E+00  0.00000000000E+00  0.11070254298E+03  0.37012447122E+04  0.36995888105E+04 0.  0.
        5    1    3    3  502    0  0.88269555051E+03 -0.53364135968E+03 -0.14808465806E+04  0.18046753783E+04  0.46999998093E+01 0.  1.
       -5    1    3    3    0  502 -0.88269555051E+03  0.53364135968E+03  0.15915491236E+04  0.18965693340E+04  0.46999998093E+01 0. -1.
</event>
<event>
 5   0  0.7203049E-08  0.3698631E+04  0.7818609E-02  0.8068265E-01
       -2   -1    0    0    0  501  0.00000000000E+00  0.00000000000E+00  0.17214919153E+04  0.17214919153E+04  0.25500000920E-02 0. -1.
        2   -1    0    0  501    0  0.00000000000E+00  0.00000000000E+00 -0.19866300807E+04  0.19866300807E+04  0.25500000920E-02 0.  1.
    10030    2    1    2    0    0  0.00000000000E+00  0.00000000000E+00 -0.26513816537E+03  0.37081219959E+04  0.36986308940E+04 0.  0.
        4    1    3    3  502    0  0.14093526119E+04 -0.24733316099E+03 -0.13071203325E+04  0.19380437698E+04  0.12699999809E+01 0.  1.
       -4    1    3    3    0  502 -0.14093526119E+04  0.24733316099E+03  0.10419821671E+04  0.17700782261E+04  0.12699999809E+01 0. -1.
</event>
<event>
 5   0  0.7203049E-08  0.3707696E+04  0.7818609E-02  0.8066258E-01
       -2   -1    0    0    0  501  0.00000000000E+00  0.00000000000E+00  0.13791063117E+04  0.13791063117E+04  0.25500000920E-02 0.  1.
        2   -1    0    0  501    0  0.00000000000E+00  0.00000000000E+00 -0.24920147301E+04  0.24920147301E+04  0.25500000920E-02 0. -1.
    10030    2    1    2    0    0  0.00000000000E+00  0.00000000000E+00 -0.11129084185E+04  0.38711210418E+04  0.37076964509E+04 0.  0.
        4    1    3    3  502    0  0.98437031571E+03  0.15590287645E+04 -0.75781774833E+03  0.19934505159E+04  0.12699999809E+01 0.  1.
       -4    1    3    3    0  502 -0.98437031571E+03 -0.15590287645E+04 -0.35509067016E+03  0.18776705259E+04  0.12699999809E+01 0. -1.
</event>
<event>
 5   0  0.2282000E-08  0.3697988E+04  0.7818609E-02  0.8068408E-01
       -1   -1    0    0    0  501  0.00000000000E+00  0.00000000000E+00  0.29329149840E+04  0.29329149840E+04  0.50400001928E-02 0.  1.
        1   -1    0    0  501    0  0.00000000000E+00  0.00000000000E+00 -0.11656593308E+04  0.11656593308E+04  0.50400001928E-02 0. -1.
    10030    2    1    2    0    0  0.00000000000E+00  0.00000000000E+00  0.17672556532E+04  0.40985743148E+04  0.36979884897E+04 0.  0.
        1    1    3    3  502    0  0.35358953998E+03 -0.14879242464E+04 -0.26808997070E+03  0.15526803786E+04  0.50400001928E-02 0. -1.
       -1    1    3    3    0  502 -0.35358953998E+03  0.14879242464E+04  0.20353456239E+04  0.25458939362E+04  0.50400001928E-02 0.  1.
</event>
<event>
 5   0  0.7309833E-08  0.3682276E+04  0.7818609E-02  0.8071901E-01
        2   -1    0    0  501    0  0.00000000000E+00  0.00000000000E+00  0.14975763973E+04  0.14975763973E+04  0.25500000920E-02 0.  1.
       -2   -1    0    0    0  501  0.00000000000E+00  0.00000000000E+00 -0.22635163440E+04  0.22635163440E+04  0.25500000920E-02 0. -1.
    10030    2    1    2    0    0  0.00000000000E+00  0.00000000000E+00 -0.76593994677E+03  0.37610927413E+04  0.36822757375E+04 0.  0.
        2    1    3    3  502    0 -0.60685858454E+03 -0.12971213105E+04  0.79894440552E+03  0.16398515783E+04  0.25500000920E-02 0.  1.
       -2    1    3    3    0  502  0.60685858454E+03  0.12971213105E+04 -0.15648843523E+04  0.21212411630E+04  0.25500000920E-02 0. -1.
</event>
<event>
 5   0  0.2282000E-08  0.3693548E+04  0.7818609E-02  0.8069393E-01
        1   -1    0    0  501    0  0.00000000000E+00  0.00000000000E+00  0.18099426793E+04  0.18099426793E+04  0.50400001928E-02 0. -1.
       -1   -1    0    0    0  501  0.00000000000E+00  0.00000000000E+00 -0.18843543802E+04  0.18843543802E+04  0.50400001928E-02 0.  1.
    10030    2    1    2    0    0  0.00000000000E+00  0.00000000000E+00 -0.74411700881E+02  0.36942970596E+04  0.36935475715E+04 0.  0.
        5    1    3    3  502    0  0.17096409705E+04 -0.65346072265E+03 -0.28356490847E+03  0.18521107719E+04  0.46999998093E+01 0.  1.
       -5    1    3    3    0  502 -0.17096409705E+04  0.65346072265E+03  0.20915320759E+03  0.18421862877E+04  0.46999998093E+01 0. -1.
</event>
<event>
 5   0  0.2282000E-08  0.3702643E+04  0.7818609E-02  0.8067376E-01
       -1   -1    0    0    0  501  0.00000000000E+00  0.00000000000E+00  0.12800170838E+04  0.12800170839E+04  0.50400001928E-02 0.  1.
        1   -1    0    0  501    0  0.00000000000E+00  0.00000000000E+00 -0.26776141424E+04  0.26776141425E+04  0.50400001928E-02 0. -1.
    10030    2    1    2    0    0  0.00000000000E+00  0.00000000000E+00 -0.13975970586E+04  0.39576312263E+04  0.37026432971E+04 0.  0.
        1    1    3    3  502    0 -0.56861142199E+02  0.54393178047E+03  0.11917047244E+04  0.13112036919E+04  0.50400001928E-02 0.  1.
       -1    1    3    3    0  502  0.56861142199E+02 -0.54393178047E+03 -0.25893017830E+04  0.26464275344E+04  0.50400001928E-02 0. -1.
</event>
<event>
 5   0  0.2282000E-08  0.3688602E+04  0.7818609E-02  0.8070493E-01
        1   -1    0    0  501    0  0.00000000000E+00  0.00000000000E+00  0.17289028109E+04  0.17289028109E+04  0.50400001928E-02 0.  1.
       -1   -1    0    0    0  501  0.00000000000E+00  0.00000000000E+00 -0.19674011556E+04  0.19674011556E+04  0.50400001928E-02 0. -1.
    10030    2    1    2    0    0  0.00000000000E+00  0.00000000000E+00 -0.23849834470E+03  0.36963039665E+04  0.36886015714E+04 0.  0.
        5    1    3    3  502    0  0.12529167684E+04 -0.78022975486E+03 -0.12273903220E+04  0.19196530915E+04  0.46999998093E+01 0. -1.
       -5    1    3    3    0  502 -0.12529167684E+04  0.78022975486E+03  0.98889197733E+03  0.17766508750E+04  0.46999998093E+01 0.  1.
</event>
<event>
 5   0  0.7362817E-08  0.3704478E+04  0.7818609E-02  0.8066970E-01
       -2   -1    0    0    0  501  0.00000000000E+00  0.00000000000E+00  0.18099048724E+04  0.18099048724E+04  0.25500000920E-02 0. -1.
        2   -1    0    0  501    0  0.00000000000E+00  0.00000000000E+00 -0.18955629282E+04  0.18955629282E+04  0.25500000920E-02 0.  1.
    10030    2    1    2    0    0  0.00000000000E+00  0.00000000000E+00 -0.85658055822E+02  0.37054678006E+04  0.37044776041E+04 0.  0.
        1    1    3    3  502    0  0.47967179191E+03  0.13877388707E+04  0.10865805593E+04  0.18266257178E+04  0.50400001928E-02 0. -1.
       -1    1    3    3    0  502 -0.47967179191E+03 -0.13877388707E+04 -0.11722386151E+04  0.18788420828E+04  0.50400001928E-02 0.  1.
</event>
<event>
 5   0  0.7254493E-08  0.3690220E+04  0.7818609E-02  0.8070133E-01
       -2   -1    0    0    0  501  0.00000000000E+00  0.00000000000E+00  0.25718161444E+04  0.25718161444E+04  0.25500000920E-02 0.  1.
        2   -1    0    0  501    0  0.00000000000E+00  0.00000000000E+00 -0.13237457010E+04  0.13237457010E+04  0.25500000920E-02 0. -1.
    10030    2    1    2    0    0  0.00000000000E+00  0.00000000000E+00  0.12480704434E+04  0.38955618453E+04  0.36902198118E+04 0.  0.
        3    1    3    3  502    0 -0.93300641656E+03 -0.37659398782E+03 -0.10086712999E+04  0.14246900738E+04  0.10100000352E+00 0. -1.
       -3    1    3    3    0  502  0.93300641656E+03  0.37659398782E+03  0.22567417433E+04  0.24708717715E+04  0.10100000352E+00 0.  1.
</event>
<event>
 5   0  0.7191801E-08  0.3693969E+04  0.7818609E-02  0.8069300E-01
        2   -1    0    0  501    0  0.00000000000E+00  0.00000000000E+00  0.32641253786E+04  0.32641253786E+04  0.25500000920E-02 0. -1.
       -2   -1    0    0    0  501  0.00000000000E+00  0.00000000000E+00 -0.10451043440E+04  0.10451043440E+04  0.25500000920E-02 0.  1.
    10030    2    1    2    0    0  0.00000000000E+00  0.00000000000E+00  0.22190210346E+04  0.43092297227E+04  0.36939689293E+04 0.  0.
        5    1    3    3  502    0 -0.28237863961E+03 -0.98901851462E+03  0.28991165665E+04  0.30761655148E+04  0.46999998093E+01 0. -1.
       -5    1    3    3    0  502  0.28237863961E+03  0.98901851462E+03 -0.68009553187E+03  0.12330642079E+04  0.46999998093E+01 0.  1.
</event>
<event>
 5   0  0.2282000E-08  0.3701768E+04  0.7818609E-02  0.8067570E-01
       -1   -1    0    0    0  501  0.00000000000E+00  0.00000000000E+00  0.24350180106E+04  0.24350180106E+04  0.50400001928E-02 0. -1.
        1   -1    0    0  501    0  0.00000000000E+00  0.00000000000E+00 -0.14068774476E+04  0.14068774477E+04  0.50400001928E-02 0.  1.
    10030    2    1    2    0    0  0.00000000000E+00  0.00000000000E+00  0.10281405630E+04  0.38418954583E+04  0.37017681849E+04 0.  0.
        5    1    3    3  502    0 -0.69754835653E+03  0.40652785771E+03 -0.12144823339E+04  0.14583648509E+04  0.46999998093E+01 0.  1.
       -5    1    3    3    0  502  0.69754835653E+03 -0.40652785771E+03  0.22426228969E+04  0.23835306074E+04  0.46999998093E+01 0. -1.
</event>
<event>
 5   0  0.7254493E-08  0.3699505E+04  0.7818609E-02  0.8068072E-01
        2   -1    0    0  501    0  0.00000000000E+00  0.00000000000E+00  0.19709733234E+04  0.19709733234E+04  0.25500000920E-02 0. -1.
       -2   -1    0    0    0  501  0.00000000000E+00  0.00000000000E+00 -0.17359868070E+04  0.17359868070E+04  0.25500000920E-02 0.  1.
    10030    2    1    2    0    0  0.00000000000E+00  0.00000000000E+00  0.23498651636E+03  0.37069601304E+04  0.36995046622E+04 0.  0.
        3    1    3    3  502    0 -0.17829092785E+04 -0.35280975422E+03  0.46219736998E+03  0.18753310740E+04  0.10100000352E+00 0.  1.
       -3    1    3    3    0  502  0.17829092785E+04  0.35280975422E+03 -0.22721085362E+03  0.18316290564E+04  0.10100000352E+00 0. -1.
</event>
<event>
 5   0  0.7203049E-08  0.3696739E+04  0.7818609E-02  0.8068685E-01
       -2   -1    0    0    0  501  0.00000000000E+00  0.00000000000E+00  0.21698087161E+04  0.21698087162E+04  0.25500000920E-02 0.  1.
        2   -1    0    0  501    0  0.00000000000E+00  0.00000000000E+00 -0.15745485454E+04  0.15745485454E+04  0.25500000920E-02 0. -1.
    10030    2    1    2    0    0  0.00000000000E+00  0.00000000000E+00  0.59526017079E+03  0.37443572615E+04  0.36967386479E+04 0.  0.
        4    1    3    3  502    0 -0.15670889040E+04  0.70383660776E+03  0.98855613016E+03  0.19820187787E+04  0.12699999809E+01 0. -1.
       -4    1    3    3    0  502  0.15670889040E+04 -0.70383660776E+03 -0.39329595937E+03  0.17623384829E+04  0.12699999809E+01 0.  1.
</event>
<event>
 5   0  0.7191801E-08  0.3710014E+04  0.7818609E-02  0.8065746E-01
       -2   -1    0    0    0  501  0.00000000000E+00  0.00000000000E+00  0.17479209103E+04  0.17479209103E+04  0.25500000920E-02 0.  1.
        2   -1    0    0  501    0  0.00000000000E+00  0.00000000000E+00 -0.19686538844E+04  0.19686538844E+04  0.25500000920E-02 0. -1.
    10030    2    1    2    0    0  0.00000000000E+00  0.00000000000E+00 -0.22073297408E+03  0.37165747948E+04  0.37100141724E+04 0.  0.
        5    1    3    3  502    0  0.14026034479E+04 -0.35158378989E+03 -0.12743685562E+04  0.19274192332E+04  0.46999998093E+01 0. -1.
       -5    1    3    3    0  502 -0.14026034479E+04  0.35158378989E+03  0.10536355822E+04  0.17891555615E+04  0.46999998093E+01 0.  1.
</event>
<event>
 5   0  0.2282000E-08  0.3693453E+04  0.7818609E-02  0.8069414E-01
       -1   -1    0    0    0  501  0.00000000000E+00  0.00000000000E+00  0.17165848858E+04  0.17165848858E+04  0.50400001928E-02 0.  1.
        1   -1    0    0  501    0  0.00000000000E+00  0.00000000000E+00 -0.19867350228E+04  0.19867350228E+04  0.50400001928E-02 0. -1.
    10030    2    1    2    0    0  0.00000000000E+00  0.00000000000E+00 -0.27015013704E+03  0.37033199086E+04  0.36934532959E+04 0.  0.
        5    1    3    3  502    0 -0.12682069742E+03  0.20142757496E+03  0.17011337198E+04  0.17177120189E+04  0.46999998093E+01 0.  1.
       -5    1    3    3    0  502  0.12682069742E+03 -0.20142757496E+03 -0.19712838569E+04  0.19856078897E+04  0.46999998093E+01 0. -1.
</event>
<event>
 5   0  0.7254493E-08  0.3689155E+04  0.7818609E-02  0.8070370E-01
        2   -1    0    0  501    0  0.00000000000E+00  0.00000000000E+00  0.13786639188E+04  0.13786639188E+04  0.25500000920E-02 0.  1.
       -2   -1    0    0    0  501  0.00000000000E+00  0.00000000000E+00 -0.24679442114E+04  0.24679442114E+04  0.25500000920E-02 0. -1.
    10030    2    1    2    0    0  0.00000000000E+00  0.00000000000E+00 -0.10892802926E+04  0.38466081302E+04  0.36891547204E+04 0.  0.
        3    1    3    3  502    0 -0.14359126775E+02 -0.42107981894E+03 -0.24171005871E+04  0.24535463429E+04  0.10100000352E+00 0. -1.
       -3    1    3    3    0  502  0.14359126775E+02  0.42107981894E+03  0.13278202945E+04  0.13930617873E+04  0.10100000352E+00 0.  1.
</event>
<event>
 5   0  0.7362817E-08  0.3697886E+04  0.7818609E-02  0.8068431E-01
        2   -1    0    0  501    0  0.00000000000E+00  0.00000000000E+00  0.12481517468E+04  0.12481517468E+04  0.25500000920E-02 0. -1.
       -2   -1    0    0    0  501  0.00000000000E+00  0.00000000000E+00 -0.27389217478E+04  0.27389217478E+04  0.25500000920E-02 0.  1.
    10030    2    1    2    0    0  0.00000000000E+00  0.00000000000E+00 -0.14907700010E+04  0.39870734946E+04  0.36978858630E+04 0.  0.
        1    1    3    3  502    0  0.13484566928E+04 -0.11445397323E+04 -0.16447109277E+03  0.17763325679E+04  0.50400001928E-02 0. -1.
       -1    1    3    3    0  502 -0.13484566928E+04  0.11445397323E+04 -0.13262989083E+04  0.22107409268E+04  0.50400001928E-02 0.  1.
</event>
<event>
 5   0  0.7203049E-08  0.3702333E+04  0.7818609E-02  0.8067445E-01
        2   -1    0    0  501    0  0.00000000000E+00  0.00000000000E+00  0.15815868888E+04  0.15815868888E+04  0.25500000920E-02 0.  1.
       -2   -1    0    0    0  501  0.00000000000E+00  0.00000000000E+00 -0.21666960596E+04  0.21666960596E+04  0.25500000920E-02 0. -1.
    10030    2    1    2    0    0  0.00000000000E+00  0.00000000000E+00 -0.58510917077E+03  0.37482829484E+04  0.37023333615E+04 0.  0.
        4    1    3    3  502    0 -0.62505563909E+02 -0.86515766404E+03  0.13631047478E+04  0.16156920794E+04  0.12699999809E+01 0.  1.
       -4    1    3    3    0  502  0.62505563909E+02  0.86515766404E+03 -0.19482139185E+04  0.21325908690E+04  0.12699999809E+01 0. -1.
</event>
<event>
 5   0  0.7362817E-08  0.3693093E+04  0.7818609E-02  0.8069494E-01
       -2   -1    0    0    0  501  0.00000000000E+00  0.00000000000E+00  0.12352939587E+04  0.12352939587E+04  0.25500000920E-02 0.  1.
        2   -1    0    0  501    0  0.00000000000E+00  0.00000000000E+00 -0.27602607721E+04  0.27602607721E+04  0.25500000920E-02 0. -1.
    10030    2    1    2    0    0  0.00000000000E+00  0.00000000000E+00 -0.15249668134E+04  0.39955547308E+04  0.36930927182E+04 0.  0.
        1    1    3    3  502    0  0.65341663836E+03 -0.40312869318E+03  0.10544207449E+04  0.13043270886E+04  0.50400001928E-02 0.  1.
       -1    1    3    3    0  502 -0.65341663836E+03  0.40312869318E+03 -0.25793875583E+04  0.26912276423E+04  0.50400001928E-02 0. -1.
</event>
<event>
 5   0  0.7254493E-08  0.3699128E+04  0.7818609E-02  0.8068155E-01
        2   -1    0    0  501    0  0.00000000000E+00  0.00000000000E+00  0.20708450822E+04  0.20708450822E+04  0.25500000920E-02 0. -1.
       -2   -1    0    0    0  501  0.00000000000E+00  0.00000000000E+00 -0.16519280435E+04  0.16519280435E+04  0.25500000920E-02 0.  1.
    10030    2    1    2    0    0  0.00000000000E+00  0.00000000000E+00  0.41891703869E+03  0.37227731258E+04  0.36991280406E+04 0.  0.
        3    1    3    3  502    0  0.61374295329E+03 -0.78344868236E+03  0.17784023904E+04  0.20379370262E+04  0.10100000352E+00 0. -1.
       -3    1    3    3    0  502 -0.61374295329E+03  0.78344868236E+03 -0.13594853517E+04  0.16848360995E+04  0.10100000352E+00 0.  1.
</event>
<event>
 5   0  0.7309833E-08  0.3693253E+04  0.7818609E-02  0.8069459E-01
        2   -1    0    0  501    0  0.00000000000E+00  0.00000000000E+00  0.26988334239E+04  0.26988334239E+04  0.25500000920E-02 0.  1.
       -2   -1    0    0    0  501  0.00000000000E+00  0.00000000000E+00 -0.12635198582E+04  0.12635198582E+04  0.25500000920E-02 0. -1.
    10030    2    1    2    0    0  0.00000000000E+00  0.00000000000E+00  0.14353135658E+04  0.39623532821E+04  0.36932531053E+04 0.  0.
        2    1    3    3  502    0 -0.13679123912E+04  0.29011715155E+03 -0.57632291279E+03  0.15124484690E+04  0.25500000920E-02 0. -1.
       -2    1    3    3    0  502  0.13679123912E+04 -0.29011715155E+03  0.20116364786E+04  0.24499048131E+04  0.25500000920E-02 0.  1.
</event>
<event>
 5   0  0.7362817E-08  0.3720395E+04  0.7818609E-02  0.8063457E-01
       -2   -1    0    0    0  501  0.00000000000E+00  0.00000000000E+00  0.15139794444E+04  0.15139794444E+04  0.25500000920E-02 0.  1.
        2   -1    0    0  501    0  0.00000000000E+00  0.00000000000E+00 -0.22855894762E+04  0.22855894762E+04  0.25500000920E-02 0. -1.
    10030    2    1    2    0    0  0.00000000000E+00  0.00000000000E+00 -0.77161003179E+03  0.37995689206E+04  0.37203954012E+04 0.  0.
        1    1    3    3  502    0 -0.16245998322E+04 -0.72322399299E+03  0.17166652256E+03  0.17865740829E+04  0.50400001928E-02 0.  1.
       -1    1    3    3    0  502  0.16245998322E+04  0.72322399299E+03 -0.94327655435E+03  0.20129948377E+04  0.50400001928E-02 0. -1.
</event>
<event>
 5   0  0.7309833E-08  0.3675341E+04  0.7818609E-02  0.8073449E-01
        2   -1    0    0  501    0  0.00000000000E+00  0.00000000000E+00  0.19604885942E+04  0.19604885942E+04  0.25500000920E-02 0.  1.
       -2   -1    0    0    0  501  0.00000000000E+00  0.00000000000E+00 -0.17225467337E+04  0.17225467337E+04  0.25500000920E-02 0. -1.
    10030    2    1    2    0    0  0.00000000000E+00  0.00000000000E+00  0.23794186050E+03  0.36830353280E+04  0.36753411948E+04 0.  0.
        2    1    3    3  502    0 -0.11492337048E+04  0.78357964709E+03 -0.10845003506E+04  0.17637676100E+04  0.25500000920E-02 0. -1.
       -2    1    3    3    0  502  0.11492337048E+04 -0.78357964709E+03  0.13224422111E+04  0.19192677180E+04  0.25500000920E-02 0.  1.
</event>
<event>
 5   0  0.2282000E-08  0.3701040E+04  0.7818609E-02  0.8067731E-01
       -1   -1    0    0    0  501  0.00000000000E+00  0.00000000000E+00  0.12431014888E+04  0.12431014888E+04  0.50400001928E-02 0.  1.
        1   -1    0    0  501    0  0.00000000000E+00  0.00000000000E+00 -0.27547428808E+04  0.27547428808E+04  0.50400001928E-02 0. -1.
    10030    2    1    2    0    0  0.00000000000E+00  0.00000000000E+00 -0.15116413920E+04  0.39978443697E+04  0.37010403816E+04 0.  0.
        1    1    3    3  502    0  0.14794796479E+04 -0.11113411410E+04 -0.77962953141E+03  0.20079246416E+04  0.50400001928E-02 0.  1.
       -1    1    3    3    0  502 -0.14794796479E+04  0.11113411410E+04 -0.73201186058E+03  0.19899197281E+04  0.50400001928E-02 0. -1.
</event>
<event>
 5   0  0.2282000E-08  0.3691585E+04  0.7818609E-02  0.8069829E-01
        1   -1    0    0  501    0  0.00000000000E+00  0.00000000000E+00  0.25288541422E+04  0.25288541422E+04  0.50400001928E-02 0.  1.
       -1   -1    0    0    0  501  0.00000000000E+00  0.00000000000E+00 -0.13472310181E+04  0.13472310181E+04  0.50400001928E-02 0. -1.
    10030    2    1    2    0    0  0.00000000000E+00  0.00000000000E+00  0.11816231241E+04  0.38760851602E+04  0.36915854266E+04 0.  0.
        2    1    3    3  502    0 -0.13725194006E+04 -0.65054675053E+02 -0.70322421268E+03  0.15435562539E+04  0.25500000920E-02 0. -1.
       -2    1    3    3    0  502  0.13725194006E+04  0.65054675053E+02  0.18848473368E+04  0.23325289063E+04  0.25500000920E-02 0.  1.
</event>
<event>
 5   0  0.2282000E-08  0.3707669E+04  0.7818609E-02  0.8066265E-01
        1   -1    0    0  501    0  0.00000000000E+00  0.00000000000E+00  0.20437051126E+04  0.20437051126E+04  0.50400001928E-02 0. -1.
       -1   -1    0    0    0  501  0.00000000000E+00  0.00000000000E+00 -0.16816034342E+04  0.16816034342E+04  0.50400001928E-02 0.  1.
    10030    2    1    2    0    0  0.00000000000E+00  0.00000000000E+00  0.36210167835E+03  0.37253085468E+04  0.37076685590E+04 0.  0.
        4    1    3    3  502    0 -0.10104801849E+03  0.75820636355E+03  0.18777568042E+04  0.20275748618E+04  0.12699999809E+01 0. -1.
       -4    1    3    3    0  502  0.10104801849E+03 -0.75820636355E+03 -0.15156551258E+04  0.16977336850E+04  0.12699999809E+01 0.  1.
</event>
<event>
 5   0  0.2282000E-08  0.3699104E+04  0.7818609E-02  0.8068160E-01
       -3   -1    0    0    0  501  0.00000000000E+00  0.00000000000E+00  0.14648329919E+04  0.14648329953E+04  0.10100000352E+00 0.  1.
        3   -1    0    0  501    0  0.00000000000E+00  0.00000000000E+00 -0.23353124731E+04  0.23353124753E+04  0.10100000352E+00 0. -1.
    10030    2    1    2    0    0  0.00000000000E+00  0.00000000000E+00 -0.87047948124E+03  0.38001454706E+04  0.36991040903E+04 0.  0.
        4    1    3    3  502    0 -0.18227501936E+04 -0.31237731435E+03 -0.40540689558E+03  0.18932390813E+04  0.12699999809E+01 0. -1.
       -4    1    3    3    0  502  0.18227501936E+04  0.31237731435E+03 -0.46507258567E+03  0.19069063894E+04  0.12699999809E+01 0.  1.
</event>
<event>
 5   0  0.7254493E-08  0.3758510E+04  0.7818609E-02  0.8055118E-01
       -2   -1    0    0    0  501  0.00000000000E+00  0.00000000000E+00  0.16536312178E+04  0.16536312178E+04  0.25500000920E-02 0. -1.
        2   -1    0    0  501    0  0.00000000000E+00  0.00000000000E+00 -0.21356634452E+04  0.21356634452E+04  0.25500000920E-02 0.  1.
    10030    2    1    2    0    0  0.00000000000E+00  0.00000000000E+00 -0.48203222738E+03  0.37892946629E+04  0.37585102068E+04 0.  0.
        3    1    3    3  502    0  0.12043171131E+04 -0.13940531505E+04  0.13328724098E+03  0.18470325916E+04  0.10100000352E+00 0.  1.
       -3    1    3    3    0  502 -0.12043171131E+04  0.13940531505E+04 -0.61531946836E+03  0.19422620714E+04  0.10100000352E+00 0. -1.
</event>
<event>
 5   0  0.7254493E-08  0.3700979E+04  0.7818609E-02  0.8067745E-01
       -2   -1    0    0    0  501  0.00000000000E+00  0.00000000000E+00  0.23214057906E+04  0.23214057906E+04  0.25500000920E-02 0. -1.
        2   -1    0    0  501    0  0.00000000000E+00  0.00000000000E+00 -0.14751027482E+04  0.14751027483E+04  0.25500000920E-02 0.  1.
    10030    2    1    2    0    0  0.00000000000E+00  0.00000000000E+00  0.84630304234E+03  0.37965085388E+04  0.37009793631E+04 0.  0.
        3    1    3    3  502    0 -0.10235282408E+04 -0.11951013325E+04 -0.57586220918E+03  0.16755579813E+04  0.10100000352E+00 0. -1.
       -3    1    3    3    0  502  0.10235282408E+04  0.11951013325E+04  0.14221652515E+04  0.21209505575E+04  0.10100000352E+00 0.  1.
</event>
<event>
 5   0  0.2282000E-08  0.3622213E+04  0.7818609E-02  0.8085422E-01
       -1   -1    0    0    0  501  0.00000000000E+00  0.00000000000E+00  0.18228145369E+04  0.18228145369E+04  0.50400001928E-02 0. -1.
        1   -1    0    0  501    0  0.00000000000E+00  0.00000000000E+00 -0.17994741216E+04  0.17994741216E+04  0.50400001928E-02 0.  1.
    10030    2    1    2    0    0  0.00000000000E+00  0.00000000000E+00  0.23340415254E+02  0.36222886585E+04  0.36222134601E+04 0.  0.
        3    1    3    3  502    0 -0.13606534109E+04 -0.11627958293E+04  0.28850755024E+03  0.18129281458E+04  0.10100000352E+00 0. -1.
       -3    1    3    3    0  502  0.13606534109E+04  0.11627958293E+04 -0.26516713499E+03  0.18093605127E+04  0.10100000352E+00 0.  1.
</event>
<event>
 5   0  0.2282000E-08  0.3695727E+04  0.7818609E-02  0.8068909E-01
       -1   -1    0    0    0  501  0.00000000000E+00  0.00000000000E+00  0.13566300945E+04  0.13566300945E+04  0.50400001928E-02 0.  1.
        1   -1    0    0  501    0  0.00000000000E+00  0.00000000000E+00 -0.25169719280E+04  0.25169719280E+04  0.50400001928E-02 0. -1.
    10030    2    1    2    0    0  0.00000000000E+00  0.00000000000E+00 -0.11603418336E+04  0.38736020225E+04  0.36957271893E+04 0.  0.
        4    1    3    3  502    0  0.83442853497E+03  0.16321225589E+04 -0.33547529911E+03  0.18635021643E+04  0.12699999809E+01 0.  1.
       -4    1    3    3    0  502 -0.83442853497E+03 -0.16321225589E+04 -0.82486653445E+03  0.20100998582E+04  0.12699999809E+01 0. -1.
</event>
<event>
 5   0  0.2282000E-08  0.3716897E+04  0.7818609E-02  0.8064228E-01
       -3   -1    0    0    0  501  0.00000000000E+00  0.00000000000E+00  0.13192979740E+04  0.13192979779E+04  0.10100000352E+00 0. -1.
        3   -1    0    0  501    0  0.00000000000E+00  0.00000000000E+00 -0.26179303610E+04  0.26179303629E+04  0.10100000352E+00 0.  1.
    10030    2    1    2    0    0  0.00000000000E+00  0.00000000000E+00 -0.12986323869E+04  0.39372283408E+04  0.37168966802E+04 0.  0.
        2    1    3    3  502    0  0.33431271680E+03  0.91265950169E+03 -0.23272338559E+04  0.25220487265E+04  0.25500000920E-02 0.  1.
       -2    1    3    3    0  502 -0.33431271680E+03 -0.91265950169E+03  0.10286014690E+04  0.14151796143E+04  0.25500000920E-02 0. -1.
</event>
<event>
 5   0  0.7203049E-08  0.3704654E+04  0.7818609E-02  0.8066931E-01
        2   -1    0    0  501    0  0.00000000000E+00  0.00000000000E+00  0.31059326642E+04  0.31059326642E+04  0.25500000920E-02 0.  1.
       -2   -1    0    0    0  501  0.00000000000E+00  0.00000000000E+00 -0.11046970551E+04  0.11046970551E+04  0.25500000920E-02 0. -1.
    10030    2    1    2    0    0  0.00000000000E+00  0.00000000000E+00  0.20012356091E+04  0.42106297193E+04  0.37046536505E+04 0.  0.
        4    1    3    3  502    0 -0.49107484299E+03  0.39724115414E+03 -0.97851690242E+03  0.11646681833E+04  0.12699999809E+01 0. -1.
       -4    1    3    3    0  502  0.49107484299E+03 -0.39724115414E+03  0.29797525115E+04  0.30459615360E+04  0.12699999809E+01 0.  1.
</event>
<event>
 5   0  0.7203049E-08  0.3708162E+04  0.7818609E-02  0.8066155E-01
       -2   -1    0    0    0  501  0.00000000000E+00  0.00000000000E+00  0.19603755823E+04  0.19603755823E+04  0.25500000920E-02 0.  1.
        2   -1    0    0  501    0  0.00000000000E+00  0.00000000000E+00 -0.17535503124E+04  0.17535503124E+04  0.25500000920E-02 0. -1.
    10030    2    1    2    0    0  0.00000000000E+00  0.00000000000E+00  0.20682526992E+03  0.37139258948E+04  0.37081624640E+04 0.  0.
        4    1    3    3  502    0  0.17689309919E+04 -0.12624215318E+03  0.64514301465E+03  0.18871314362E+04  0.12699999809E+01 0.  1.
       -4    1    3    3    0  502 -0.17689309919E+04  0.12624215318E+03 -0.43831774472E+03  0.18267944585E+04  0.12699999809E+01 0. -1.
</event>
<event>
 5   0  0.7254493E-08  0.3771201E+04  0.7818609E-02  0.8052364E-01
       -2   -1    0    0    0  501  0.00000000000E+00  0.00000000000E+00  0.22756774840E+04  0.22756774840E+04  0.25500000920E-02 0. -1.
        2   -1    0    0  501    0  0.00000000000E+00  0.00000000000E+00 -0.15623868959E+04  0.15623868959E+04  0.25500000920E-02 0.  1.
    10030    2    1    2    0    0  0.00000000000E+00  0.00000000000E+00  0.71329058811E+03  0.38380643799E+04  0.37712007002E+04 0.  0.
        3    1    3    3  502    0 -0.17074149286E+02 -0.18670943757E+04  0.62428263887E+03  0.19687716368E+04  0.10100000352E+00 0. -1.
       -3    1    3    3    0  502  0.17074149286E+02  0.18670943757E+04  0.89007949236E+02  0.18692927432E+04  0.10100000352E+00 0.  1.
</event>
<event>
 5   0  0.2282000E-08  0.3702531E+04  0.7818609E-02  0.8067401E-01
       -1   -1    0    0    0  501  0.00000000000E+00  0.00000000000E+00  0.14724519722E+04  0.14724519722E+04  0.50400001928E-02 0.  1.
        1   -1    0    0  501    0  0.00000000000E+00  0.00000000000E+00 -0.23275354017E+04  0.23275354017E+04  0.50400001928E-02 0. -1.
    10030    2    1    2    0    0  0.00000000000E+00  0.00000000000E+00 -0.85508342954E+03  0.37999873739E+04  0.37025310762E+04 0.  0.
        1    1    3    3  502    0  0.14219782122E+04  0.95992442241E+03  0.28625525381E+03  0.17393731638E+04  0.50400001928E-02 0.  1.
       -1    1    3    3    0  502 -0.14219782122E+04 -0.95992442241E+03 -0.11413386834E+04  0.20606142101E+04  0.50400001928E-02 0. -1.
</event>
<event>
 5   0  0.7203049E-08  0.3703426E+04  0.7818609E-02  0.8067203E-01
       -2   -1    0    0    0  501  0.00000000000E+00  0.00000000000E+00  0.21834806624E+04  0.21834806624E+04  0.25500000920E-02 0.  1.
        2   -1    0    0  501    0  0.00000000000E+00  0.00000000000E+00 -0.15703552499E+04  0.15703552499E+04  0.25500000920E-02 0. -1.
    10030    2    1    2    0    0  0.00000000000E+00  0.00000000000E+00  0.61312541252E+03  0.37538359123E+04  0.37034256149E+04 0.  0.
        4    1    3    3  502    0  0.40164925221E+02 -0.70375006613E+03 -0.14290418354E+04  0.15934363988E+04  0.12699999809E+01 0. -1.
       -4    1    3    3    0  502 -0.40164925221E+02  0.70375006613E+03  0.20421672479E+04  0.21603995135E+04  0.12699999809E+01 0.  1.
</event>
<event>
 5   0  0.2282000E-08  0.3699443E+04  0.7818609E-02  0.8068085E-01
       -1   -1    0    0    0  501  0.00000000000E+00  0.00000000000E+00  0.27197400291E+04  0.27197400291E+04  0.50400001928E-02 0.  1.
        1   -1    0    0  501    0  0.00000000000E+00  0.00000000000E+00 -0.12580134595E+04  0.12580134595E+04  0.50400001928E-02 0. -1.
    10030    2    1    2    0    0  0.00000000000E+00  0.00000000000E+00  0.14617265696E+04  0.39777534886E+04  0.36994429651E+04 0.  0.
        4    1    3    3  502    0 -0.11608144750E+04  0.13950797653E+04  0.11151436951E+04  0.21300903433E+04  0.12699999809E+01 0. -1.
       -4    1    3    3    0  502  0.11608144750E+04 -0.13950797653E+04  0.34658287447E+03  0.18476631453E+04  0.12699999809E+01 0.  1.
</event>
<event>
 5   0  0.7362817E-08  0.3701420E+04  0.7818609E-02  0.8067647E-01
        2   -1    0    0  501    0  0.00000000000E+00  0.00000000000E+00  0.17410823368E+04  0.17410823368E+04  0.25500000920E-02 0.  1.
       -2   -1    0    0    0  501  0.00000000000E+00  0.00000000000E+00 -0.19672407036E+04  0.19672407036E+04  0.25500000920E-02 0. -1.
    10030    2    1    2    0    0  0.00000000000E+00  0.00000000000E+00 -0.22615836680E+03  0.37083230405E+04  0.37014202903E+04 0.  0.
        1    1    3    3  502    0  0.15874208574E+04 -0.14978926430E+03  0.82824005680E+03  0.17967535707E+04  0.50400001928E-02 0.  1.
       -1    1    3    3    0  502 -0.15874208574E+04  0.14978926430E+03 -0.10543984236E+04  0.19115694698E+04  0.50400001928E-02 0. -1.
</event>
<event>
 5   0  0.7191801E-08  0.3700918E+04  0.7818609E-02  0.8067758E-01
        2   -1    0    0  501    0  0.00000000000E+00  0.00000000000E+00  0.12724035769E+04  0.12724035769E+04  0.25500000920E-02 0. -1.
       -2   -1    0    0    0  501  0.00000000000E+00  0.00000000000E+00 -0.26911258917E+04  0.26911258917E+04  0.25500000920E-02 0.  1.
    10030    2    1    2    0    0  0.00000000000E+00  0.00000000000E+00 -0.14187223148E+04  0.39635294686E+04  0.37009178378E+04 0.  0.
        5    1    3    3  502    0 -0.55870459326E+03 -0.17106338472E+04 -0.24778283520E+03  0.18165454592E+04  0.46999998093E+01 0. -1.
       -5    1    3    3    0  502  0.55870459326E+03  0.17106338472E+04 -0.11709394796E+04  0.21469840094E+04  0.46999998093E+01 0.  1.
</event>
<event>
 5   0  0.2282000E-08  0.3700195E+04  0.7818609E-02  0.8067919E-01
        1   -1    0    0  501    0  0.00000000000E+00  0.00000000000E+00  0.23101667751E+04  0.23101667751E+04  0.50400001928E-02 0. -1.
       -1   -1    0    0    0  501  0.00000000000E+00  0.00000000000E+00 -0.14816512604E+04  0.14816512604E+04  0.50400001928E-02 0.  1.
    10030    2    1    2    0    0  0.00000000000E+00  0.00000000000E+00  0.82851551474E+03  0.37918180355E+04  0.37001954078E+04 0.  0.
        1    1    3    3  502    0  0.23936938928E+03 -0.10912277066E+04  0.19254895538E+04  0.22261144701E+04  0.50400001928E-02 0. -1.
       -1    1    3    3    0  502 -0.23936938928E+03  0.10912277066E+04 -0.10969740391E+04  0.15657035654E+04  0.50400001928E-02 0.  1.
</event>
<event>
 5   0  0.2282000E-08  0.3703590E+04  0.7818609E-02  0.8067167E-01
        1   -1    0    0  501    0  0.00000000000E+00  0.00000000000E+00  0.24974851780E+04  0.24974851780E+04  0.50400001928E-02 0. -1.
       -1   -1    0    0    0  501  0.00000000000E+00  0.00000000000E+00 -0.13730389384E+04  0.13730389384E+04  0.50400001928E-02 0.  1.
    10030    2    1    2    0    0  0.00000000000E+00  0.00000000000E+00  0.11244462397E+04  0.38705241164E+04  0.37035898248E+04 0.  0.
        1    1    3    3  502    0 -0.13946901775E+04  0.11013492629E+04  0.11062775661E+04  0.20933181658E+04  0.50400001928E-02 0. -1.
       -1    1    3    3    0  502  0.13946901775E+04 -0.11013492629E+04  0.18168673567E+02  0.17772059506E+04  0.50400001928E-02 0.  1.
</event>
<event>
 5   0  0.2282000E-08  0.3718597E+04  0.7818609E-02  0.8063853E-01
        1   -1    0    0  501    0  0.00000000000E+00  0.00000000000E+00  0.29016950561E+04  0.29016950561E+04  0.50400001928E-02 0. -1.
       -1   -1    0    0    0  501  0.00000000000E+00  0.00000000000E+00 -0.11913696205E+04  0.11913696205E+04  0.50400001928E-02 0.  1.
    10030    2    1    2    0    0  0.00000000000E+00  0.00000000000E+00  0.17103254357E+04  0.40930646766E+04  0.37185972289E+04 0.  0.
        4    1    3    3  502    0  0.12321978014E+04  0.13458402976E+04  0.12480254914E+04  0.22106937302E+04  0.12699999809E+01 0. -1.
       -4    1    3    3    0  502 -0.12321978014E+04 -0.13458402976E+04  0.46229994427E+03  0.18823709464E+04  0.12699999809E+01 0.  1.
</event>
<event>
 5   0  0.7203049E-08  0.3704032E+04  0.7818609E-02  0.8067069E-01
        2   -1    0    0  501    0  0.00000000000E+00  0.00000000000E+00  0.22053202019E+04  0.22053202019E+04  0.25500000920E-02 0.  1.
       -2   -1    0    0    0  501  0.00000000000E+00  0.00000000000E+00 -0.15553130983E+04  0.15553130983E+04  0.25500000920E-02 0. -1.
    10030    2    1    2    0    0  0.00000000000E+00  0.00000000000E+00  0.65000710361E+03  0.37606333002E+04  0.37040320711E+04 0.  0.
        4    1    3    3  502    0 -0.16682221384E+03 -0.57102976175E+01 -0.15476599931E+04  0.15566359002E+04  0.12699999809E+01 0. -1.
       -4    1    3    3    0  502  0.16682221384E+03  0.57102976175E+01  0.21976670967E+04  0.22039974001E+04  0.12699999809E+01 0.  1.
</event>
<event>
 5   0  0.2282000E-08  0.3693809E+04  0.7818609E-02  0.8069335E-01
        1   -1    0    0  501    0  0.00000000000E+00  0.00000000000E+00  0.11560773819E+04  0.11560773819E+04  0.50400001928E-02 0.  1.
       -1   -1    0    0    0  501  0.00000000000E+00  0.00000000000E+00 -0.29505434019E+04  0.29505434019E+04  0.50400001928E-02 0. -1.
    10030    2    1    2    0    0  0.00000000000E+00  0.00000000000E+00 -0.17944660200E+04  0.41066207838E+04  0.36938091403E+04 0.  0.
        1    1    3    3  502    0  0.28534888335E+03  0.15788316544E+04 -0.19143078946E+04  0.24977405977E+04  0.50400001928E-02 0. -1.
       -1    1    3    3    0  502 -0.28534888335E+03 -0.15788316544E+04  0.11984187458E+03  0.16088801861E+04  0.50400001928E-02 0.  1.
</event>
<event>
 5   0  0.7362817E-08  0.3691688E+04  0.7818609E-02  0.8069806E-01
        2   -1    0    0  501    0  0.00000000000E+00  0.00000000000E+00  0.15300031579E+04  0.15300031579E+04  0.25500000920E-02 0.  1.
       -2   -1    0    0    0  501  0.00000000000E+00  0.00000000000E+00 -0.22268849063E+04  0.22268849063E+04  0.25500000920E-02 0. -1.
    10030    2    1    2    0    0  0.00000000000E+00  0.00000000000E+00 -0.69688174842E+03  0.37568880642E+04  0.36916884694E+04 0.  0.
        1    1    3    3  502    0 -0.10284346286E+04  0.11312735217E+04 -0.14009620277E+04  0.20736808263E+04  0.50400001928E-02 0. -1.
       -1    1    3    3    0  502  0.10284346286E+04 -0.11312735217E+04  0.70408027930E+03  0.16832072379E+04  0.50400001928E-02 0.  1.
</event>
<event>
 5   0  0.2282000E-08  0.3702179E+04  0.7818609E-02  0.8067479E-01
        3   -1    0    0  501    0  0.00000000000E+00  0.00000000000E+00  0.17243219419E+04  0.17243219449E+04  0.10100000352E+00 0.  1.
       -3   -1    0    0    0  501  0.00000000000E+00  0.00000000000E+00 -0.19871768613E+04  0.19871768638E+04  0.10100000352E+00 0. -1.
    10030    2    1    2    0    0  0.00000000000E+00  0.00000000000E+00 -0.26285491934E+03  0.37114988087E+04  0.37021791824E+04 0.  0.
        1    1    3    3  502    0  0.48924090214E+03 -0.68701050271E+03  0.15205047090E+04  0.17387566423E+04  0.50400001928E-02 0.  1.
       -1    1    3    3    0  502 -0.48924090214E+03  0.68701050271E+03 -0.17833596283E+04  0.19727421664E+04  0.50400001928E-02 0. -1.
</event>
<event>
 5   0  0.7254493E-08  0.3704366E+04  0.7818609E-02  0.8066995E-01
        2   -1    0    0  501    0  0.00000000000E+00  0.00000000000E+00  0.21759861616E+04  0.21759861616E+04  0.25500000920E-02 0. -1.
       -2   -1    0    0    0  501  0.00000000000E+00  0.00000000000E+00 -0.15765644118E+04  0.15765644118E+04  0.25500000920E-02 0.  1.
    10030    2    1    2    0    0  0.00000000000E+00  0.00000000000E+00  0.59942174978E+03  0.37525505734E+04  0.37043662578E+04 0.  0.
        3    1    3    3  502    0 -0.23474178668E+03 -0.38381403083E+03 -0.15203693227E+04  0.15855408554E+04  0.10100000352E+00 0.  1.
       -3    1    3    3    0  502  0.23474178668E+03  0.38381403083E+03  0.21197910725E+04  0.21670097180E+04  0.10100000352E+00 0. -1.
</event>
<event>
 5   0  0.2282000E-08  0.3704481E+04  0.7818609E-02  0.8066970E-01
       -1   -1    0    0    0  501  0.00000000000E+00  0.00000000000E+00  0.13934125595E+04  0.13934125595E+04  0.50400001928E-02 0.  1.
        1   -1    0    0  501    0  0.00000000000E+00  0.00000000000E+00 -0.24621526169E+04  0.24621526169E+04  0.50400001928E-02 0. -1.
    10030    2    1    2    0    0  0.00000000000E+00  0.00000000000E+00 -0.10687400574E+04  0.38555651764E+04  0.37044807354E+04 0.  0.
        1    1    3    3  502    0 -0.27893176016E+03  0.22240250931E+03  0.13573189884E+04  0.14034174857E+04  0.50400001928E-02 0.  1.
       -1    1    3    3    0  502  0.27893176016E+03 -0.22240250931E+03 -0.24260590458E+04  0.24521476906E+04  0.50400001928E-02 0. -1.
</event>
<event>
 5   0  0.2282000E-08  0.3710639E+04  0.7818609E-02  0.8065608E-01
       -3   -1    0    0    0  501  0.00000000000E+00  0.00000000000E+00  0.18683384379E+04  0.18683384406E+04  0.10100000352E+00 0. -1.
        3   -1    0    0  501    0  0.00000000000E+00  0.00000000000E+00 -0.18423917473E+04  0.18423917501E+04  0.10100000352E+00 0.  1.
    10030    2    1    2    0    0  0.00000000000E+00  0.00000000000E+00  0.25946690564E+02  0.37107301907E+04  0.37106394755E+04 0.  0.
        1    1    3    3  502    0  0.11353458813E+04  0.14658656580E+04 -0.53653591736E+02  0.18548992171E+04  0.50400001928E-02 0. -1.
       -1    1    3    3    0  502 -0.11353458813E+04 -0.14658656580E+04  0.79600282300E+02  0.18558309736E+04  0.50400001928E-02 0.  1.
</event>
<event>
 5   0  0.7191801E-08  0.3704944E+04  0.7818609E-02  0.8066867E-01
       -2   -1    0    0    0  501  0.00000000000E+00  0.00000000000E+00  0.12454360148E+04  0.12454360148E+04  0.25500000920E-02 0. -1.
        2   -1    0    0  501    0  0.00000000000E+00  0.00000000000E+00 -0.27553827207E+04  0.27553827207E+04  0.25500000920E-02 0.  1.
    10030    2    1    2    0    0  0.00000000000E+00  0.00000000000E+00 -0.15099467058E+04  0.40008187355E+04  0.37049441966E+04 0.  0.
        5    1    3    3  502    0  0.39549337026E+03 -0.12898091433E+04  0.61589872925E+03  0.14830293210E+04  0.46999998093E+01 0. -1.
       -5    1    3    3    0  502 -0.39549337026E+03  0.12898091433E+04 -0.21258454351E+04  0.25177894145E+04  0.46999998093E+01 0.  1.
</event>
<event>
 5   0  0.2282000E-08  0.3698991E+04  0.7818609E-02  0.8068186E-01
        1   -1    0    0  501    0  0.00000000000E+00  0.00000000000E+00  0.12068819010E+04  0.12068819010E+04  0.50400001928E-02 0.  1.
       -1   -1    0    0    0  501  0.00000000000E+00  0.00000000000E+00 -0.28342731565E+04  0.28342731565E+04  0.50400001928E-02 0. -1.
    10030    2    1    2    0    0  0.00000000000E+00  0.00000000000E+00 -0.16273912555E+04  0.40411550575E+04  0.36989906597E+04 0.  0.
        1    1    3    3  502    0 -0.22546956213E+03  0.14275040121E+04  0.44719982527E+03  0.15128092780E+04  0.50400001928E-02 0.  1.
       -1    1    3    3    0  502  0.22546956213E+03 -0.14275040121E+04 -0.20745910808E+04  0.25283457795E+04  0.50400001928E-02 0. -1.
</event>
<event>
 5   0  0.2282000E-08  0.3706783E+04  0.7818609E-02  0.8066460E-01
        1   -1    0    0  501    0  0.00000000000E+00  0.00000000000E+00  0.18469207061E+04  0.18469207061E+04  0.50400001928E-02 0. -1.
       -1   -1    0    0    0  501  0.00000000000E+00  0.00000000000E+00 -0.18598845553E+04  0.18598845553E+04  0.50400001928E-02 0.  1.
    10030    2    1    2    0    0  0.00000000000E+00  0.00000000000E+00 -0.12963849203E+02  0.37068052614E+04  0.37067825920E+04 0.  0.
        5    1    3    3  502    0  0.26047236928E+03  0.14064873102E+04 -0.11850411240E+04  0.18575244182E+04  0.46999998093E+01 0.  1.
       -5    1    3    3    0  502 -0.26047236928E+03 -0.14064873102E+04  0.11720772748E+04  0.18492808432E+04  0.46999998093E+01 0. -1.
</event>
<event>
 5   0  0.2282000E-08  0.3705870E+04  0.7818609E-02  0.8066662E-01
       -1   -1    0    0    0  501  0.00000000000E+00  0.00000000000E+00  0.18174264764E+04  0.18174264764E+04  0.50400001928E-02 0. -1.
        1   -1    0    0  501    0  0.00000000000E+00  0.00000000000E+00 -0.18891374465E+04  0.18891374465E+04  0.50400001928E-02 0.  1.
    10030    2    1    2    0    0  0.00000000000E+00  0.00000000000E+00 -0.71710970118E+02  0.37065639230E+04  0.37058701612E+04 0.  0.
        3    1    3    3  502    0  0.97181438596E+03 -0.80152221853E+03 -0.13949723877E+04  0.18795768248E+04  0.10100000352E+00 0.  1.
       -3    1    3    3    0  502 -0.97181438596E+03  0.80152221853E+03  0.13232614176E+04  0.18269870982E+04  0.10100000352E+00 0. -1.
</event>
<event>
 5   0  0.7203049E-08  0.3700843E+04  0.7818609E-02  0.8067775E-01
        2   -1    0    0  501    0  0.00000000000E+00  0.00000000000E+00  0.11877604337E+04  0.11877604337E+04  0.25500000920E-02 0. -1.
       -2   -1    0    0    0  501  0.00000000000E+00  0.00000000000E+00 -0.28827859005E+04  0.28827859005E+04  0.25500000920E-02 0.  1.
    10030    2    1    2    0    0  0.00000000000E+00  0.00000000000E+00 -0.16950254668E+04  0.40705463341E+04  0.37008426237E+04 0.  0.
        4    1    3    3  502    0  0.15025433957E+04  0.56670989447E+03 -0.18587368371E+04  0.24563592984E+04  0.12699999809E+01 0.  1.
       -4    1    3    3    0  502 -0.15025433957E+04 -0.56670989447E+03  0.16371137031E+03  0.16141870357E+04  0.12699999809E+01 0. -1.
</event>
<event>
 5   0  0.2282000E-08  0.3693348E+04  0.7818609E-02  0.8069438E-01
        1   -1    0    0  501    0  0.00000000000E+00  0.00000000000E+00  0.14616502323E+04  0.14616502323E+04  0.50400001928E-02 0. -1.
       -1   -1    0    0    0  501  0.00000000000E+00  0.00000000000E+00 -0.23331194246E+04  0.23331194246E+04  0.50400001928E-02 0.  1.
    10030    2    1    2    0    0  0.00000000000E+00  0.00000000000E+00 -0.87146919228E+03  0.37947696570E+04  0.36933478304E+04 0.  0.
        2    1    3    3  502    0  0.10125927506E+04  0.15233348155E+04 -0.17517350551E+03  0.18375469506E+04  0.25500000920E-02 0. -1.
       -2    1    3    3    0  502 -0.10125927506E+04 -0.15233348155E+04 -0.69629568677E+03  0.19572227063E+04  0.25500000920E-02 0.  1.
</event>
<event>
 5   0  0.7362817E-08  0.3687318E+04  0.7818609E-02  0.8070778E-01
       -2   -1    0    0    0  501  0.00000000000E+00  0.00000000000E+00  0.22249377526E+04  0.22249377526E+04  0.25500000920E-02 0.  1.
        2   -1    0    0  501    0  0.00000000000E+00  0.00000000000E+00 -0.15277183721E+04  0.15277183721E+04  0.25500000920E-02 0. -1.
    10030    2    1    2    0    0  0.00000000000E+00  0.00000000000E+00  0.69721938057E+03  0.37526561247E+04  0.36873178770E+04 0.  0.
        1    1    3    3  502    0 -0.94516658025E+03  0.14575147782E+04 -0.27990049857E+03  0.17595549102E+04  0.50400001928E-02 0. -1.
       -1    1    3    3    0  502  0.94516658025E+03 -0.14575147782E+04  0.97711987914E+03  0.19931012145E+04  0.50400001928E-02 0.  1.
</event>
<event>
 5   0  0.7203049E-08  0.3698134E+04  0.7818609E-02  0.8068376E-01
        2   -1    0    0  501    0  0.00000000000E+00  0.00000000000E+00  0.25178388786E+04  0.25178388786E+04  0.25500000920E-02 0. -1.
       -2   -1    0    0    0  501  0.00000000000E+00  0.00000000000E+00 -0.13579296260E+04  0.13579296260E+04  0.25500000920E-02 0.  1.
    10030    2    1    2    0    0  0.00000000000E+00  0.00000000000E+00  0.11599092526E+04  0.38757685046E+04  0.36981335870E+04 0.  0.
        4    1    3    3  502    0  0.14935916284E+04  0.83235224736E+03 -0.15771530213E+03  0.17171202479E+04  0.12699999809E+01 0.  1.
       -4    1    3    3    0  502 -0.14935916284E+04 -0.83235224736E+03  0.13176245547E+04  0.21586482567E+04  0.12699999809E+01 0. -1.
</event>
<event>
 5   0  0.7203049E-08  0.3696580E+04  0.7818609E-02  0.8068720E-01
        2   -1    0    0  501    0  0.00000000000E+00  0.00000000000E+00  0.16464318946E+04  0.16464318946E+04  0.25500000920E-02 0.  1.
       -2   -1    0    0    0  501  0.00000000000E+00  0.00000000000E+00 -0.20748969621E+04  0.20748969621E+04  0.25500000920E-02 0. -1.
    10030    2    1    2    0    0  0.00000000000E+00  0.00000000000E+00 -0.42846506747E+03  0.37213288567E+04  0.36965803313E+04 0.  0.
        4    1    3    3  502    0 -0.42129426499E+03 -0.69201926270E+03 -0.18866178508E+04  0.20532189473E+04  0.12699999809E+01 0. -1.
       -4    1    3    3    0  502  0.42129426499E+03  0.69201926270E+03  0.14581527833E+04  0.16681099095E+04  0.12699999809E+01 0.  1.
</event>
<event>
 5   0  0.7309833E-08  0.3705740E+04  0.7818609E-02  0.8066691E-01
       -2   -1    0    0    0  501  0.00000000000E+00  0.00000000000E+00  0.20223302739E+04  0.20223302739E+04  0.25500000920E-02 0.  1.
        2   -1    0    0  501    0  0.00000000000E+00  0.00000000000E+00 -0.16976092638E+04  0.16976092638E+04  0.25500000920E-02 0. -1.
    10030    2    1    2    0    0  0.00000000000E+00  0.00000000000E+00  0.32472101008E+03  0.37199395376E+04  0.37057396602E+04 0.  0.
        2    1    3    3  502    0 -0.72408371243E+03 -0.35918749850E+03  0.18360266184E+04  0.20060674528E+04  0.25500000920E-02 0.  1.
       -2    1    3    3    0  502  0.72408371243E+03  0.35918749850E+03 -0.15113056083E+04  0.17138720849E+04  0.25500000920E-02 0. -1.
</event>
<event>
 5   0  0.7254493E-08  0.3700068E+04  0.7818609E-02  0.8067947E-01
       -2   -1    0    0    0  501  0.00000000000E+00  0.00000000000E+00  0.13995289311E+04  0.13995289311E+04  0.25500000920E-02 0.  1.
        2   -1    0    0  501    0  0.00000000000E+00  0.00000000000E+00 -0.24455551654E+04  0.24455551654E+04  0.25500000920E-02 0. -1.
    10030    2    1    2    0    0  0.00000000000E+00  0.00000000000E+00 -0.10460262343E+04  0.38450840965E+04  0.37000676786E+04 0.  0.
        3    1    3    3  502    0 -0.12330319550E+04  0.13447040170E+04 -0.20435430590E+03  0.18358533132E+04  0.10100000352E+00 0.  1.
       -3    1    3    3    0  502  0.12330319550E+04 -0.13447040170E+04 -0.84167192839E+03  0.20092307833E+04  0.10100000352E+00 0. -1.
</event>
<event>
 5   0  0.2282000E-08  0.3700080E+04  0.7818609E-02  0.8067944E-01
        1   -1    0    0  501    0  0.00000000000E+00  0.00000000000E+00  0.20017766194E+04  0.20017766194E+04  0.50400001928E-02 0. -1.
       -1   -1    0    0    0  501  0.00000000000E+00  0.00000000000E+00 -0.17098049329E+04  0.17098049329E+04  0.50400001928E-02 0.  1.
    10030    2    1    2    0    0  0.00000000000E+00  0.00000000000E+00  0.29197168652E+03  0.37115815523E+04  0.37000797496E+04 0.  0.
        3    1    3    3  502    0  0.46506316528E+03 -0.71072717275E+03 -0.15026652637E+04  0.17260995819E+04  0.10100000352E+00 0.  1.
       -3    1    3    3    0  502 -0.46506316528E+03  0.71072717275E+03  0.17946369502E+04  0.19854819704E+04  0.10100000352E+00 0. -1.
</event>
<event>
 5   0  0.2282000E-08  0.3715092E+04  0.7818609E-02  0.8064625E-01
       -1   -1    0    0    0  501  0.00000000000E+00  0.00000000000E+00  0.11012339838E+04  0.11012339838E+04  0.50400001928E-02 0. -1.
        1   -1    0    0  501    0  0.00000000000E+00  0.00000000000E+00 -0.31332830277E+04  0.31332830277E+04  0.50400001928E-02 0.  1.
    10030    2    1    2    0    0  0.00000000000E+00  0.00000000000E+00 -0.20320490439E+04  0.42345170115E+04  0.37150923278E+04 0.  0.
        4    1    3    3  502    0 -0.14663524783E+04  0.92135111088E+03 -0.25022619731E+03  0.17497691913E+04  0.12699999809E+01 0. -1.
       -4    1    3    3    0  502  0.14663524783E+04 -0.92135111088E+03 -0.17818228466E+04  0.24847478201E+04  0.12699999809E+01 0.  1.
</event>
<event>
 5   0  0.7254493E-08  0.3711381E+04  0.7818609E-02  0.8065444E-01
        2   -1    0    0  501    0  0.00000000000E+00  0.00000000000E+00  0.17225817203E+04  0.17225817204E+04  0.25500000920E-02 0.  1.
       -2   -1    0    0    0  501  0.00000000000E+00  0.00000000000E+00 -0.19990845638E+04  0.19990845638E+04  0.25500000920E-02 0. -1.
    10030    2    1    2    0    0  0.00000000000E+00  0.00000000000E+00 -0.27650284343E+03  0.37216662841E+04  0.37113806202E+04 0.  0.
        3    1    3    3  502    0 -0.10223315263E+03 -0.39308002507E+03 -0.19539663847E+04  0.19957324887E+04  0.10100000352E+00 0. -1.
       -3    1    3    3    0  502  0.10223315263E+03  0.39308002507E+03  0.16774635413E+04  0.17259337954E+04  0.10100000352E+00 0.  1.
</event>
<event>
 5   0  0.7309833E-08  0.3701437E+04  0.7818609E-02  0.8067643E-01
        2   -1    0    0  501    0  0.00000000000E+00  0.00000000000E+00  0.15873497061E+04  0.15873497061E+04  0.25500000920E-02 0. -1.
       -2   -1    0    0    0  501  0.00000000000E+00  0.00000000000E+00 -0.21577848796E+04  0.21577848796E+04  0.25500000920E-02 0.  1.
    10030    2    1    2    0    0  0.00000000000E+00  0.00000000000E+00 -0.57043517359E+03  0.37451345857E+04  0.37014371233E+04 0.  0.
        2    1    3    3  502    0 -0.39777819934E+03 -0.17680661381E+04 -0.66498020554E+03  0.19304103290E+04  0.25500000920E-02 0. -1.
       -2    1    3    3    0  502  0.39777819934E+03  0.17680661381E+04  0.94545031943E+02  0.18147242567E+04  0.25500000920E-02 0.  1.
</event>
<event>
 5   0  0.2282000E-08  0.3701005E+04  0.7818609E-02  0.8067739E-01
        1   -1    0    0  501    0  0.00000000000E+00  0.00000000000E+00  0.24251619535E+04  0.24251619535E+04  0.50400001928E-02 0. -1.
       -1   -1    0    0    0  501  0.00000000000E+00  0.00000000000E+00 -0.14120130357E+04  0.14120130357E+04  0.50400001928E-02 0.  1.
    10030    2    1    2    0    0  0.00000000000E+00  0.00000000000E+00  0.10131489178E+04  0.38371749892E+04  0.37010054267E+04 0.  0.
        1    1    3    3  502    0  0.87215412014E+03  0.15787983335E+04  0.93543993045E+03  0.20318230363E+04  0.50400001928E-02 0. -1.
       -1    1    3    3    0  502 -0.87215412014E+03 -0.15787983335E+04  0.77708987310E+02  0.18053519529E+04  0.50400001928E-02 0.  1.
</event>
<event>
 5   0  0.7362817E-08  0.3700535E+04  0.7818609E-02  0.8067843E-01
       -2   -1    0    0    0  501  0.00000000000E+00  0.00000000000E+00  0.18503588330E+04  0.18503588330E+04  0.25500000920E-02 0.  1.
        2   -1    0    0  501    0  0.00000000000E+00  0.00000000000E+00 -0.18501761971E+04  0.18501761971E+04  0.25500000920E-02 0. -1.
    10030    2    1    2    0    0  0.00000000000E+00  0.00000000000E+00  0.18263587376E+00  0.37005350301E+04  0.37005350256E+04 0.  0.
        1    1    3    3  502    0 -0.84428237772E+02 -0.11964860481E+04  0.14089145443E+04  0.18503370460E+04  0.50400001928E-02 0.  1.
       -1    1    3    3    0  502  0.84428237772E+02  0.11964860481E+04 -0.14087319084E+04  0.18501979841E+04  0.50400001928E-02 0. -1.
</event>
<event>
 5   0  0.2282000E-08  0.3703788E+04  0.7818609E-02  0.8067123E-01
        1   -1    0    0  501    0  0.00000000000E+00  0.00000000000E+00  0.23116460186E+04  0.23116460186E+04  0.50400001928E-02 0. -1.
       -1   -1    0    0    0  501  0.00000000000E+00  0.00000000000E+00 -0.14835797000E+04  0.14835797000E+04  0.50400001928E-02 0.  1.
    10030    2    1    2    0    0  0.00000000000E+00  0.00000000000E+00  0.82806631857E+03  0.37952257186E+04  0.37037878486E+04 0.  0.
        2    1    3    3  502    0 -0.11256950606E+04 -0.51324625823E+03 -0.99799239640E+03  0.15895282050E+04  0.25500000920E-02 0.  1.
       -2    1    3    3    0  502  0.11256950606E+04  0.51324625823E+03  0.18260587150E+04  0.22056975136E+04  0.25500000920E-02 0. -1.
</event>
<event>
 5   0  0.7191801E-08  0.3660504E+04  0.7818609E-02  0.8076771E-01
        2   -1    0    0  501    0  0.00000000000E+00  0.00000000000E+00  0.20747937684E+04  0.20747937684E+04  0.25500000920E-02 0.  1.
       -2   -1    0    0    0  501  0.00000000000E+00  0.00000000000E+00 -0.16145328103E+04  0.16145328103E+04  0.25500000920E-02 0. -1.
    10030    2    1    2    0    0  0.00000000000E+00  0.00000000000E+00  0.46026095810E+03  0.36893265787E+04  0.36605041258E+04 0.  0.
        5    1    3    3  502    0  0.16912247591E+04  0.51824756798E+03  0.70391569156E+03  0.19037702378E+04  0.46999998093E+01 0.  1.
       -5    1    3    3    0  502 -0.16912247591E+04 -0.51824756798E+03 -0.24365473346E+03  0.17855563409E+04  0.46999998093E+01 0. -1.
</event>
<event>
 5   0  0.2282000E-08  0.3695385E+04  0.7818609E-02  0.8068985E-01
        1   -1    0    0  501    0  0.00000000000E+00  0.00000000000E+00  0.24761087974E+04  0.24761087974E+04  0.50400001928E-02 0. -1.
       -1   -1    0    0    0  501  0.00000000000E+00  0.00000000000E+00 -0.13787628749E+04  0.13787628749E+04  0.50400001928E-02 0.  1.
    10030    2    1    2    0    0  0.00000000000E+00  0.00000000000E+00  0.10973459224E+04  0.38548716723E+04  0.36953846263E+04 0.  0.
        2    1    3    3  502    0  0.17586101572E+04  0.46033486571E+03  0.89362419781E+03  0.20256312795E+04  0.25500000920E-02 0.  1.
       -2    1    3    3    0  502 -0.17586101572E+04 -0.46033486571E+03  0.20372172461E+03  0.18292403928E+04  0.25500000920E-02 0. -1.
</event>
<event>
 5   0  0.2282000E-08  0.3700939E+04  0.7818609E-02  0.8067754E-01
       -1   -1    0    0    0  501  0.00000000000E+00  0.00000000000E+00  0.24157510756E+04  0.24157510756E+04  0.50400001928E-02 0. -1.
        1   -1    0    0  501    0  0.00000000000E+00  0.00000000000E+00 -0.14174631537E+04  0.14174631537E+04  0.50400001928E-02 0.  1.
    10030    2    1    2    0    0  0.00000000000E+00  0.00000000000E+00  0.99828792190E+03  0.38332142294E+04  0.37009394150E+04 0.  0.
        3    1    3    3  502    0 -0.10175324907E+04 -0.13952010522E+04  0.11879543036E+04  0.20959947002E+04  0.10100000352E+00 0.  1.
       -3    1    3    3    0  502  0.10175324907E+04  0.13952010522E+04 -0.18966638168E+03  0.17372195291E+04  0.10100000352E+00 0. -1.
</event>
<event>
 5   0  0.2282000E-08  0.3702025E+04  0.7818609E-02  0.8067513E-01
        1   -1    0    0  501    0  0.00000000000E+00  0.00000000000E+00  0.16291901191E+04  0.16291901191E+04  0.50400001928E-02 0. -1.
       -1   -1    0    0    0  501  0.00000000000E+00  0.00000000000E+00 -0.21030374063E+04  0.21030374063E+04  0.50400001928E-02 0.  1.
    10030    2    1    2    0    0  0.00000000000E+00  0.00000000000E+00 -0.47384728712E+03  0.37322275254E+04  0.37020252633E+04 0.  0.
        5    1    3    3  502    0 -0.17151589395E+04  0.66939541417E+03 -0.44671094737E+02  0.18417051895E+04  0.46999998093E+01 0.  1.
       -5    1    3    3    0  502  0.17151589395E+04 -0.66939541417E+03 -0.42917619239E+03  0.18905223359E+04  0.46999998093E+01 0. -1.
</event>
<event>
 5   0  0.7362817E-08  0.3701935E+04  0.7818609E-02  0.8067533E-01
       -2   -1    0    0    0  501  0.00000000000E+00  0.00000000000E+00  0.21563961010E+04  0.21563961010E+04  0.25500000920E-02 0.  1.
        2   -1    0    0  501    0  0.00000000000E+00  0.00000000000E+00 -0.15887989841E+04  0.15887989841E+04  0.25500000920E-02 0. -1.
    10030    2    1    2    0    0  0.00000000000E+00  0.00000000000E+00  0.56759711689E+03  0.37451950852E+04  0.37019345941E+04 0.  0.
        1    1    3    3  502    0 -0.11562682396E+04  0.72090579154E+03  0.15512026119E+04  0.20646769591E+04  0.50400001928E-02 0.  1.
       -1    1    3    3    0  502  0.11562682396E+04 -0.72090579154E+03 -0.98360549505E+03  0.16805181261E+04  0.50400001928E-02 0. -1.
</event>
<event>
 5   0  0.2282000E-08  0.3700332E+04  0.7818609E-02  0.8067888E-01
       -1   -1    0    0    0  501  0.00000000000E+00  0.00000000000E+00  0.13638046832E+04  0.13638046832E+04  0.50400001928E-02 0. -1.
        1   -1    0    0  501    0  0.00000000000E+00  0.00000000000E+00 -0.25099736877E+04  0.25099736877E+04  0.50400001928E-02 0.  1.
    10030    2    1    2    0    0  0.00000000000E+00  0.00000000000E+00 -0.11461690045E+04  0.38737783709E+04  0.37003318067E+04 0.  0.
        3    1    3    3  502    0 -0.13108924283E+04  0.91826517292E+03  0.39857177588E+03  0.16493966646E+04  0.10100000352E+00 0. -1.
       -3    1    3    3    0  502  0.13108924283E+04 -0.91826517292E+03 -0.15447407804E+04  0.22243817063E+04  0.10100000352E+00 0.  1.
</event>
<event>
 5   0  0.7309833E-08  0.3706141E+04  0.7818609E-02  0.8066602E-01
        2   -1    0    0  501    0  0.00000000000E+00  0.00000000000E+00  0.19283180163E+04  0.19283180163E+04  0.25500000920E-02 0.  1.
       -2   -1    0    0    0  501  0.00000000000E+00  0.00000000000E+00 -0.17807591326E+04  0.17807591326E+04  0.25500000920E-02 0. -1.
    10030    2    1    2    0    0  0.00000000000E+00  0.00000000000E+00  0.14755888376E+03  0.37090771489E+04  0.37061408058E+04 0.  0.
        2    1    3    3  502    0  0.89330057771E+03 -0.11254439082E+04  0.12448603830E+04  0.19011278983E+04  0.25500000920E-02 0.  1.
       -2    1    3    3    0  502 -0.89330057771E+03  0.11254439082E+04 -0.10973014992E+04  0.18079492506E+04  0.25500000920E-02 0. -1.
</event>
<event>
 5   0  0.2282000E-08  0.3696815E+04  0.7818609E-02  0.8068668E-01
        1   -1    0    0  501    0  0.00000000000E+00  0.00000000000E+00  0.21624228098E+04  0.21624228098E+04  0.50400001928E-02 0.  1.
       -1   -1    0    0    0  501  0.00000000000E+00  0.00000000000E+00 -0.15799919472E+04  0.15799919472E+04  0.50400001928E-02 0. -1.
    10030    2    1    2    0    0  0.00000000000E+00  0.00000000000E+00  0.58243086263E+03  0.37424147570E+04  0.36968151839E+04 0.  0.
        4    1    3    3  502    0 -0.51414268283E+03  0.11053609959E+04  0.16977574549E+04  0.20901070829E+04  0.12699999809E+01 0.  1.
       -4    1    3    3    0  502  0.51414268283E+03 -0.11053609959E+04 -0.11153265923E+04  0.16523076741E+04  0.12699999809E+01 0. -1.
</event>
<event>
 5   0  0.2282000E-08  0.3706203E+04  0.7818609E-02  0.8066589E-01
        1   -1    0    0  501    0  0.00000000000E+00  0.00000000000E+00  0.29141237594E+04  0.29141237594E+04  0.50400001928E-02 0. -1.
       -1   -1    0    0    0  501  0.00000000000E+00  0.00000000000E+00 -0.11783938042E+04  0.11783938042E+04  0.50400001928E-02 0.  1.
    10030    2    1    2    0    0  0.00000000000E+00  0.00000000000E+00  0.17357299551E+04  0.40925175636E+04  0.37062031152E+04 0.  0.
        5    1    3    3  502    0  0.16327096815E+04 -0.87513848399E+03  0.81427804791E+03  0.20235313438E+04  0.46999998093E+01 0. -1.
       -5    1    3    3    0  502 -0.16327096815E+04  0.87513848399E+03  0.92145190723E+03  0.20689862197E+04  0.46999998093E+01 0.  1.
</event>
<event>
 5   0  0.7191801E-08  0.3714278E+04  0.7818609E-02  0.8064805E-01
        2   -1    0    0  501    0  0.00000000000E+00  0.00000000000E+00  0.14749029384E+04  0.14749029384E+04  0.25500000920E-02 0.  1.
       -2   -1    0    0    0  501  0.00000000000E+00  0.00000000000E+00 -0.23384351694E+04  0.23384351694E+04  0.25500000920E-02 0. -1.
    10030    2    1    2    0    0  0.00000000000E+00  0.00000000000E+00 -0.86353223100E+03  0.38133381077E+04  0.37142778046E+04 0.  0.
        5    1    3    3  502    0  0.11472693807E+03 -0.10966985165E+04  0.11024215677E+04  0.15592515222E+04  0.46999998093E+01 0.  1.
       -5    1    3    3    0  502 -0.11472693807E+03  0.10966985165E+04 -0.19659537987E+04  0.22540865856E+04  0.46999998093E+01 0. -1.
</event>
<event>
 5   0  0.2282000E-08  0.3764478E+04  0.7818609E-02  0.8053821E-01
       -1   -1    0    0    0  501  0.00000000000E+00  0.00000000000E+00  0.19915742473E+04  0.19915742473E+04  0.50400001928E-02 0. -1.
        1   -1    0    0  501    0  0.00000000000E+00  0.00000000000E+00 -0.17789058918E+04  0.17789058918E+04  0.50400001928E-02 0.  1.
    10030    2    1    2    0    0  0.00000000000E+00  0.00000000000E+00  0.21266835546E+03  0.37704801391E+04  0.37644777394E+04 0.  0.
        5    1    3    3  502    0  0.10643908711E+04  0.57717473023E+03  0.15497226986E+04  0.19666522642E+04  0.46999998093E+01 0. -1.
       -5    1    3    3    0  502 -0.10643908711E+04 -0.57717473023E+03 -0.13370543432E+04  0.18038278749E+04  0.46999998093E+01 0.  1.
</event>
<event>
 5   0  0.2282000E-08  0.3697561E+04  0.7818609E-02  0.8068503E-01
       -1   -1    0    0    0  501  0.00000000000E+00  0.00000000000E+00  0.18231143416E+04  0.18231143416E+04  0.50400001928E-02 0.  1.
        1   -1    0    0  501    0  0.00000000000E+00  0.00000000000E+00 -0.18748075388E+04  0.18748075388E+04  0.50400001928E-02 0. -1.
    10030    2    1    2    0    0  0.00000000000E+00  0.00000000000E+00 -0.51693197179E+02  0.36979218803E+04  0.36975605535E+04 0.  0.
        2    1    3    3  502    0  0.14793918661E+03  0.69208135369E+01  0.18171722214E+04  0.18231974064E+04  0.25500000920E-02 0.  1.
       -2    1    3    3    0  502 -0.14793918661E+03 -0.69208135369E+01 -0.18688654185E+04  0.18747244739E+04  0.25500000920E-02 0. -1.
</event>
<event>
 5   0  0.7362817E-08  0.3700075E+04  0.7818609E-02  0.8067945E-01
        2   -1    0    0  501    0  0.00000000000E+00  0.00000000000E+00  0.27751412121E+04  0.27751412121E+04  0.25500000920E-02 0. -1.
       -2   -1    0    0    0  501  0.00000000000E+00  0.00000000000E+00 -0.12333208912E+04  0.12333208912E+04  0.25500000920E-02 0.  1.
    10030    2    1    2    0    0  0.00000000000E+00  0.00000000000E+00  0.15418203209E+04  0.40084621033E+04  0.37000754764E+04 0.  0.
        1    1    3    3  502    0  0.72852175810E+03  0.10797776123E+04  0.21941712413E+04  0.25516761315E+04  0.50400001928E-02 0. -1.
       -1    1    3    3    0  502 -0.72852175810E+03 -0.10797776123E+04 -0.65235092038E+03  0.14567859717E+04  0.50400001928E-02 0.  1.
</event>
<event>
 5   0  0.2282000E-08  0.3697246E+04  0.7818609E-02  0.8068572E-01
       -1   -1    0    0    0  501  0.00000000000E+00  0.00000000000E+00  0.14952260138E+04  0.14952260138E+04  0.50400001928E-02 0. -1.
        1   -1    0    0  501    0  0.00000000000E+00  0.00000000000E+00 -0.22855453554E+04  0.22855453554E+04  0.50400001928E-02 0.  1.
    10030    2    1    2    0    0  0.00000000000E+00  0.00000000000E+00 -0.79031934160E+03  0.37807713692E+04  0.36972459323E+04 0.  0.
        4    1    3    3  502    0 -0.15782051738E+04  0.53320311959E+03  0.42442545039E+03  0.17190624518E+04  0.12699999809E+01 0. -1.
       -4    1    3    3    0  502  0.15782051738E+04 -0.53320311959E+03 -0.12147447920E+04  0.20617089174E+04  0.12699999809E+01 0.  1.
</event>
<event>
 5   0  0.7362817E-08  0.3699893E+04  0.7818609E-02  0.8067986E-01
       -2   -1    0    0    0  501  0.00000000000E+00  0.00000000000E+00  0.13923600105E+04  0.13923600105E+04  0.25500000920E-02 0. -1.
        2   -1    0    0  501    0  0.00000000000E+00  0.00000000000E+00 -0.24579148521E+04  0.24579148521E+04  0.25500000920E-02 0.  1.
    10030    2    1    2    0    0  0.00000000000E+00  0.00000000000E+00 -0.10655548416E+04  0.38502748626E+04  0.36998931602E+04 0.  0.
        1    1    3    3  502    0  0.30737374085E+03 -0.14948038508E+04  0.55537352072E+03  0.16239941245E+04  0.50400001928E-02 0. -1.
       -1    1    3    3    0  502 -0.30737374085E+03  0.14948038508E+04 -0.16209283623E+04  0.22262807381E+04  0.50400001928E-02 0.  1.
</event>
<event>
 5   0  0.7362817E-08  0.3699941E+04  0.7818609E-02  0.8067975E-01
        2   -1    0    0  501    0  0.00000000000E+00  0.00000000000E+00  0.23065669605E+04  0.23065669605E+04  0.25500000920E-02 0. -1.
       -2   -1    0    0    0  501  0.00000000000E+00  0.00000000000E+00 -0.14837597281E+04  0.14837597281E+04  0.25500000920E-02 0.  1.
    10030    2    1    2    0    0  0.00000000000E+00  0.00000000000E+00  0.82280723241E+03  0.37903266886E+04  0.36999411704E+04 0.  0.
        1    1    3    3  502    0  0.10878829285E+04 -0.10497380489E+04 -0.68092390547E+03  0.16580399882E+04  0.50400001928E-02 0.  1.
       -1    1    3    3    0  502 -0.10878829285E+04  0.10497380489E+04  0.15037311379E+04  0.21322867004E+04  0.50400001928E-02 0. -1.
</event>
<event>
 5   0  0.2282000E-08  0.3700604E+04  0.7818609E-02  0.8067828E-01
       -1   -1    0    0    0  501  0.00000000000E+00  0.00000000000E+00  0.22102141164E+04  0.22102141164E+04  0.50400001928E-02 0. -1.
        1   -1    0    0  501    0  0.00000000000E+00  0.00000000000E+00 -0.15489982334E+04  0.15489982334E+04  0.50400001928E-02 0.  1.
    10030    2    1    2    0    0  0.00000000000E+00  0.00000000000E+00  0.66121588307E+03  0.37592123498E+04  0.37006041462E+04 0.  0.
        4    1    3    3  502    0  0.76844983439E+03 -0.16513297532E+04 -0.45385892762E+00  0.18213750083E+04  0.12699999809E+01 0. -1.
       -4    1    3    3    0  502 -0.76844983439E+03  0.16513297532E+04  0.66166974200E+03  0.19378373415E+04  0.12699999809E+01 0.  1.
</event>
<event>
 5   0  0.2282000E-08  0.3691549E+04  0.7818609E-02  0.8069837E-01
        1   -1    0    0  501    0  0.00000000000E+00  0.00000000000E+00  0.15881301382E+04  0.15881301382E+04  0.50400001928E-02 0.  1.
       -1   -1    0    0    0  501  0.00000000000E+00  0.00000000000E+00 -0.21452165656E+04  0.21452165656E+04  0.50400001928E-02 0. -1.
    10030    2    1    2    0    0  0.00000000000E+00  0.00000000000E+00 -0.55708642745E+03  0.37333467038E+04  0.36915487703E+04 0.  0.
        5    1    3    3  502    0  0.17943145028E+04 -0.42184691651E+03 -0.37628970133E+03  0.18812589894E+04  0.46999998093E+01 0.  1.
       -5    1    3    3    0  502 -0.17943145028E+04  0.42184691651E+03 -0.18079672612E+03  0.18520877144E+04  0.46999998093E+01 0. -1.
</event>
<event>
 5   0  0.7203049E-08  0.3702171E+04  0.7818609E-02  0.8067481E-01
       -2   -1    0    0    0  501  0.00000000000E+00  0.00000000000E+00  0.13865710114E+04  0.13865710114E+04  0.25500000920E-02 0.  1.
        2   -1    0    0  501    0  0.00000000000E+00  0.00000000000E+00 -0.24712168159E+04  0.24712168159E+04  0.25500000920E-02 0. -1.
    10030    2    1    2    0    0  0.00000000000E+00  0.00000000000E+00 -0.10846458045E+04  0.38577878273E+04  0.37021710387E+04 0.  0.
        4    1    3    3  502    0 -0.14454224323E+04 -0.10640702734E+04 -0.70493860747E+02  0.17962356615E+04  0.12699999809E+01 0.  1.
       -4    1    3    3    0  502  0.14454224323E+04  0.10640702734E+04 -0.10141519437E+04  0.20615521658E+04  0.12699999809E+01 0. -1.
</event>
<event>
 5   0  0.2282000E-08  0.3709927E+04  0.7818609E-02  0.8065765E-01
       -1   -1    0    0    0  501  0.00000000000E+00  0.00000000000E+00  0.24369110610E+04  0.24369110610E+04  0.50400001928E-02 0.  1.
        1   -1    0    0  501    0  0.00000000000E+00  0.00000000000E+00 -0.14119883715E+04  0.14119883715E+04  0.50400001928E-02 0. -1.
    10030    2    1    2    0    0  0.00000000000E+00  0.00000000000E+00  0.10249226895E+04  0.38488994325E+04  0.37099272664E+04 0.  0.
        4    1    3    3  502    0 -0.62913622599E+03 -0.36779827499E+03  0.22821740785E+04  0.23957061797E+04  0.12699999809E+01 0.  1.
       -4    1    3    3    0  502  0.62913622599E+03  0.36779827499E+03 -0.12572513890E+04  0.14531932528E+04  0.12699999809E+01 0. -1.
</event>
<event>
 5   0  0.2282000E-08  0.3698298E+04  0.7818609E-02  0.8068339E-01
        1   -1    0    0  501    0  0.00000000000E+00  0.00000000000E+00  0.13421386370E+04  0.13421386370E+04  0.50400001928E-02 0. -1.
       -1   -1    0    0    0  501  0.00000000000E+00  0.00000000000E+00 -0.25476890470E+04  0.25476890470E+04  0.50400001928E-02 0.  1.
    10030    2    1    2    0    0  0.00000000000E+00  0.00000000000E+00 -0.12055504100E+04  0.38898276841E+04  0.36982979356E+04 0.  0.
        1    1    3    3  502    0  0.54923555986E+03 -0.90684186342E+03 -0.21962714266E+04  0.24387763417E+04  0.50400001928E-02 0.  1.
       -1    1    3    3    0  502 -0.54923555986E+03  0.90684186342E+03  0.99072101660E+03  0.14510513424E+04  0.50400001928E-02 0. -1.
</event>
<event>
 5   0  0.2282000E-08  0.3700009E+04  0.7818609E-02  0.8067960E-01
        1   -1    0    0  501    0  0.00000000000E+00  0.00000000000E+00  0.25194357869E+04  0.25194357869E+04  0.50400001928E-02 0. -1.
       -1   -1    0    0    0  501  0.00000000000E+00  0.00000000000E+00 -0.13584453817E+04  0.13584453817E+04  0.50400001928E-02 0.  1.
    10030    2    1    2    0    0  0.00000000000E+00  0.00000000000E+00  0.11609904052E+04  0.38778811686E+04  0.37000085996E+04 0.  0.
        5    1    3    3  502    0 -0.63630680432E+03 -0.17360310888E+04  0.64513278728E+03  0.19582922901E+04  0.46999998093E+01 0. -1.
       -5    1    3    3    0  502  0.63630680432E+03  0.17360310888E+04  0.51585761797E+03  0.19195888785E+04  0.46999998093E+01 0.  1.
</event>
<event>
 5   0  0.7203049E-08  0.3664517E+04  0.7818609E-02  0.8075871E-01
        2   -1    0    0  501    0  0.00000000000E+00  0.00000000000E+00  0.97113210395E+03  0.97113210395E+03  0.25500000920E-02 0.  1.
       -2   -1    0    0    0  501  0.00000000000E+00  0.00000000000E+00 -0.34569659224E+04  0.34569659224E+04  0.25500000920E-02 0. -1.
    10030    2    1    2    0    0  0.00000000000E+00  0.00000000000E+00 -0.24858338185E+04  0.44280980264E+04  0.36645166609E+04 0.  0.
        4    1    3    3  502    0  0.84339824610E+03  0.79952017460E+03  0.46880278202E+03  0.12531283942E+04  0.12699999809E+01 0.  1.
       -4    1    3    3    0  502 -0.84339824610E+03 -0.79952017460E+03 -0.29546366005E+04  0.31749696321E+04  0.12699999809E+01 0. -1.
</event>
<event>
 5   0  0.7309833E-08  0.3676885E+04  0.7818609E-02  0.8073104E-01
       -2   -1    0    0    0  501  0.00000000000E+00  0.00000000000E+00  0.12045898442E+04  0.12045898442E+04  0.25500000920E-02 0. -1.
        2   -1    0    0  501    0  0.00000000000E+00  0.00000000000E+00 -0.28058274965E+04  0.28058274965E+04  0.25500000920E-02 0.  1.
    10030    2    1    2    0    0  0.00000000000E+00  0.00000000000E+00 -0.16012376523E+04  0.40104173407E+04  0.36768852616E+04 0.  0.
        2    1    3    3  502    0  0.55199950825E+03  0.17476334669E+04 -0.95847110934E+03  0.20682342853E+04  0.25500000920E-02 0.  1.
       -2    1    3    3    0  502 -0.55199950825E+03 -0.17476334669E+04 -0.64276654300E+03  0.19421830553E+04  0.25500000920E-02 0. -1.
</event>
<event>
 5   0  0.2282000E-08  0.3698775E+04  0.7818609E-02  0.8068233E-01
       -1   -1    0    0    0  501  0.00000000000E+00  0.00000000000E+00  0.17972068052E+04  0.17972068052E+04  0.50400001928E-02 0.  1.
        1   -1    0    0  501    0  0.00000000000E+00  0.00000000000E+00 -0.19030836700E+04  0.19030836700E+04  0.50400001928E-02 0. -1.
    10030    2    1    2    0    0  0.00000000000E+00  0.00000000000E+00 -0.10587686477E+03  0.37002904752E+04  0.36987754311E+04 0.  0.
        5    1    3    3  502    0 -0.63737926038E+03  0.22524621161E+03 -0.17750454752E+04  0.18994200974E+04  0.46999998093E+01 0. -1.
       -5    1    3    3    0  502  0.63737926038E+03 -0.22524621161E+03  0.16691686104E+04  0.18008703777E+04  0.46999998093E+01 0.  1.
</event>
<event>
 5   0  0.2282000E-08  0.3677925E+04  0.7818609E-02  0.8072872E-01
        1   -1    0    0  501    0  0.00000000000E+00  0.00000000000E+00  0.23978566297E+04  0.23978566297E+04  0.50400001928E-02 0. -1.
       -1   -1    0    0    0  501  0.00000000000E+00  0.00000000000E+00 -0.14103357920E+04  0.14103357920E+04  0.50400001928E-02 0.  1.
    10030    2    1    2    0    0  0.00000000000E+00  0.00000000000E+00  0.98752083767E+03  0.38081924217E+04  0.36779249742E+04 0.  0.
        1    1    3    3  502    0 -0.33548286249E+03 -0.12496353938E+04 -0.85929285994E+03  0.15532294060E+04  0.50400001928E-02 0.  1.
       -1    1    3    3    0  502  0.33548286249E+03  0.12496353938E+04  0.18468136976E+04  0.22549630157E+04  0.50400001928E-02 0. -1.
</event>
<event>
 5   0  0.7254493E-08  0.3697275E+04  0.7818609E-02  0.8068566E-01
       -2   -1    0    0    0  501  0.00000000000E+00  0.00000000000E+00  0.17152108110E+04  0.17152108110E+04  0.25500000920E-02 0. -1.
        2   -1    0    0  501    0  0.00000000000E+00  0.00000000000E+00 -0.19924435443E+04  0.19924435443E+04  0.25500000920E-02 0.  1.
    10030    2    1    2    0    0  0.00000000000E+00  0.00000000000E+00 -0.27723273330E+03  0.37076543553E+04  0.36972750547E+04 0.  0.
        3    1    3    3  502    0 -0.64685216544E+03 -0.14144240325E+04  0.86341225078E+03  0.17789024123E+04  0.10100000352E+00 0. -1.
       -3    1    3    3    0  502  0.64685216544E+03  0.14144240325E+04 -0.11406449841E+04  0.19287519430E+04  0.10100000352E+00 0.  1.
</event>
<event>
 5   0  0.7203049E-08  0.3698481E+04  0.7818609E-02  0.8068299E-01
       -2   -1    0    0    0  501  0.00000000000E+00  0.00000000000E+00  0.19619851730E+04  0.19619851730E+04  0.25500000920E-02 0.  1.
        2   -1    0    0  501    0  0.00000000000E+00  0.00000000000E+00 -0.17429744245E+04  0.17429744245E+04  0.25500000920E-02 0. -1.
    10030    2    1    2    0    0  0.00000000000E+00  0.00000000000E+00  0.21901074850E+03  0.37049595974E+04  0.36984807571E+04 0.  0.
        4    1    3    3  502    0 -0.12495002230E+04 -0.87992882389E+03 -0.93355000747E+03  0.17908218146E+04  0.12699999809E+01 0. -1.
       -4    1    3    3    0  502  0.12495002230E+04  0.87992882389E+03  0.11525607560E+04  0.19141377828E+04  0.12699999809E+01 0.  1.
</event>
<event>
 5   0  0.7203049E-08  0.3691521E+04  0.7818609E-02  0.8069844E-01
       -2   -1    0    0    0  501  0.00000000000E+00  0.00000000000E+00  0.17007324229E+04  0.17007324229E+04  0.25500000920E-02 0.  1.
        2   -1    0    0  501    0  0.00000000000E+00  0.00000000000E+00 -0.20031551633E+04  0.20031551633E+04  0.25500000920E-02 0. -1.
    10030    2    1    2    0    0  0.00000000000E+00  0.00000000000E+00 -0.30242274041E+03  0.37038875862E+04  0.36915205183E+04 0.  0.
        4    1    3    3  502    0 -0.18189380715E+04  0.27387585739E+02  0.16215454200E+03  0.18263574394E+04  0.12699999809E+01 0.  1.
       -4    1    3    3    0  502  0.18189380715E+04 -0.27387585739E+02 -0.46457728241E+03  0.18775301468E+04  0.12699999809E+01 0. -1.
</event>
<event>
 5   0  0.2282000E-08  0.3701189E+04  0.7818609E-02  0.8067698E-01
       -1   -1    0    0    0  501  0.00000000000E+00  0.00000000000E+00  0.22123149329E+04  0.22123149329E+04  0.50400001928E-02 0. -1.
        1   -1    0    0  501    0  0.00000000000E+00  0.00000000000E+00 -0.15480165855E+04  0.15480165855E+04  0.50400001928E-02 0.  1.
    10030    2    1    2    0    0  0.00000000000E+00  0.00000000000E+00  0.66429834738E+03  0.37603315184E+04  0.37011891108E+04 0.  0.
        3    1    3    3  502    0  0.24564337314E+03 -0.70803076816E+03  0.20512425789E+04  0.21838599687E+04  0.10100000352E+00 0. -1.
       -3    1    3    3    0  502 -0.24564337314E+03  0.70803076816E+03 -0.13869442315E+04  0.15764715497E+04  0.10100000352E+00 0.  1.
</event>
<event>
 5   0  0.2282000E-08  0.3697026E+04  0.7818609E-02  0.8068621E-01
        1   -1    0    0  501    0  0.00000000000E+00  0.00000000000E+00  0.20893133627E+04  0.20893133627E+04  0.50400001928E-02 0.  1.
       -1   -1    0    0    0  501  0.00000000000E+00  0.00000000000E+00 -0.16354658897E+04  0.16354658897E+04  0.50400001928E-02 0. -1.
    10030    2    1    2    0    0  0.00000000000E+00  0.00000000000E+00  0.45384747302E+03  0.37247792525E+04  0.36970262308E+04 0.  0.
        5    1    3    3  502    0  0.43137034502E+03 -0.12668602451E+04  0.15116286626E+04  0.20189250998E+04  0.46999998093E+01 0. -1.
       -5    1    3    3    0  502 -0.43137034502E+03  0.12668602451E+04 -0.10577811895E+04  0.17058541527E+04  0.46999998093E+01 0.  1.
</event>
<event>
 5   0  0.2282000E-08  0.3700930E+04  0.7818609E-02  0.8067756E-01
        1   -1    0    0  501    0  0.00000000000E+00  0.00000000000E+00  0.23613546184E+04  0.23613546184E+04  0.50400001928E-02 0.  1.
       -1   -1    0    0    0  501  0.00000000000E+00  0.00000000000E+00 -0.14501085124E+04  0.14501085124E+04  0.50400001928E-02 0. -1.
    10030    2    1    2    0    0  0.00000000000E+00  0.00000000000E+00  0.91124610597E+03  0.38114631308E+04  0.37009298469E+04 0.  0.
        3    1    3    3  502    0  0.33633493321E+03  0.12569381347E+04 -0.89942661618E+03  0.15817657570E+04  0.10100000352E+00 0. -1.
       -3    1    3    3    0  502 -0.33633493321E+03 -0.12569381347E+04  0.18106727222E+04  0.22296973738E+04  0.10100000352E+00 0.  1.
</event>
<event>
 5   0  0.2282000E-08  0.3694349E+04  0.7818609E-02  0.8069215E-01
       -1   -1    0    0    0  501  0.00000000000E+00  0.00000000000E+00  0.11793394694E+04  0.11793394694E+04  0.50400001928E-02 0.  1.
        1   -1    0    0  501    0  0.00000000000E+00  0.00000000000E+00 -0.28931907529E+04  0.28931907529E+04  0.50400001928E-02 0. -1.
    10030    2    1    2    0    0  0.00000000000E+00  0.00000000000E+00 -0.17138512835E+04  0.40725302223E+04  0.36943492241E+04 0.  0.
        2    1    3    3  502    0 -0.20736045696E+03 -0.69671059475E+03 -0.27288903016E+04  0.28240478555E+04  0.25500000920E-02 0. -1.
       -2    1    3    3    0  502  0.20736045696E+03  0.69671059475E+03  0.10150390181E+04  0.12484823668E+04  0.25500000920E-02 0.  1.
</event>
<event>
 5   0  0.7254493E-08  0.3700198E+04  0.7818609E-02  0.8067918E-01
        2   -1    0    0  501    0  0.00000000000E+00  0.00000000000E+00  0.19081037040E+04  0.19081037040E+04  0.25500000920E-02 0.  1.
       -2   -1    0    0    0  501  0.00000000000E+00  0.00000000000E+00 -0.17938576995E+04  0.17938576995E+04  0.25500000920E-02 0. -1.
    10030    2    1    2    0    0  0.00000000000E+00  0.00000000000E+00  0.11424600457E+03  0.37019614035E+04  0.37001981141E+04 0.  0.
        3    1    3    3  502    0  0.12165625169E+04 -0.96590683206E+03 -0.94827684652E+03  0.18199531185E+04  0.10100000352E+00 0. -1.
       -3    1    3    3    0  502 -0.12165625169E+04  0.96590683206E+03  0.10625228511E+04  0.18820082850E+04  0.10100000352E+00 0.  1.
</event>
<event>
 5   0  0.7254493E-08  0.3607606E+04  0.7818609E-02  0.8088752E-01
        2   -1    0    0  501    0  0.00000000000E+00  0.00000000000E+00  0.21557521227E+04  0.21557521227E+04  0.25500000920E-02 0.  1.
       -2   -1    0    0    0  501  0.00000000000E+00  0.00000000000E+00 -0.15093135660E+04  0.15093135660E+04  0.25500000920E-02 0. -1.
    10030    2    1    2    0    0  0.00000000000E+00  0.00000000000E+00  0.64643855669E+03  0.36650656887E+04  0.36076063664E+04 0.  0.
        3    1    3    3  502    0  0.33365721353E+03 -0.10441656077E+04  0.17785495293E+04  0.20892217189E+04  0.10100000352E+00 0.  1.
       -3    1    3    3    0  502 -0.33365721353E+03  0.10441656077E+04 -0.11321109727E+04  0.15758439697E+04  0.10100000352E+00 0. -1.
</event>
<event>
 5   0  0.2282000E-08  0.3698240E+04  0.7818609E-02  0.8068352E-01
       -1   -1    0    0    0  501  0.00000000000E+00  0.00000000000E+00  0.13468831613E+04  0.13468831613E+04  0.50400001928E-02 0. -1.
        1   -1    0    0  501    0  0.00000000000E+00  0.00000000000E+00 -0.25386350405E+04  0.25386350406E+04  0.50400001928E-02 0.  1.
    10030    2    1    2    0    0  0.00000000000E+00  0.00000000000E+00 -0.11917518793E+04  0.38855182018E+04  0.36982400078E+04 0.  0.
        3    1    3    3  502    0 -0.92431371526E+03 -0.23451182515E+02  0.10865717573E+04  0.14267249195E+04  0.10100000352E+00 0. -1.
       -3    1    3    3    0  502  0.92431371526E+03  0.23451182515E+02 -0.22783236365E+04  0.24587932823E+04  0.10100000352E+00 0.  1.
</event>
<event>
 5   0  0.7309833E-08  0.3700785E+04  0.7818609E-02  0.8067788E-01
       -2   -1    0    0    0  501  0.00000000000E+00  0.00000000000E+00  0.17694956306E+04  0.17694956306E+04  0.25500000920E-02 0.  1.
        2   -1    0    0  501    0  0.00000000000E+00  0.00000000000E+00 -0.19349882039E+04  0.19349882039E+04  0.25500000920E-02 0. -1.
    10030    2    1    2    0    0  0.00000000000E+00  0.00000000000E+00 -0.16549257332E+03  0.37044838345E+04  0.37007854150E+04 0.  0.
        2    1    3    3  502    0 -0.24159979088E+03  0.45885251259E+03 -0.18607637994E+04  0.19316723337E+04  0.25500000920E-02 0. -1.
       -2    1    3    3    0  502  0.24159979088E+03 -0.45885251259E+03  0.16952712261E+04  0.17728115008E+04  0.25500000920E-02 0.  1.
</event>
<event>
 5   0  0.7362817E-08  0.3704211E+04  0.7818609E-02  0.8067029E-01
       -2   -1    0    0    0  501  0.00000000000E+00  0.00000000000E+00  0.12525399303E+04  0.12525399303E+04  0.25500000920E-02 0.  1.
        2   -1    0    0  501    0  0.00000000000E+00  0.00000000000E+00 -0.27386713964E+04  0.27386713964E+04  0.25500000920E-02 0. -1.
    10030    2    1    2    0    0  0.00000000000E+00  0.00000000000E+00 -0.14861314662E+04  0.39912113267E+04  0.37042112682E+04 0.  0.
        1    1    3    3  502    0 -0.97551710985E+03  0.24422216824E+03 -0.24188899088E+04  0.26196004448E+04  0.50400001928E-02 0. -1.
       -1    1    3    3    0  502  0.97551710985E+03 -0.24422216824E+03  0.93275844266E+03  0.13716108819E+04  0.50400001928E-02 0.  1.
</event>
<event>
 5   0  0.7203049E-08  0.3700549E+04  0.7818609E-02  0.8067840E-01
        2   -1    0    0  501    0  0.00000000000E+00  0.00000000000E+00  0.19543888725E+04  0.19543888725E+04  0.25500000920E-02 0. -1.
       -2   -1    0    0    0  501  0.00000000000E+00  0.00000000000E+00 -0.17517062238E+04  0.17517062238E+04  0.25500000920E-02 0.  1.
    10030    2    1    2    0    0  0.00000000000E+00  0.00000000000E+00  0.20268264872E+03  0.37060950964E+04  0.37005486900E+04 0.  0.
        4    1    3    3  502    0 -0.11738208467E+03  0.47107419631E+03 -0.16867825837E+04  0.17552568330E+04  0.12699999809E+01 0.  1.
       -4    1    3    3    0  502  0.11738208467E+03 -0.47107419631E+03  0.18894652324E+04  0.19508382633E+04  0.12699999809E+01 0. -1.
</event>
<event>
 5   0  0.2282000E-08  0.3706018E+04  0.7818609E-02  0.8066629E-01
       -1   -1    0    0    0  501  0.00000000000E+00  0.00000000000E+00  0.20986944315E+04  0.20986944315E+04  0.50400001928E-02 0.  1.
        1   -1    0    0  501    0  0.00000000000E+00  0.00000000000E+00 -0.16360848913E+04  0.16360848913E+04  0.50400001928E-02 0. -1.
    10030    2    1    2    0    0  0.00000000000E+00  0.00000000000E+00  0.46260954028E+03  0.37347793228E+04  0.37060179443E+04 0.  0.
        5    1    3    3  502    0  0.16834895571E+04  0.72510696948E+03  0.50489455455E+03  0.19012779406E+04  0.46999998093E+01 0.  1.
       -5    1    3    3    0  502 -0.16834895571E+04 -0.72510696948E+03 -0.42285014270E+02  0.18335013822E+04  0.46999998093E+01 0. -1.
</event>
<event>
 5   0  0.7362817E-08  0.3699350E+04  0.7818609E-02  0.8068106E-01
       -2   -1    0    0    0  501  0.00000000000E+00  0.00000000000E+00  0.14827082075E+04  0.14827082075E+04  0.25500000920E-02 0.  1.
        2   -1    0    0  501    0  0.00000000000E+00  0.00000000000E+00 -0.23074648094E+04  0.23074648094E+04  0.25500000920E-02 0. -1.
    10030    2    1    2    0    0  0.00000000000E+00  0.00000000000E+00 -0.82475660190E+03  0.37901730169E+04  0.36993496787E+04 0.  0.
        1    1    3    3  502    0 -0.11037935531E+04  0.11956647626E+04 -0.13133559059E+04  0.20911427899E+04  0.50400001928E-02 0. -1.
       -1    1    3    3    0  502  0.11037935531E+04 -0.11956647626E+04  0.48859930395E+03  0.16990302270E+04  0.50400001928E-02 0.  1.
</event>
<event>
 5   0  0.7254493E-08  0.3703067E+04  0.7818609E-02  0.8067283E-01
       -2   -1    0    0    0  501  0.00000000000E+00  0.00000000000E+00  0.14910427030E+04  0.14910427030E+04  0.25500000920E-02 0. -1.
        2   -1    0    0  501    0  0.00000000000E+00  0.00000000000E+00 -0.22991801135E+04  0.22991801135E+04  0.25500000920E-02 0.  1.
    10030    2    1    2    0    0  0.00000000000E+00  0.00000000000E+00 -0.80813741050E+03  0.37902228165E+04  0.37030666919E+04 0.  0.
        3    1    3    3  502    0 -0.14595412886E+04  0.80384459251E+03  0.42224191445E+03  0.17189284879E+04  0.10100000352E+00 0. -1.
       -3    1    3    3    0  502  0.14595412886E+04 -0.80384459251E+03 -0.12303793249E+04  0.20712943286E+04  0.10100000352E+00 0.  1.
</event>
<event>
 5   0  0.2282000E-08  0.3705193E+04  0.7818609E-02  0.8066812E-01
        1   -1    0    0  501    0  0.00000000000E+00  0.00000000000E+00  0.25114629962E+04  0.25114629962E+04  0.50400001928E-02 0. -1.
       -1   -1    0    0    0  501  0.00000000000E+00  0.00000000000E+00 -0.13665797748E+04  0.13665797748E+04  0.50400001928E-02 0.  1.
    10030    2    1    2    0    0  0.00000000000E+00  0.00000000000E+00  0.11448832213E+04  0.38780427710E+04  0.37051934016E+04 0.  0.
        4    1    3    3  502    0 -0.66291967832E+01  0.72771978492E+03  0.23555892174E+04  0.24654456404E+04  0.12699999809E+01 0. -1.
       -4    1    3    3    0  502  0.66291967832E+01 -0.72771978492E+03 -0.12107059961E+04  0.14125971306E+04  0.12699999809E+01 0.  1.
</event>
<event>
 5   0  0.7191801E-08  0.3707528E+04  0.7818609E-02  0.8066296E-01
        2   -1    0    0  501    0  0.00000000000E+00  0.00000000000E+00  0.18900889289E+04  0.18900889289E+04  0.25500000920E-02 0. -1.
       -2   -1    0    0    0  501  0.00000000000E+00  0.00000000000E+00 -0.18181371679E+04  0.18181371679E+04  0.25500000920E-02 0.  1.
    10030    2    1    2    0    0  0.00000000000E+00  0.00000000000E+00  0.71951761034E+02  0.37082260968E+04  0.37075279809E+04 0.  0.
        5    1    3    3  502    0  0.67738240462E+03 -0.13254949019E+04 -0.10690557534E+04  0.18326718067E+04  0.46999998093E+01 0.  1.
       -5    1    3    3    0  502 -0.67738240462E+03  0.13254949019E+04  0.11410075145E+04  0.18755542901E+04  0.46999998093E+01 0. -1.
</event>
<event>
 5   0  0.7309833E-08  0.3703093E+04  0.7818609E-02  0.8067277E-01
       -2   -1    0    0    0  501  0.00000000000E+00  0.00000000000E+00  0.18197180585E+04  0.18197180585E+04  0.25500000920E-02 0. -1.
        2   -1    0    0  501    0  0.00000000000E+00  0.00000000000E+00 -0.18839320418E+04  0.18839320418E+04  0.25500000920E-02 0.  1.
    10030    2    1    2    0    0  0.00000000000E+00  0.00000000000E+00 -0.64213983313E+02  0.37036501004E+04  0.37030933867E+04 0.  0.
        2    1    3    3  502    0  0.10632682460E+04  0.56946843493E+03 -0.14370927177E+04  0.18761847298E+04  0.25500000920E-02 0.  1.
       -2    1    3    3    0  502 -0.10632682460E+04 -0.56946843493E+03  0.13728787343E+04  0.18274653705E+04  0.25500000920E-02 0. -1.
</event>
<event>
 5   0  0.7309833E-08  0.3714391E+04  0.7818609E-02  0.8064780E-01
        2   -1    0    0  501    0  0.00000000000E+00  0.00000000000E+00  0.27544180400E+04  0.27544180400E+04  0.25500000920E-02 0.  1.
       -2   -1    0    0    0  501  0.00000000000E+00  0.00000000000E+00 -0.12522339023E+04  0.12522339023E+04  0.25500000920E-02 0. -1.
    10030    2    1    2    0    0  0.00000000000E+00  0.00000000000E+00  0.15021841377E+04  0.40066519423E+04  0.37143912830E+04 0.  0.
        2    1    3    3  502    0  0.13425549940E+04 -0.11891864539E+04  0.12712784398E+04  0.21983555685E+04  0.25500000920E-02 0.  1.
       -2    1    3    3    0  502 -0.13425549940E+04  0.11891864539E+04  0.23090569783E+03  0.18082963737E+04  0.25500000920E-02 0. -1.
</event>
<event>
 5   0  0.2282000E-08  0.3744865E+04  0.7818609E-02  0.8058091E-01
        1   -1    0    0  501    0  0.00000000000E+00  0.00000000000E+00  0.16747784151E+04  0.16747784151E+04  0.50400001928E-02 0. -1.
       -1   -1    0    0    0  501  0.00000000000E+00  0.00000000000E+00 -0.20934128256E+04  0.20934128256E+04  0.50400001928E-02 0.  1.
    10030    2    1    2    0    0  0.00000000000E+00  0.00000000000E+00 -0.41863441050E+03  0.37681912408E+04  0.37448645446E+04 0.  0.
        3    1    3    3  502    0  0.83238173206E+03 -0.64089137339E+03 -0.17689401571E+04  0.20573649142E+04  0.10100000352E+00 0.  1.
       -3    1    3    3    0  502 -0.83238173206E+03  0.64089137339E+03  0.13503057466E+04  0.17108263266E+04  0.10100000352E+00 0. -1.
</event>
<event>
 5   0  0.2282000E-08  0.3711690E+04  0.7818609E-02  0.8065376E-01
        1   -1    0    0  501    0  0.00000000000E+00  0.00000000000E+00  0.19169318075E+04  0.19169318075E+04  0.50400001928E-02 0.  1.
       -1   -1    0    0    0  501  0.00000000000E+00  0.00000000000E+00 -0.17967052167E+04  0.17967052167E+04  0.50400001928E-02 0. -1.
    10030    2    1    2    0    0  0.00000000000E+00  0.00000000000E+00  0.12022659082E+03  0.37136370241E+04  0.37116903850E+04 0.  0.
        2    1    3    3  502    0 -0.11455474042E+04  0.44527655806E+03 -0.13311595217E+04  0.18117769567E+04  0.25500000920E-02 0. -1.
       -2    1    3    3    0  502  0.11455474042E+04 -0.44527655806E+03  0.14513861125E+04  0.19018600675E+04  0.25500000920E-02 0.  1.
</event>
<event>
 5   0  0.7362817E-08  0.3696826E+04  0.7818609E-02  0.8068665E-01
       -2   -1    0    0    0  501  0.00000000000E+00  0.00000000000E+00  0.22677002795E+04  0.22677002795E+04  0.25500000920E-02 0. -1.
        2   -1    0    0  501    0  0.00000000000E+00  0.00000000000E+00 -0.15066503840E+04  0.15066503840E+04  0.25500000920E-02 0.  1.
    10030    2    1    2    0    0  0.00000000000E+00  0.00000000000E+00  0.76104989553E+03  0.37743506635E+04  0.36968264752E+04 0.  0.
        1    1    3    3  502    0  0.41498337085E+03 -0.44858433974E+03 -0.14005323264E+04  0.15280477431E+04  0.50400001928E-02 0.  1.
       -1    1    3    3    0  502 -0.41498337085E+03  0.44858433974E+03  0.21615822219E+04  0.22463029204E+04  0.50400001928E-02 0. -1.
</event>
<event>
 5   0  0.2282000E-08  0.3703528E+04  0.7818609E-02  0.8067181E-01
        1   -1    0    0  501    0  0.00000000000E+00  0.00000000000E+00  0.14943458946E+04  0.14943458946E+04  0.50400001928E-02 0. -1.
       -1   -1    0    0    0  501  0.00000000000E+00  0.00000000000E+00 -0.22946689267E+04  0.22946689267E+04  0.50400001928E-02 0.  1.
    10030    2    1    2    0    0  0.00000000000E+00  0.00000000000E+00 -0.80032303218E+03  0.37890148213E+04  0.37035275563E+04 0.  0.
        2    1    3    3  502    0 -0.39271961780E+03  0.88128301370E+03  0.12168725382E+04  0.15529543531E+04  0.25500000920E-02 0. -1.
       -2    1    3    3    0  502  0.39271961780E+03 -0.88128301370E+03 -0.20171955704E+04  0.22360604682E+04  0.25500000920E-02 0.  1.
</event>
<event>
 5   0  0.2282000E-08  0.3701142E+04  0.7818609E-02  0.8067709E-01
        1   -1    0    0  501    0  0.00000000000E+00  0.00000000000E+00  0.14918002100E+04  0.14918002100E+04  0.50400001928E-02 0. -1.
       -1   -1    0    0    0  501  0.00000000000E+00  0.00000000000E+00 -0.22956250630E+04  0.22956250630E+04  0.50400001928E-02 0.  1.
    10030    2    1    2    0    0  0.00000000000E+00  0.00000000000E+00 -0.80382485296E+03  0.37874252730E+04  0.37011424998E+04 0.  0.
        5    1    3    3  502    0 -0.14289186122E+04  0.58178270989E+03  0.64382697368E+03  0.16717699554E+04  0.46999998093E+01 0. -1.
       -5    1    3    3    0  502  0.14289186122E+04 -0.58178270989E+03 -0.14476518266E+04  0.21156553176E+04  0.46999998093E+01 0.  1.
</event>
<event>
 5   0  0.7191801E-08  0.3695507E+04  0.7818609E-02  0.8068958E-01
        2   -1    0    0  501    0  0.00000000000E+00  0.00000000000E+00  0.23138392153E+04  0.23138392153E+04  0.25500000920E-02 0. -1.
       -2   -1    0    0    0  501  0.00000000000E+00  0.00000000000E+00 -0.14755532875E+04  0.14755532875E+04  0.25500000920E-02 0.  1.
    10030    2    1    2    0    0  0.00000000000E+00  0.00000000000E+00  0.83828592778E+03  0.37893925029E+04  0.36955070348E+04 0.  0.
        5    1    3    3  502    0  0.23414624580E+03  0.55650147591E+03 -0.13715484203E+04  0.14985611487E+04  0.46999998093E+01 0.  1.
       -5    1    3    3    0  502 -0.23414624580E+03 -0.55650147591E+03  0.22098343481E+04  0.22908313542E+04  0.46999998093E+01 0. -1.
</event>
<event>
 5   0  0.2282000E-08  0.3701444E+04  0.7818609E-02  0.8067642E-01
        1   -1    0    0  501    0  0.00000000000E+00  0.00000000000E+00  0.20113086955E+04  0.20113086955E+04  0.50400001928E-02 0. -1.
       -1   -1    0    0    0  501  0.00000000000E+00  0.00000000000E+00 -0.17029572674E+04  0.17029572674E+04  0.50400001928E-02 0.  1.
    10030    2    1    2    0    0  0.00000000000E+00  0.00000000000E+00  0.30835142809E+03  0.37142659630E+04  0.37014444532E+04 0.  0.
        2    1    3    3  502    0  0.13165460248E+04 -0.12951345176E+04  0.27503337747E+03  0.18671663591E+04  0.25500000920E-02 0. -1.
       -2    1    3    3    0  502 -0.13165460248E+04  0.12951345176E+04  0.33318050615E+02  0.18470996038E+04  0.25500000920E-02 0.  1.
</event>
<event>
 5   0  0.2282000E-08  0.3702903E+04  0.7818609E-02  0.8067319E-01
       -1   -1    0    0    0  501  0.00000000000E+00  0.00000000000E+00  0.13222311282E+04  0.13222311282E+04  0.50400001928E-02 0.  1.
        1   -1    0    0  501    0  0.00000000000E+00  0.00000000000E+00 -0.25924917346E+04  0.25924917347E+04  0.50400001928E-02 0. -1.
    10030    2    1    2    0    0  0.00000000000E+00  0.00000000000E+00 -0.12702606065E+04  0.39147228628E+04  0.37029033317E+04 0.  0.
        3    1    3    3  502    0  0.97601195123E+03  0.10627248970E+04  0.59135793164E+03  0.15593869786E+04  0.10100000352E+00 0.  1.
       -3    1    3    3    0  502 -0.97601195123E+03 -0.10627248970E+04 -0.18616185381E+04  0.23553358842E+04  0.10100000352E+00 0. -1.
</event>
<event>
 5   0  0.2282000E-08  0.3717890E+04  0.7818609E-02  0.8064009E-01
        1   -1    0    0  501    0  0.00000000000E+00  0.00000000000E+00  0.17284735405E+04  0.17284735405E+04  0.50400001928E-02 0. -1.
       -1   -1    0    0    0  501  0.00000000000E+00  0.00000000000E+00 -0.19992654165E+04  0.19992654165E+04  0.50400001928E-02 0.  1.
    10030    2    1    2    0    0  0.00000000000E+00  0.00000000000E+00 -0.27079187601E+03  0.37277389571E+04  0.37178904626E+04 0.  0.
        5    1    3    3  502    0  0.17575098485E+04  0.15287858226E+03 -0.72298804696E+03  0.19065535751E+04  0.46999998093E+01 0.  1.
       -5    1    3    3    0  502 -0.17575098485E+04 -0.15287858226E+03  0.45219617095E+03  0.18211853820E+04  0.46999998093E+01 0. -1.
</event>
<event>
 5   0  0.7309833E-08  0.3712629E+04  0.7818609E-02  0.8065169E-01
       -2   -1    0    0    0  501  0.00000000000E+00  0.00000000000E+00  0.18766693476E+04  0.18766693476E+04  0.25500000920E-02 0. -1.
        2   -1    0    0  501    0  0.00000000000E+00  0.00000000000E+00 -0.18361806339E+04  0.18361806339E+04  0.25500000920E-02 0.  1.
    10030    2    1    2    0    0  0.00000000000E+00  0.00000000000E+00  0.40488713669E+02  0.37128499815E+04  0.37126292098E+04 0.  0.
        2    1    3    3  502    0  0.51020900620E+02 -0.14744525481E+04  0.11469392688E+04  0.18687116245E+04  0.25500000920E-02 0. -1.
       -2    1    3    3    0  502 -0.51020900620E+02  0.14744525481E+04 -0.11064505552E+04  0.18441383571E+04  0.25500000920E-02 0.  1.
</event>
<event>
 5   0  0.7362817E-08  0.3697903E+04  0.7818609E-02  0.8068427E-01
        2   -1    0    0  501    0  0.00000000000E+00  0.00000000000E+00  0.25856444157E+04  0.25856444157E+04  0.25500000920E-02 0.  1.
       -2   -1    0    0    0  501  0.00000000000E+00  0.00000000000E+00 -0.13221547713E+04  0.13221547713E+04  0.25500000920E-02 0. -1.
    10030    2    1    2    0    0  0.00000000000E+00  0.00000000000E+00  0.12634896444E+04  0.39077991870E+04  0.36979032444E+04 0.  0.
        1    1    3    3  502    0  0.11422015957E+04 -0.47230135290E+03  0.20849077546E+04  0.24237436743E+04  0.50400001928E-02 0.  1.
       -1    1    3    3    0  502 -0.11422015957E+04  0.47230135290E+03 -0.82141811024E+03  0.14840555128E+04  0.50400001928E-02 0. -1.
</event>
<event>
 5   0  0.2282000E-08  0.3687846E+04  0.7818609E-02  0.8070661E-01
        1   -1    0    0  501    0  0.00000000000E+00  0.00000000000E+00  0.18177010598E+04  0.18177010598E+04  0.50400001928E-02 0. -1.
       -1   -1    0    0    0  501  0.00000000000E+00  0.00000000000E+00 -0.18705235891E+04  0.18705235891E+04  0.50400001928E-02 0.  1.
    10030    2    1    2    0    0  0.00000000000E+00  0.00000000000E+00 -0.52822529301E+02  0.36882246489E+04  0.36878463689E+04 0.  0.
        3    1    3    3  502    0  0.89811550020E+03 -0.15957623483E+04  0.19036838237E+03  0.18410076195E+04  0.10100000352E+00 0. -1.
       -3    1    3    3    0  502 -0.89811550020E+03  0.15957623483E+04 -0.24319091167E+03  0.18472170294E+04  0.10100000352E+00 0.  1.
</event>
<event>
 5   0  0.7362817E-08  0.3696298E+04  0.7818609E-02  0.8068783E-01
        2   -1    0    0  501    0  0.00000000000E+00  0.00000000000E+00  0.18738883975E+04  0.18738883975E+04  0.25500000920E-02 0. -1.
       -2   -1    0    0    0  501  0.00000000000E+00  0.00000000000E+00 -0.18227633387E+04  0.18227633387E+04  0.25500000920E-02 0.  1.
    10030    2    1    2    0    0  0.00000000000E+00  0.00000000000E+00  0.51125058792E+02  0.36966517363E+04  0.36962981870E+04 0.  0.
        1    1    3    3  502    0  0.13772511493E+04 -0.12242635712E+04  0.16704355503E+03  0.18502825647E+04  0.50400001928E-02 0. -1.
       -1    1    3    3    0  502 -0.13772511493E+04  0.12242635712E+04 -0.11591849624E+03  0.18463691716E+04  0.50400001928E-02 0.  1.
</event>
<event>
 5   0  0.7362817E-08  0.3703485E+04  0.7818609E-02  0.8067190E-01
       -2   -1    0    0    0  501  0.00000000000E+00  0.00000000000E+00  0.17391947341E+04  0.17391947341E+04  0.25500000920E-02 0. -1.
        2   -1    0    0  501    0  0.00000000000E+00  0.00000000000E+00 -0.19715735457E+04  0.19715735457E+04  0.25500000920E-02 0.  1.
    10030    2    1    2    0    0  0.00000000000E+00  0.00000000000E+00 -0.23237881160E+03  0.37107682798E+04  0.37034850228E+04 0.  0.
        1    1    3    3  502    0  0.11148864148E+04 -0.12225176613E+04 -0.94934687923E+03  0.19075588188E+04  0.50400001928E-02 0.  1.
       -1    1    3    3    0  502 -0.11148864148E+04  0.12225176613E+04  0.71696806764E+03  0.18032094610E+04  0.50400001928E-02 0. -1.
</event>
<event>
 5   0  0.7191801E-08  0.3704750E+04  0.7818609E-02  0.8066910E-01
       -2   -1    0    0    0  501  0.00000000000E+00  0.00000000000E+00  0.11565276798E+04  0.11565276798E+04  0.25500000920E-02 0. -1.
        2   -1    0    0  501    0  0.00000000000E+00  0.00000000000E+00 -0.29668924135E+04  0.29668924135E+04  0.25500000920E-02 0.  1.
    10030    2    1    2    0    0  0.00000000000E+00  0.00000000000E+00 -0.18103647337E+04  0.41234200933E+04  0.37047500317E+04 0.  0.
        5    1    3    3  502    0 -0.14111425011E+03  0.13936391999E+04  0.44386885607E+03  0.14694165858E+04  0.46999998093E+01 0. -1.
       -5    1    3    3    0  502  0.14111425011E+03 -0.13936391999E+04 -0.22542335897E+04  0.26540035076E+04  0.46999998093E+01 0.  1.
</event>
<event>
 5   0  0.7254493E-08  0.3705358E+04  0.7818609E-02  0.8066775E-01
        2   -1    0    0  501    0  0.00000000000E+00  0.00000000000E+00  0.25832844102E+04  0.25832844102E+04  0.25500000920E-02 0.  1.
       -2   -1    0    0    0  501  0.00000000000E+00  0.00000000000E+00 -0.13287039433E+04  0.13287039433E+04  0.25500000920E-02 0. -1.
    10030    2    1    2    0    0  0.00000000000E+00  0.00000000000E+00  0.12545804669E+04  0.39119883534E+04  0.37053583807E+04 0.  0.
        3    1    3    3  502    0 -0.24753093709E+03 -0.18059213533E+04  0.27745630728E+03  0.18438019177E+04  0.10100000352E+00 0.  1.
       -3    1    3    3    0  502  0.24753093709E+03  0.18059213533E+04  0.97712415966E+03  0.20681864357E+04  0.10100000352E+00 0. -1.
</event>
<event>
 5   0  0.2282000E-08  0.3696455E+04  0.7818609E-02  0.8068748E-01
       -1   -1    0    0    0  501  0.00000000000E+00  0.00000000000E+00  0.18812092891E+04  0.18812092891E+04  0.50400001928E-02 0.  1.
        1   -1    0    0  501    0  0.00000000000E+00  0.00000000000E+00 -0.18158243046E+04  0.18158243046E+04  0.50400001928E-02 0. -1.
    10030    2    1    2    0    0  0.00000000000E+00  0.00000000000E+00  0.65384984509E+02  0.36970335937E+04  0.36964553557E+04 0.  0.
        1    1    3    3  502    0 -0.22617682738E+03 -0.16450417233E+03 -0.17945382800E+04  0.18162007649E+04  0.50400001928E-02 0. -1.
       -1    1    3    3    0  502  0.22617682738E+03  0.16450417233E+03  0.18599232645E+04  0.18808328288E+04  0.50400001928E-02 0.  1.
</event>
<event>
 5   0  0.2282000E-08  0.3702389E+04  0.7818609E-02  0.8067433E-01
        1   -1    0    0  501    0  0.00000000000E+00  0.00000000000E+00  0.17909120724E+04  0.17909120724E+04  0.50400001928E-02 0.  1.
       -1   -1    0    0    0  501  0.00000000000E+00  0.00000000000E+00 -0.19135057362E+04  0.19135057363E+04  0.50400001928E-02 0. -1.
    10030    2    1    2    0    0  0.00000000000E+00  0.00000000000E+00 -0.12259366386E+03  0.37044178086E+04  0.37023887012E+04 0.  0.
        1    1    3    3  502    0  0.86888849445E+03  0.10422235391E+04 -0.13212420695E+04  0.18939054167E+04  0.50400001928E-02 0. -1.
       -1    1    3    3    0  502 -0.86888849445E+03 -0.10422235391E+04  0.11986484056E+04  0.18105123920E+04  0.50400001928E-02 0.  1.
</event>
<event>
 5   0  0.2282000E-08  0.3696669E+04  0.7818609E-02  0.8068701E-01
       -1   -1    0    0    0  501  0.00000000000E+00  0.00000000000E+00  0.32308172360E+04  0.32308172360E+04  0.50400001928E-02 0. -1.
        1   -1    0    0  501    0  0.00000000000E+00  0.00000000000E+00 -0.10574227460E+04  0.10574227460E+04  0.50400001928E-02 0.  1.
    10030    2    1    2    0    0  0.00000000000E+00  0.00000000000E+00  0.21733944901E+04  0.42882399820E+04  0.36966685724E+04 0.  0.
        3    1    3    3  502    0 -0.30009144760E+03  0.10787063328E+03 -0.10252706794E+04  0.10737182716E+04  0.10100000352E+00 0.  1.
       -3    1    3    3    0  502  0.30009144760E+03 -0.10787063328E+03  0.31986651695E+04  0.32145217105E+04  0.10100000352E+00 0. -1.
</event>
<event>
 5   0  0.7191801E-08  0.3699606E+04  0.7818609E-02  0.8068049E-01
        2   -1    0    0  501    0  0.00000000000E+00  0.00000000000E+00  0.12520567972E+04  0.12520567972E+04  0.25500000920E-02 0. -1.
       -2   -1    0    0    0  501  0.00000000000E+00  0.00000000000E+00 -0.27329201576E+04  0.27329201576E+04  0.25500000920E-02 0.  1.
    10030    2    1    2    0    0  0.00000000000E+00  0.00000000000E+00 -0.14808633604E+04  0.39849769548E+04  0.36996060652E+04 0.  0.
        5    1    3    3  502    0  0.26330994037E+03 -0.16116318463E+04  0.19553635327E+03  0.16446719698E+04  0.46999998093E+01 0.  1.
       -5    1    3    3    0  502 -0.26330994037E+03  0.16116318463E+04 -0.16763997137E+04  0.23403049850E+04  0.46999998093E+01 0. -1.
</event>
<event>
 5   0  0.7362817E-08  0.3707879E+04  0.7818609E-02  0.8066218E-01
       -2   -1    0    0    0  501  0.00000000000E+00  0.00000000000E+00  0.10984714509E+04  0.10984714509E+04  0.25500000920E-02 0. -1.
        2   -1    0    0  501    0  0.00000000000E+00  0.00000000000E+00 -0.31289763153E+04  0.31289763153E+04  0.25500000920E-02 0.  1.
    10030    2    1    2    0    0  0.00000000000E+00  0.00000000000E+00 -0.20305048644E+04  0.42274477661E+04  0.37078787212E+04 0.  0.
        1    1    3    3  502    0 -0.10299104089E+04 -0.15023187791E+04 -0.62126684828E+03  0.19244868566E+04  0.50400001928E-02 0. -1.
       -1    1    3    3    0  502  0.10299104089E+04  0.15023187791E+04 -0.14092380162E+04  0.23029609095E+04  0.50400001928E-02 0.  1.
</event>
<event>
 5   0  0.2282000E-08  0.3703004E+04  0.7818609E-02  0.8067296E-01
        1   -1    0    0  501    0  0.00000000000E+00  0.00000000000E+00  0.26424866171E+04  0.26424866172E+04  0.50400001928E-02 0. -1.
       -1   -1    0    0    0  501  0.00000000000E+00  0.00000000000E+00 -0.12972856551E+04  0.12972856551E+04  0.50400001928E-02 0.  1.
    10030    2    1    2    0    0  0.00000000000E+00  0.00000000000E+00  0.13452009620E+04  0.39397722723E+04  0.37030041762E+04 0.  0.
        5    1    3    3  502    0 -0.35702786438E+03  0.54837918215E+02  0.26046283610E+04  0.26295602450E+04  0.46999998093E+01 0. -1.
       -5    1    3    3    0  502  0.35702786438E+03 -0.54837918215E+02 -0.12594273989E+04  0.13102120273E+04  0.46999998093E+01 0.  1.
</event>
<event>
 5   0  0.2282000E-08  0.3701127E+04  0.7818609E-02  0.8067712E-01
       -1   -1    0    0    0  501  0.00000000000E+00  0.00000000000E+00  0.16745099177E+04  0.16745099177E+04  0.50400001928E-02 0. -1.
        1   -1    0    0  501    0  0.00000000000E+00  0.00000000000E+00 -0.20451269101E+04  0.20451269101E+04  0.50400001928E-02 0.  1.
    10030    2    1    2    0    0  0.00000000000E+00  0.00000000000E+00 -0.37061699235E+03  0.37196368278E+04  0.37011270143E+04 0.  0.
        5    1    3    3  502    0  0.52960535156E+02 -0.16318333426E+04  0.69018439643E+03  0.17725860959E+04  0.46999998093E+01 0. -1.
       -5    1    3    3    0  502 -0.52960535156E+02  0.16318333426E+04 -0.10608013888E+04  0.19470507319E+04  0.46999998093E+01 0.  1.
</event>
<event>
 5   0  0.7362817E-08  0.3693281E+04  0.7818609E-02  0.8069453E-01
        2   -1    0    0  501    0  0.00000000000E+00  0.00000000000E+00  0.19665123682E+04  0.19665123682E+04  0.25500000920E-02 0.  1.
       -2   -1    0    0    0  501  0.00000000000E+00  0.00000000000E+00 -0.17340752546E+04  0.17340752546E+04  0.25500000920E-02 0. -1.
    10030    2    1    2    0    0  0.00000000000E+00  0.00000000000E+00  0.23243711359E+03  0.37005876228E+04  0.36932806206E+04 0.  0.
        1    1    3    3  502    0  0.11886630221E+04  0.42184298241E+03  0.14676676805E+04  0.19351795013E+04  0.50400001928E-02 0.  1.
       -1    1    3    3    0  502 -0.11886630221E+04 -0.42184298241E+03 -0.12352305669E+04  0.17654081215E+04  0.50400001928E-02 0. -1.
</event>
<event>
 5   0  0.2282000E-08  0.3685403E+04  0.7818609E-02  0.8071204E-01
       -1   -1    0    0    0  501  0.00000000000E+00  0.00000000000E+00  0.10944313071E+04  0.10944313071E+04  0.50400001928E-02 0. -1.
        1   -1    0    0  501    0  0.00000000000E+00  0.00000000000E+00 -0.31025695088E+04  0.31025695088E+04  0.50400001928E-02 0.  1.
    10030    2    1    2    0    0  0.00000000000E+00  0.00000000000E+00 -0.20081382017E+04  0.41970008159E+04  0.36854032088E+04 0.  0.
        3    1    3    3  502    0 -0.13730829398E+04 -0.11550327974E+04 -0.14819541574E+04  0.23271539823E+04  0.10100000352E+00 0.  1.
       -3    1    3    3    0  502  0.13730829398E+04  0.11550327974E+04 -0.52618404432E+03  0.18698468336E+04  0.10100000352E+00 0. -1.
</event>
<event>
 5   0  0.2282000E-08  0.3749663E+04  0.7818609E-02  0.8057044E-01
       -1   -1    0    0    0  501  0.00000000000E+00  0.00000000000E+00  0.12790264931E+04  0.12790264931E+04  0.50400001928E-02 0.  1.
        1   -1    0    0  501    0  0.00000000000E+00  0.00000000000E+00 -0.27481784582E+04  0.27481784582E+04  0.50400001928E-02 0. -1.
    10030    2    1    2    0    0  0.00000000000E+00  0.00000000000E+00 -0.14691519650E+04  0.40272049513E+04  0.37496629480E+04 0.  0.
        2    1    3    3  502    0 -0.38758351618E+03 -0.31386321794E+03  0.12064752881E+04  0.13054936700E+04  0.25500000920E-02 0.  1.
       -2    1    3    3    0  502  0.38758351618E+03  0.31386321794E+03 -0.26756272531E+04  0.27217112814E+04  0.25500000920E-02 0. -1.
</event>
<event>
 5   0  0.2282000E-08  0.3701170E+04  0.7818609E-02  0.8067703E-01
       -1   -1    0    0    0  501  0.00000000000E+00  0.00000000000E+00  0.10252128244E+04  0.10252128244E+04  0.50400001928E-02 0.  1.
        1   -1    0    0  501    0  0.00000000000E+00  0.00000000000E+00 -0.33404432520E+04  0.33404432520E+04  0.50400001928E-02 0. -1.
    10030    2    1    2    0    0  0.00000000000E+00  0.00000000000E+00 -0.23152304276E+04  0.43656560764E+04  0.37011702263E+04 0.  0.
        4    1    3    3  502    0 -0.26101331879E+03  0.10619680519E+04  0.60331468814E+03  0.12489572938E+04  0.12699999809E+01 0.  1.
       -4    1    3    3    0  502  0.26101331879E+03 -0.10619680519E+04 -0.29185451158E+04  0.31166987826E+04  0.12699999809E+01 0. -1.
</event>
<event>
 5   0  0.2282000E-08  0.3702870E+04  0.7818609E-02  0.8067326E-01
       -1   -1    0    0    0  501  0.00000000000E+00  0.00000000000E+00  0.18000034777E+04  0.18000034778E+04  0.50400001928E-02 0.  1.
        1   -1    0    0  501    0  0.00000000000E+00  0.00000000000E+00 -0.19043363697E+04  0.19043363697E+04  0.50400001928E-02 0. -1.
    10030    2    1    2    0    0  0.00000000000E+00  0.00000000000E+00 -0.10433289195E+03  0.37043398475E+04  0.37028702858E+04 0.  0.
        4    1    3    3  502    0 -0.15720048148E+04 -0.44987104484E+03 -0.92097376724E+03  0.18766399195E+04  0.12699999809E+01 0. -1.
       -4    1    3    3    0  502  0.15720048148E+04  0.44987104484E+03  0.81664087529E+03  0.18276999280E+04  0.12699999809E+01 0.  1.
</event>
<event>
 5   0  0.2282000E-08  0.3699281E+04  0.7818609E-02  0.8068121E-01
       -1   -1    0    0    0  501  0.00000000000E+00  0.00000000000E+00  0.16306861858E+04  0.16306861858E+04  0.50400001928E-02 0.  1.
        1   -1    0    0  501    0  0.00000000000E+00  0.00000000000E+00 -0.20979939654E+04  0.20979939654E+04  0.50400001928E-02 0. -1.
    10030    2    1    2    0    0  0.00000000000E+00  0.00000000000E+00 -0.46730777962E+03  0.37286801512E+04  0.36992808908E+04 0.  0.
        1    1    3    3  502    0  0.68477131290E+02 -0.17626220931E+04 -0.79453287461E+03  0.19346338799E+04  0.50400001928E-02 0. -1.
       -1    1    3    3    0  502 -0.68477131290E+02  0.17626220931E+04  0.32722509499E+03  0.17940462712E+04  0.50400001928E-02 0.  1.
</event>
<event>
 5   0  0.2282000E-08  0.3696513E+04  0.7818609E-02  0.8068735E-01
       -1   -1    0    0    0  501  0.00000000000E+00  0.00000000000E+00  0.21289089248E+04  0.21289089248E+04  0.50400001928E-02 0. -1.
        1   -1    0    0  501    0  0.00000000000E+00  0.00000000000E+00 -0.16046021692E+04  0.16046021692E+04  0.50400001928E-02 0.  1.
    10030    2    1    2    0    0  0.00000000000E+00  0.00000000000E+00  0.52430675553E+03  0.37335110940E+04  0.36965128859E+04 0.  0.
        3    1    3    3  502    0  0.37663434276E+03  0.45636587812E+03  0.20306581736E+04  0.21151113141E+04  0.10100000352E+00 0. -1.
       -3    1    3    3    0  502 -0.37663434276E+03 -0.45636587812E+03 -0.15063514180E+04  0.16183997799E+04  0.10100000352E+00 0.  1.
</event>
<event>
 5   0  0.2282000E-08  0.3701911E+04  0.7818609E-02  0.8067538E-01
        1   -1    0    0  501    0  0.00000000000E+00  0.00000000000E+00  0.11063320051E+04  0.11063320051E+04  0.50400001928E-02 0. -1.
       -1   -1    0    0    0  501  0.00000000000E+00  0.00000000000E+00 -0.30967524030E+04  0.30967524030E+04  0.50400001928E-02 0.  1.
    10030    2    1    2    0    0  0.00000000000E+00  0.00000000000E+00 -0.19904203978E+04  0.42030844081E+04  0.37019110175E+04 0.  0.
        4    1    3    3  502    0 -0.10380770427E+04 -0.87099675163E+03 -0.24267807425E+04  0.27794793888E+04  0.12699999809E+01 0.  1.
       -4    1    3    3    0  502  0.10380770427E+04  0.87099675163E+03  0.43636034461E+03  0.14236050193E+04  0.12699999809E+01 0. -1.
</event>
<event>
 5   0  0.7191801E-08  0.3676021E+04  0.7818609E-02  0.8073297E-01
        2   -1    0    0  501    0  0.00000000000E+00  0.00000000000E+00  0.22166231475E+04  0.22166231475E+04  0.25500000920E-02 0.  1.
       -2   -1    0    0    0  501  0.00000000000E+00  0.00000000000E+00 -0.15240669627E+04  0.15240669627E+04  0.25500000920E-02 0. -1.
    10030    2    1    2    0    0  0.00000000000E+00  0.00000000000E+00  0.69255618482E+03  0.37406901102E+04  0.36760207333E+04 0.  0.
        5    1    3    3  502    0  0.71927085696E+03 -0.16877751258E+04  0.23330896033E+03  0.18494298045E+04  0.46999998093E+01 0. -1.
       -5    1    3    3    0  502 -0.71927085696E+03  0.16877751258E+04  0.45924722449E+03  0.18912603057E+04  0.46999998093E+01 0.  1.
</event>
<event>
 5   0  0.2282000E-08  0.3698651E+04  0.7818609E-02  0.8068261E-01
        1   -1    0    0  501    0  0.00000000000E+00  0.00000000000E+00  0.20131345207E+04  0.20131345207E+04  0.50400001928E-02 0. -1.
       -1   -1    0    0    0  501  0.00000000000E+00  0.00000000000E+00 -0.16988460088E+04  0.16988460088E+04  0.50400001928E-02 0.  1.
    10030    2    1    2    0    0  0.00000000000E+00  0.00000000000E+00  0.31428851193E+03  0.37119805295E+04  0.36986514005E+04 0.  0.
        2    1    3    3  502    0 -0.83153291516E+03 -0.16102470095E+04 -0.21250786042E+03  0.18246923060E+04  0.25500000920E-02 0.  1.
       -2    1    3    3    0  502  0.83153291516E+03  0.16102470095E+04  0.52679637235E+03  0.18872882235E+04  0.25500000920E-02 0. -1.
</event>
<event>
 5   0  0.2282000E-08  0.3701822E+04  0.7818609E-02  0.8067558E-01
       -1   -1    0    0    0  501  0.00000000000E+00  0.00000000000E+00  0.15229227513E+04  0.15229227513E+04  0.50400001928E-02 0. -1.
        1   -1    0    0  501    0  0.00000000000E+00  0.00000000000E+00 -0.22495368780E+04  0.22495368780E+04  0.50400001928E-02 0.  1.
    10030    2    1    2    0    0  0.00000000000E+00  0.00000000000E+00 -0.72661412671E+03  0.37724596293E+04  0.37018216550E+04 0.  0.
        3    1    3    3  502    0 -0.61913312459E+03 -0.14860892442E+03 -0.21344176763E+04  0.22273637479E+04  0.10100000352E+00 0.  1.
       -3    1    3    3    0  502  0.61913312459E+03  0.14860892442E+03  0.14078035496E+04  0.15450958814E+04  0.10100000352E+00 0. -1.
</event>
<event>
 5   0  0.2282000E-08  0.3702648E+04  0.7818609E-02  0.8067375E-01
       -1   -1    0    0    0  501  0.00000000000E+00  0.00000000000E+00  0.13804071095E+04  0.13804071095E+04  0.50400001928E-02 0. -1.
        1   -1    0    0  501    0  0.00000000000E+00  0.00000000000E+00 -0.24828905049E+04  0.24828905049E+04  0.50400001928E-02 0.  1.
    10030    2    1    2    0    0  0.00000000000E+00  0.00000000000E+00 -0.11024833954E+04  0.38632976144E+04  0.37026475420E+04 0.  0.
        2    1    3    3  502    0  0.31333374584E+03 -0.10075609500E+04 -0.21384410138E+04  0.23845936915E+04  0.25500000920E-02 0.  1.
       -2    1    3    3    0  502 -0.31333374584E+03  0.10075609500E+04  0.10359576184E+04  0.14787039229E+04  0.25500000920E-02 0. -1.
</event>
<event>
 5   0  0.7362817E-08  0.3696405E+04  0.7818609E-02  0.8068759E-01
       -2   -1    0    0    0  501  0.00000000000E+00  0.00000000000E+00  0.34538473723E+04  0.34538473723E+04  0.25500000920E-02 0.  1.
        2   -1    0    0  501    0  0.00000000000E+00  0.00000000000E+00 -0.98899900629E+03  0.98899900629E+03  0.25500000920E-02 0. -1.
    10030    2    1    2    0    0  0.00000000000E+00  0.00000000000E+00  0.24648483660E+04  0.44428463786E+04  0.36964045337E+04 0.  0.
        1    1    3    3  502    0  0.29981436240E+02  0.24711348106E+03  0.34336067184E+04  0.34426180525E+04  0.50400001928E-02 0.  1.
       -1    1    3    3    0  502 -0.29981436240E+02 -0.24711348106E+03 -0.96875835234E+03  0.10002283261E+04  0.50400001928E-02 0. -1.
</event>
<event>
 5   0  0.2282000E-08  0.3721323E+04  0.7818609E-02  0.8063253E-01
        1   -1    0    0  501    0  0.00000000000E+00  0.00000000000E+00  0.12584699621E+04  0.12584699622E+04  0.50400001928E-02 0.  1.
       -1   -1    0    0    0  501  0.00000000000E+00  0.00000000000E+00 -0.27510089116E+04  0.27510089116E+04  0.50400001928E-02 0. -1.
    10030    2    1    2    0    0  0.00000000000E+00  0.00000000000E+00 -0.14925389495E+04  0.40094788738E+04  0.37213234640E+04 0.  0.
        1    1    3    3  502    0 -0.95239829979E+02 -0.18453813773E+04 -0.51130240919E+03  0.19172723350E+04  0.50400001928E-02 0. -1.
       -1    1    3    3    0  502  0.95239829979E+02  0.18453813773E+04 -0.98123654030E+03  0.20922065388E+04  0.50400001928E-02 0.  1.
</event>
<event>
 5   0  0.7309833E-08  0.3703699E+04  0.7818609E-02  0.8067143E-01
        2   -1    0    0  501    0  0.00000000000E+00  0.00000000000E+00  0.10547496059E+04  0.10547496059E+04  0.25500000920E-02 0.  1.
       -2   -1    0    0    0  501  0.00000000000E+00  0.00000000000E+00 -0.32513363009E+04  0.32513363009E+04  0.25500000920E-02 0. -1.
    10030    2    1    2    0    0  0.00000000000E+00  0.00000000000E+00 -0.21965866950E+04  0.43060859068E+04  0.37036985201E+04 0.  0.
        2    1    3    3  502    0  0.54843866849E+03 -0.17281826836E+04 -0.66025956878E+03  0.19295966053E+04  0.25500000920E-02 0. -1.
       -2    1    3    3    0  502 -0.54843866849E+03  0.17281826836E+04 -0.15363271263E+04  0.23764893015E+04  0.25500000920E-02 0.  1.
</event>
<event>
 5   0  0.2282000E-08  0.3698569E+04  0.7818609E-02  0.8068279E-01
        3   -1    0    0  501    0  0.00000000000E+00  0.00000000000E+00  0.26287274638E+04  0.26287274658E+04  0.10100000352E+00 0. -1.
       -3   -1    0    0    0  501  0.00000000000E+00  0.00000000000E+00 -0.13009539636E+04  0.13009539675E+04  0.10100000352E+00 0.  1.
    10030    2    1    2    0    0  0.00000000000E+00  0.00000000000E+00  0.13277735002E+04  0.39296814333E+04  0.36985691422E+04 0.  0.
        5    1    3    3  502    0  0.11045407111E+04 -0.11807802230E+04 -0.28973847364E+03  0.16426267350E+04  0.46999998093E+01 0.  1.
       -5    1    3    3    0  502 -0.11045407111E+04  0.11807802230E+04  0.16175119739E+04  0.22870546983E+04  0.46999998093E+01 0. -1.
</event>
<event>
 5   0  0.2282000E-08  0.3700350E+04  0.7818609E-02  0.8067884E-01
       -1   -1    0    0    0  501  0.00000000000E+00  0.00000000000E+00  0.30494682031E+04  0.30494682031E+04  0.50400001928E-02 0. -1.
        1   -1    0    0  501    0  0.00000000000E+00  0.00000000000E+00 -0.11225394725E+04  0.11225394726E+04  0.50400001928E-02 0.  1.
    10030    2    1    2    0    0  0.00000000000E+00  0.00000000000E+00  0.19269287305E+04  0.41720076756E+04  0.37003504851E+04 0.  0.
        1    1    3    3  502    0 -0.13036768913E+04  0.10890457620E+04  0.13683007654E+03  0.17042055564E+04  0.50400001928E-02 0.  1.
       -1    1    3    3    0  502  0.13036768913E+04 -0.10890457620E+04  0.17900986540E+04  0.24678021192E+04  0.50400001928E-02 0. -1.
</event>
<event>
 5   0  0.2282000E-08  0.3693342E+04  0.7818609E-02  0.8069439E-01
       -1   -1    0    0    0  501  0.00000000000E+00  0.00000000000E+00  0.18146161267E+04  0.18146161267E+04  0.50400001928E-02 0.  1.
        1   -1    0    0  501    0  0.00000000000E+00  0.00000000000E+00 -0.18792921818E+04  0.18792921818E+04  0.50400001928E-02 0. -1.
    10030    2    1    2    0    0  0.00000000000E+00  0.00000000000E+00 -0.64676055131E+02  0.36939083085E+04  0.36933420637E+04 0.  0.
        3    1    3    3  502    0  0.80542693778E+03  0.55741600542E+03 -0.15980711694E+04  0.18743683277E+04  0.10100000352E+00 0. -1.
       -3    1    3    3    0  502 -0.80542693778E+03 -0.55741600542E+03  0.15333951143E+04  0.18195399808E+04  0.10100000352E+00 0.  1.
</event>
<event>
 5   0  0.7254493E-08  0.3647031E+04  0.7818609E-02  0.8079803E-01
        2   -1    0    0  501    0  0.00000000000E+00  0.00000000000E+00  0.16356811290E+04  0.16356811290E+04  0.25500000920E-02 0.  1.
       -2   -1    0    0    0  501  0.00000000000E+00  0.00000000000E+00 -0.20329195745E+04  0.20329195745E+04  0.25500000920E-02 0. -1.
    10030    2    1    2    0    0  0.00000000000E+00  0.00000000000E+00 -0.39723844555E+03  0.36686007035E+04  0.36470306742E+04 0.  0.
        3    1    3    3  502    0 -0.25334499893E+03 -0.41833086823E+03 -0.19657173329E+04  0.20256428725E+04  0.10100000352E+00 0. -1.
       -3    1    3    3    0  502  0.25334499893E+03  0.41833086823E+03  0.15684788874E+04  0.16429578309E+04  0.10100000352E+00 0.  1.
</event>
<event>
 5   0  0.7203049E-08  0.3703262E+04  0.7818609E-02  0.8067239E-01
        2   -1    0    0  501    0  0.00000000000E+00  0.00000000000E+00  0.23024427352E+04  0.23024427353E+04  0.25500000920E-02 0.  1.
       -2   -1    0    0    0  501  0.00000000000E+00  0.00000000000E+00 -0.14890868169E+04  0.14890868169E+04  0.25500000920E-02 0. -1.
    10030    2    1    2    0    0  0.00000000000E+00  0.00000000000E+00  0.81335591835E+03  0.37915295522E+04  0.37032618723E+04 0.  0.
        4    1    3    3  502    0  0.83061082318E+03 -0.24302516317E+03  0.20826306682E+04  0.22552888246E+04  0.12699999809E+01 0.  1.
       -4    1    3    3    0  502 -0.83061082318E+03  0.24302516317E+03 -0.12692747498E+04  0.15362407275E+04  0.12699999809E+01 0. -1.
</event>
<event>
 5   0  0.2282000E-08  0.3698566E+04  0.7818609E-02  0.8068280E-01
       -1   -1    0    0    0  501  0.00000000000E+00  0.00000000000E+00  0.25628452313E+04  0.25628452313E+04  0.50400001928E-02 0.  1.
        1   -1    0    0  501    0  0.00000000000E+00  0.00000000000E+00 -0.13343950140E+04  0.13343950140E+04  0.50400001928E-02 0. -1.
    10030    2    1    2    0    0  0.00000000000E+00  0.00000000000E+00  0.12284502172E+04  0.38972402453E+04  0.36985661537E+04 0.  0.
        1    1    3    3  502    0 -0.12840200833E+04  0.50686592078E+03  0.19108648195E+04  0.23573342984E+04  0.50400001928E-02 0.  1.
       -1    1    3    3    0  502  0.12840200833E+04 -0.50686592078E+03 -0.68241460231E+03  0.15399059469E+04  0.50400001928E-02 0. -1.
</event>
<event>
 5   0  0.2282000E-08  0.3705438E+04  0.7818609E-02  0.8066758E-01
        1   -1    0    0  501    0  0.00000000000E+00  0.00000000000E+00  0.14252261029E+04  0.14252261029E+04  0.50400001928E-02 0.  1.
       -1   -1    0    0    0  501  0.00000000000E+00  0.00000000000E+00 -0.24084374920E+04  0.24084374920E+04  0.50400001928E-02 0. -1.
    10030    2    1    2    0    0  0.00000000000E+00  0.00000000000E+00 -0.98321138904E+03  0.38336635949E+04  0.37054381554E+04 0.  0.
        5    1    3    3  502    0 -0.18060789730E+04 -0.24496892767E+03 -0.14750847298E+03  0.18285819292E+04  0.46999998093E+01 0.  1.
       -5    1    3    3    0  502  0.18060789730E+04  0.24496892767E+03 -0.83570291606E+03  0.20050816657E+04  0.46999998093E+01 0. -1.
</event>
<event>
 5   0  0.7254493E-08  0.3702614E+04  0.7818609E-02  0.8067383E-01
       -2   -1    0    0    0  501  0.00000000000E+00  0.00000000000E+00  0.12989976403E+04  0.12989976403E+04  0.25500000920E-02 0.  1.
        2   -1    0    0  501    0  0.00000000000E+00  0.00000000000E+00 -0.26384480183E+04  0.26384480183E+04  0.25500000920E-02 0. -1.
    10030    2    1    2    0    0  0.00000000000E+00  0.00000000000E+00 -0.13394503780E+04  0.39374456587E+04  0.37026140765E+04 0.  0.
        3    1    3    3  502    0  0.17217840243E+04 -0.34063867568E+03 -0.12959386220E+04  0.21817497235E+04  0.10100000352E+00 0. -1.
       -3    1    3    3    0  502 -0.17217840243E+04  0.34063867568E+03 -0.43511756000E+02  0.17556959352E+04  0.10100000352E+00 0.  1.
</event>
<event>
 5   0  0.2282000E-08  0.3694403E+04  0.7818609E-02  0.8069203E-01
        1   -1    0    0  501    0  0.00000000000E+00  0.00000000000E+00  0.18282315557E+04  0.18282315557E+04  0.50400001928E-02 0.  1.
       -1   -1    0    0    0  501  0.00000000000E+00  0.00000000000E+00 -0.18663682706E+04  0.18663682706E+04  0.50400001928E-02 0. -1.
    10030    2    1    2    0    0  0.00000000000E+00  0.00000000000E+00 -0.38136714920E+02  0.36945998264E+04  0.36944029921E+04 0.  0.
        4    1    3    3  502    0  0.13409800586E+04 -0.36380418933E+03  0.11981944022E+04  0.18347349792E+04  0.12699999809E+01 0.  1.
       -4    1    3    3    0  502 -0.13409800586E+04  0.36380418933E+03 -0.12363311171E+04  0.18598648472E+04  0.12699999809E+01 0. -1.
</event>
<event>
 5   0  0.7254493E-08  0.3684823E+04  0.7818609E-02  0.8071334E-01
        2   -1    0    0  501    0  0.00000000000E+00  0.00000000000E+00  0.17059232139E+04  0.17059232139E+04  0.25500000920E-02 0. -1.
       -2   -1    0    0    0  501  0.00000000000E+00  0.00000000000E+00 -0.19898197132E+04  0.19898197132E+04  0.25500000920E-02 0.  1.
    10030    2    1    2    0    0  0.00000000000E+00  0.00000000000E+00 -0.28389649925E+03  0.36957429271E+04  0.36848227313E+04 0.  0.
        3    1    3    3  502    0  0.10498413430E+04 -0.70695534763E+03  0.12008723597E+04  0.17447197894E+04  0.10100000352E+00 0. -1.
       -3    1    3    3    0  502 -0.10498413430E+04  0.70695534763E+03 -0.14847688590E+04  0.19510231377E+04  0.10100000352E+00 0.  1.
</event>
<event>
 5   0  0.2282000E-08  0.3699929E+04  0.7818609E-02  0.8067978E-01
        3   -1    0    0  501    0  0.00000000000E+00  0.00000000000E+00  0.20430161571E+04  0.20430161596E+04  0.10100000352E+00 0. -1.
       -3   -1    0    0    0  501  0.00000000000E+00  0.00000000000E+00 -0.16751550807E+04  0.16751550837E+04  0.10100000352E+00 0.  1.
    10030    2    1    2    0    0  0.00000000000E+00  0.00000000000E+00  0.36786107644E+03  0.37181712434E+04  0.36999291376E+04 0.  0.
        3    1    3    3  502    0  0.94085107782E+03 -0.15743103656E+04  0.42743704980E+03  0.18831771876E+04  0.10100000352E+00 0. -1.
       -3    1    3    3    0  502 -0.94085107782E+03  0.15743103656E+04 -0.59575973353E+02  0.18349940558E+04  0.10100000352E+00 0.  1.
</event>
<event>
 5   0  0.2282000E-08  0.3682271E+04  0.7818609E-02  0.8071902E-01
        1   -1    0    0  501    0  0.00000000000E+00  0.00000000000E+00  0.23479467587E+04  0.23479467587E+04  0.50400001928E-02 0. -1.
       -1   -1    0    0    0  501  0.00000000000E+00  0.00000000000E+00 -0.14437206647E+04  0.14437206647E+04  0.50400001928E-02 0.  1.
    10030    2    1    2    0    0  0.00000000000E+00  0.00000000000E+00  0.90422609394E+03  0.37916674234E+04  0.36822706338E+04 0.  0.
        2    1    3    3  502    0  0.57193229141E+03 -0.20079907778E+03  0.22422534149E+04  0.23227413098E+04  0.25500000920E-02 0. -1.
       -2    1    3    3    0  502 -0.57193229141E+03  0.20079907778E+03 -0.13380273210E+04  0.14689261136E+04  0.25500000920E-02 0.  1.
</event>
<event>
 5   0  0.7191801E-08  0.3697246E+04  0.7818609E-02  0.8068572E-01
       -2   -1    0    0    0  501  0.00000000000E+00  0.00000000000E+00  0.12185606684E+04  0.12185606684E+04  0.25500000920E-02 0. -1.
        2   -1    0    0  501    0  0.00000000000E+00  0.00000000000E+00 -0.28044624695E+04  0.28044624695E+04  0.25500000920E-02 0.  1.
    10030    2    1    2    0    0  0.00000000000E+00  0.00000000000E+00 -0.15859018010E+04  0.40230231379E+04  0.36972463599E+04 0.  0.
        5    1    3    3  502    0 -0.31201058080E+03  0.13921531231E+04  0.48619317859E+03  0.15072646806E+04  0.46999998093E+01 0. -1.
       -5    1    3    3    0  502  0.31201058080E+03 -0.13921531231E+04 -0.20720949796E+04  0.25157584572E+04  0.46999998093E+01 0.  1.
</event>
<event>
 5   0  0.2282000E-08  0.3703682E+04  0.7818609E-02  0.8067146E-01
        1   -1    0    0  501    0  0.00000000000E+00  0.00000000000E+00  0.15333666440E+04  0.15333666440E+04  0.50400001928E-02 0. -1.
       -1   -1    0    0    0  501  0.00000000000E+00  0.00000000000E+00 -0.22364609494E+04  0.22364609494E+04  0.50400001928E-02 0.  1.
    10030    2    1    2    0    0  0.00000000000E+00  0.00000000000E+00 -0.70309430543E+03  0.37698275934E+04  0.37036817468E+04 0.  0.
        1    1    3    3  502    0 -0.83809485759E+03  0.14292965812E+04  0.49028043238E+03  0.17279081601E+04  0.50400001928E-02 0. -1.
       -1    1    3    3    0  502  0.83809485759E+03 -0.14292965812E+04 -0.11933747378E+04  0.20419194333E+04  0.50400001928E-02 0.  1.
</event>
<event>
 5   0  0.2282000E-08  0.3696455E+04  0.7818609E-02  0.8068748E-01
       -1   -1    0    0    0  501  0.00000000000E+00  0.00000000000E+00  0.24278248191E+04  0.24278248191E+04  0.50400001928E-02 0.  1.
        1   -1    0    0  501    0  0.00000000000E+00  0.00000000000E+00 -0.14069982939E+04  0.14069982939E+04  0.50400001928E-02 0. -1.
    10030    2    1    2    0    0  0.00000000000E+00  0.00000000000E+00  0.10208265253E+04  0.38348231130E+04  0.36964552633E+04 0.  0.
        1    1    3    3  502    0  0.62622642727E+03  0.16421191190E+04 -0.83040465065E+02  0.17594346984E+04  0.50400001928E-02 0. -1.
       -1    1    3    3    0  502 -0.62622642727E+03 -0.16421191190E+04  0.11038669903E+04  0.20753884146E+04  0.50400001928E-02 0.  1.
</event>
<event>
 5   0  0.7254493E-08  0.3697122E+04  0.7818609E-02  0.8068600E-01
       -2   -1    0    0    0  501  0.00000000000E+00  0.00000000000E+00  0.17460605622E+04  0.17460605622E+04  0.25500000920E-02 0. -1.
        2   -1    0    0  501    0  0.00000000000E+00  0.00000000000E+00 -0.19570782134E+04  0.19570782134E+04  0.25500000920E-02 0.  1.
    10030    2    1    2    0    0  0.00000000000E+00  0.00000000000E+00 -0.21101765123E+03  0.37031387756E+04  0.36971216294E+04 0.  0.
        3    1    3    3  502    0 -0.27048032465E+03  0.15940722010E+04 -0.10030427000E+04  0.19027139712E+04  0.10100000352E+00 0. -1.
       -3    1    3    3    0  502  0.27048032465E+03 -0.15940722010E+04  0.79202504881E+03  0.18004248044E+04  0.10100000352E+00 0.  1.
</event>
<event>
 5   0  0.2282000E-08  0.3680819E+04  0.7818609E-02  0.8072226E-01
       -1   -1    0    0    0  501  0.00000000000E+00  0.00000000000E+00  0.20117330828E+04  0.20117330828E+04  0.50400001928E-02 0.  1.
        1   -1    0    0  501    0  0.00000000000E+00  0.00000000000E+00 -0.16836762677E+04  0.16836762677E+04  0.50400001928E-02 0. -1.
    10030    2    1    2    0    0  0.00000000000E+00  0.00000000000E+00  0.32805681510E+03  0.36954093505E+04  0.36808190656E+04 0.  0.
        4    1    3    3  502    0 -0.64629505539E+03 -0.10771069446E+04 -0.11863865829E+04  0.17278227356E+04  0.12699999809E+01 0. -1.
       -4    1    3    3    0  502  0.64629505539E+03  0.10771069446E+04  0.15144433980E+04  0.19675866149E+04  0.12699999809E+01 0.  1.
</event>
<event>
 5   0  0.2282000E-08  0.3699665E+04  0.7818609E-02  0.8068036E-01
        1   -1    0    0  501    0  0.00000000000E+00  0.00000000000E+00  0.14776205995E+04  0.14776205995E+04  0.50400001928E-02 0. -1.
       -1   -1    0    0    0  501  0.00000000000E+00  0.00000000000E+00 -0.23158039985E+04  0.23158039985E+04  0.50400001928E-02 0.  1.
    10030    2    1    2    0    0  0.00000000000E+00  0.00000000000E+00 -0.83818339892E+03  0.37934245980E+04  0.36996646835E+04 0.  0.
        1    1    3    3  502    0  0.24808110709E+03  0.13231683985E+04  0.88174503231E+03  0.16092834270E+04  0.50400001928E-02 0. -1.
       -1    1    3    3    0  502 -0.24808110709E+03 -0.13231683985E+04 -0.17199284312E+04  0.21841411710E+04  0.50400001928E-02 0.  1.
</event>
<event>
 5   0  0.7191801E-08  0.3700392E+04  0.7818609E-02  0.8067875E-01
        2   -1    0    0  501    0  0.00000000000E+00  0.00000000000E+00  0.25647393961E+04  0.25647393961E+04  0.25500000920E-02 0. -1.
       -2   -1    0    0    0  501  0.00000000000E+00  0.00000000000E+00 -0.13347263634E+04  0.13347263634E+04  0.25500000920E-02 0.  1.
    10030    2    1    2    0    0  0.00000000000E+00  0.00000000000E+00  0.12300130327E+04  0.38994657595E+04  0.37003920264E+04 0.  0.
        5    1    3    3  502    0 -0.42773058168E+03 -0.94663603335E+03  0.22284294217E+04  0.24586567486E+04  0.46999998093E+01 0. -1.
       -5    1    3    3    0  502  0.42773058168E+03  0.94663603335E+03 -0.99841638898E+03  0.14408090109E+04  0.46999998093E+01 0.  1.
</event>
<event>
 5   0  0.2282000E-08  0.3695329E+04  0.7818609E-02  0.8068998E-01
       -1   -1    0    0    0  501  0.00000000000E+00  0.00000000000E+00  0.16010155611E+04  0.16010155611E+04  0.50400001928E-02 0.  1.
        1   -1    0    0  501    0  0.00000000000E+00  0.00000000000E+00 -0.21323115243E+04  0.21323115243E+04  0.50400001928E-02 0. -1.
    10030    2    1    2    0    0  0.00000000000E+00  0.00000000000E+00 -0.53129596321E+03  0.37333270855E+04  0.36953289064E+04 0.  0.
        5    1    3    3  502    0 -0.17998584081E+04 -0.38492781470E+03 -0.42912075474E+03  0.18899276239E+04  0.46999998093E+01 0. -1.
       -5    1    3    3    0  502  0.17998584081E+04  0.38492781470E+03 -0.10217520847E+03  0.18433994615E+04  0.46999998093E+01 0.  1.
</event>
<event>
 5   0  0.7254493E-08  0.3669315E+04  0.7818609E-02  0.8074796E-01
       -2   -1    0    0    0  501  0.00000000000E+00  0.00000000000E+00  0.22044398153E+04  0.22044398153E+04  0.25500000920E-02 0.  1.
        2   -1    0    0  501    0  0.00000000000E+00  0.00000000000E+00 -0.15269038339E+04  0.15269038339E+04  0.25500000920E-02 0. -1.
    10030    2    1    2    0    0  0.00000000000E+00  0.00000000000E+00  0.67753598141E+03  0.37313436491E+04  0.36693147074E+04 0.  0.
        3    1    3    3  502    0 -0.82731051190E+03  0.10052590192E+04  0.16532837921E+04  0.21043611111E+04  0.10100000352E+00 0.  1.
       -3    1    3    3    0  502  0.82731051190E+03 -0.10052590192E+04 -0.97574781066E+03  0.16269825380E+04  0.10100000352E+00 0. -1.
</event>
<event>
 5   0  0.2282000E-08  0.3699256E+04  0.7818609E-02  0.8068127E-01
       -1   -1    0    0    0  501  0.00000000000E+00  0.00000000000E+00  0.20003006216E+04  0.20003006217E+04  0.50400001928E-02 0.  1.
        1   -1    0    0  501    0  0.00000000000E+00  0.00000000000E+00 -0.17103051228E+04  0.17103051228E+04  0.50400001928E-02 0. -1.
    10030    2    1    2    0    0  0.00000000000E+00  0.00000000000E+00  0.28999549882E+03  0.37106057445E+04  0.36992563579E+04 0.  0.
        2    1    3    3  502    0 -0.27859065889E+03  0.18190176836E+04  0.33181176098E+03  0.18699029743E+04  0.25500000920E-02 0. -1.
       -2    1    3    3    0  502  0.27859065889E+03 -0.18190176836E+04 -0.41816262156E+02  0.18407027702E+04  0.25500000920E-02 0.  1.
</event>
<event>
 5   0  0.2282000E-08  0.3696398E+04  0.7818609E-02  0.8068760E-01
        1   -1    0    0  501    0  0.00000000000E+00  0.00000000000E+00  0.23535885580E+04  0.23535885580E+04  0.50400001928E-02 0. -1.
       -1   -1    0    0    0  501  0.00000000000E+00  0.00000000000E+00 -0.14513326655E+04  0.14513326655E+04  0.50400001928E-02 0.  1.
    10030    2    1    2    0    0  0.00000000000E+00  0.00000000000E+00  0.90225589255E+03  0.38049212235E+04  0.36963982228E+04 0.  0.
        4    1    3    3  502    0 -0.71626073507E+03 -0.92513271225E+03 -0.10215890535E+04  0.15532371947E+04  0.12699999809E+01 0.  1.
       -4    1    3    3    0  502  0.71626073507E+03  0.92513271225E+03  0.19238449461E+04  0.22516840288E+04  0.12699999809E+01 0. -1.
</event>
<event>
 5   0  0.2282000E-08  0.3699930E+04  0.7818609E-02  0.8067977E-01
        1   -1    0    0  501    0  0.00000000000E+00  0.00000000000E+00  0.16921345033E+04  0.16921345034E+04  0.50400001928E-02 0. -1.
       -1   -1    0    0    0  501  0.00000000000E+00  0.00000000000E+00 -0.20225166390E+04  0.20225166390E+04  0.50400001928E-02 0.  1.
    10030    2    1    2    0    0  0.00000000000E+00  0.00000000000E+00 -0.33038213569E+03  0.37146511424E+04  0.36999298310E+04 0.  0.
        1    1    3    3  502    0 -0.60474830116E+03 -0.12883673239E+04  0.10213569955E+04  0.17517936469E+04  0.50400001928E-02 0. -1.
       -1    1    3    3    0  502  0.60474830116E+03  0.12883673239E+04 -0.13517391312E+04  0.19628574955E+04  0.50400001928E-02 0.  1.
</event>
<event>
 5   0  0.2282000E-08  0.3703834E+04  0.7818609E-02  0.8067113E-01
       -1   -1    0    0    0  501  0.00000000000E+00  0.00000000000E+00  0.27707810975E+04  0.27707810975E+04  0.50400001928E-02 0.  1.
        1   -1    0    0  501    0  0.00000000000E+00  0.00000000000E+00 -0.12377722980E+04  0.12377722980E+04  0.50400001928E-02 0. -1.
    10030    2    1    2    0    0  0.00000000000E+00  0.00000000000E+00  0.15330087995E+04  0.40085533955E+04  0.37038337361E+04 0.  0.
        4    1    3    3  502    0  0.13347931621E+04 -0.10645328025E+04  0.15429476700E+04  0.23012153308E+04  0.12699999809E+01 0.  1.
       -4    1    3    3    0  502 -0.13347931621E+04  0.10645328025E+04 -0.99388705049E+01  0.17073380647E+04  0.12699999809E+01 0. -1.
</event>
<event>
 5   0  0.7309833E-08  0.3703310E+04  0.7818609E-02  0.8067229E-01
        2   -1    0    0  501    0  0.00000000000E+00  0.00000000000E+00  0.18590253439E+04  0.18590253439E+04  0.25500000920E-02 0.  1.
       -2   -1    0    0    0  501  0.00000000000E+00  0.00000000000E+00 -0.18443140419E+04  0.18443140419E+04  0.25500000920E-02 0. -1.
    10030    2    1    2    0    0  0.00000000000E+00  0.00000000000E+00  0.14711301995E+02  0.37033393858E+04  0.37033101658E+04 0.  0.
        2    1    3    3  502    0  0.58599856146E+01 -0.17556276411E+04 -0.58117579088E+03  0.18493317857E+04  0.25500000920E-02 0. -1.
       -2    1    3    3    0  502 -0.58599856146E+01  0.17556276411E+04  0.59588709287E+03  0.18540076001E+04  0.25500000920E-02 0.  1.
</event>
<event>
 5   0  0.7362817E-08  0.3687577E+04  0.7818609E-02  0.8070721E-01
       -2   -1    0    0    0  501  0.00000000000E+00  0.00000000000E+00  0.17778841945E+04  0.17778841945E+04  0.25500000920E-02 0. -1.
        2   -1    0    0  501    0  0.00000000000E+00  0.00000000000E+00 -0.19121357671E+04  0.19121357671E+04  0.25500000920E-02 0.  1.
    10030    2    1    2    0    0  0.00000000000E+00  0.00000000000E+00 -0.13425157257E+03  0.36900199616E+04  0.36875769595E+04 0.  0.
        1    1    3    3  502    0 -0.77195232498E+03 -0.60625888264E+03 -0.16289595181E+04  0.19018331516E+04  0.50400001928E-02 0.  1.
       -1    1    3    3    0  502  0.77195232498E+03  0.60625888264E+03  0.14947079455E+04  0.17881868100E+04  0.50400001928E-02 0. -1.
</event>
<event>
 5   0  0.7254493E-08  0.3696495E+04  0.7818609E-02  0.8068739E-01
       -2   -1    0    0    0  501  0.00000000000E+00  0.00000000000E+00  0.26004382304E+04  0.26004382304E+04  0.25500000920E-02 0.  1.
        2   -1    0    0  501    0  0.00000000000E+00  0.00000000000E+00 -0.13136317590E+04  0.13136317590E+04  0.25500000920E-02 0. -1.
    10030    2    1    2    0    0  0.00000000000E+00  0.00000000000E+00  0.12868064715E+04  0.39140699894E+04  0.36964946891E+04 0.  0.
        3    1    3    3  502    0 -0.11461881956E+04  0.53652550950E+03 -0.78288192504E+03  0.14881233554E+04  0.10100000352E+00 0. -1.
       -3    1    3    3    0  502  0.11461881956E+04 -0.53652550950E+03  0.20696883965E+04  0.24259466340E+04  0.10100000352E+00 0.  1.
</event>
<event>
 5   0  0.7362817E-08  0.3708250E+04  0.7818609E-02  0.8066136E-01
        2   -1    0    0  501    0  0.00000000000E+00  0.00000000000E+00  0.20521159362E+04  0.20521159362E+04  0.25500000920E-02 0. -1.
       -2   -1    0    0    0  501  0.00000000000E+00  0.00000000000E+00 -0.16752368011E+04  0.16752368011E+04  0.25500000920E-02 0.  1.
    10030    2    1    2    0    0  0.00000000000E+00  0.00000000000E+00  0.37687913511E+03  0.37273527372E+04  0.37082503348E+04 0.  0.
        1    1    3    3  502    0 -0.13701200956E+04 -0.67604546400E+03 -0.86745436066E+03  0.17569130922E+04  0.50400001928E-02 0.  1.
       -1    1    3    3    0  502  0.13701200956E+04  0.67604546400E+03  0.12443334958E+04  0.19704396450E+04  0.50400001928E-02 0. -1.
</event>
<event>
 5   0  0.7203049E-08  0.3689597E+04  0.7818609E-02  0.8070271E-01
       -2   -1    0    0    0  501  0.00000000000E+00  0.00000000000E+00  0.15110082754E+04  0.15110082754E+04  0.25500000920E-02 0.  1.
        2   -1    0    0  501    0  0.00000000000E+00  0.00000000000E+00 -0.22523244752E+04  0.22523244752E+04  0.25500000920E-02 0. -1.
    10030    2    1    2    0    0  0.00000000000E+00  0.00000000000E+00 -0.74131619981E+03  0.37633327507E+04  0.36895966831E+04 0.  0.
        4    1    3    3  502    0  0.63800978500E+02 -0.91983809908E+03 -0.20004351584E+04  0.22027063193E+04  0.12699999809E+01 0. -1.
       -4    1    3    3    0  502 -0.63800978500E+02  0.91983809908E+03  0.12591189586E+04  0.15606264313E+04  0.12699999809E+01 0.  1.
</event>
<event>
 5   0  0.2282000E-08  0.3697276E+04  0.7818609E-02  0.8068566E-01
        1   -1    0    0  501    0  0.00000000000E+00  0.00000000000E+00  0.30923680876E+04  0.30923680876E+04  0.50400001928E-02 0.  1.
       -1   -1    0    0    0  501  0.00000000000E+00  0.00000000000E+00 -0.11051282475E+04  0.11051282475E+04  0.50400001928E-02 0. -1.
    10030    2    1    2    0    0  0.00000000000E+00  0.00000000000E+00  0.19872398401E+04  0.41974963351E+04  0.36972764708E+04 0.  0.
        3    1    3    3  502    0 -0.11380705021E+04  0.13478394197E+04  0.36602941218E+03  0.18016251302E+04  0.10100000352E+00 0. -1.
       -3    1    3    3    0  502  0.11380705021E+04 -0.13478394197E+04  0.16212104280E+04  0.23958712050E+04  0.10100000352E+00 0.  1.
</event>
<event>
 5   0  0.2282000E-08  0.3701428E+04  0.7818609E-02  0.8067645E-01
       -1   -1    0    0    0  501  0.00000000000E+00  0.00000000000E+00  0.24241564755E+04  0.24241564755E+04  0.50400001928E-02 0. -1.
        1   -1    0    0  501    0  0.00000000000E+00  0.00000000000E+00 -0.14129216233E+04  0.14129216233E+04  0.50400001928E-02 0.  1.
    10030    2    1    2    0    0  0.00000000000E+00  0.00000000000E+00  0.10112348522E+04  0.38370780988E+04  0.37014284284E+04 0.  0.
        1    1    3    3  502    0  0.35803254298E+03  0.13602376388E+04  0.17524895893E+04  0.22471434080E+04  0.50400001928E-02 0. -1.
       -1    1    3    3    0  502 -0.35803254298E+03 -0.13602376388E+04 -0.74125473713E+03  0.15899346908E+04  0.50400001928E-02 0.  1.
</event>
<event>
 5   0  0.2282000E-08  0.3649730E+04  0.7818609E-02  0.8079195E-01
        3   -1    0    0  501    0  0.00000000000E+00  0.00000000000E+00  0.10290563188E+04  0.10290563238E+04  0.10100000352E+00 0. -1.
       -3   -1    0    0    0  501  0.00000000000E+00  0.00000000000E+00 -0.32361025968E+04  0.32361025984E+04  0.10100000352E+00 0.  1.
    10030    2    1    2    0    0  0.00000000000E+00  0.00000000000E+00 -0.22070462780E+04  0.42651589222E+04  0.36497297651E+04 0.  0.
        5    1    3    3  502    0 -0.97710959771E+03 -0.10126599130E+02  0.69754629124E+03  0.12005992805E+04  0.46999998093E+01 0. -1.
       -5    1    3    3    0  502  0.97710959771E+03  0.10126599130E+02 -0.29045925692E+04  0.30645596417E+04  0.46999998093E+01 0.  1.
</event>
<event>
 5   0  0.2282000E-08  0.3702074E+04  0.7818609E-02  0.8067502E-01
       -1   -1    0    0    0  501  0.00000000000E+00  0.00000000000E+00  0.25918823813E+04  0.25918823813E+04  0.50400001928E-02 0. -1.
        1   -1    0    0  501    0  0.00000000000E+00  0.00000000000E+00 -0.13219495376E+04  0.13219495376E+04  0.50400001928E-02 0.  1.
    10030    2    1    2    0    0  0.00000000000E+00  0.00000000000E+00  0.12699328438E+04  0.39138319189E+04  0.37020738596E+04 0.  0.
        1    1    3    3  502    0 -0.84700889308E+03  0.15499898098E+04  0.12202057885E+04  0.21468103414E+04  0.50400001928E-02 0. -1.
       -1    1    3    3    0  502  0.84700889308E+03 -0.15499898098E+04  0.49727055260E+02  0.17670215775E+04  0.50400001928E-02 0.  1.
</event>
<event>
 5   0  0.2282000E-08  0.3701359E+04  0.7818609E-02  0.8067661E-01
        1   -1    0    0  501    0  0.00000000000E+00  0.00000000000E+00  0.21345858809E+04  0.21345858809E+04  0.50400001928E-02 0. -1.
       -1   -1    0    0    0  501  0.00000000000E+00  0.00000000000E+00 -0.16045333550E+04  0.16045333550E+04  0.50400001928E-02 0.  1.
    10030    2    1    2    0    0  0.00000000000E+00  0.00000000000E+00  0.53005252592E+03  0.37391192358E+04  0.37013588018E+04 0.  0.
        4    1    3    3  502    0 -0.13662117534E+04 -0.12094658476E+04 -0.47435597361E+02  0.18252654438E+04  0.12699999809E+01 0. -1.
       -4    1    3    3    0  502  0.13662117534E+04  0.12094658476E+04  0.57748812328E+03  0.19138537920E+04  0.12699999809E+01 0.  1.
</event>
<event>
 5   0  0.2282000E-08  0.3698832E+04  0.7818609E-02  0.8068221E-01
       -1   -1    0    0    0  501  0.00000000000E+00  0.00000000000E+00  0.15542161715E+04  0.15542161715E+04  0.50400001928E-02 0.  1.
        1   -1    0    0  501    0  0.00000000000E+00  0.00000000000E+00 -0.22006842980E+04  0.22006842980E+04  0.50400001928E-02 0. -1.
    10030    2    1    2    0    0  0.00000000000E+00  0.00000000000E+00 -0.64646812655E+03  0.37549004695E+04  0.36988317747E+04 0.  0.
        3    1    3    3  502    0 -0.35966490804E+03 -0.12578578872E+04  0.10037818740E+04  0.16489825260E+04  0.10100000352E+00 0.  1.
       -3    1    3    3    0  502  0.35966490804E+03  0.12578578872E+04 -0.16502500005E+04  0.21059179435E+04  0.10100000352E+00 0. -1.
</event>
<event>
 5   0  0.7203049E-08  0.3691651E+04  0.7818609E-02  0.8069815E-01
        2   -1    0    0  501    0  0.00000000000E+00  0.00000000000E+00  0.31458630345E+04  0.31458630345E+04  0.25500000920E-02 0.  1.
       -2   -1    0    0    0  501  0.00000000000E+00  0.00000000000E+00 -0.10830322607E+04  0.10830322607E+04  0.25500000920E-02 0. -1.
    10030    2    1    2    0    0  0.00000000000E+00  0.00000000000E+00  0.20628307738E+04  0.42288952952E+04  0.36916506629E+04 0.  0.
        4    1    3    3  502    0 -0.10377042320E+04 -0.15218781077E+04  0.89526354482E+03  0.20480335630E+04  0.12699999809E+01 0.  1.
       -4    1    3    3    0  502  0.10377042320E+04  0.15218781077E+04  0.11675672289E+04  0.21808617322E+04  0.12699999809E+01 0. -1.
</event>
<event>
 5   0  0.2282000E-08  0.3677383E+04  0.7818609E-02  0.8072993E-01
        1   -1    0    0  501    0  0.00000000000E+00  0.00000000000E+00  0.23148527805E+04  0.23148527805E+04  0.50400001928E-02 0. -1.
       -1   -1    0    0    0  501  0.00000000000E+00  0.00000000000E+00 -0.14604756005E+04  0.14604756005E+04  0.50400001928E-02 0.  1.
    10030    2    1    2    0    0  0.00000000000E+00  0.00000000000E+00  0.85437718001E+03  0.37753283810E+04  0.36773827675E+04 0.  0.
        2    1    3    3  502    0  0.12112848094E+04  0.50302822658E+03 -0.89575177811E+03  0.15882756481E+04  0.25500000920E-02 0.  1.
       -2    1    3    3    0  502 -0.12112848094E+04 -0.50302822658E+03  0.17501289581E+04  0.21870527329E+04  0.25500000920E-02 0. -1.
</event>
<event>
 5   0  0.2282000E-08  0.3701369E+04  0.7818609E-02  0.8067658E-01
        1   -1    0    0  501    0  0.00000000000E+00  0.00000000000E+00  0.23241765510E+04  0.23241765510E+04  0.50400001928E-02 0. -1.
       -1   -1    0    0    0  501  0.00000000000E+00  0.00000000000E+00 -0.14736547748E+04  0.14736547748E+04  0.50400001928E-02 0.  1.
    10030    2    1    2    0    0  0.00000000000E+00  0.00000000000E+00  0.85052177617E+03  0.37978313257E+04  0.37013694070E+04 0.  0.
        3    1    3    3  502    0  0.31661050128E+03 -0.41433433650E+03  0.22472400351E+04  0.23069466699E+04  0.10100000352E+00 0. -1.
       -3    1    3    3    0  502 -0.31661050128E+03  0.41433433650E+03 -0.13967182590E+04  0.14908846559E+04  0.10100000352E+00 0.  1.
</event>
<event>
 5   0  0.7191801E-08  0.3694545E+04  0.7818609E-02  0.8069172E-01
       -2   -1    0    0    0  501  0.00000000000E+00  0.00000000000E+00  0.16063557504E+04  0.16063557504E+04  0.25500000920E-02 0.  1.
        2   -1    0    0  501    0  0.00000000000E+00  0.00000000000E+00 -0.21243209799E+04  0.21243209799E+04  0.25500000920E-02 0. -1.
    10030    2    1    2    0    0  0.00000000000E+00  0.00000000000E+00 -0.51796522949E+03  0.37306767302E+04  0.36945447469E+04 0.  0.
        5    1    3    3  502    0  0.44756249432E+03  0.15782565805E+04 -0.11165152670E+04  0.19843977555E+04  0.46999998093E+01 0. -1.
       -5    1    3    3    0  502 -0.44756249432E+03 -0.15782565805E+04  0.59855003756E+03  0.17462789748E+04  0.46999998093E+01 0.  1.
</event>
<event>
 5   0  0.2282000E-08  0.3695834E+04  0.7818609E-02  0.8068886E-01
        1   -1    0    0  501    0  0.00000000000E+00  0.00000000000E+00  0.11279903518E+04  0.11279903518E+04  0.50400001928E-02 0.  1.
       -1   -1    0    0    0  501  0.00000000000E+00  0.00000000000E+00 -0.30273287687E+04  0.30273287687E+04  0.50400001928E-02 0. -1.
    10030    2    1    2    0    0  0.00000000000E+00  0.00000000000E+00 -0.18993384169E+04  0.41553191205E+04  0.36958342186E+04 0.  0.
        2    1    3    3  502    0  0.12633767768E+04  0.56763877177E+03  0.42571771240E+03  0.14489893809E+04  0.25500000920E-02 0.  1.
       -2    1    3    3    0  502 -0.12633767768E+04 -0.56763877177E+03 -0.23250561293E+04  0.27063297396E+04  0.25500000920E-02 0. -1.
</event>
<event>
 5   0  0.2282000E-08  0.3703824E+04  0.7818609E-02  0.8067115E-01
        1   -1    0    0  501    0  0.00000000000E+00  0.00000000000E+00  0.13252331080E+04  0.13252331080E+04  0.50400001928E-02 0.  1.
       -1   -1    0    0    0  501  0.00000000000E+00  0.00000000000E+00 -0.25879055548E+04  0.25879055548E+04  0.50400001928E-02 0. -1.
    10030    2    1    2    0    0  0.00000000000E+00  0.00000000000E+00 -0.12626724468E+04  0.39131386628E+04  0.37038240356E+04 0.  0.
        5    1    3    3  502    0  0.14215128858E+04 -0.89912360839E+03 -0.14500036070E+04  0.22207329191E+04  0.46999998093E+01 0. -1.
       -5    1    3    3    0  502 -0.14215128858E+04  0.89912360839E+03  0.18733116027E+03  0.16924057437E+04  0.46999998093E+01 0.  1.
</event>
<event>
 5   0  0.2282000E-08  0.3702212E+04  0.7818609E-02  0.8067472E-01
       -1   -1    0    0    0  501  0.00000000000E+00  0.00000000000E+00  0.15615274263E+04  0.15615274263E+04  0.50400001928E-02 0. -1.
        1   -1    0    0  501    0  0.00000000000E+00  0.00000000000E+00 -0.21943855636E+04  0.21943855636E+04  0.50400001928E-02 0.  1.
    10030    2    1    2    0    0  0.00000000000E+00  0.00000000000E+00 -0.63285813739E+03  0.37559129899E+04  0.37022119018E+04 0.  0.
        5    1    3    3  502    0  0.14120327409E+04 -0.11619857841E+04 -0.24992752589E+02  0.18288505000E+04  0.46999998093E+01 0. -1.
       -5    1    3    3    0  502 -0.14120327409E+04  0.11619857841E+04 -0.60786538480E+03  0.19270624899E+04  0.46999998093E+01 0.  1.
</event>
<event>
 5   0  0.7309833E-08  0.3706155E+04  0.7818609E-02  0.8066599E-01
        2   -1    0    0  501    0  0.00000000000E+00  0.00000000000E+00  0.18073046918E+04  0.18073046918E+04  0.25500000920E-02 0.  1.
       -2   -1    0    0    0  501  0.00000000000E+00  0.00000000000E+00 -0.19000092721E+04  0.19000092721E+04  0.25500000920E-02 0. -1.
    10030    2    1    2    0    0  0.00000000000E+00  0.00000000000E+00 -0.92704580314E+02  0.37073139638E+04  0.37061547036E+04 0.  0.
        2    1    3    3  502    0 -0.10976911179E+04  0.90981094289E+03  0.11377467967E+04  0.18240475639E+04  0.25500000920E-02 0.  1.
       -2    1    3    3    0  502  0.10976911179E+04 -0.90981094289E+03 -0.12304513770E+04  0.18832663999E+04  0.25500000920E-02 0. -1.
</event>
<event>
 5   0  0.7309833E-08  0.3693343E+04  0.7818609E-02  0.8069439E-01
       -2   -1    0    0    0  501  0.00000000000E+00  0.00000000000E+00  0.30607795621E+04  0.30607795621E+04  0.25500000920E-02 0. -1.
        2   -1    0    0  501    0  0.00000000000E+00  0.00000000000E+00 -0.11141593843E+04  0.11141593843E+04  0.25500000920E-02 0.  1.
    10030    2    1    2    0    0  0.00000000000E+00  0.00000000000E+00  0.19466201778E+04  0.41749389464E+04  0.36933433485E+04 0.  0.
        2    1    3    3  502    0  0.23952683277E+02  0.15013685170E+03 -0.11070727699E+04  0.11174636115E+04  0.25500000920E-02 0.  1.
       -2    1    3    3    0  502 -0.23952683277E+02 -0.15013685170E+03  0.30536929476E+04  0.30574753349E+04  0.25500000920E-02 0. -1.
</event>
<event>
 5   0  0.7191801E-08  0.3696297E+04  0.7818609E-02  0.8068783E-01
        2   -1    0    0  501    0  0.00000000000E+00  0.00000000000E+00  0.19356120931E+04  0.19356120931E+04  0.25500000920E-02 0.  1.
       -2   -1    0    0    0  501  0.00000000000E+00  0.00000000000E+00 -0.17646375323E+04  0.17646375323E+04  0.25500000920E-02 0. -1.
    10030    2    1    2    0    0  0.00000000000E+00  0.00000000000E+00  0.17097456075E+03  0.37002496254E+04  0.36962974704E+04 0.  0.
        5    1    3    3  502    0 -0.29871939928E+03  0.11361976902E+04  0.15137058238E+04  0.19161173977E+04  0.46999998093E+01 0.  1.
       -5    1    3    3    0  502  0.29871939928E+03 -0.11361976902E+04 -0.13427312631E+04  0.17841322276E+04  0.46999998093E+01 0. -1.
</event>
<event>
 5   0  0.7203049E-08  0.3711368E+04  0.7818609E-02  0.8065447E-01
       -2   -1    0    0    0  501  0.00000000000E+00  0.00000000000E+00  0.13982910268E+04  0.13982910268E+04  0.25500000920E-02 0. -1.
        2   -1    0    0  501    0  0.00000000000E+00  0.00000000000E+00 -0.24626938209E+04  0.24626938209E+04  0.25500000920E-02 0.  1.
    10030    2    1    2    0    0  0.00000000000E+00  0.00000000000E+00 -0.10644027942E+04  0.38609848477E+04  0.37113677649E+04 0.  0.
        4    1    3    3  502    0  0.47905417735E+03  0.17803868533E+03 -0.23880368530E+04  0.24421122625E+04  0.12699999809E+01 0.  1.
       -4    1    3    3    0  502 -0.47905417735E+03 -0.17803868533E+03  0.13236340589E+04  0.14188725852E+04  0.12699999809E+01 0. -1.
</event>
<event>
 5   0  0.2282000E-08  0.3702473E+04  0.7818609E-02  0.8067414E-01
        1   -1    0    0  501    0  0.00000000000E+00  0.00000000000E+00  0.26866187495E+04  0.26866187495E+04  0.50400001928E-02 0. -1.
       -1   -1    0    0    0  501  0.00000000000E+00  0.00000000000E+00 -0.12756096200E+04  0.12756096200E+04  0.50400001928E-02 0.  1.
    10030    2    1    2    0    0  0.00000000000E+00  0.00000000000E+00  0.14110091295E+04  0.39622283696E+04  0.37024730774E+04 0.  0.
        1    1    3    3  502    0 -0.13251487719E+03 -0.33615582638E+03 -0.12375060542E+04  0.12891788730E+04  0.50400001928E-02 0.  1.
       -1    1    3    3    0  502  0.13251487719E+03  0.33615582638E+03  0.26485151838E+04  0.26730494966E+04  0.50400001928E-02 0. -1.
</event>
<event>
 5   0  0.7203049E-08  0.3701547E+04  0.7818609E-02  0.8067619E-01
       -2   -1    0    0    0  501  0.00000000000E+00  0.00000000000E+00  0.25816798294E+04  0.25816798294E+04  0.25500000920E-02 0. -1.
        2   -1    0    0  501    0  0.00000000000E+00  0.00000000000E+00 -0.13267957504E+04  0.13267957504E+04  0.25500000920E-02 0.  1.
    10030    2    1    2    0    0  0.00000000000E+00  0.00000000000E+00  0.12548840790E+04  0.39084755798E+04  0.37015466100E+04 0.  0.
        4    1    3    3  502    0  0.17221633920E+04 -0.32429916344E+02 -0.87508077571E+02  0.17246906171E+04  0.12699999809E+01 0.  1.
       -4    1    3    3    0  502 -0.17221633920E+04  0.32429916344E+02  0.13423921565E+04  0.21837849627E+04  0.12699999809E+01 0. -1.
</event>
<event>
 5   0  0.2282000E-08  0.3698983E+04  0.7818609E-02  0.8068187E-01
        1   -1    0    0  501    0  0.00000000000E+00  0.00000000000E+00  0.12093939964E+04  0.12093939964E+04  0.50400001928E-02 0. -1.
       -1   -1    0    0    0  501  0.00000000000E+00  0.00000000000E+00 -0.28283744560E+04  0.28283744560E+04  0.50400001928E-02 0.  1.
    10030    2    1    2    0    0  0.00000000000E+00  0.00000000000E+00 -0.16189804596E+04  0.40377684524E+04  0.36989831503E+04 0.  0.
        4    1    3    3  502    0  0.21159865085E+03  0.53382365581E+03 -0.27286000770E+04  0.27883689995E+04  0.12699999809E+01 0.  1.
       -4    1    3    3    0  502 -0.21159865085E+03 -0.53382365581E+03  0.11096196174E+04  0.12493994528E+04  0.12699999809E+01 0. -1.
</event>
<event>
 5   0  0.7362817E-08  0.3702386E+04  0.7818609E-02  0.8067433E-01
       -2   -1    0    0    0  501  0.00000000000E+00  0.00000000000E+00  0.12054948431E+04  0.12054948431E+04  0.25500000920E-02 0.  1.
        2   -1    0    0  501    0  0.00000000000E+00  0.00000000000E+00 -0.28427465139E+04  0.28427465139E+04  0.25500000920E-02 0. -1.
    10030    2    1    2    0    0  0.00000000000E+00  0.00000000000E+00 -0.16372516708E+04  0.40482413570E+04  0.37023863994E+04 0.  0.
        1    1    3    3  502    0 -0.66508419462E+03  0.28025513856E+02 -0.27073522862E+04  0.27879883100E+04  0.50400001928E-02 0. -1.
       -1    1    3    3    0  502  0.66508419462E+03 -0.28025513856E+02  0.10701006153E+04  0.12602530469E+04  0.50400001928E-02 0.  1.
</event>
<event>
 5   0  0.2282000E-08  0.3701728E+04  0.7818609E-02  0.8067579E-01
       -1   -1    0    0    0  501  0.00000000000E+00  0.00000000000E+00  0.12470047050E+04  0.12470047050E+04  0.50400001928E-02 0.  1.
        1   -1    0    0  501    0  0.00000000000E+00  0.00000000000E+00 -0.27471413586E+04  0.27471413586E+04  0.50400001928E-02 0. -1.
    10030    2    1    2    0    0  0.00000000000E+00  0.00000000000E+00 -0.15001366536E+04  0.39941460635E+04  0.37017283527E+04 0.  0.
        3    1    3    3  502    0 -0.37104784244E+02 -0.46625349303E+03 -0.26823217123E+04  0.27227961479E+04  0.10100000352E+00 0. -1.
       -3    1    3    3    0  502  0.37104784244E+02  0.46625349303E+03  0.11821850587E+04  0.12713499156E+04  0.10100000352E+00 0.  1.
</event>
<event>
 5   0  0.7254493E-08  0.3703909E+04  0.7818609E-02  0.8067096E-01
       -2   -1    0    0    0  501  0.00000000000E+00  0.00000000000E+00  0.11213076426E+04  0.11213076426E+04  0.25500000920E-02 0. -1.
        2   -1    0    0  501    0  0.00000000000E+00  0.00000000000E+00 -0.30586928501E+04  0.30586928501E+04  0.25500000920E-02 0.  1.
    10030    2    1    2    0    0  0.00000000000E+00  0.00000000000E+00 -0.19373852075E+04  0.41800004927E+04  0.37039091075E+04 0.  0.
        3    1    3    3  502    0  0.97014663744E+03 -0.14668562481E+04 -0.16237149941E+04  0.23935960694E+04  0.10100000352E+00 0.  1.
       -3    1    3    3    0  502 -0.97014663744E+03  0.14668562481E+04 -0.31367021331E+03  0.17864044233E+04  0.10100000352E+00 0. -1.
</event>
<event>
 5   0  0.2282000E-08  0.3707232E+04  0.7818609E-02  0.8066361E-01
       -1   -1    0    0    0  501  0.00000000000E+00  0.00000000000E+00  0.16614820577E+04  0.16614820577E+04  0.50400001928E-02 0. -1.
        1   -1    0    0  501    0  0.00000000000E+00  0.00000000000E+00 -0.20679688428E+04  0.20679688428E+04  0.50400001928E-02 0.  1.
    10030    2    1    2    0    0  0.00000000000E+00  0.00000000000E+00 -0.40648678512E+03  0.37294509004E+04  0.37072324600E+04 0.  0.
        5    1    3    3  502    0  0.13771225839E+04  0.75512640387E+03  0.78713056129E+03  0.17567808934E+04  0.46999998093E+01 0. -1.
       -5    1    3    3    0  502 -0.13771225839E+04 -0.75512640387E+03 -0.11936173464E+04  0.19726700070E+04  0.46999998093E+01 0.  1.
</event>
<event>
 5   0  0.7362817E-08  0.3700232E+04  0.7818609E-02  0.8067910E-01
        2   -1    0    0  501    0  0.00000000000E+00  0.00000000000E+00  0.16487248833E+04  0.16487248833E+04  0.25500000920E-02 0.  1.
       -2   -1    0    0    0  501  0.00000000000E+00  0.00000000000E+00 -0.20761069286E+04  0.20761069286E+04  0.25500000920E-02 0. -1.
    10030    2    1    2    0    0  0.00000000000E+00  0.00000000000E+00 -0.42738204529E+03  0.37248318119E+04  0.37002319676E+04 0.  0.
        1    1    3    3  502    0  0.10597844299E+03 -0.74512820832E+03 -0.19150401322E+04  0.20576263474E+04  0.50400001928E-02 0. -1.
       -1    1    3    3    0  502 -0.10597844299E+03  0.74512820832E+03  0.14876580870E+04  0.16672054645E+04  0.50400001928E-02 0.  1.
</event>
<event>
 5   0  0.7254493E-08  0.3701474E+04  0.7818609E-02  0.8067635E-01
       -2   -1    0    0    0  501  0.00000000000E+00  0.00000000000E+00  0.13791626590E+04  0.13791626590E+04  0.25500000920E-02 0.  1.
        2   -1    0    0  501    0  0.00000000000E+00  0.00000000000E+00 -0.24835553753E+04  0.24835553753E+04  0.25500000920E-02 0. -1.
    10030    2    1    2    0    0  0.00000000000E+00  0.00000000000E+00 -0.11043927163E+04  0.38627180343E+04  0.37014736715E+04 0.  0.
        3    1    3    3  502    0 -0.16886044684E+04 -0.27950509826E+03  0.18254753046E+03  0.17212878207E+04  0.10100000352E+00 0.  1.
       -3    1    3    3    0  502  0.16886044684E+04  0.27950509826E+03 -0.12869402468E+04  0.21414302136E+04  0.10100000352E+00 0. -1.
</event>
<event>
 5   0  0.2282000E-08  0.3726543E+04  0.7818609E-02  0.8062105E-01
       -3   -1    0    0    0  501  0.00000000000E+00  0.00000000000E+00  0.26538640229E+04  0.26538640248E+04  0.10100000352E+00 0. -1.
        3   -1    0    0  501    0  0.00000000000E+00  0.00000000000E+00 -0.13081986896E+04  0.13081986935E+04  0.10100000352E+00 0.  1.
    10030    2    1    2    0    0  0.00000000000E+00  0.00000000000E+00  0.13456653333E+04  0.39620627184E+04  0.37265434111E+04 0.  0.
        5    1    3    3  502    0 -0.12300974694E+04  0.90202902905E+03 -0.46482324113E+03  0.15946406771E+04  0.46999998093E+01 0.  1.
       -5    1    3    3    0  502  0.12300974694E+04 -0.90202902905E+03  0.18104885744E+04  0.23674220413E+04  0.46999998093E+01 0. -1.
</event>
<event>
 5   0  0.2282000E-08  0.3703142E+04  0.7818609E-02  0.8067266E-01
       -1   -1    0    0    0  501  0.00000000000E+00  0.00000000000E+00  0.14547199347E+04  0.14547199347E+04  0.50400001928E-02 0.  1.
        1   -1    0    0  501    0  0.00000000000E+00  0.00000000000E+00 -0.23566834319E+04  0.23566834319E+04  0.50400001928E-02 0. -1.
    10030    2    1    2    0    0  0.00000000000E+00  0.00000000000E+00 -0.90196349714E+03  0.38114033666E+04  0.37031415680E+04 0.  0.
        4    1    3    3  502    0 -0.21123146993E+02 -0.17939667302E+04 -0.92213085029E+03  0.20171984866E+04  0.12699999809E+01 0. -1.
       -4    1    3    3    0  502  0.21123146993E+02  0.17939667302E+04  0.20167353153E+02  0.17942048800E+04  0.12699999809E+01 0.  1.
</event>
<event>
 5   0  0.2282000E-08  0.3696346E+04  0.7818609E-02  0.8068772E-01
        1   -1    0    0  501    0  0.00000000000E+00  0.00000000000E+00  0.23955654402E+04  0.23955654402E+04  0.50400001928E-02 0. -1.
       -1   -1    0    0    0  501  0.00000000000E+00  0.00000000000E+00 -0.14258612295E+04  0.14258612295E+04  0.50400001928E-02 0.  1.
    10030    2    1    2    0    0  0.00000000000E+00  0.00000000000E+00  0.96970421070E+03  0.38214266697E+04  0.36963462413E+04 0.  0.
        2    1    3    3  502    0  0.15398118324E+04 -0.21772939385E+03 -0.54759916879E+03  0.16487241789E+04  0.25500000920E-02 0.  1.
       -2    1    3    3    0  502 -0.15398118324E+04  0.21772939385E+03  0.15173033795E+04  0.21727024908E+04  0.25500000920E-02 0. -1.
</event>
<event>
 5   0  0.7203049E-08  0.3698886E+04  0.7818609E-02  0.8068209E-01
       -2   -1    0    0    0  501  0.00000000000E+00  0.00000000000E+00  0.13831014598E+04  0.13831014598E+04  0.25500000920E-02 0.  1.
        2   -1    0    0  501    0  0.00000000000E+00  0.00000000000E+00 -0.24730215791E+04  0.24730215791E+04  0.25500000920E-02 0. -1.
    10030    2    1    2    0    0  0.00000000000E+00  0.00000000000E+00 -0.10899201192E+04  0.38561230389E+04  0.36988861871E+04 0.  0.
        4    1    3    3  502    0  0.12782142422E+04  0.67466981928E+03 -0.17478852379E+04  0.22680642477E+04  0.12699999809E+01 0. -1.
       -4    1    3    3    0  502 -0.12782142422E+04 -0.67466981928E+03  0.65796511871E+03  0.15880587912E+04  0.12699999809E+01 0.  1.
</event>
<event>
 5   0  0.7362817E-08  0.3701782E+04  0.7818609E-02  0.8067567E-01
        2   -1    0    0  501    0  0.00000000000E+00  0.00000000000E+00  0.20920241840E+04  0.20920241840E+04  0.25500000920E-02 0. -1.
       -2   -1    0    0    0  501  0.00000000000E+00  0.00000000000E+00 -0.16375518550E+04  0.16375518550E+04  0.25500000920E-02 0.  1.
    10030    2    1    2    0    0  0.00000000000E+00  0.00000000000E+00  0.45447232897E+03  0.37295760391E+04  0.37017823185E+04 0.  0.
        1    1    3    3  502    0  0.16030277537E+04  0.21138244357E+03  0.11347866473E+04  0.19753787615E+04  0.50400001928E-02 0.  1.
       -1    1    3    3    0  502 -0.16030277537E+04 -0.21138244357E+03 -0.68031431828E+03  0.17541972775E+04  0.50400001928E-02 0. -1.
</event>
<event>
 5   0  0.2282000E-08  0.3700676E+04  0.7818609E-02  0.8067812E-01
       -1   -1    0    0    0  501  0.00000000000E+00  0.00000000000E+00  0.13173885879E+04  0.13173885879E+04  0.50400001928E-02 0. -1.
        1   -1    0    0  501    0  0.00000000000E+00  0.00000000000E+00 -0.25988917999E+04  0.25988917999E+04  0.50400001928E-02 0.  1.
    10030    2    1    2    0    0  0.00000000000E+00  0.00000000000E+00 -0.12815032120E+04  0.39162803878E+04  0.37006758292E+04 0.  0.
        1    1    3    3  502    0 -0.95989324433E+03 -0.15477021246E+04 -0.29462831929E+03  0.18448801461E+04  0.50400001928E-02 0.  1.
       -1    1    3    3    0  502  0.95989324433E+03  0.15477021246E+04 -0.98687489271E+03  0.20714002416E+04  0.50400001928E-02 0. -1.
</event>
<event>
 5   0  0.7191801E-08  0.3702051E+04  0.7818609E-02  0.8067507E-01
        2   -1    0    0  501    0  0.00000000000E+00  0.00000000000E+00  0.15001937875E+04  0.15001937875E+04  0.25500000920E-02 0.  1.
       -2   -1    0    0    0  501  0.00000000000E+00  0.00000000000E+00 -0.22839019604E+04  0.22839019604E+04  0.25500000920E-02 0. -1.
    10030    2    1    2    0    0  0.00000000000E+00  0.00000000000E+00 -0.78370817291E+03  0.37840957479E+04  0.37020510705E+04 0.  0.
        5    1    3    3  502    0 -0.15932256499E+04 -0.63980216610E+03  0.31525643659E+03  0.17456011842E+04  0.46999998093E+01 0.  1.
       -5    1    3    3    0  502  0.15932256499E+04  0.63980216610E+03 -0.10989646095E+04  0.20384945637E+04  0.46999998093E+01 0. -1.
</event>
<event>
 5   0  0.2282000E-08  0.3700802E+04  0.7818609E-02  0.8067784E-01
        1   -1    0    0  501    0  0.00000000000E+00  0.00000000000E+00  0.19199329195E+04  0.19199329195E+04  0.50400001928E-02 0.  1.
       -1   -1    0    0    0  501  0.00000000000E+00  0.00000000000E+00 -0.17833876366E+04  0.17833876366E+04  0.50400001928E-02 0. -1.
    10030    2    1    2    0    0  0.00000000000E+00  0.00000000000E+00  0.13654528286E+03  0.37033205561E+04  0.37008024167E+04 0.  0.
        4    1    3    3  502    0 -0.91671750241E+03 -0.12137804342E+03 -0.15355903478E+04  0.17925241806E+04  0.12699999809E+01 0. -1.
       -4    1    3    3    0  502  0.91671750241E+03  0.12137804342E+03  0.16721356307E+04  0.19107963756E+04  0.12699999809E+01 0.  1.
</event>
<event>
 5   0  0.2282000E-08  0.3696006E+04  0.7818609E-02  0.8068847E-01
        1   -1    0    0  501    0  0.00000000000E+00  0.00000000000E+00  0.17721729515E+04  0.17721729516E+04  0.50400001928E-02 0.  1.
       -1   -1    0    0    0  501  0.00000000000E+00  0.00000000000E+00 -0.19270782044E+04  0.19270782044E+04  0.50400001928E-02 0. -1.
    10030    2    1    2    0    0  0.00000000000E+00  0.00000000000E+00 -0.15490525284E+03  0.36992511559E+04  0.36960064228E+04 0.  0.
        5    1    3    3  502    0 -0.10665941266E+03 -0.10284892818E+04  0.14555340484E+04  0.17854321295E+04  0.46999998093E+01 0.  1.
       -5    1    3    3    0  502  0.10665941266E+03  0.10284892818E+04 -0.16104393012E+04  0.19138190264E+04  0.46999998093E+01 0. -1.
</event>
<event>
 5   0  0.2282000E-08  0.3692500E+04  0.7818609E-02  0.8069626E-01
        1   -1    0    0  501    0  0.00000000000E+00  0.00000000000E+00  0.20750879407E+04  0.20750879407E+04  0.50400001928E-02 0.  1.
       -1   -1    0    0    0  501  0.00000000000E+00  0.00000000000E+00 -0.16426478929E+04  0.16426478929E+04  0.50400001928E-02 0. -1.
    10030    2    1    2    0    0  0.00000000000E+00  0.00000000000E+00  0.43244004783E+03  0.37177358336E+04  0.36924998759E+04 0.  0.
        2    1    3    3  502    0 -0.56551389467E+03 -0.17544249518E+04  0.11146106253E+03  0.18466825512E+04  0.25500000920E-02 0. -1.
       -2    1    3    3    0  502  0.56551389467E+03  0.17544249518E+04  0.32097898530E+03  0.18710532824E+04  0.25500000920E-02 0.  1.
</event>
<event>
 5   0  0.7203049E-08  0.3678753E+04  0.7818609E-02  0.8072687E-01
        2   -1    0    0  501    0  0.00000000000E+00  0.00000000000E+00  0.14929904056E+04  0.14929904056E+04  0.25500000920E-02 0. -1.
       -2   -1    0    0    0  501  0.00000000000E+00  0.00000000000E+00 -0.22661271907E+04  0.22661271907E+04  0.25500000920E-02 0.  1.
    10030    2    1    2    0    0  0.00000000000E+00  0.00000000000E+00 -0.77313678513E+03  0.37591175964E+04  0.36787531332E+04 0.  0.
        4    1    3    3  502    0 -0.17353184020E+03  0.21421615709E+03 -0.22448958265E+04  0.22617605413E+04  0.12699999809E+01 0.  1.
       -4    1    3    3    0  502  0.17353184020E+03 -0.21421615709E+03  0.14717590414E+04  0.14973570550E+04  0.12699999809E+01 0. -1.
</event>
<event>
 5   0  0.2282000E-08  0.3702255E+04  0.7818609E-02  0.8067462E-01
       -1   -1    0    0    0  501  0.00000000000E+00  0.00000000000E+00  0.12816588631E+04  0.12816588631E+04  0.50400001928E-02 0.  1.
        1   -1    0    0  501    0  0.00000000000E+00  0.00000000000E+00 -0.26736226719E+04  0.26736226719E+04  0.50400001928E-02 0. -1.
    10030    2    1    2    0    0  0.00000000000E+00  0.00000000000E+00 -0.13919638088E+04  0.39552815350E+04  0.37022545531E+04 0.  0.
        1    1    3    3  502    0 -0.41800123773E+03  0.14729328839E+04 -0.18074786700E+04  0.23688046474E+04  0.50400001928E-02 0. -1.
       -1    1    3    3    0  502  0.41800123773E+03 -0.14729328839E+04  0.41551486114E+03  0.15864768876E+04  0.50400001928E-02 0.  1.
</event>
<event>
 5   0  0.2282000E-08  0.3708398E+04  0.7818609E-02  0.8066103E-01
       -1   -1    0    0    0  501  0.00000000000E+00  0.00000000000E+00  0.24070435730E+04  0.24070435730E+04  0.50400001928E-02 0.  1.
        1   -1    0    0  501    0  0.00000000000E+00  0.00000000000E+00 -0.14283302080E+04  0.14283302081E+04  0.50400001928E-02 0. -1.
    10030    2    1    2    0    0  0.00000000000E+00  0.00000000000E+00  0.97871336500E+03  0.38353737811E+04  0.37083975232E+04 0.  0.
        3    1    3    3  502    0  0.18304080658E+03  0.82618783777E+02  0.23957627558E+04  0.24041649262E+04  0.10100000352E+00 0.  1.
       -3    1    3    3    0  502 -0.18304080658E+03 -0.82618783777E+02 -0.14170493908E+04  0.14312088549E+04  0.10100000352E+00 0. -1.
</event>
<event>
 5   0  0.7309833E-08  0.3694568E+04  0.7818609E-02  0.8069167E-01
        2   -1    0    0  501    0  0.00000000000E+00  0.00000000000E+00  0.17559790377E+04  0.17559790377E+04  0.25500000920E-02 0. -1.
       -2   -1    0    0    0  501  0.00000000000E+00  0.00000000000E+00 -0.19433363824E+04  0.19433363824E+04  0.25500000920E-02 0.  1.
    10030    2    1    2    0    0  0.00000000000E+00  0.00000000000E+00 -0.18735734472E+03  0.36993154201E+04  0.36945678777E+04 0.  0.
        2    1    3    3  502    0  0.16905679551E+04 -0.63042320843E+03 -0.49042579709E+03  0.18697515597E+04  0.25500000920E-02 0. -1.
       -2    1    3    3    0  502 -0.16905679551E+04  0.63042320843E+03  0.30306845237E+03  0.18295638604E+04  0.25500000920E-02 0.  1.
</event>
<event>
 5   0  0.7203049E-08  0.3701160E+04  0.7818609E-02  0.8067705E-01
       -2   -1    0    0    0  501  0.00000000000E+00  0.00000000000E+00  0.17653299689E+04  0.17653299689E+04  0.25500000920E-02 0. -1.
        2   -1    0    0  501    0  0.00000000000E+00  0.00000000000E+00 -0.19399463478E+04  0.19399463478E+04  0.25500000920E-02 0.  1.
    10030    2    1    2    0    0  0.00000000000E+00  0.00000000000E+00 -0.17461637886E+03  0.37052763167E+04  0.37011595079E+04 0.  0.
        4    1    3    3  502    0 -0.48407081025E+03 -0.18447626454E+03 -0.18658787305E+04  0.19364558067E+04  0.12699999809E+01 0.  1.
       -4    1    3    3    0  502  0.48407081025E+03  0.18447626454E+03  0.16912623516E+04  0.17688205100E+04  0.12699999809E+01 0. -1.
</event>
<event>
 5   0  0.2282000E-08  0.3693999E+04  0.7818609E-02  0.8069293E-01
        1   -1    0    0  501    0  0.00000000000E+00  0.00000000000E+00  0.23676417300E+04  0.23676417300E+04  0.50400001928E-02 0. -1.
       -1   -1    0    0    0  501  0.00000000000E+00  0.00000000000E+00 -0.14408456631E+04  0.14408456631E+04  0.50400001928E-02 0.  1.
    10030    2    1    2    0    0  0.00000000000E+00  0.00000000000E+00  0.92679606684E+03  0.38084873931E+04  0.36939985482E+04 0.  0.
        5    1    3    3  502    0 -0.11683145009E+04  0.11060545711E+04  0.13987473991E+04  0.21318611267E+04  0.46999998093E+01 0.  1.
       -5    1    3    3    0  502  0.11683145009E+04 -0.11060545711E+04 -0.47195133229E+03  0.16766262664E+04  0.46999998093E+01 0. -1.
</event>
<event>
 5   0  0.7203049E-08  0.3702000E+04  0.7818609E-02  0.8067519E-01
        2   -1    0    0  501    0  0.00000000000E+00  0.00000000000E+00  0.10754525210E+04  0.10754525210E+04  0.25500000920E-02 0.  1.
       -2   -1    0    0    0  501  0.00000000000E+00  0.00000000000E+00 -0.31858227858E+04  0.31858227858E+04  0.25500000920E-02 0. -1.
    10030    2    1    2    0    0  0.00000000000E+00  0.00000000000E+00 -0.21103702648E+04  0.42612753068E+04  0.37020000791E+04 0.  0.
        4    1    3    3  502    0  0.26742152022E+03 -0.13083775135E+04  0.42018147935E+03  0.13999714554E+04  0.12699999809E+01 0. -1.
       -4    1    3    3    0  502 -0.26742152022E+03  0.13083775135E+04 -0.25305517441E+04  0.28613038514E+04  0.12699999809E+01 0.  1.
</event>
<event>
 5   0  0.2282000E-08  0.3724117E+04  0.7818609E-02  0.8062638E-01
       -1   -1    0    0    0  501  0.00000000000E+00  0.00000000000E+00  0.15750252751E+04  0.15750252751E+04  0.50400001928E-02 0. -1.
        1   -1    0    0  501    0  0.00000000000E+00  0.00000000000E+00 -0.22014004443E+04  0.22014004444E+04  0.50400001928E-02 0.  1.
    10030    2    1    2    0    0  0.00000000000E+00  0.00000000000E+00 -0.62637516928E+03  0.37764257194E+04  0.37241167223E+04 0.  0.
        2    1    3    3  502    0  0.73172987873E+03  0.15746529642E+04 -0.99516709166E+03  0.20013290868E+04  0.25500000920E-02 0.  1.
       -2    1    3    3    0  502 -0.73172987873E+03 -0.15746529642E+04  0.36879192238E+03  0.17750966327E+04  0.25500000920E-02 0. -1.
</event>
<event>
 5   0  0.7191801E-08  0.3696408E+04  0.7818609E-02  0.8068758E-01
        2   -1    0    0  501    0  0.00000000000E+00  0.00000000000E+00  0.20190266450E+04  0.20190266450E+04  0.25500000920E-02 0.  1.
       -2   -1    0    0    0  501  0.00000000000E+00  0.00000000000E+00 -0.16918344951E+04  0.16918344951E+04  0.25500000920E-02 0. -1.
    10030    2    1    2    0    0  0.00000000000E+00  0.00000000000E+00  0.32719214992E+03  0.37108611401E+04  0.36964084864E+04 0.  0.
        5    1    3    3  502    0 -0.83100190684E+03 -0.12916582216E+04  0.11956680593E+04  0.19464298930E+04  0.46999998093E+01 0.  1.
       -5    1    3    3    0  502  0.83100190684E+03  0.12916582216E+04 -0.86847590937E+03  0.17644312471E+04  0.46999998093E+01 0. -1.
</event>
<event>
 5   0  0.2282000E-08  0.3700706E+04  0.7818609E-02  0.8067805E-01
        1   -1    0    0  501    0  0.00000000000E+00  0.00000000000E+00  0.21910478343E+04  0.21910478343E+04  0.50400001928E-02 0. -1.
       -1   -1    0    0    0  501  0.00000000000E+00  0.00000000000E+00 -0.15626344630E+04  0.15626344630E+04  0.50400001928E-02 0.  1.
    10030    2    1    2    0    0  0.00000000000E+00  0.00000000000E+00  0.62841337130E+03  0.37536822973E+04  0.37007063412E+04 0.  0.
        4    1    3    3  502    0  0.80593315921E+03 -0.45447939618E+03  0.19395577573E+04  0.21489452495E+04  0.12699999809E+01 0. -1.
       -4    1    3    3    0  502 -0.80593315921E+03  0.45447939618E+03 -0.13111443860E+04  0.16047370478E+04  0.12699999809E+01 0.  1.
</event>
<event>
 5   0  0.7254493E-08  0.3727664E+04  0.7818609E-02  0.8061859E-01
        2   -1    0    0  501    0  0.00000000000E+00  0.00000000000E+00  0.18860673266E+04  0.18860673266E+04  0.25500000920E-02 0. -1.
       -2   -1    0    0    0  501  0.00000000000E+00  0.00000000000E+00 -0.18418591868E+04  0.18418591868E+04  0.25500000920E-02 0.  1.
    10030    2    1    2    0    0  0.00000000000E+00  0.00000000000E+00  0.44208139866E+02  0.37279265134E+04  0.37276643800E+04 0.  0.
        3    1    3    3  502    0 -0.78372824581E+03 -0.10169453827E+03 -0.16660012069E+04  0.18439446233E+04  0.10100000352E+00 0.  1.
       -3    1    3    3    0  502  0.78372824581E+03  0.10169453827E+03  0.17102093467E+04  0.18839818901E+04  0.10100000352E+00 0. -1.
</event>
<event>
 5   0  0.2282000E-08  0.3710122E+04  0.7818609E-02  0.8065722E-01
        1   -1    0    0  501    0  0.00000000000E+00  0.00000000000E+00  0.24781798322E+04  0.24781798322E+04  0.50400001928E-02 0.  1.
       -1   -1    0    0    0  501  0.00000000000E+00  0.00000000000E+00 -0.13886206442E+04  0.13886206442E+04  0.50400001928E-02 0. -1.
    10030    2    1    2    0    0  0.00000000000E+00  0.00000000000E+00  0.10895591881E+04  0.38668004764E+04  0.37101221948E+04 0.  0.
        2    1    3    3  502    0 -0.17226886329E+04  0.61140080010E+03  0.87400651010E+03  0.20261674274E+04  0.25500000920E-02 0.  1.
       -2    1    3    3    0  502  0.17226886329E+04 -0.61140080010E+03  0.21555267797E+03  0.18406330490E+04  0.25500000920E-02 0. -1.
</event>
<event>
 5   0  0.7309833E-08  0.3696861E+04  0.7818609E-02  0.8068658E-01
       -2   -1    0    0    0  501  0.00000000000E+00  0.00000000000E+00  0.25100422287E+04  0.25100422287E+04  0.25500000920E-02 0. -1.
        2   -1    0    0  501    0  0.00000000000E+00  0.00000000000E+00 -0.13612103856E+04  0.13612103856E+04  0.25500000920E-02 0.  1.
    10030    2    1    2    0    0  0.00000000000E+00  0.00000000000E+00  0.11488318431E+04  0.38712526144E+04  0.36968611281E+04 0.  0.
        2    1    3    3  502    0 -0.91907688035E+03 -0.33150490438E+03 -0.10687106522E+04  0.14480125247E+04  0.25500000920E-02 0.  1.
       -2    1    3    3    0  502  0.91907688035E+03  0.33150490438E+03  0.22175424953E+04  0.24232400896E+04  0.25500000920E-02 0. -1.
</event>
<event>
 5   0  0.7203049E-08  0.3694356E+04  0.7818609E-02  0.8069214E-01
       -2   -1    0    0    0  501  0.00000000000E+00  0.00000000000E+00  0.27017949268E+04  0.27017949268E+04  0.25500000920E-02 0.  1.
        2   -1    0    0  501    0  0.00000000000E+00  0.00000000000E+00 -0.12628889541E+04  0.12628889542E+04  0.25500000920E-02 0. -1.
    10030    2    1    2    0    0  0.00000000000E+00  0.00000000000E+00  0.14389059726E+04  0.39646838809E+04  0.36943562197E+04 0.  0.
        4    1    3    3  502    0  0.46920353448E+03 -0.14892766186E+04 -0.33965992787E+03  0.15979572219E+04  0.12699999809E+01 0. -1.
       -4    1    3    3    0  502 -0.46920353448E+03  0.14892766186E+04  0.17785659005E+04  0.23667266591E+04  0.12699999809E+01 0.  1.
</event>
<event>
 5   0  0.7191801E-08  0.3685925E+04  0.7818609E-02  0.8071088E-01
       -2   -1    0    0    0  501  0.00000000000E+00  0.00000000000E+00  0.20570005170E+04  0.20570005170E+04  0.25500000920E-02 0.  1.
        2   -1    0    0  501    0  0.00000000000E+00  0.00000000000E+00 -0.16511954729E+04  0.16511954729E+04  0.25500000920E-02 0. -1.
    10030    2    1    2    0    0  0.00000000000E+00  0.00000000000E+00  0.40580504409E+03  0.37081959899E+04  0.36859245469E+04 0.  0.
        5    1    3    3  502    0  0.15911063331E+04 -0.91378956438E+03  0.37673871282E+03  0.18731216936E+04  0.46999998093E+01 0.  1.
       -5    1    3    3    0  502 -0.15911063331E+04  0.91378956438E+03  0.29066331272E+02  0.18350742963E+04  0.46999998093E+01 0. -1.
</event>
<event>
 5   0  0.2282000E-08  0.3726735E+04  0.7818609E-02  0.8062063E-01
       -1   -1    0    0    0  501  0.00000000000E+00  0.00000000000E+00  0.18281510219E+04  0.18281510219E+04  0.50400001928E-02 0.  1.
        1   -1    0    0  501    0  0.00000000000E+00  0.00000000000E+00 -0.18992625881E+04  0.18992625881E+04  0.50400001928E-02 0. -1.
    10030    2    1    2    0    0  0.00000000000E+00  0.00000000000E+00 -0.71111566223E+02  0.37274136100E+04  0.37267352153E+04 0.  0.
        1    1    3    3  502    0  0.17172427775E+04 -0.68081159523E+03  0.20884838498E+03  0.18590440643E+04  0.50400001928E-02 0.  1.
       -1    1    3    3    0  502 -0.17172427775E+04  0.68081159523E+03 -0.27995995120E+03  0.18683695457E+04  0.50400001928E-02 0. -1.
</event>
<event>
 5   0  0.2282000E-08  0.3712059E+04  0.7818609E-02  0.8065295E-01
       -1   -1    0    0    0  501  0.00000000000E+00  0.00000000000E+00  0.16063148854E+04  0.16063148854E+04  0.50400001928E-02 0. -1.
        1   -1    0    0  501    0  0.00000000000E+00  0.00000000000E+00 -0.21445638014E+04  0.21445638014E+04  0.50400001928E-02 0.  1.
    10030    2    1    2    0    0  0.00000000000E+00  0.00000000000E+00 -0.53824891599E+03  0.37508786868E+04  0.37120585970E+04 0.  0.
        2    1    3    3  502    0 -0.18101206901E+04  0.30400199166E+03 -0.54748795476E+03  0.19153843438E+04  0.25500000920E-02 0. -1.
       -2    1    3    3    0  502  0.18101206901E+04 -0.30400199166E+03  0.92390387681E+01  0.18354943431E+04  0.25500000920E-02 0.  1.
</event>
<event>
 5   0  0.7191801E-08  0.3683730E+04  0.7818609E-02  0.8071577E-01
        2   -1    0    0  501    0  0.00000000000E+00  0.00000000000E+00  0.30888561589E+04  0.30888561589E+04  0.25500000920E-02 0.  1.
       -2   -1    0    0    0  501  0.00000000000E+00  0.00000000000E+00 -0.10982923759E+04  0.10982923759E+04  0.25500000920E-02 0. -1.
    10030    2    1    2    0    0  0.00000000000E+00  0.00000000000E+00  0.19905637830E+04  0.41871485347E+04  0.36837302667E+04 0.  0.
        5    1    3    3  502    0 -0.62216394210E+03 -0.11350267948E+04 -0.49416391995E+03  0.13854940872E+04  0.46999998093E+01 0. -1.
       -5    1    3    3    0  502  0.62216394210E+03  0.11350267948E+04  0.24847277029E+04  0.28016544476E+04  0.46999998093E+01 0.  1.
</event>
<event>
 5   0  0.2282000E-08  0.3693737E+04  0.7818609E-02  0.8069351E-01
       -1   -1    0    0    0  501  0.00000000000E+00  0.00000000000E+00  0.15409787485E+04  0.15409787485E+04  0.50400001928E-02 0.  1.
        1   -1    0    0  501    0  0.00000000000E+00  0.00000000000E+00 -0.22134781284E+04  0.22134781284E+04  0.50400001928E-02 0. -1.
    10030    2    1    2    0    0  0.00000000000E+00  0.00000000000E+00 -0.67249937993E+03  0.37544568769E+04  0.36937367291E+04 0.  0.
        3    1    3    3  502    0  0.53015227996E+03  0.76545759455E+03 -0.19574410150E+04  0.21676166881E+04  0.10100000352E+00 0. -1.
       -3    1    3    3    0  502 -0.53015227996E+03 -0.76545759455E+03  0.12849416351E+04  0.15868401888E+04  0.10100000352E+00 0.  1.
</event>
<event>
 5   0  0.7362817E-08  0.3697342E+04  0.7818609E-02  0.8068551E-01
        2   -1    0    0  501    0  0.00000000000E+00  0.00000000000E+00  0.23689522435E+04  0.23689522435E+04  0.25500000920E-02 0.  1.
       -2   -1    0    0    0  501  0.00000000000E+00  0.00000000000E+00 -0.14426563606E+04  0.14426563606E+04  0.25500000920E-02 0. -1.
    10030    2    1    2    0    0  0.00000000000E+00  0.00000000000E+00  0.92629588290E+03  0.38116086041E+04  0.36973417597E+04 0.  0.
        1    1    3    3  502    0 -0.15320266245E+04  0.63815230690E+02 -0.60143623051E+03  0.16470894029E+04  0.50400001928E-02 0. -1.
       -1    1    3    3    0  502  0.15320266245E+04 -0.63815230690E+02  0.15277321134E+04  0.21645192012E+04  0.50400001928E-02 0.  1.
</event>
<event>
 5   0  0.2282000E-08  0.3709986E+04  0.7818609E-02  0.8065752E-01
        1   -1    0    0  501    0  0.00000000000E+00  0.00000000000E+00  0.13654085326E+04  0.13654085326E+04  0.50400001928E-02 0.  1.
       -1   -1    0    0    0  501  0.00000000000E+00  0.00000000000E+00 -0.25201243346E+04  0.25201243346E+04  0.50400001928E-02 0. -1.
    10030    2    1    2    0    0  0.00000000000E+00  0.00000000000E+00 -0.11547158020E+04  0.38855328672E+04  0.37099861292E+04 0.  0.
        1    1    3    3  502    0 -0.52619875297E+03 -0.13711759964E+04 -0.17641078213E+04  0.22954487896E+04  0.50400001928E-02 0. -1.
       -1    1    3    3    0  502  0.52619875297E+03  0.13711759964E+04  0.60939201926E+03  0.15900840776E+04  0.50400001928E-02 0.  1.
</event>
<event>
 5   0  0.7362817E-08  0.3701560E+04  0.7818609E-02  0.8067616E-01
        2   -1    0    0  501    0  0.00000000000E+00  0.00000000000E+00  0.16078839783E+04  0.16078839783E+04  0.25500000920E-02 0. -1.
       -2   -1    0    0    0  501  0.00000000000E+00  0.00000000000E+00 -0.21303693705E+04  0.21303693705E+04  0.25500000920E-02 0.  1.
    10030    2    1    2    0    0  0.00000000000E+00  0.00000000000E+00 -0.52248539223E+03  0.37382533489E+04  0.37015600921E+04 0.  0.
        1    1    3    3  502    0 -0.31638225126E+01  0.52990905606E+03 -0.20521156534E+04  0.21194320637E+04  0.50400001928E-02 0.  1.
       -1    1    3    3    0  502  0.31638225126E+01 -0.52990905606E+03  0.15296302612E+04  0.16188212852E+04  0.50400001928E-02 0. -1.
</event>
<event>
 5   0  0.7362817E-08  0.3697857E+04  0.7818609E-02  0.8068437E-01
       -2   -1    0    0    0  501  0.00000000000E+00  0.00000000000E+00  0.32818132245E+04  0.32818132245E+04  0.25500000920E-02 0.  1.
        2   -1    0    0  501    0  0.00000000000E+00  0.00000000000E+00 -0.10416608334E+04  0.10416608334E+04  0.25500000920E-02 0. -1.
    10030    2    1    2    0    0  0.00000000000E+00  0.00000000000E+00  0.22401523912E+04  0.43234740579E+04  0.36978568379E+04 0.  0.
        1    1    3    3  502    0 -0.17468831583E+04  0.18733208429E+03  0.44655916181E+03  0.18127628537E+04  0.50400001928E-02 0. -1.
       -1    1    3    3    0  502  0.17468831583E+04 -0.18733208429E+03  0.17935932294E+04  0.25107112042E+04  0.50400001928E-02 0.  1.
</event>
<event>
 5   0  0.7191801E-08  0.3710059E+04  0.7818609E-02  0.8065736E-01
        2   -1    0    0  501    0  0.00000000000E+00  0.00000000000E+00  0.22707840159E+04  0.22707840159E+04  0.25500000920E-02 0.  1.
       -2   -1    0    0    0  501  0.00000000000E+00  0.00000000000E+00 -0.15153949341E+04  0.15153949341E+04  0.25500000920E-02 0. -1.
    10030    2    1    2    0    0  0.00000000000E+00  0.00000000000E+00  0.75538908178E+03  0.37861789499E+04  0.37100590799E+04 0.  0.
        5    1    3    3  502    0 -0.11155271124E+04  0.14578432764E+04  0.10499534749E+03  0.18386826453E+04  0.46999998093E+01 0. -1.
       -5    1    3    3    0  502  0.11155271124E+04 -0.14578432764E+04  0.65039373429E+03  0.19474963047E+04  0.46999998093E+01 0.  1.
</event>
<event>
 5   0  0.7254493E-08  0.3682560E+04  0.7818609E-02  0.8071838E-01
       -2   -1    0    0    0  501  0.00000000000E+00  0.00000000000E+00  0.13262821578E+04  0.13262821578E+04  0.25500000920E-02 0.  1.
        2   -1    0    0  501    0  0.00000000000E+00  0.00000000000E+00 -0.25562531212E+04  0.25562531212E+04  0.25500000920E-02 0. -1.
    10030    2    1    2    0    0  0.00000000000E+00  0.00000000000E+00 -0.12299709635E+04  0.38825352790E+04  0.36825604709E+04 0.  0.
        3    1    3    3  502    0  0.38035405345E+03 -0.12647262413E+04  0.73769465162E+03  0.15127442219E+04  0.10100000352E+00 0.  1.
       -3    1    3    3    0  502 -0.38035405345E+03  0.12647262413E+04 -0.19676656151E+04  0.23697910571E+04  0.10100000352E+00 0. -1.
</event>
<event>
 5   0  0.2282000E-08  0.3707327E+04  0.7818609E-02  0.8066340E-01
       -1   -1    0    0    0  501  0.00000000000E+00  0.00000000000E+00  0.15055702869E+04  0.15055702870E+04  0.50400001928E-02 0.  1.
        1   -1    0    0  501    0  0.00000000000E+00  0.00000000000E+00 -0.22822371990E+04  0.22822371990E+04  0.50400001928E-02 0. -1.
    10030    2    1    2    0    0  0.00000000000E+00  0.00000000000E+00 -0.77666691206E+03  0.37878074860E+04  0.37073270774E+04 0.  0.
        4    1    3    3  502    0  0.73349617719E+03 -0.11816089417E+04 -0.16404373221E+04  0.21506400335E+04  0.12699999809E+01 0. -1.
       -4    1    3    3    0  502 -0.73349617719E+03  0.11816089417E+04  0.86377041005E+03  0.16371674524E+04  0.12699999809E+01 0.  1.
</event>
<event>
 5   0  0.2282000E-08  0.3706008E+04  0.7818609E-02  0.8066632E-01
       -1   -1    0    0    0  501  0.00000000000E+00  0.00000000000E+00  0.18275313106E+04  0.18275313106E+04  0.50400001928E-02 0.  1.
        1   -1    0    0  501    0  0.00000000000E+00  0.00000000000E+00 -0.18788312694E+04  0.18788312694E+04  0.50400001928E-02 0. -1.
    10030    2    1    2    0    0  0.00000000000E+00  0.00000000000E+00 -0.51299958812E+02  0.37063625800E+04  0.37060075403E+04 0.  0.
        3    1    3    3  502    0 -0.95099704961E+03  0.42280301944E+03 -0.15589195435E+04  0.18744033544E+04  0.10100000352E+00 0. -1.
       -3    1    3    3    0  502  0.95099704961E+03 -0.42280301944E+03  0.15076195847E+04  0.18319592256E+04  0.10100000352E+00 0.  1.
</event>
<event>
 5   0  0.2282000E-08  0.3696277E+04  0.7818609E-02  0.8068787E-01
        1   -1    0    0  501    0  0.00000000000E+00  0.00000000000E+00  0.26027502953E+04  0.26027502953E+04  0.50400001928E-02 0. -1.
       -1   -1    0    0    0  501  0.00000000000E+00  0.00000000000E+00 -0.13123103433E+04  0.13123103433E+04  0.50400001928E-02 0.  1.
    10030    2    1    2    0    0  0.00000000000E+00  0.00000000000E+00  0.12904399519E+04  0.39150606386E+04  0.36962771182E+04 0.  0.
        2    1    3    3  502    0 -0.82073956830E+03 -0.40572853356E+03 -0.10552297263E+04  0.13970464764E+04  0.25500000920E-02 0.  1.
       -2    1    3    3    0  502  0.82073956830E+03  0.40572853356E+03  0.23456696782E+04  0.25180141622E+04  0.25500000920E-02 0. -1.
</event>
<event>
 5   0  0.2282000E-08  0.3701215E+04  0.7818609E-02  0.8067693E-01
        1   -1    0    0  501    0  0.00000000000E+00  0.00000000000E+00  0.13081805069E+04  0.13081805069E+04  0.50400001928E-02 0. -1.
       -1   -1    0    0    0  501  0.00000000000E+00  0.00000000000E+00 -0.26179477409E+04  0.26179477409E+04  0.50400001928E-02 0.  1.
    10030    2    1    2    0    0  0.00000000000E+00  0.00000000000E+00 -0.13097672340E+04  0.39261282478E+04  0.37012150452E+04 0.  0.
        1    1    3    3  502    0  0.14199767168E+04  0.36648829841E+03 -0.18522361359E+04  0.23625042333E+04  0.50400001928E-02 0.  1.
       -1    1    3    3    0  502 -0.14199767168E+04 -0.36648829841E+03  0.54246890186E+03  0.15636240145E+04  0.50400001928E-02 0. -1.
</event>
<event>
 5   0  0.7362817E-08  0.3651819E+04  0.7818609E-02  0.8078724E-01
        2   -1    0    0  501    0  0.00000000000E+00  0.00000000000E+00  0.16665939413E+04  0.16665939414E+04  0.25500000920E-02 0. -1.
       -2   -1    0    0    0  501  0.00000000000E+00  0.00000000000E+00 -0.20004550188E+04  0.20004550188E+04  0.25500000920E-02 0.  1.
    10030    2    1    2    0    0  0.00000000000E+00  0.00000000000E+00 -0.33386107745E+03  0.36670489601E+04  0.36518193900E+04 0.  0.
        1    1    3    3  502    0  0.11330500517E+04 -0.61713242401E+03  0.11304682607E+04  0.17154047152E+04  0.50400001928E-02 0. -1.
       -1    1    3    3    0  502 -0.11330500517E+04  0.61713242401E+03 -0.14643293381E+04  0.19516442450E+04  0.50400001928E-02 0.  1.
</event>
<event>
 5   0  0.2282000E-08  0.3706785E+04  0.7818609E-02  0.8066460E-01
       -1   -1    0    0    0  501  0.00000000000E+00  0.00000000000E+00  0.18638547061E+04  0.18638547061E+04  0.50400001928E-02 0. -1.
        1   -1    0    0  501    0  0.00000000000E+00  0.00000000000E+00 -0.18429893097E+04  0.18429893097E+04  0.50400001928E-02 0.  1.
    10030    2    1    2    0    0  0.00000000000E+00  0.00000000000E+00  0.20865396412E+02  0.37068440157E+04  0.37067852908E+04 0.  0.
        3    1    3    3  502    0 -0.99150793921E+03 -0.64780155206E+03  0.14360532082E+04  0.18614466609E+04  0.10100000352E+00 0. -1.
       -3    1    3    3    0  502  0.99150793921E+03  0.64780155206E+03 -0.14151878118E+04  0.18453973548E+04  0.10100000352E+00 0.  1.
</event>
<event>
 5   0  0.7309833E-08  0.3694906E+04  0.7818609E-02  0.8069092E-01
        2   -1    0    0  501    0  0.00000000000E+00  0.00000000000E+00  0.21181218255E+04  0.21181218255E+04  0.25500000920E-02 0. -1.
       -2   -1    0    0    0  501  0.00000000000E+00  0.00000000000E+00 -0.16113720920E+04  0.16113720920E+04  0.25500000920E-02 0.  1.
    10030    2    1    2    0    0  0.00000000000E+00  0.00000000000E+00  0.50674973351E+03  0.37294939176E+04  0.36949058972E+04 0.  0.
        2    1    3    3  502    0  0.20888282114E+03  0.18296296364E+04  0.10398344469E+03  0.18444482092E+04  0.25500000920E-02 0. -1.
       -2    1    3    3    0  502 -0.20888282114E+03 -0.18296296364E+04  0.40276628882E+03  0.18850457084E+04  0.25500000920E-02 0.  1.
</event>
<event>
 5   0  0.2282000E-08  0.3711073E+04  0.7818609E-02  0.8065512E-01
       -1   -1    0    0    0  501  0.00000000000E+00  0.00000000000E+00  0.16030565593E+04  0.16030565593E+04  0.50400001928E-02 0.  1.
        1   -1    0    0  501    0  0.00000000000E+00  0.00000000000E+00 -0.21477817898E+04  0.21477817898E+04  0.50400001928E-02 0. -1.
    10030    2    1    2    0    0  0.00000000000E+00  0.00000000000E+00 -0.54472523051E+03  0.37508383492E+04  0.37110729911E+04 0.  0.
        5    1    3    3  502    0  0.11288326034E+04  0.11751836165E+04 -0.11693825843E+04  0.20056912268E+04  0.46999998093E+01 0. -1.
       -5    1    3    3    0  502 -0.11288326034E+04 -0.11751836165E+04  0.62465735379E+03  0.17451471223E+04  0.46999998093E+01 0.  1.
</event>
<event>
 5   0  0.7203049E-08  0.3719239E+04  0.7818609E-02  0.8063712E-01
        2   -1    0    0  501    0  0.00000000000E+00  0.00000000000E+00  0.26958144772E+04  0.26958144772E+04  0.25500000920E-02 0. -1.
       -2   -1    0    0    0  501  0.00000000000E+00  0.00000000000E+00 -0.12827974654E+04  0.12827974654E+04  0.25500000920E-02 0.  1.
    10030    2    1    2    0    0  0.00000000000E+00  0.00000000000E+00  0.14130170119E+04  0.39786119426E+04  0.37192386202E+04 0.  0.
        4    1    3    3  502    0  0.17219657625E+04  0.44443814036E+03  0.12880084548E+04  0.21958275753E+04  0.12699999809E+01 0.  1.
       -4    1    3    3    0  502 -0.17219657625E+04 -0.44443814036E+03  0.12500855702E+03  0.17827843672E+04  0.12699999809E+01 0. -1.
</event>
<event>
 5   0  0.7362817E-08  0.3694679E+04  0.7818609E-02  0.8069142E-01
       -2   -1    0    0    0  501  0.00000000000E+00  0.00000000000E+00  0.11368177317E+04  0.11368177317E+04  0.25500000920E-02 0. -1.
        2   -1    0    0  501    0  0.00000000000E+00  0.00000000000E+00 -0.30019434720E+04  0.30019434720E+04  0.25500000920E-02 0.  1.
    10030    2    1    2    0    0  0.00000000000E+00  0.00000000000E+00 -0.18651257403E+04  0.41387612037E+04  0.36946786429E+04 0.  0.
        1    1    3    3  502    0  0.13620664992E+04  0.12130607676E+02  0.46534478809E+03  0.14394158787E+04  0.50400001928E-02 0. -1.
       -1    1    3    3    0  502 -0.13620664992E+04 -0.12130607676E+02 -0.23304705284E+04  0.26993453250E+04  0.50400001928E-02 0.  1.
</event>
<event>
 5   0  0.7362817E-08  0.3704001E+04  0.7818609E-02  0.8067076E-01
        2   -1    0    0  501    0  0.00000000000E+00  0.00000000000E+00  0.14656339310E+04  0.14656339310E+04  0.25500000920E-02 0.  1.
       -2   -1    0    0    0  501  0.00000000000E+00  0.00000000000E+00 -0.23402200189E+04  0.23402200189E+04  0.25500000920E-02 0. -1.
    10030    2    1    2    0    0  0.00000000000E+00  0.00000000000E+00 -0.87458608791E+03  0.38058539499E+04  0.37040010074E+04 0.  0.
        1    1    3    3  502    0 -0.17603115833E+04 -0.37554991989E+03  0.10784785678E+02  0.17999585896E+04  0.50400001928E-02 0.  1.
       -1    1    3    3    0  502  0.17603115833E+04  0.37554991989E+03 -0.88537087359E+03  0.20058953603E+04  0.50400001928E-02 0. -1.
</event>
<event>
 5   0  0.2282000E-08  0.3700710E+04  0.7818609E-02  0.8067805E-01
        1   -1    0    0  501    0  0.00000000000E+00  0.00000000000E+00  0.16903771715E+04  0.16903771715E+04  0.50400001928E-02 0. -1.
       -1   -1    0    0    0  501  0.00000000000E+00  0.00000000000E+00 -0.20254727721E+04  0.20254727721E+04  0.50400001928E-02 0.  1.
    10030    2    1    2    0    0  0.00000000000E+00  0.00000000000E+00 -0.33509560063E+03  0.37158499436E+04  0.37007096268E+04 0.  0.
        4    1    3    3  502    0  0.12707409017E+04  0.91404942957E+03  0.82317149352E+03  0.17685818385E+04  0.12699999809E+01 0. -1.
       -4    1    3    3    0  502 -0.12707409017E+04 -0.91404942957E+03 -0.11582670942E+04  0.19472681051E+04  0.12699999809E+01 0.  1.
</event>
<event>
 5   0  0.7203049E-08  0.3702192E+04  0.7818609E-02  0.8067476E-01
        2   -1    0    0  501    0  0.00000000000E+00  0.00000000000E+00  0.13378517002E+04  0.13378517002E+04  0.25500000920E-02 0.  1.
       -2   -1    0    0    0  501  0.00000000000E+00  0.00000000000E+00 -0.25612374740E+04  0.25612374740E+04  0.25500000920E-02 0. -1.
    10030    2    1    2    0    0  0.00000000000E+00  0.00000000000E+00 -0.12233857738E+04  0.38990891742E+04  0.37021917342E+04 0.  0.
        4    1    3    3  502    0  0.10642101120E+04  0.43819247610E+03  0.91524179884E+03  0.14704506016E+04  0.12699999809E+01 0. -1.
       -4    1    3    3    0  502 -0.10642101120E+04 -0.43819247610E+03 -0.21386275726E+04  0.24286385725E+04  0.12699999809E+01 0.  1.
</event>
<event>
 5   0  0.7203049E-08  0.3701187E+04  0.7818609E-02  0.8067699E-01
       -2   -1    0    0    0  501  0.00000000000E+00  0.00000000000E+00  0.12794450835E+04  0.12794450835E+04  0.25500000920E-02 0. -1.
        2   -1    0    0  501    0  0.00000000000E+00  0.00000000000E+00 -0.26767047082E+04  0.26767047082E+04  0.25500000920E-02 0.  1.
    10030    2    1    2    0    0  0.00000000000E+00  0.00000000000E+00 -0.13972596247E+04  0.39561497918E+04  0.37011872036E+04 0.  0.
        4    1    3    3  502    0  0.41870223105E+02 -0.16449267643E+04 -0.16038183910E+04  0.22977754938E+04  0.12699999809E+01 0.  1.
       -4    1    3    3    0  502 -0.41870223105E+02  0.16449267643E+04  0.20655876634E+03  0.16583742980E+04  0.12699999809E+01 0. -1.
</event>
<event>
 5   0  0.2282000E-08  0.3700993E+04  0.7818609E-02  0.8067742E-01
        1   -1    0    0  501    0  0.00000000000E+00  0.00000000000E+00  0.20848050103E+04  0.20848050103E+04  0.50400001928E-02 0. -1.
       -1   -1    0    0    0  501  0.00000000000E+00  0.00000000000E+00 -0.16425212263E+04  0.16425212263E+04  0.50400001928E-02 0.  1.
    10030    2    1    2    0    0  0.00000000000E+00  0.00000000000E+00  0.44228378401E+03  0.37273262366E+04  0.37009925599E+04 0.  0.
        2    1    3    3  502    0 -0.86962316645E+03  0.45484219722E+03 -0.13588453613E+04  0.16761821476E+04  0.25500000920E-02 0. -1.
       -2    1    3    3    0  502  0.86962316645E+03 -0.45484219722E+03  0.18011291453E+04  0.20511440890E+04  0.25500000920E-02 0.  1.
</event>
<event>
 5   0  0.7362817E-08  0.3707950E+04  0.7818609E-02  0.8066202E-01
        2   -1    0    0  501    0  0.00000000000E+00  0.00000000000E+00  0.20130257862E+04  0.20130257862E+04  0.25500000920E-02 0.  1.
       -2   -1    0    0    0  501  0.00000000000E+00  0.00000000000E+00 -0.17074906369E+04  0.17074906369E+04  0.25500000920E-02 0. -1.
    10030    2    1    2    0    0  0.00000000000E+00  0.00000000000E+00  0.30553514923E+03  0.37205164231E+04  0.37079496662E+04 0.  0.
        1    1    3    3  502    0  0.18485858772E+03  0.71202240004E+03  0.18603207207E+04  0.20004853859E+04  0.50400001928E-02 0.  1.
       -1    1    3    3    0  502 -0.18485858772E+03 -0.71202240004E+03 -0.15547855714E+04  0.17200310372E+04  0.50400001928E-02 0. -1.
</event>
<event>
 5   0  0.2282000E-08  0.3701161E+04  0.7818609E-02  0.8067705E-01
        1   -1    0    0  501    0  0.00000000000E+00  0.00000000000E+00  0.17554038464E+04  0.17554038464E+04  0.50400001928E-02 0.  1.
       -1   -1    0    0    0  501  0.00000000000E+00  0.00000000000E+00 -0.19509171596E+04  0.19509171596E+04  0.50400001928E-02 0. -1.
    10030    2    1    2    0    0  0.00000000000E+00  0.00000000000E+00 -0.19551331322E+03  0.37063210060E+04  0.37011606212E+04 0.  0.
        5    1    3    3  502    0  0.55966500110E+03  0.98445188373E+03  0.13679284603E+04  0.17758436832E+04  0.46999998093E+01 0.  1.
       -5    1    3    3    0  502 -0.55966500110E+03 -0.98445188373E+03 -0.15634417735E+04  0.19304773228E+04  0.46999998093E+01 0. -1.
</event>
<event>
 5   0  0.2282000E-08  0.3692099E+04  0.7818609E-02  0.8069715E-01
        1   -1    0    0  501    0  0.00000000000E+00  0.00000000000E+00  0.12971732130E+04  0.12971732130E+04  0.50400001928E-02 0. -1.
       -1   -1    0    0    0  501  0.00000000000E+00  0.00000000000E+00 -0.26271727975E+04  0.26271727975E+04  0.50400001928E-02 0.  1.
    10030    2    1    2    0    0  0.00000000000E+00  0.00000000000E+00 -0.13299995845E+04  0.39243460105E+04  0.36920986871E+04 0.  0.
        5    1    3    3  502    0 -0.81812409987E+03 -0.15126377308E+04  0.48394924181E+02  0.17203964968E+04  0.46999998093E+01 0. -1.
       -5    1    3    3    0  502  0.81812409987E+03  0.15126377308E+04 -0.13783945087E+04  0.22039495137E+04  0.46999998093E+01 0.  1.
</event>
<event>
 5   0  0.2282000E-08  0.3698423E+04  0.7818609E-02  0.8068311E-01
        1   -1    0    0  501    0  0.00000000000E+00  0.00000000000E+00  0.19605909320E+04  0.19605909320E+04  0.50400001928E-02 0. -1.
       -1   -1    0    0    0  501  0.00000000000E+00  0.00000000000E+00 -0.17441592752E+04  0.17441592752E+04  0.50400001928E-02 0.  1.
    10030    2    1    2    0    0  0.00000000000E+00  0.00000000000E+00  0.21643165680E+03  0.37047502072E+04  0.36984228309E+04 0.  0.
        5    1    3    3  502    0  0.13105879094E+04  0.50816971902E+03 -0.10953736616E+04  0.17820613570E+04  0.46999998093E+01 0.  1.
       -5    1    3    3    0  502 -0.13105879094E+04 -0.50816971902E+03  0.13118053184E+04  0.19226888503E+04  0.46999998093E+01 0. -1.
</event>
<event>
 5   0  0.2282000E-08  0.3667317E+04  0.7818609E-02  0.8075244E-01
        1   -1    0    0  501    0  0.00000000000E+00  0.00000000000E+00  0.23214077379E+04  0.23214077379E+04  0.50400001928E-02 0.  1.
       -1   -1    0    0    0  501  0.00000000000E+00  0.00000000000E+00 -0.14483895572E+04  0.14483895572E+04  0.50400001928E-02 0. -1.
    10030    2    1    2    0    0  0.00000000000E+00  0.00000000000E+00  0.87301818068E+03  0.37697972950E+04  0.36673165805E+04 0.  0.
        2    1    3    3  502    0  0.73301660053E+03 -0.63829805904E+03  0.20348104695E+04  0.22550368945E+04  0.25500000920E-02 0.  1.
       -2    1    3    3    0  502 -0.73301660053E+03  0.63829805904E+03 -0.11617922888E+04  0.15147604006E+04  0.25500000920E-02 0. -1.
</event>
<event>
 5   0  0.7254493E-08  0.3700833E+04  0.7818609E-02  0.8067777E-01
        2   -1    0    0  501    0  0.00000000000E+00  0.00000000000E+00  0.12001526740E+04  0.12001526740E+04  0.25500000920E-02 0. -1.
       -2   -1    0    0    0  501  0.00000000000E+00  0.00000000000E+00 -0.28530048542E+04  0.28530048542E+04  0.25500000920E-02 0.  1.
    10030    2    1    2    0    0  0.00000000000E+00  0.00000000000E+00 -0.16528521802E+04  0.40531575283E+04  0.37008330980E+04 0.  0.
        3    1    3    3  502    0 -0.74892101644E+03 -0.18714550133E+03  0.10153807114E+04  0.12755015198E+04  0.10100000352E+00 0. -1.
       -3    1    3    3    0  502  0.74892101644E+03  0.18714550133E+03 -0.26682328916E+04  0.27776560085E+04  0.10100000352E+00 0.  1.
</event>
<event>
 5   0  0.7191801E-08  0.3695584E+04  0.7818609E-02  0.8068941E-01
       -2   -1    0    0    0  501  0.00000000000E+00  0.00000000000E+00  0.98326989373E+03  0.98326989374E+03  0.25500000920E-02 0. -1.
        2   -1    0    0  501    0  0.00000000000E+00  0.00000000000E+00 -0.34724292531E+04  0.34724292531E+04  0.25500000920E-02 0.  1.
    10030    2    1    2    0    0  0.00000000000E+00  0.00000000000E+00 -0.24891593593E+04  0.44556991468E+04  0.36955839282E+04 0.  0.
        5    1    3    3  502    0 -0.35968597174E+03 -0.14518975475E+04  0.63422836545E+02  0.14971389491E+04  0.46999998093E+01 0. -1.
       -5    1    3    3    0  502  0.35968597174E+03  0.14518975475E+04 -0.25525821959E+04  0.29585601977E+04  0.46999998093E+01 0.  1.
</event>
<event>
 5   0  0.7309833E-08  0.3721186E+04  0.7818609E-02  0.8063283E-01
       -2   -1    0    0    0  501  0.00000000000E+00  0.00000000000E+00  0.16508289143E+04  0.16508289143E+04  0.25500000920E-02 0. -1.
        2   -1    0    0  501    0  0.00000000000E+00  0.00000000000E+00 -0.20970104117E+04  0.20970104117E+04  0.25500000920E-02 0.  1.
    10030    2    1    2    0    0  0.00000000000E+00  0.00000000000E+00 -0.44618149733E+03  0.37478393260E+04  0.37211855214E+04 0.  0.
        2    1    3    3  502    0 -0.17356624023E+04 -0.47349928310E+03  0.25473326758E+03  0.18170345576E+04  0.25500000920E-02 0.  1.
       -2    1    3    3    0  502  0.17356624023E+04  0.47349928310E+03 -0.70091476491E+03  0.19308047684E+04  0.25500000920E-02 0. -1.
</event>
<event>
 5   0  0.2282000E-08  0.3704969E+04  0.7818609E-02  0.8066861E-01
        1   -1    0    0  501    0  0.00000000000E+00  0.00000000000E+00  0.12634941408E+04  0.12634941408E+04  0.50400001928E-02 0.  1.
       -1   -1    0    0    0  501  0.00000000000E+00  0.00000000000E+00 -0.27160391138E+04  0.27160391138E+04  0.50400001928E-02 0. -1.
    10030    2    1    2    0    0  0.00000000000E+00  0.00000000000E+00 -0.14525449729E+04  0.39795332546E+04  0.37049693691E+04 0.  0.
        4    1    3    3  502    0 -0.77066714075E+03 -0.70395835004E+03  0.91757181897E+03  0.13897571213E+04  0.12699999809E+01 0.  1.
       -4    1    3    3    0  502  0.77066714075E+03  0.70395835004E+03 -0.23701167919E+04  0.25897761333E+04  0.12699999809E+01 0. -1.
</event>
<event>
 5   0  0.7362817E-08  0.3716250E+04  0.7818609E-02  0.8064370E-01
        2   -1    0    0  501    0  0.00000000000E+00  0.00000000000E+00  0.19291807604E+04  0.19291807604E+04  0.25500000920E-02 0.  1.
       -2   -1    0    0    0  501  0.00000000000E+00  0.00000000000E+00 -0.17896859935E+04  0.17896859935E+04  0.25500000920E-02 0. -1.
    10030    2    1    2    0    0  0.00000000000E+00  0.00000000000E+00  0.13949476693E+03  0.37188667538E+04  0.37162496072E+04 0.  0.
        1    1    3    3  502    0 -0.11688569599E+03 -0.14722558201E+04  0.11981177757E+04  0.19017585731E+04  0.50400001928E-02 0.  1.
       -1    1    3    3    0  502  0.11688569599E+03  0.14722558201E+04 -0.10586230088E+04  0.18171081808E+04  0.50400001928E-02 0. -1.
</event>
<event>
 5   0  0.2282000E-08  0.3701330E+04  0.7818609E-02  0.8067667E-01
        1   -1    0    0  501    0  0.00000000000E+00  0.00000000000E+00  0.17413858001E+04  0.17413858001E+04  0.50400001928E-02 0. -1.
       -1   -1    0    0    0  501  0.00000000000E+00  0.00000000000E+00 -0.19668019936E+04  0.19668019936E+04  0.50400001928E-02 0.  1.
    10030    2    1    2    0    0  0.00000000000E+00  0.00000000000E+00 -0.22541619355E+03  0.37081877937E+04  0.37013300654E+04 0.  0.
        2    1    3    3  502    0  0.17717501617E+03 -0.24863869241E+02  0.17327014129E+04  0.17419137133E+04  0.25500000920E-02 0. -1.
       -2    1    3    3    0  502 -0.17717501617E+03  0.24863869241E+02 -0.19581176065E+04  0.19662740804E+04  0.25500000920E-02 0.  1.
</event>
<event>
 5   0  0.2282000E-08  0.3647990E+04  0.7818609E-02  0.8079587E-01
       -1   -1    0    0    0  501  0.00000000000E+00  0.00000000000E+00  0.12364586160E+04  0.12364586160E+04  0.50400001928E-02 0.  1.
        1   -1    0    0  501    0  0.00000000000E+00  0.00000000000E+00 -0.26907150121E+04  0.26907150121E+04  0.50400001928E-02 0. -1.
    10030    2    1    2    0    0  0.00000000000E+00  0.00000000000E+00 -0.14542563962E+04  0.39271736281E+04  0.36479899999E+04 0.  0.
        1    1    3    3  502    0  0.13702476018E+04  0.88565918425E+03 -0.16050039775E+04  0.22886695805E+04  0.50400001928E-02 0. -1.
       -1    1    3    3    0  502 -0.13702476018E+04 -0.88565918425E+03  0.15074758131E+03  0.16385040476E+04  0.50400001928E-02 0.  1.
</event>
<event>
 5   0  0.2282000E-08  0.3698024E+04  0.7818609E-02  0.8068400E-01
        1   -1    0    0  501    0  0.00000000000E+00  0.00000000000E+00  0.17334545743E+04  0.17334545743E+04  0.50400001928E-02 0. -1.
       -1   -1    0    0    0  501  0.00000000000E+00  0.00000000000E+00 -0.19722732756E+04  0.19722732756E+04  0.50400001928E-02 0.  1.
    10030    2    1    2    0    0  0.00000000000E+00  0.00000000000E+00 -0.23881870124E+03  0.37057278499E+04  0.36980244084E+04 0.  0.
        3    1    3    3  502    0  0.10541031613E+04  0.16124750594E+03 -0.16330896223E+04  0.19504143040E+04  0.10100000352E+00 0.  1.
       -3    1    3    3    0  502 -0.10541031613E+04 -0.16124750594E+03  0.13942709210E+04  0.17553135459E+04  0.10100000352E+00 0. -1.
</event>
<event>
 5   0  0.2282000E-08  0.3695286E+04  0.7818609E-02  0.8069007E-01
       -1   -1    0    0    0  501  0.00000000000E+00  0.00000000000E+00  0.21395897034E+04  0.21395897034E+04  0.50400001928E-02 0. -1.
        1   -1    0    0  501    0  0.00000000000E+00  0.00000000000E+00 -0.15955323454E+04  0.15955323454E+04  0.50400001928E-02 0.  1.
    10030    2    1    2    0    0  0.00000000000E+00  0.00000000000E+00  0.54405735800E+03  0.37351220489E+04  0.36952859580E+04 0.  0.
        2    1    3    3  502    0  0.25307132574E+03  0.39052748180E+03  0.20793839656E+04  0.21308201440E+04  0.25500000920E-02 0. -1.
       -2    1    3    3    0  502 -0.25307132574E+03 -0.39052748180E+03 -0.15353266076E+04  0.16043019048E+04  0.25500000920E-02 0.  1.
</event>
<event>
 5   0  0.2282000E-08  0.3698373E+04  0.7818609E-02  0.8068323E-01
        1   -1    0    0  501    0  0.00000000000E+00  0.00000000000E+00  0.18480153054E+04  0.18480153054E+04  0.50400001928E-02 0. -1.
       -1   -1    0    0    0  501  0.00000000000E+00  0.00000000000E+00 -0.18503582748E+04  0.18503582748E+04  0.50400001928E-02 0.  1.
    10030    2    1    2    0    0  0.00000000000E+00  0.00000000000E+00 -0.23429694082E+01  0.36983735803E+04  0.36983728381E+04 0.  0.
        3    1    3    3  502    0 -0.13464266636E+04 -0.42610466261E+03 -0.11949306858E+04  0.18499430527E+04  0.10100000352E+00 0.  1.
       -3    1    3    3    0  502  0.13464266636E+04  0.42610466261E+03  0.11925877164E+04  0.18484305276E+04  0.10100000352E+00 0. -1.
</event>
<event>
 5   0  0.2282000E-08  0.3713929E+04  0.7818609E-02  0.8064882E-01
        1   -1    0    0  501    0  0.00000000000E+00  0.00000000000E+00  0.24883837215E+04  0.24883837216E+04  0.50400001928E-02 0.  1.
       -1   -1    0    0    0  501  0.00000000000E+00  0.00000000000E+00 -0.13857655565E+04  0.13857655565E+04  0.50400001928E-02 0. -1.
    10030    2    1    2    0    0  0.00000000000E+00  0.00000000000E+00  0.11026181650E+04  0.38741492781E+04  0.37139286222E+04 0.  0.
        1    1    3    3  502    0  0.16397264371E+04  0.68677148316E+03  0.11110767636E+04  0.20963896187E+04  0.50400001928E-02 0. -1.
       -1    1    3    3    0  502 -0.16397264371E+04 -0.68677148316E+03 -0.84585985935E+01  0.17777596594E+04  0.50400001928E-02 0.  1.
</event>
<event>
 5   0  0.2282000E-08  0.3711799E+04  0.7818609E-02  0.8065352E-01
        1   -1    0    0  501    0  0.00000000000E+00  0.00000000000E+00  0.12493588403E+04  0.12493588403E+04  0.50400001928E-02 0. -1.
       -1   -1    0    0    0  501  0.00000000000E+00  0.00000000000E+00 -0.27569038910E+04  0.27569038910E+04  0.50400001928E-02 0.  1.
    10030    2    1    2    0    0  0.00000000000E+00  0.00000000000E+00 -0.15075450507E+04  0.40062627313E+04  0.37117986195E+04 0.  0.
        2    1    3    3  502    0 -0.45910567369E+03  0.13146828438E+04  0.57042006038E+03  0.15048415347E+04  0.25500000920E-02 0. -1.
       -2    1    3    3    0  502  0.45910567369E+03 -0.13146828438E+04 -0.20779651111E+04  0.25014211965E+04  0.25500000920E-02 0.  1.
</event>
<event>
 5   0  0.7309833E-08  0.3705439E+04  0.7818609E-02  0.8066758E-01
        2   -1    0    0  501    0  0.00000000000E+00  0.00000000000E+00  0.18363956619E+04  0.18363956619E+04  0.25500000920E-02 0.  1.
       -2   -1    0    0    0  501  0.00000000000E+00  0.00000000000E+00 -0.18691883759E+04  0.18691883759E+04  0.25500000920E-02 0. -1.
    10030    2    1    2    0    0  0.00000000000E+00  0.00000000000E+00 -0.32792714061E+02  0.37055840378E+04  0.37054389347E+04 0.  0.
        2    1    3    3  502    0 -0.71468332864E+03  0.48433946225E+03 -0.16557324768E+04  0.18672993894E+04  0.25500000920E-02 0. -1.
       -2    1    3    3    0  502  0.71468332864E+03 -0.48433946225E+03  0.16229397628E+04  0.18382846484E+04  0.25500000920E-02 0.  1.
</event>
<event>
 5   0  0.2282000E-08  0.3752616E+04  0.7818609E-02  0.8056400E-01
       -1   -1    0    0    0  501  0.00000000000E+00  0.00000000000E+00  0.15160219997E+04  0.15160219997E+04  0.50400001928E-02 0. -1.
        1   -1    0    0  501    0  0.00000000000E+00  0.00000000000E+00 -0.23222172309E+04  0.23222172309E+04  0.50400001928E-02 0.  1.
    10030    2    1    2    0    0  0.00000000000E+00  0.00000000000E+00 -0.80619523125E+03  0.38382392306E+04  0.37526163727E+04 0.  0.
        2    1    3    3  502    0  0.59200574022E+03  0.15776817899E+04 -0.12471426482E+04  0.20964053548E+04  0.25500000920E-02 0.  1.
       -2    1    3    3    0  502 -0.59200574022E+03 -0.15776817899E+04  0.44094741694E+03  0.17418338759E+04  0.25500000920E-02 0. -1.
</event>
<event>
 5   0  0.2282000E-08  0.3646937E+04  0.7818609E-02  0.8079824E-01
        1   -1    0    0  501    0  0.00000000000E+00  0.00000000000E+00  0.25373444503E+04  0.25373444503E+04  0.50400001928E-02 0.  1.
       -1   -1    0    0    0  501  0.00000000000E+00  0.00000000000E+00 -0.13104396322E+04  0.13104396322E+04  0.50400001928E-02 0. -1.
    10030    2    1    2    0    0  0.00000000000E+00  0.00000000000E+00  0.12269048181E+04  0.38477840825E+04  0.36469366477E+04 0.  0.
        5    1    3    3  502    0 -0.46918290058E+03  0.17084739365E+04  0.10684798697E+04  0.20689821429E+04  0.46999998093E+01 0. -1.
       -5    1    3    3    0  502  0.46918290058E+03 -0.17084739365E+04  0.15842494845E+03  0.17788019395E+04  0.46999998093E+01 0.  1.
</event>
<event>
 5   0  0.7254493E-08  0.3701438E+04  0.7818609E-02  0.8067643E-01
       -2   -1    0    0    0  501  0.00000000000E+00  0.00000000000E+00  0.12408908328E+04  0.12408908328E+04  0.25500000920E-02 0.  1.
        2   -1    0    0  501    0  0.00000000000E+00  0.00000000000E+00 -0.27602432493E+04  0.27602432493E+04  0.25500000920E-02 0. -1.
    10030    2    1    2    0    0  0.00000000000E+00  0.00000000000E+00 -0.15193524165E+04  0.40011340821E+04  0.37014378527E+04 0.  0.
        3    1    3    3  502    0  0.12382174233E+04  0.12664088432E+04 -0.13399723420E+04  0.22209231488E+04  0.10100000352E+00 0. -1.
       -3    1    3    3    0  502 -0.12382174233E+04 -0.12664088432E+04 -0.17938007456E+03  0.17802109333E+04  0.10100000352E+00 0.  1.
</event>
<event>
 5   0  0.7254493E-08  0.3700199E+04  0.7818609E-02  0.8067918E-01
        2   -1    0    0  501    0  0.00000000000E+00  0.00000000000E+00  0.19297325085E+04  0.19297325085E+04  0.25500000920E-02 0. -1.
       -2   -1    0    0    0  501  0.00000000000E+00  0.00000000000E+00 -0.17737521767E+04  0.17737521767E+04  0.25500000920E-02 0.  1.
    10030    2    1    2    0    0  0.00000000000E+00  0.00000000000E+00  0.15598033177E+03  0.37034846852E+04  0.37001985014E+04 0.  0.
        3    1    3    3  502    0  0.16445866506E+04  0.67572621950E+03  0.58990901757E+03  0.18733029211E+04  0.10100000352E+00 0. -1.
       -3    1    3    3    0  502 -0.16445866506E+04 -0.67572621950E+03 -0.43392868580E+03  0.18301817641E+04  0.10100000352E+00 0.  1.
</event>
<event>
 5   0  0.7203049E-08  0.3688227E+04  0.7818609E-02  0.8070576E-01
        2   -1    0    0  501    0  0.00000000000E+00  0.00000000000E+00  0.23352519644E+04  0.23352519644E+04  0.25500000920E-02 0.  1.
       -2   -1    0    0    0  501  0.00000000000E+00  0.00000000000E+00 -0.14562690827E+04  0.14562690827E+04  0.25500000920E-02 0. -1.
    10030    2    1    2    0    0  0.00000000000E+00  0.00000000000E+00  0.87898288167E+03  0.37915210471E+04  0.36882273444E+04 0.  0.
        4    1    3    3  502    0  0.11236613040E+03  0.48735445784E+03 -0.13852163468E+04  0.14727411365E+04  0.12699999809E+01 0. -1.
       -4    1    3    3    0  502 -0.11236613040E+03 -0.48735445784E+03  0.22641992284E+04  0.23187799106E+04  0.12699999809E+01 0.  1.
</event>
<event>
 5   0  0.7254493E-08  0.3703113E+04  0.7818609E-02  0.8067272E-01
        2   -1    0    0  501    0  0.00000000000E+00  0.00000000000E+00  0.16563429357E+04  0.16563429357E+04  0.25500000920E-02 0.  1.
       -2   -1    0    0    0  501  0.00000000000E+00  0.00000000000E+00 -0.20697776457E+04  0.20697776457E+04  0.25500000920E-02 0. -1.
    10030    2    1    2    0    0  0.00000000000E+00  0.00000000000E+00 -0.41343471002E+03  0.37261205814E+04  0.37031130589E+04 0.  0.
        3    1    3    3  502    0  0.99454933228E+02  0.47103115590E+03  0.15922665738E+04  0.16634525800E+04  0.10100000352E+00 0.  1.
       -3    1    3    3    0  502 -0.99454933228E+02 -0.47103115590E+03 -0.20057012838E+04  0.20626680014E+04  0.10100000352E+00 0. -1.
</event>
<event>
 5   0  0.7362817E-08  0.3695934E+04  0.7818609E-02  0.8068864E-01
       -2   -1    0    0    0  501  0.00000000000E+00  0.00000000000E+00  0.16535572328E+04  0.16535572328E+04  0.25500000920E-02 0. -1.
        2   -1    0    0  501    0  0.00000000000E+00  0.00000000000E+00 -0.20652336042E+04  0.20652336042E+04  0.25500000920E-02 0.  1.
    10030    2    1    2    0    0  0.00000000000E+00  0.00000000000E+00 -0.41167637143E+03  0.37187908369E+04  0.36959339624E+04 0.  0.
        1    1    3    3  502    0 -0.75414596894E+01 -0.16102964805E+04  0.70633899134E+03  0.17584158779E+04  0.50400001928E-02 0. -1.
       -1    1    3    3    0  502  0.75414596894E+01  0.16102964805E+04 -0.11180153628E+04  0.19603749591E+04  0.50400001928E-02 0.  1.
</event>
<event>
 5   0  0.7254493E-08  0.3696764E+04  0.7818609E-02  0.8068679E-01
        2   -1    0    0  501    0  0.00000000000E+00  0.00000000000E+00  0.15877089266E+04  0.15877089266E+04  0.25500000920E-02 0. -1.
       -2   -1    0    0    0  501  0.00000000000E+00  0.00000000000E+00 -0.21518528197E+04  0.21518528197E+04  0.25500000920E-02 0.  1.
    10030    2    1    2    0    0  0.00000000000E+00  0.00000000000E+00 -0.56414389307E+03  0.37395617464E+04  0.36967639528E+04 0.  0.
        3    1    3    3  502    0 -0.67479348561E+02 -0.11036416875E+04  0.12162706004E+04  0.16437434777E+04  0.10100000352E+00 0. -1.
       -3    1    3    3    0  502  0.67479348561E+02  0.11036416875E+04 -0.17804144934E+04  0.20958182687E+04  0.10100000352E+00 0.  1.
</event>
<event>
 5   0  0.7191801E-08  0.3697641E+04  0.7818609E-02  0.8068485E-01
       -2   -1    0    0    0  501  0.00000000000E+00  0.00000000000E+00  0.17782050127E+04  0.17782050127E+04  0.25500000920E-02 0.  1.
        2   -1    0    0  501    0  0.00000000000E+00  0.00000000000E+00 -0.19222402420E+04  0.19222402420E+04  0.25500000920E-02 0. -1.
    10030    2    1    2    0    0  0.00000000000E+00  0.00000000000E+00 -0.14403522932E+03  0.37004452547E+04  0.36976409961E+04 0.  0.
        5    1    3    3  502    0 -0.62215448946E+03 -0.15334150452E+04 -0.89706824821E+03  0.18823366972E+04  0.46999998093E+01 0.  1.
       -5    1    3    3    0  502  0.62215448946E+03  0.15334150452E+04  0.75303301890E+03  0.18181085576E+04  0.46999998093E+01 0. -1.
</event>
<event>
 5   0  0.2282000E-08  0.3683614E+04  0.7818609E-02  0.8071603E-01
       -1   -1    0    0    0  501  0.00000000000E+00  0.00000000000E+00  0.13039720851E+04  0.13039720852E+04  0.50400001928E-02 0.  1.
        1   -1    0    0  501    0  0.00000000000E+00  0.00000000000E+00 -0.26014770103E+04  0.26014770103E+04  0.50400001928E-02 0. -1.
    10030    2    1    2    0    0  0.00000000000E+00  0.00000000000E+00 -0.12975049251E+04  0.39054490954E+04  0.36836142043E+04 0.  0.
        5    1    3    3  502    0  0.15626945771E+03 -0.97886095806E+03 -0.22945376153E+04  0.24995027259E+04  0.46999998093E+01 0. -1.
       -5    1    3    3    0  502 -0.15626945771E+03  0.97886095806E+03  0.99703269021E+03  0.14059463695E+04  0.46999998093E+01 0.  1.
</event>
<event>
 5   0  0.2282000E-08  0.3698356E+04  0.7818609E-02  0.8068326E-01
       -1   -1    0    0    0  501  0.00000000000E+00  0.00000000000E+00  0.25401863844E+04  0.25401863844E+04  0.50400001928E-02 0. -1.
        1   -1    0    0  501    0  0.00000000000E+00  0.00000000000E+00 -0.13461450864E+04  0.13461450865E+04  0.50400001928E-02 0.  1.
    10030    2    1    2    0    0  0.00000000000E+00  0.00000000000E+00  0.11940412980E+04  0.38863314709E+04  0.36983560781E+04 0.  0.
        1    1    3    3  502    0  0.61105464514E+03 -0.46719471311E+03 -0.11700565319E+04  0.14002467522E+04  0.50400001928E-02 0.  1.
       -1    1    3    3    0  502 -0.61105464514E+03  0.46719471311E+03  0.23640978298E+04  0.24860847187E+04  0.50400001928E-02 0. -1.
</event>
<event>
 5   0  0.2282000E-08  0.3701052E+04  0.7818609E-02  0.8067729E-01
        1   -1    0    0  501    0  0.00000000000E+00  0.00000000000E+00  0.17825319167E+04  0.17825319167E+04  0.50400001928E-02 0.  1.
       -1   -1    0    0    0  501  0.00000000000E+00  0.00000000000E+00 -0.19211136501E+04  0.19211136501E+04  0.50400001928E-02 0. -1.
    10030    2    1    2    0    0  0.00000000000E+00  0.00000000000E+00 -0.13858173341E+03  0.37036455668E+04  0.37010519569E+04 0.  0.
        3    1    3    3  502    0  0.12291670398E+04  0.89149974580E+02 -0.14507100130E+04  0.19035122489E+04  0.10100000352E+00 0. -1.
       -3    1    3    3    0  502 -0.12291670398E+04 -0.89149974580E+02  0.13121282796E+04  0.18001333179E+04  0.10100000352E+00 0.  1.
</event>
<event>
 5   0  0.2282000E-08  0.3697105E+04  0.7818609E-02  0.8068604E-01
        1   -1    0    0  501    0  0.00000000000E+00  0.00000000000E+00  0.22502347261E+04  0.22502347261E+04  0.50400001928E-02 0.  1.
       -1   -1    0    0    0  501  0.00000000000E+00  0.00000000000E+00 -0.15185735077E+04  0.15185735078E+04  0.50400001928E-02 0. -1.
    10030    2    1    2    0    0  0.00000000000E+00  0.00000000000E+00  0.73166121830E+03  0.37688082338E+04  0.36971052683E+04 0.  0.
        1    1    3    3  502    0  0.25236568920E+03  0.12603053237E+04  0.17201637766E+04  0.21473288915E+04  0.50400001928E-02 0.  1.
       -1    1    3    3    0  502 -0.25236568920E+03 -0.12603053237E+04 -0.98850255825E+03  0.16214793423E+04  0.50400001928E-02 0. -1.
</event>
<event>
 5   0  0.2282000E-08  0.3689795E+04  0.7818609E-02  0.8070227E-01
        1   -1    0    0  501    0  0.00000000000E+00  0.00000000000E+00  0.26534373778E+04  0.26534373778E+04  0.50400001928E-02 0. -1.
       -1   -1    0    0    0  501  0.00000000000E+00  0.00000000000E+00 -0.12827312640E+04  0.12827312640E+04  0.50400001928E-02 0.  1.
    10030    2    1    2    0    0  0.00000000000E+00  0.00000000000E+00  0.13707061138E+04  0.39361686417E+04  0.36897951604E+04 0.  0.
        4    1    3    3  502    0 -0.62922812174E+03 -0.13401338776E+04  0.18596542465E+04  0.23770154329E+04  0.12699999809E+01 0. -1.
       -4    1    3    3    0  502  0.62922812174E+03  0.13401338776E+04 -0.48894813267E+03  0.15591532088E+04  0.12699999809E+01 0.  1.
</event>
<event>
 5   0  0.7203049E-08  0.3702637E+04  0.7818609E-02  0.8067378E-01
       -2   -1    0    0    0  501  0.00000000000E+00  0.00000000000E+00  0.13289039157E+04  0.13289039157E+04  0.25500000920E-02 0.  1.
        2   -1    0    0  501    0  0.00000000000E+00  0.00000000000E+00 -0.25791026854E+04  0.25791026854E+04  0.25500000920E-02 0. -1.
    10030    2    1    2    0    0  0.00000000000E+00  0.00000000000E+00 -0.12501987697E+04  0.39080066011E+04  0.37026367133E+04 0.  0.
        4    1    3    3  502    0  0.12386504583E+04 -0.11004380278E+03  0.82247248780E+03  0.14909148877E+04  0.12699999809E+01 0.  1.
       -4    1    3    3    0  502 -0.12386504583E+04  0.11004380278E+03 -0.20726712575E+04  0.24170917134E+04  0.12699999809E+01 0. -1.
</event>
<event>
 5   0  0.7191801E-08  0.3698930E+04  0.7818609E-02  0.8068199E-01
        2   -1    0    0  501    0  0.00000000000E+00  0.00000000000E+00  0.14297817319E+04  0.14297817319E+04  0.25500000920E-02 0. -1.
       -2   -1    0    0    0  501  0.00000000000E+00  0.00000000000E+00 -0.23923382264E+04  0.23923382264E+04  0.25500000920E-02 0.  1.
    10030    2    1    2    0    0  0.00000000000E+00  0.00000000000E+00 -0.96255649451E+03  0.38221199582E+04  0.36989303819E+04 0.  0.
        5    1    3    3  502    0  0.61293360328E+03 -0.16006364564E+04  0.23668204049E+03  0.17302500241E+04  0.46999998093E+01 0.  1.
       -5    1    3    3    0  502 -0.61293360328E+03  0.16006364564E+04 -0.11992385350E+04  0.20918699341E+04  0.46999998093E+01 0. -1.
</event>
<event>
 5   0  0.2282000E-08  0.3698418E+04  0.7818609E-02  0.8068313E-01
        1   -1    0    0  501    0  0.00000000000E+00  0.00000000000E+00  0.25420024390E+04  0.25420024390E+04  0.50400001928E-02 0. -1.
       -1   -1    0    0    0  501  0.00000000000E+00  0.00000000000E+00 -0.13452282577E+04  0.13452282578E+04  0.50400001928E-02 0.  1.
    10030    2    1    2    0    0  0.00000000000E+00  0.00000000000E+00  0.11967741813E+04  0.38872306968E+04  0.36984177764E+04 0.  0.
        1    1    3    3  502    0  0.17177324467E+03 -0.12380054094E+04 -0.83405886559E+03  0.15026036179E+04  0.50400001928E-02 0.  1.
       -1    1    3    3    0  502 -0.17177324467E+03  0.12380054094E+04  0.20308330469E+04  0.23846270789E+04  0.50400001928E-02 0. -1.
</event>
<event>
 5   0  0.7254493E-08  0.3695272E+04  0.7818609E-02  0.8069010E-01
        2   -1    0    0  501    0  0.00000000000E+00  0.00000000000E+00  0.14727837881E+04  0.14727837881E+04  0.25500000920E-02 0. -1.
       -2   -1    0    0    0  501  0.00000000000E+00  0.00000000000E+00 -0.23178956813E+04  0.23178956813E+04  0.25500000920E-02 0.  1.
    10030    2    1    2    0    0  0.00000000000E+00  0.00000000000E+00 -0.84511189321E+03  0.37906794694E+04  0.36952722130E+04 0.  0.
        3    1    3    3  502    0  0.14990949195E+04  0.64478144193E+03 -0.13113735614E+04  0.20934969103E+04  0.10100000352E+00 0.  1.
       -3    1    3    3    0  502 -0.14990949195E+04 -0.64478144193E+03  0.46626166818E+03  0.16971825592E+04  0.10100000352E+00 0. -1.
</event>
<event>
 5   0  0.7362817E-08  0.3703022E+04  0.7818609E-02  0.8067293E-01
       -2   -1    0    0    0  501  0.00000000000E+00  0.00000000000E+00  0.16523368160E+04  0.16523368160E+04  0.25500000920E-02 0. -1.
        2   -1    0    0  501    0  0.00000000000E+00  0.00000000000E+00 -0.20746934340E+04  0.20746934341E+04  0.25500000920E-02 0.  1.
    10030    2    1    2    0    0  0.00000000000E+00  0.00000000000E+00 -0.42235661803E+03  0.37270302501E+04  0.37030216543E+04 0.  0.
        1    1    3    3  502    0  0.16830565120E+04 -0.51204018057E+03 -0.79217999451E+03  0.19293557248E+04  0.50400001928E-02 0. -1.
       -1    1    3    3    0  502 -0.16830565120E+04  0.51204018057E+03  0.36982337648E+03  0.17976745253E+04  0.50400001928E-02 0.  1.
</event>
<event>
 5   0  0.7309833E-08  0.3703163E+04  0.7818609E-02  0.8067261E-01
        2   -1    0    0  501    0  0.00000000000E+00  0.00000000000E+00  0.12244507627E+04  0.12244507627E+04  0.25500000920E-02 0.  1.
       -2   -1    0    0    0  501  0.00000000000E+00  0.00000000000E+00 -0.27999117594E+04  0.27999117594E+04  0.25500000920E-02 0. -1.
    10030    2    1    2    0    0  0.00000000000E+00  0.00000000000E+00 -0.15754609967E+04  0.40243625220E+04  0.37031630205E+04 0.  0.
        2    1    3    3  502    0 -0.12983745713E+04 -0.10287675803E+04  0.11118838921E+03  0.16602717005E+04  0.25500000920E-02 0. -1.
       -2    1    3    3    0  502  0.12983745713E+04  0.10287675803E+04 -0.16866493859E+04  0.23640908216E+04  0.25500000920E-02 0.  1.
</event>
<event>
 5   0  0.2282000E-08  0.3698846E+04  0.7818609E-02  0.8068218E-01
       -1   -1    0    0    0  501  0.00000000000E+00  0.00000000000E+00  0.28366558597E+04  0.28366558597E+04  0.50400001928E-02 0.  1.
        1   -1    0    0  501    0  0.00000000000E+00  0.00000000000E+00 -0.12057736903E+04  0.12057736903E+04  0.50400001928E-02 0. -1.
    10030    2    1    2    0    0  0.00000000000E+00  0.00000000000E+00  0.16308821694E+04  0.40424295499E+04  0.36988457680E+04 0.  0.
        2    1    3    3  502    0  0.18216273054E+03  0.83941060640E+03  0.26054364089E+04  0.27433724333E+04  0.25500000920E-02 0.  1.
       -2    1    3    3    0  502 -0.18216273054E+03 -0.83941060640E+03 -0.97455423954E+03  0.12990571167E+04  0.25500000920E-02 0. -1.
</event>
<event>
 5   0  0.2282000E-08  0.3683785E+04  0.7818609E-02  0.8071565E-01
       -1   -1    0    0    0  501  0.00000000000E+00  0.00000000000E+00  0.15978475774E+04  0.15978475774E+04  0.50400001928E-02 0. -1.
        1   -1    0    0  501    0  0.00000000000E+00  0.00000000000E+00 -0.21232108842E+04  0.21232108842E+04  0.50400001928E-02 0.  1.
    10030    2    1    2    0    0  0.00000000000E+00  0.00000000000E+00 -0.52536330683E+03  0.37210584616E+04  0.36837846667E+04 0.  0.
        4    1    3    3  502    0  0.13215329727E+04  0.75718149753E+03 -0.13089187845E+04  0.20082438138E+04  0.12699999809E+01 0. -1.
       -4    1    3    3    0  502 -0.13215329727E+04 -0.75718149753E+03  0.78355547771E+03  0.17128146478E+04  0.12699999809E+01 0.  1.
</event>
<event>
 5   0  0.7191801E-08  0.3719835E+04  0.7818609E-02  0.8063580E-01
        2   -1    0    0  501    0  0.00000000000E+00  0.00000000000E+00  0.14418444871E+04  0.14418444871E+04  0.25500000920E-02 0. -1.
       -2   -1    0    0    0  501  0.00000000000E+00  0.00000000000E+00 -0.23992132848E+04  0.23992132848E+04  0.25500000920E-02 0.  1.
    10030    2    1    2    0    0  0.00000000000E+00  0.00000000000E+00 -0.95736879771E+03  0.38410577719E+04  0.37198346458E+04 0.  0.
        5    1    3    3  502    0 -0.14605825682E+04  0.11421360675E+04 -0.32729792710E+03  0.18827963932E+04  0.46999998093E+01 0. -1.
       -5    1    3    3    0  502  0.14605825682E+04 -0.11421360675E+04 -0.63007087061E+03  0.19582613787E+04  0.46999998093E+01 0.  1.
</event>
<event>
 5   0  0.2282000E-08  0.3706744E+04  0.7818609E-02  0.8066469E-01
       -1   -1    0    0    0  501  0.00000000000E+00  0.00000000000E+00  0.15962166929E+04  0.15962166929E+04  0.50400001928E-02 0.  1.
        1   -1    0    0  501    0  0.00000000000E+00  0.00000000000E+00 -0.21519552442E+04  0.21519552442E+04  0.50400001928E-02 0. -1.
    10030    2    1    2    0    0  0.00000000000E+00  0.00000000000E+00 -0.55573855126E+03  0.37481719371E+04  0.37067435213E+04 0.  0.
        2    1    3    3  502    0 -0.17567156638E+04 -0.53640387670E+03 -0.27702000973E+02  0.18369938604E+04  0.25500000920E-02 0.  1.
       -2    1    3    3    0  502  0.17567156638E+04  0.53640387670E+03 -0.52803655029E+03  0.19111780767E+04  0.25500000920E-02 0. -1.
</event>
<event>
 5   0  0.2282000E-08  0.3670738E+04  0.7818609E-02  0.8074478E-01
       -1   -1    0    0    0  501  0.00000000000E+00  0.00000000000E+00  0.14584051189E+04  0.14584051190E+04  0.50400001928E-02 0.  1.
        1   -1    0    0  501    0  0.00000000000E+00  0.00000000000E+00 -0.23097688386E+04  0.23097688386E+04  0.50400001928E-02 0. -1.
    10030    2    1    2    0    0  0.00000000000E+00  0.00000000000E+00 -0.85136371961E+03  0.37681739575E+04  0.36707376358E+04 0.  0.
        5    1    3    3  502    0  0.17714079106E+04  0.24740451136E+02 -0.91805774132E+03  0.19953320982E+04  0.46999998093E+01 0. -1.
       -5    1    3    3    0  502 -0.17714079106E+04 -0.24740451136E+02  0.66694021706E+02  0.17728418593E+04  0.46999998093E+01 0.  1.
</event>
<event>
 5   0  0.2282000E-08  0.3697084E+04  0.7818609E-02  0.8068608E-01
        1   -1    0    0  501    0  0.00000000000E+00  0.00000000000E+00  0.14332874500E+04  0.14332874500E+04  0.50400001928E-02 0. -1.
       -1   -1    0    0    0  501  0.00000000000E+00  0.00000000000E+00 -0.23841047001E+04  0.23841047001E+04  0.50400001928E-02 0.  1.
    10030    2    1    2    0    0  0.00000000000E+00  0.00000000000E+00 -0.95081725012E+03  0.38173921501E+04  0.36970839028E+04 0.  0.
        4    1    3    3  502    0  0.11530550762E+04  0.87057546867E+03 -0.16660448469E+04  0.22052538857E+04  0.12699999809E+01 0.  1.
       -4    1    3    3    0  502 -0.11530550762E+04 -0.87057546867E+03  0.71522759681E+03  0.16121382644E+04  0.12699999809E+01 0. -1.
</event>
<event>
 5   0  0.2282000E-08  0.3694033E+04  0.7818609E-02  0.8069285E-01
        1   -1    0    0  501    0  0.00000000000E+00  0.00000000000E+00  0.19626190628E+04  0.19626190628E+04  0.50400001928E-02 0.  1.
       -1   -1    0    0    0  501  0.00000000000E+00  0.00000000000E+00 -0.17382233008E+04  0.17382233008E+04  0.50400001928E-02 0. -1.
    10030    2    1    2    0    0  0.00000000000E+00  0.00000000000E+00  0.22439576201E+03  0.37008423637E+04  0.36940331269E+04 0.  0.
        3    1    3    3  502    0  0.18218293904E+04 -0.32901843257E+02 -0.19055995632E+03  0.18320638543E+04  0.10100000352E+00 0. -1.
       -3    1    3    3    0  502 -0.18218293904E+04  0.32901843257E+02  0.41495571833E+03  0.18687785094E+04  0.10100000352E+00 0.  1.
</event>
<event>
 5   0  0.2282000E-08  0.3701082E+04  0.7818609E-02  0.8067722E-01
        1   -1    0    0  501    0  0.00000000000E+00  0.00000000000E+00  0.25256695171E+04  0.25256695171E+04  0.50400001928E-02 0. -1.
       -1   -1    0    0    0  501  0.00000000000E+00  0.00000000000E+00 -0.13558789534E+04  0.13558789535E+04  0.50400001928E-02 0.  1.
    10030    2    1    2    0    0  0.00000000000E+00  0.00000000000E+00  0.11697905636E+04  0.38815484705E+04  0.37010820805E+04 0.  0.
        5    1    3    3  502    0  0.34001134626E+03  0.18189096888E+04  0.56289930100E+03  0.19341452595E+04  0.46999998093E+01 0.  1.
       -5    1    3    3    0  502 -0.34001134626E+03 -0.18189096888E+04  0.60689126262E+03  0.19474032110E+04  0.46999998093E+01 0. -1.
</event>
<event>
 5   0  0.2282000E-08  0.3689978E+04  0.7818609E-02  0.8070186E-01
        1   -1    0    0  501    0  0.00000000000E+00  0.00000000000E+00  0.20060101553E+04  0.20060101553E+04  0.50400001928E-02 0. -1.
       -1   -1    0    0    0  501  0.00000000000E+00  0.00000000000E+00 -0.16968927315E+04  0.16968927315E+04  0.50400001928E-02 0.  1.
    10030    2    1    2    0    0  0.00000000000E+00  0.00000000000E+00  0.30911742382E+03  0.37029028868E+04  0.36899778059E+04 0.  0.
        1    1    3    3  502    0 -0.15423294250E+04  0.99372801459E+03  0.34942600100E+03  0.18677189169E+04  0.50400001928E-02 0. -1.
       -1    1    3    3    0  502  0.15423294250E+04 -0.99372801459E+03 -0.40308577178E+02  0.18351839700E+04  0.50400001928E-02 0.  1.
</event>
<event>
 5   0  0.7362817E-08  0.3710133E+04  0.7818609E-02  0.8065720E-01
        2   -1    0    0  501    0  0.00000000000E+00  0.00000000000E+00  0.27723775448E+04  0.27723775448E+04  0.25500000920E-02 0.  1.
       -2   -1    0    0    0  501  0.00000000000E+00  0.00000000000E+00 -0.12412711425E+04  0.12412711425E+04  0.25500000920E-02 0. -1.
    10030    2    1    2    0    0  0.00000000000E+00  0.00000000000E+00  0.15311064023E+04  0.40136486873E+04  0.37101332819E+04 0.  0.
        1    1    3    3  502    0 -0.68753486988E+03 -0.26887616915E+03  0.26066204040E+04  0.27091453491E+04  0.50400001928E-02 0.  1.
       -1    1    3    3    0  502  0.68753486988E+03  0.26887616915E+03 -0.10755140017E+04  0.13045033382E+04  0.50400001928E-02 0. -1.
</event>
<event>
 5   0  0.2282000E-08  0.3697585E+04  0.7818609E-02  0.8068497E-01
        1   -1    0    0  501    0  0.00000000000E+00  0.00000000000E+00  0.11376254830E+04  0.11376254830E+04  0.50400001928E-02 0.  1.
       -1   -1    0    0    0  501  0.00000000000E+00  0.00000000000E+00 -0.30045331400E+04  0.30045331400E+04  0.50400001928E-02 0. -1.
    10030    2    1    2    0    0  0.00000000000E+00  0.00000000000E+00 -0.18669076570E+04  0.41421586231E+04  0.36975848684E+04 0.  0.
        1    1    3    3  502    0  0.11955477670E+04 -0.13860996782E+04 -0.64256671933E+03  0.19399739095E+04  0.50400001928E-02 0.  1.
       -1    1    3    3    0  502 -0.11955477670E+04  0.13860996782E+04 -0.12243409377E+04  0.22021847135E+04  0.50400001928E-02 0. -1.
</event>
<event>
 5   0  0.7203049E-08  0.3702737E+04  0.7818609E-02  0.8067355E-01
       -2   -1    0    0    0  501  0.00000000000E+00  0.00000000000E+00  0.12192983505E+04  0.12192983505E+04  0.25500000920E-02 0. -1.
        2   -1    0    0  501    0  0.00000000000E+00  0.00000000000E+00 -0.28110968618E+04  0.28110968618E+04  0.25500000920E-02 0.  1.
    10030    2    1    2    0    0  0.00000000000E+00  0.00000000000E+00 -0.15917985112E+04  0.40303952123E+04  0.37027372397E+04 0.  0.
        4    1    3    3  502    0  0.82778885804E+03 -0.11710679717E+04 -0.20703771633E+04  0.25185507339E+04  0.12699999809E+01 0.  1.
       -4    1    3    3    0  502 -0.82778885804E+03  0.11710679717E+04  0.47857865204E+03  0.15118444784E+04  0.12699999809E+01 0. -1.
</event>
<event>
 5   0  0.7191801E-08  0.3721490E+04  0.7818609E-02  0.8063216E-01
        2   -1    0    0  501    0  0.00000000000E+00  0.00000000000E+00  0.21113343598E+04  0.21113343598E+04  0.25500000920E-02 0. -1.
       -2   -1    0    0    0  501  0.00000000000E+00  0.00000000000E+00 -0.16398972195E+04  0.16398972195E+04  0.25500000920E-02 0.  1.
    10030    2    1    2    0    0  0.00000000000E+00  0.00000000000E+00  0.47143714026E+03  0.37512315793E+04  0.37214896727E+04 0.  0.
        5    1    3    3  502    0  0.30896425066E+03 -0.29517191543E+02 -0.16136153887E+04  0.16432001964E+04  0.46999998093E+01 0.  1.
       -5    1    3    3    0  502 -0.30896425066E+03  0.29517191543E+02  0.20850525290E+04  0.21080313829E+04  0.46999998093E+01 0. -1.
</event>
<event>
 5   0  0.2282000E-08  0.3701075E+04  0.7818609E-02  0.8067724E-01
        1   -1    0    0  501    0  0.00000000000E+00  0.00000000000E+00  0.14016683656E+04  0.14016683656E+04  0.50400001928E-02 0. -1.
       -1   -1    0    0    0  501  0.00000000000E+00  0.00000000000E+00 -0.24431519399E+04  0.24431519399E+04  0.50400001928E-02 0.  1.
    10030    2    1    2    0    0  0.00000000000E+00  0.00000000000E+00 -0.10414835743E+04  0.38448203055E+04  0.37010748636E+04 0.  0.
        2    1    3    3  502    0  0.16769261753E+04 -0.33548009463E+03  0.21372571563E+03  0.17234578535E+04  0.25500000920E-02 0. -1.
       -2    1    3    3    0  502 -0.16769261753E+04  0.33548009463E+03 -0.12552092899E+04  0.21213624520E+04  0.25500000920E-02 0.  1.
</event>
<event>
 5   0  0.2282000E-08  0.3707825E+04  0.7818609E-02  0.8066230E-01
        1   -1    0    0  501    0  0.00000000000E+00  0.00000000000E+00  0.21628597209E+04  0.21628597209E+04  0.50400001928E-02 0.  1.
       -1   -1    0    0    0  501  0.00000000000E+00  0.00000000000E+00 -0.15890961472E+04  0.15890961472E+04  0.50400001928E-02 0. -1.
    10030    2    1    2    0    0  0.00000000000E+00  0.00000000000E+00  0.57376357366E+03  0.37519558681E+04  0.37078252653E+04 0.  0.
        1    1    3    3  502    0 -0.11703826875E+04  0.92930165981E+03  0.13970240087E+04  0.20457451677E+04  0.50400001928E-02 0.  1.
       -1    1    3    3    0  502  0.11703826875E+04 -0.92930165981E+03 -0.82326043507E+03  0.17062107004E+04  0.50400001928E-02 0. -1.
</event>
<event>
 5   0  0.7309833E-08  0.3692485E+04  0.7818609E-02  0.8069629E-01
        2   -1    0    0  501    0  0.00000000000E+00  0.00000000000E+00  0.13336349300E+04  0.13336349300E+04  0.25500000920E-02 0. -1.
       -2   -1    0    0    0  501  0.00000000000E+00  0.00000000000E+00 -0.25558797888E+04  0.25558797888E+04  0.25500000920E-02 0.  1.
    10030    2    1    2    0    0  0.00000000000E+00  0.00000000000E+00 -0.12222448588E+04  0.38895147187E+04  0.36924845636E+04 0.  0.
        2    1    3    3  502    0  0.89270473962E+03 -0.12276883930E+04  0.49589305821E+03  0.15968877442E+04  0.25500000920E-02 0.  1.
       -2    1    3    3    0  502 -0.89270473962E+03  0.12276883930E+04 -0.17181379170E+04  0.22926269745E+04  0.25500000920E-02 0. -1.
</event>
<event>
 5   0  0.2282000E-08  0.3705767E+04  0.7818609E-02  0.8066685E-01
        1   -1    0    0  501    0  0.00000000000E+00  0.00000000000E+00  0.27315740339E+04  0.27315740339E+04  0.50400001928E-02 0.  1.
       -1   -1    0    0    0  501  0.00000000000E+00  0.00000000000E+00 -0.12568491091E+04  0.12568491091E+04  0.50400001928E-02 0. -1.
    10030    2    1    2    0    0  0.00000000000E+00  0.00000000000E+00  0.14747249248E+04  0.39884231430E+04  0.37057665285E+04 0.  0.
        3    1    3    3  502    0 -0.10877706939E+04  0.10726052245E+04 -0.39116149423E+03  0.15769382914E+04  0.10100000352E+00 0. -1.
       -3    1    3    3    0  502  0.10877706939E+04 -0.10726052245E+04  0.18658864191E+04  0.24114848515E+04  0.10100000352E+00 0.  1.
</event>
<event>
 5   0  0.2282000E-08  0.3695410E+04  0.7818609E-02  0.8068980E-01
        1   -1    0    0  501    0  0.00000000000E+00  0.00000000000E+00  0.27645712569E+04  0.27645712569E+04  0.50400001928E-02 0.  1.
       -1   -1    0    0    0  501  0.00000000000E+00  0.00000000000E+00 -0.12349162942E+04  0.12349162942E+04  0.50400001928E-02 0. -1.
    10030    2    1    2    0    0  0.00000000000E+00  0.00000000000E+00  0.15296549627E+04  0.39994875511E+04  0.36954101757E+04 0.  0.
        3    1    3    3  502    0 -0.56819614920E+03 -0.12172902112E+04  0.21378254260E+04  0.25248643299E+04  0.10100000352E+00 0.  1.
       -3    1    3    3    0  502  0.56819614920E+03  0.12172902112E+04 -0.60817046324E+03  0.14746232213E+04  0.10100000352E+00 0. -1.
</event>
<event>
 5   0  0.7309833E-08  0.3702970E+04  0.7818609E-02  0.8067304E-01
       -2   -1    0    0    0  501  0.00000000000E+00  0.00000000000E+00  0.26633810347E+04  0.26633810347E+04  0.25500000920E-02 0. -1.
        2   -1    0    0  501    0  0.00000000000E+00  0.00000000000E+00 -0.12870848357E+04  0.12870848357E+04  0.25500000920E-02 0.  1.
    10030    2    1    2    0    0  0.00000000000E+00  0.00000000000E+00  0.13762961990E+04  0.39504658704E+04  0.37029703437E+04 0.  0.
        2    1    3    3  502    0  0.58537969706E+03  0.24729033265E+03 -0.11670981892E+04  0.13288867829E+04  0.25500000920E-02 0.  1.
       -2    1    3    3    0  502 -0.58537969706E+03 -0.24729033265E+03  0.25433943882E+04  0.26215790875E+04  0.25500000920E-02 0. -1.
</event>
<event>
 5   0  0.2282000E-08  0.3699367E+04  0.7818609E-02  0.8068102E-01
       -1   -1    0    0    0  501  0.00000000000E+00  0.00000000000E+00  0.23074092726E+04  0.23074092726E+04  0.50400001928E-02 0. -1.
        1   -1    0    0  501    0  0.00000000000E+00  0.00000000000E+00 -0.14827576809E+04  0.14827576809E+04  0.50400001928E-02 0.  1.
    10030    2    1    2    0    0  0.00000000000E+00  0.00000000000E+00  0.82465159165E+03  0.37901669535E+04  0.36993668766E+04 0.  0.
        5    1    3    3  502    0 -0.99369475514E+03  0.61338127810E+03 -0.10573303195E+04  0.15753207144E+04  0.46999998093E+01 0.  1.
       -5    1    3    3    0  502  0.99369475514E+03 -0.61338127810E+03  0.18819819112E+04  0.22148462391E+04  0.46999998093E+01 0. -1.
</event>
<event>
 5   0  0.7254493E-08  0.3698488E+04  0.7818609E-02  0.8068297E-01
       -2   -1    0    0    0  501  0.00000000000E+00  0.00000000000E+00  0.27090422682E+04  0.27090422682E+04  0.25500000920E-02 0. -1.
        2   -1    0    0  501    0  0.00000000000E+00  0.00000000000E+00 -0.12623294805E+04  0.12623294805E+04  0.25500000920E-02 0.  1.
    10030    2    1    2    0    0  0.00000000000E+00  0.00000000000E+00  0.14467127877E+04  0.39713717487E+04  0.36984882961E+04 0.  0.
        3    1    3    3  502    0  0.13547369694E+04 -0.57576297321E+03 -0.47855521815E+03  0.15478470094E+04  0.10100000352E+00 0.  1.
       -3    1    3    3    0  502 -0.13547369694E+04  0.57576297321E+03  0.19252680058E+04  0.24235247393E+04  0.10100000352E+00 0. -1.
</event>
<event>
 5   0  0.7254493E-08  0.3698977E+04  0.7818609E-02  0.8068189E-01
       -2   -1    0    0    0  501  0.00000000000E+00  0.00000000000E+00  0.20495568233E+04  0.20495568233E+04  0.25500000920E-02 0.  1.
        2   -1    0    0  501    0  0.00000000000E+00  0.00000000000E+00 -0.16689498647E+04  0.16689498647E+04  0.25500000920E-02 0. -1.
    10030    2    1    2    0    0  0.00000000000E+00  0.00000000000E+00  0.38060695862E+03  0.37185066880E+04  0.36989769304E+04 0.  0.
        3    1    3    3  502    0 -0.88682644925E+03 -0.10533255525E+04  0.14315906468E+04  0.19863050271E+04  0.10100000352E+00 0.  1.
       -3    1    3    3    0  502  0.88682644925E+03  0.10533255525E+04 -0.10509836882E+04  0.17322016608E+04  0.10100000352E+00 0. -1.
</event>
<event>
 5   0  0.7309833E-08  0.3700105E+04  0.7818609E-02  0.8067938E-01
       -2   -1    0    0    0  501  0.00000000000E+00  0.00000000000E+00  0.11755120257E+04  0.11755120257E+04  0.25500000920E-02 0.  1.
        2   -1    0    0  501    0  0.00000000000E+00  0.00000000000E+00 -0.29116631952E+04  0.29116631952E+04  0.25500000920E-02 0. -1.
    10030    2    1    2    0    0  0.00000000000E+00  0.00000000000E+00 -0.17361511695E+04  0.40871752209E+04  0.37001054584E+04 0.  0.
        2    1    3    3  502    0 -0.29382872192E+03 -0.18258568403E+04 -0.81168003648E+03  0.20196318973E+04  0.25500000920E-02 0.  1.
       -2    1    3    3    0  502  0.29382872192E+03  0.18258568403E+04 -0.92447113298E+03  0.20675433236E+04  0.25500000920E-02 0. -1.
</event>
<event>
 5   0  0.2282000E-08  0.3709561E+04  0.7818609E-02  0.8065846E-01
        1   -1    0    0  501    0  0.00000000000E+00  0.00000000000E+00  0.15879014622E+04  0.15879014622E+04  0.50400001928E-02 0. -1.
       -1   -1    0    0    0  501  0.00000000000E+00  0.00000000000E+00 -0.21665139418E+04  0.21665139418E+04  0.50400001928E-02 0.  1.
    10030    2    1    2    0    0  0.00000000000E+00  0.00000000000E+00 -0.57861247966E+03  0.37544154040E+04  0.37095609746E+04 0.  0.
        4    1    3    3  502    0  0.51847344143E+03 -0.92883442027E+03  0.12484938711E+04  0.16402093308E+04  0.12699999809E+01 0. -1.
       -4    1    3    3    0  502 -0.51847344143E+03  0.92883442027E+03 -0.18271063508E+04  0.21142060732E+04  0.12699999809E+01 0.  1.
</event>
<event>
 5   0  0.7362817E-08  0.3704601E+04  0.7818609E-02  0.8066943E-01
        2   -1    0    0  501    0  0.00000000000E+00  0.00000000000E+00  0.26772512447E+04  0.26772512447E+04  0.25500000920E-02 0.  1.
       -2   -1    0    0    0  501  0.00000000000E+00  0.00000000000E+00 -0.12815445538E+04  0.12815445538E+04  0.25500000920E-02 0. -1.
    10030    2    1    2    0    0  0.00000000000E+00  0.00000000000E+00  0.13957066909E+04  0.39587957984E+04  0.37046007891E+04 0.  0.
        1    1    3    3  502    0 -0.16414391847E+04  0.61012622863E+03  0.13429648517E+04  0.22068373761E+04  0.50400001928E-02 0.  1.
       -1    1    3    3    0  502  0.16414391847E+04 -0.61012622863E+03  0.52741839260E+02  0.17519584223E+04  0.50400001928E-02 0. -1.
</event>
<event>
 5   0  0.7309833E-08  0.3748474E+04  0.7818609E-02  0.8057304E-01
        2   -1    0    0  501    0  0.00000000000E+00  0.00000000000E+00  0.20408126705E+04  0.20408126705E+04  0.25500000920E-02 0. -1.
       -2   -1    0    0    0  501  0.00000000000E+00  0.00000000000E+00 -0.17212574746E+04  0.17212574746E+04  0.25500000920E-02 0.  1.
    10030    2    1    2    0    0  0.00000000000E+00  0.00000000000E+00  0.31955519587E+03  0.37620701451E+04  0.37484738566E+04 0.  0.
        2    1    3    3  502    0  0.61166169518E+03  0.14482970939E+04 -0.86425145241E+03  0.17940526955E+04  0.25500000920E-02 0.  1.
       -2    1    3    3    0  502 -0.61166169518E+03 -0.14482970939E+04  0.11838066483E+04  0.19680174496E+04  0.25500000920E-02 0. -1.
</event>
<event>
 5   0  0.7362817E-08  0.3676878E+04  0.7818609E-02  0.8073105E-01
       -2   -1    0    0    0  501  0.00000000000E+00  0.00000000000E+00  0.16799149593E+04  0.16799149593E+04  0.25500000920E-02 0. -1.
        2   -1    0    0  501    0  0.00000000000E+00  0.00000000000E+00 -0.20119223259E+04  0.20119223259E+04  0.25500000920E-02 0.  1.
    10030    2    1    2    0    0  0.00000000000E+00  0.00000000000E+00 -0.33200736658E+03  0.36918372853E+04  0.36768782478E+04 0.  0.
        1    1    3    3  502    0 -0.10916074581E+03 -0.30285415624E+03  0.16513938898E+04  0.16824798625E+04  0.50400001928E-02 0. -1.
       -1    1    3    3    0  502  0.10916074581E+03  0.30285415624E+03 -0.19834012564E+04  0.20093574227E+04  0.50400001928E-02 0.  1.
</event>
<event>
 5   0  0.7254493E-08  0.3697578E+04  0.7818609E-02  0.8068499E-01
       -2   -1    0    0    0  501  0.00000000000E+00  0.00000000000E+00  0.16041104411E+04  0.16041104411E+04  0.25500000920E-02 0.  1.
        2   -1    0    0  501    0  0.00000000000E+00  0.00000000000E+00 -0.21307889712E+04  0.21307889712E+04  0.25500000920E-02 0. -1.
    10030    2    1    2    0    0  0.00000000000E+00  0.00000000000E+00 -0.52667853016E+03  0.37348994123E+04  0.36975780378E+04 0.  0.
        3    1    3    3  502    0 -0.51129011550E+03 -0.77002635049E+03  0.13539660008E+04  0.16393846725E+04  0.10100000352E+00 0.  1.
       -3    1    3    3    0  502  0.51129011550E+03  0.77002635049E+03 -0.18806445310E+04  0.20955147398E+04  0.10100000352E+00 0. -1.
</event>
<event>
 5   0  0.2282000E-08  0.3699399E+04  0.7818609E-02  0.8068095E-01
        1   -1    0    0  501    0  0.00000000000E+00  0.00000000000E+00  0.29296747152E+04  0.29296747152E+04  0.50400001928E-02 0.  1.
       -1   -1    0    0    0  501  0.00000000000E+00  0.00000000000E+00 -0.11678386576E+04  0.11678386576E+04  0.50400001928E-02 0. -1.
    10030    2    1    2    0    0  0.00000000000E+00  0.00000000000E+00  0.17618360575E+04  0.40975133728E+04  0.36993985385E+04 0.  0.
        2    1    3    3  502    0  0.52198187538E+03  0.15904299155E+04  0.17526724080E+04  0.24235909234E+04  0.25500000920E-02 0.  1.
       -2    1    3    3    0  502 -0.52198187538E+03 -0.15904299155E+04  0.91636495284E+01  0.16739224494E+04  0.25500000920E-02 0. -1.
</event>
<event>
 5   0  0.7362817E-08  0.3699126E+04  0.7818609E-02  0.8068156E-01
       -2   -1    0    0    0  501  0.00000000000E+00  0.00000000000E+00  0.33826456247E+04  0.33826456247E+04  0.25500000920E-02 0. -1.
        2   -1    0    0  501    0  0.00000000000E+00  0.00000000000E+00 -0.10113039479E+04  0.10113039479E+04  0.25500000920E-02 0.  1.
    10030    2    1    2    0    0  0.00000000000E+00  0.00000000000E+00  0.23713416768E+04  0.43939495726E+04  0.36991257749E+04 0.  0.
        1    1    3    3  502    0  0.78767396993E+03 -0.94942177787E+03  0.28225788359E+04  0.30803868718E+04  0.50400001928E-02 0. -1.
       -1    1    3    3    0  502 -0.78767396993E+03  0.94942177787E+03 -0.45123715904E+03  0.13135627008E+04  0.50400001928E-02 0.  1.
</event>
<event>
 5   0  0.7203049E-08  0.3711150E+04  0.7818609E-02  0.8065495E-01
       -2   -1    0    0    0  501  0.00000000000E+00  0.00000000000E+00  0.16748439569E+04  0.16748439569E+04  0.25500000920E-02 0. -1.
        2   -1    0    0  501    0  0.00000000000E+00  0.00000000000E+00 -0.20558080830E+04  0.20558080830E+04  0.25500000920E-02 0.  1.
    10030    2    1    2    0    0  0.00000000000E+00  0.00000000000E+00 -0.38096412611E+03  0.37306520399E+04  0.37111495493E+04 0.  0.
        4    1    3    3  502    0  0.40197669028E+03  0.11269099734E+04  0.12352960255E+04  0.17197294064E+04  0.12699999809E+01 0. -1.
       -4    1    3    3    0  502 -0.40197669028E+03 -0.11269099734E+04 -0.16162601516E+04  0.20109226336E+04  0.12699999809E+01 0.  1.
</event>
<event>
 5   0  0.2282000E-08  0.3695217E+04  0.7818609E-02  0.8069023E-01
       -1   -1    0    0    0  501  0.00000000000E+00  0.00000000000E+00  0.28036210870E+04  0.28036210870E+04  0.50400001928E-02 0.  1.
        1   -1    0    0  501    0  0.00000000000E+00  0.00000000000E+00 -0.12175888083E+04  0.12175888083E+04  0.50400001928E-02 0. -1.
    10030    2    1    2    0    0  0.00000000000E+00  0.00000000000E+00  0.15860322786E+04  0.40212098953E+04  0.36952172647E+04 0.  0.
        1    1    3    3  502    0  0.66475679562E+02 -0.48049937252E+03 -0.11470576076E+04  0.12454074908E+04  0.50400001928E-02 0. -1.
       -1    1    3    3    0  502 -0.66475679562E+02  0.48049937252E+03  0.27330898862E+04  0.27758024045E+04  0.50400001928E-02 0.  1.
</event>
<event>
 5   0  0.2282000E-08  0.3705979E+04  0.7818609E-02  0.8066638E-01
        1   -1    0    0  501    0  0.00000000000E+00  0.00000000000E+00  0.13595120484E+04  0.13595120484E+04  0.50400001928E-02 0.  1.
       -1   -1    0    0    0  501  0.00000000000E+00  0.00000000000E+00 -0.25255899675E+04  0.25255899675E+04  0.50400001928E-02 0. -1.
    10030    2    1    2    0    0  0.00000000000E+00  0.00000000000E+00 -0.11660779191E+04  0.38851020159E+04  0.37059789476E+04 0.  0.
        2    1    3    3  502    0 -0.23549984848E+03 -0.95505242749E+03  0.10632067859E+04  0.14484453692E+04  0.25500000920E-02 0.  1.
       -2    1    3    3    0  502  0.23549984848E+03  0.95505242749E+03 -0.22292847050E+04  0.24366566467E+04  0.25500000920E-02 0. -1.
</event>
<event>
 5   0  0.2282000E-08  0.3706017E+04  0.7818609E-02  0.8066630E-01
        1   -1    0    0  501    0  0.00000000000E+00  0.00000000000E+00  0.22718537936E+04  0.22718537936E+04  0.50400001928E-02 0. -1.
       -1   -1    0    0    0  501  0.00000000000E+00  0.00000000000E+00 -0.15113828946E+04  0.15113828946E+04  0.50400001928E-02 0.  1.
    10030    2    1    2    0    0  0.00000000000E+00  0.00000000000E+00  0.76047089902E+03  0.37832366882E+04  0.37060172491E+04 0.  0.
        5    1    3    3  502    0 -0.17405097964E+04 -0.59718504382E+03  0.60298964575E+03  0.19363943118E+04  0.46999998093E+01 0. -1.
       -5    1    3    3    0  502  0.17405097964E+04  0.59718504382E+03  0.15748125327E+03  0.18468423764E+04  0.46999998093E+01 0.  1.
</event>
<event>
 5   0  0.2282000E-08  0.3701348E+04  0.7818609E-02  0.8067663E-01
        1   -1    0    0  501    0  0.00000000000E+00  0.00000000000E+00  0.11470604938E+04  0.11470604939E+04  0.50400001928E-02 0. -1.
       -1   -1    0    0    0  501  0.00000000000E+00  0.00000000000E+00 -0.29858880545E+04  0.29858880545E+04  0.50400001928E-02 0.  1.
    10030    2    1    2    0    0  0.00000000000E+00  0.00000000000E+00 -0.18388275606E+04  0.41329485483E+04  0.37013479849E+04 0.  0.
        3    1    3    3  502    0 -0.10337777355E+03 -0.11054378968E+04 -0.25727131127E+04  0.28020586500E+04  0.10100000352E+00 0.  1.
       -3    1    3    3    0  502  0.10337777355E+03  0.11054378968E+04  0.73388555201E+03  0.13308898983E+04  0.10100000352E+00 0. -1.
</event>
<event>
 5   0  0.7203049E-08  0.3695187E+04  0.7818609E-02  0.8069029E-01
        2   -1    0    0  501    0  0.00000000000E+00  0.00000000000E+00  0.15977086806E+04  0.15977086806E+04  0.25500000920E-02 0.  1.
       -2   -1    0    0    0  501  0.00000000000E+00  0.00000000000E+00 -0.21365607334E+04  0.21365607334E+04  0.25500000920E-02 0. -1.
    10030    2    1    2    0    0  0.00000000000E+00  0.00000000000E+00 -0.53885205282E+03  0.37342694140E+04  0.36951869400E+04 0.  0.
        4    1    3    3  502    0 -0.12881493457E+03 -0.78435051217E+03  0.14160875810E+04  0.16239164582E+04  0.12699999809E+01 0.  1.
       -4    1    3    3    0  502  0.12881493457E+03  0.78435051217E+03 -0.19549396338E+04  0.21103529558E+04  0.12699999809E+01 0. -1.
</event>
<event>
 5   0  0.2282000E-08  0.3696475E+04  0.7818609E-02  0.8068744E-01
       -1   -1    0    0    0  501  0.00000000000E+00  0.00000000000E+00  0.26420535951E+04  0.26420535951E+04  0.50400001928E-02 0. -1.
        1   -1    0    0  501    0  0.00000000000E+00  0.00000000000E+00 -0.12929264933E+04  0.12929264933E+04  0.50400001928E-02 0.  1.
    10030    2    1    2    0    0  0.00000000000E+00  0.00000000000E+00  0.13491271018E+04  0.39349800885E+04  0.36964745853E+04 0.  0.
        1    1    3    3  502    0 -0.21129711811E+03 -0.16892291179E+04  0.14406053117E+04  0.22301311955E+04  0.50400001928E-02 0. -1.
       -1    1    3    3    0  502  0.21129711811E+03  0.16892291179E+04 -0.91478209914E+02  0.17048488930E+04  0.50400001928E-02 0.  1.
</event>
<event>
 5   0  0.7191801E-08  0.3707475E+04  0.7818609E-02  0.8066307E-01
       -2   -1    0    0    0  501  0.00000000000E+00  0.00000000000E+00  0.12960242635E+04  0.12960242635E+04  0.25500000920E-02 0.  1.
        2   -1    0    0  501    0  0.00000000000E+00  0.00000000000E+00 -0.26514494239E+04  0.26514494239E+04  0.25500000920E-02 0. -1.
    10030    2    1    2    0    0  0.00000000000E+00  0.00000000000E+00 -0.13554251604E+04  0.39474736875E+04  0.37074750367E+04 0.  0.
        5    1    3    3  502    0  0.12718461953E+04 -0.12547849861E+04 -0.12039136270E+04  0.21544159805E+04  0.46999998093E+01 0. -1.
       -5    1    3    3    0  502 -0.12718461953E+04  0.12547849861E+04 -0.15151153344E+03  0.17930577070E+04  0.46999998093E+01 0.  1.
</event>
<event>
 5   0  0.7191801E-08  0.3680084E+04  0.7818609E-02  0.8072390E-01
       -2   -1    0    0    0  501  0.00000000000E+00  0.00000000000E+00  0.15281022187E+04  0.15281022187E+04  0.25500000920E-02 0. -1.
        2   -1    0    0  501    0  0.00000000000E+00  0.00000000000E+00 -0.22156597003E+04  0.22156597003E+04  0.25500000920E-02 0.  1.
    10030    2    1    2    0    0  0.00000000000E+00  0.00000000000E+00 -0.68755748163E+03  0.37437619190E+04  0.36800839686E+04 0.  0.
        5    1    3    3  502    0  0.11358942267E+04 -0.70362385397E+03  0.94317647647E+03  0.16355262694E+04  0.46999998093E+01 0. -1.
       -5    1    3    3    0  502 -0.11358942267E+04  0.70362385397E+03 -0.16307339581E+04  0.21082356496E+04  0.46999998093E+01 0.  1.
</event>
<event>
 5   0  0.7191801E-08  0.3712738E+04  0.7818609E-02  0.8065145E-01
        2   -1    0    0  501    0  0.00000000000E+00  0.00000000000E+00  0.24870597957E+04  0.24870597957E+04  0.25500000920E-02 0.  1.
       -2   -1    0    0    0  501  0.00000000000E+00  0.00000000000E+00 -0.13856146997E+04  0.13856146997E+04  0.25500000920E-02 0. -1.
    10030    2    1    2    0    0  0.00000000000E+00  0.00000000000E+00  0.11014450959E+04  0.38726744954E+04  0.37127384028E+04 0.  0.
        5    1    3    3  502    0 -0.83715131816E+02 -0.31999032690E+03  0.24560695732E+04  0.24782457245E+04  0.46999998093E+01 0.  1.
       -5    1    3    3    0  502  0.83715131816E+02  0.31999032690E+03 -0.13546244773E+04  0.13944287709E+04  0.46999998093E+01 0. -1.
</event>
<event>
 5   0  0.7309833E-08  0.3708262E+04  0.7818609E-02  0.8066133E-01
       -2   -1    0    0    0  501  0.00000000000E+00  0.00000000000E+00  0.13332978522E+04  0.13332978522E+04  0.25500000920E-02 0.  1.
        2   -1    0    0  501    0  0.00000000000E+00  0.00000000000E+00 -0.25784193730E+04  0.25784193730E+04  0.25500000920E-02 0. -1.
    10030    2    1    2    0    0  0.00000000000E+00  0.00000000000E+00 -0.12451215209E+04  0.39117172252E+04  0.37082615938E+04 0.  0.
        2    1    3    3  502    0  0.18363484715E+04 -0.25080911250E+03 -0.56754477359E+03  0.19383467156E+04  0.25500000920E-02 0. -1.
       -2    1    3    3    0  502 -0.18363484715E+04  0.25080911250E+03 -0.67757674727E+03  0.19733705096E+04  0.25500000920E-02 0.  1.
</event>
<event>
 5   0  0.2282000E-08  0.3705670E+04  0.7818609E-02  0.8066706E-01
        1   -1    0    0  501    0  0.00000000000E+00  0.00000000000E+00  0.16661096904E+04  0.16661096904E+04  0.50400001928E-02 0.  1.
       -1   -1    0    0    0  501  0.00000000000E+00  0.00000000000E+00 -0.20604869988E+04  0.20604869988E+04  0.50400001928E-02 0. -1.
    10030    2    1    2    0    0  0.00000000000E+00  0.00000000000E+00 -0.39437730839E+03  0.37265966891E+04  0.37056699019E+04 0.  0.
        4    1    3    3  502    0  0.16850204744E+04  0.56059495144E+03  0.33441272454E+03  0.18070401717E+04  0.12699999809E+01 0.  1.
       -4    1    3    3    0  502 -0.16850204744E+04 -0.56059495144E+03 -0.72879003293E+03  0.19195565175E+04  0.12699999809E+01 0. -1.
</event>
<event>
 5   0  0.7362817E-08  0.3710014E+04  0.7818609E-02  0.8065746E-01
       -2   -1    0    0    0  501  0.00000000000E+00  0.00000000000E+00  0.19692866015E+04  0.19692866015E+04  0.25500000920E-02 0. -1.
        2   -1    0    0  501    0  0.00000000000E+00  0.00000000000E+00 -0.17473591189E+04  0.17473591189E+04  0.25500000920E-02 0.  1.
    10030    2    1    2    0    0  0.00000000000E+00  0.00000000000E+00  0.22192748263E+03  0.37166457204E+04  0.37100139627E+04 0.  0.
        1    1    3    3  502    0  0.70705238115E+03 -0.13597766983E+04  0.11578845111E+04  0.19208363491E+04  0.50400001928E-02 0. -1.
       -1    1    3    3    0  502 -0.70705238115E+03  0.13597766983E+04 -0.93595702847E+03  0.17958093713E+04  0.50400001928E-02 0.  1.
</event>
<event>
 5   0  0.7191801E-08  0.3704165E+04  0.7818609E-02  0.8067040E-01
       -2   -1    0    0    0  501  0.00000000000E+00  0.00000000000E+00  0.14229160155E+04  0.14229160155E+04  0.25500000920E-02 0.  1.
        2   -1    0    0  501    0  0.00000000000E+00  0.00000000000E+00 -0.24106894863E+04  0.24106894863E+04  0.25500000920E-02 0. -1.
    10030    2    1    2    0    0  0.00000000000E+00  0.00000000000E+00 -0.98777347076E+03  0.38336055018E+04  0.37041645096E+04 0.  0.
        5    1    3    3  502    0  0.10273796339E+04 -0.15007771115E+04 -0.85588924023E+03  0.20100769468E+04  0.46999998093E+01 0. -1.
       -5    1    3    3    0  502 -0.10273796339E+04  0.15007771115E+04 -0.13188423053E+03  0.18235285550E+04  0.46999998093E+01 0.  1.
</event>
<event>
 5   0  0.7203049E-08  0.3692857E+04  0.7818609E-02  0.8069547E-01
       -2   -1    0    0    0  501  0.00000000000E+00  0.00000000000E+00  0.11981196514E+04  0.11981196514E+04  0.25500000920E-02 0. -1.
        2   -1    0    0  501    0  0.00000000000E+00  0.00000000000E+00 -0.28455406490E+04  0.28455406490E+04  0.25500000920E-02 0.  1.
    10030    2    1    2    0    0  0.00000000000E+00  0.00000000000E+00 -0.16474209976E+04  0.40436603003E+04  0.36928569809E+04 0.  0.
        4    1    3    3  502    0 -0.57281684457E+03  0.12608826509E+04  0.51350779368E+03  0.14770362432E+04  0.12699999809E+01 0. -1.
       -4    1    3    3    0  502  0.57281684457E+03 -0.12608826509E+04 -0.21609287913E+04  0.25666240571E+04  0.12699999809E+01 0.  1.
</event>
<event>
 5   0  0.7254493E-08  0.3702395E+04  0.7818609E-02  0.8067431E-01
       -2   -1    0    0    0  501  0.00000000000E+00  0.00000000000E+00  0.16879166424E+04  0.16879166424E+04  0.25500000920E-02 0. -1.
        2   -1    0    0  501    0  0.00000000000E+00  0.00000000000E+00 -0.20302734488E+04  0.20302734488E+04  0.25500000920E-02 0.  1.
    10030    2    1    2    0    0  0.00000000000E+00  0.00000000000E+00 -0.34235680639E+03  0.37181900912E+04  0.37023950858E+04 0.  0.
        3    1    3    3  502    0 -0.27975065805E+03 -0.40198479320E+03  0.16216772277E+04  0.16940157159E+04  0.10100000352E+00 0. -1.
       -3    1    3    3    0  502  0.27975065805E+03  0.40198479320E+03 -0.19640340341E+04  0.20241743754E+04  0.10100000352E+00 0.  1.
</event>
<event>
 5   0  0.7191801E-08  0.3697700E+04  0.7818609E-02  0.8068472E-01
       -2   -1    0    0    0  501  0.00000000000E+00  0.00000000000E+00  0.14897389077E+04  0.14897389077E+04  0.25500000920E-02 0. -1.
        2   -1    0    0  501    0  0.00000000000E+00  0.00000000000E+00 -0.22945268361E+04  0.22945268361E+04  0.25500000920E-02 0.  1.
    10030    2    1    2    0    0  0.00000000000E+00  0.00000000000E+00 -0.80478792847E+03  0.37842657438E+04  0.36976997728E+04 0.  0.
        5    1    3    3  502    0  0.12704253018E+04  0.18189455056E+03  0.95961071675E+03  0.16024796076E+04  0.46999998093E+01 0. -1.
       -5    1    3    3    0  502 -0.12704253018E+04 -0.18189455056E+03 -0.17643986452E+04  0.21817861362E+04  0.46999998093E+01 0.  1.
</event>
<event>
 5   0  0.2282000E-08  0.3707602E+04  0.7818609E-02  0.8066279E-01
        1   -1    0    0  501    0  0.00000000000E+00  0.00000000000E+00  0.21902240851E+04  0.21902240852E+04  0.50400001928E-02 0. -1.
       -1   -1    0    0    0  501  0.00000000000E+00  0.00000000000E+00 -0.15690529572E+04  0.15690529572E+04  0.50400001928E-02 0.  1.
    10030    2    1    2    0    0  0.00000000000E+00  0.00000000000E+00  0.62117112796E+03  0.37592770423E+04  0.37076016926E+04 0.  0.
        4    1    3    3  502    0  0.32617295687E+03  0.18133917102E+04  0.10329128831E+03  0.18453858663E+04  0.12699999809E+01 0.  1.
       -4    1    3    3    0  502 -0.32617295687E+03 -0.18133917102E+04  0.51787983966E+03  0.19138911760E+04  0.12699999809E+01 0. -1.
</event>
<event>
 5   0  0.2282000E-08  0.3704359E+04  0.7818609E-02  0.8066996E-01
       -1   -1    0    0    0  501  0.00000000000E+00  0.00000000000E+00  0.31127276877E+04  0.31127276877E+04  0.50400001928E-02 0. -1.
        1   -1    0    0  501    0  0.00000000000E+00  0.00000000000E+00 -0.11021102477E+04  0.11021102477E+04  0.50400001928E-02 0.  1.
    10030    2    1    2    0    0  0.00000000000E+00  0.00000000000E+00  0.20106174400E+04  0.42148379354E+04  0.37043590986E+04 0.  0.
        3    1    3    3  502    0 -0.17792796663E+04  0.95156287042E+02  0.15806356055E+04  0.23818689673E+04  0.10100000352E+00 0. -1.
       -3    1    3    3    0  502  0.17792796663E+04 -0.95156287042E+02  0.42998183452E+03  0.18329689681E+04  0.10100000352E+00 0.  1.
</event>
<event>
 5   0  0.2282000E-08  0.3693141E+04  0.7818609E-02  0.8069484E-01
        1   -1    0    0  501    0  0.00000000000E+00  0.00000000000E+00  0.20878102402E+04  0.20878102403E+04  0.50400001928E-02 0.  1.
       -1   -1    0    0    0  501  0.00000000000E+00  0.00000000000E+00 -0.16332051739E+04  0.16332051739E+04  0.50400001928E-02 0. -1.
    10030    2    1    2    0    0  0.00000000000E+00  0.00000000000E+00  0.45460506631E+03  0.37210154142E+04  0.36931409324E+04 0.  0.
        5    1    3    3  502    0  0.53042162381E+03  0.14849446216E+04 -0.74088352094E+03  0.17422221758E+04  0.46999998093E+01 0. -1.
       -5    1    3    3    0  502 -0.53042162381E+03 -0.14849446216E+04  0.11954885873E+04  0.19787932384E+04  0.46999998093E+01 0.  1.
</event>
<event>
 5   0  0.7362817E-08  0.3711218E+04  0.7818609E-02  0.8065480E-01
        2   -1    0    0  501    0  0.00000000000E+00  0.00000000000E+00  0.26804440536E+04  0.26804440536E+04  0.25500000920E-02 0.  1.
       -2   -1    0    0    0  501  0.00000000000E+00  0.00000000000E+00 -0.12845946531E+04  0.12845946531E+04  0.25500000920E-02 0. -1.
    10030    2    1    2    0    0  0.00000000000E+00  0.00000000000E+00  0.13958494005E+04  0.39650387067E+04  0.37112176434E+04 0.  0.
        1    1    3    3  502    0  0.73414798132E+03  0.14188874367E+04 -0.31060047438E+03  0.16274788696E+04  0.50400001928E-02 0. -1.
       -1    1    3    3    0  502 -0.73414798132E+03 -0.14188874367E+04  0.17064498749E+04  0.23375598371E+04  0.50400001928E-02 0.  1.
</event>
<event>
 5   0  0.7191801E-08  0.3705405E+04  0.7818609E-02  0.8066765E-01
       -2   -1    0    0    0  501  0.00000000000E+00  0.00000000000E+00  0.12304323383E+04  0.12304323383E+04  0.25500000920E-02 0.  1.
        2   -1    0    0  501    0  0.00000000000E+00  0.00000000000E+00 -0.27896755835E+04  0.27896755835E+04  0.25500000920E-02 0. -1.
    10030    2    1    2    0    0  0.00000000000E+00  0.00000000000E+00 -0.15592432451E+04  0.40201079218E+04  0.37054052687E+04 0.  0.
        5    1    3    3  502    0 -0.60100778290E+03 -0.16083880470E+04 -0.24551559374E+02  0.17171916998E+04  0.46999998093E+01 0.  1.
       -5    1    3    3    0  502  0.60100778290E+03  0.16083880470E+04 -0.15346916858E+04  0.23029162219E+04  0.46999998093E+01 0. -1.
</event>
<event>
 5   0  0.2282000E-08  0.3696884E+04  0.7818609E-02  0.8068653E-01
        1   -1    0    0  501    0  0.00000000000E+00  0.00000000000E+00  0.21751140180E+04  0.21751140180E+04  0.50400001928E-02 0. -1.
       -1   -1    0    0    0  501  0.00000000000E+00  0.00000000000E+00 -0.15708318467E+04  0.15708318467E+04  0.50400001928E-02 0.  1.
    10030    2    1    2    0    0  0.00000000000E+00  0.00000000000E+00  0.60428217137E+03  0.37459458647E+04  0.36968842934E+04 0.  0.
        5    1    3    3  502    0  0.71822862335E+03  0.48778890132E+03 -0.13513626505E+04  0.16062358080E+04  0.46999998093E+01 0.  1.
       -5    1    3    3    0  502 -0.71822862335E+03 -0.48778890132E+03  0.19556448219E+04  0.21397100568E+04  0.46999998093E+01 0. -1.
</event>
<event>
 5   0  0.2282000E-08  0.3706828E+04  0.7818609E-02  0.8066450E-01
        1   -1    0    0  501    0  0.00000000000E+00  0.00000000000E+00  0.21218024715E+04  0.21218024715E+04  0.50400001928E-02 0. -1.
       -1   -1    0    0    0  501  0.00000000000E+00  0.00000000000E+00 -0.16189744086E+04  0.16189744086E+04  0.50400001928E-02 0.  1.
    10030    2    1    2    0    0  0.00000000000E+00  0.00000000000E+00  0.50282806285E+03  0.37407768801E+04  0.37068282407E+04 0.  0.
        1    1    3    3  502    0  0.13341879694E+04 -0.21447474144E+03 -0.10287012984E+04  0.16983177894E+04  0.50400001928E-02 0.  1.
       -1    1    3    3    0  502 -0.13341879694E+04  0.21447474144E+03  0.15315293613E+04  0.20424590906E+04  0.50400001928E-02 0. -1.
</event>
<event>
 5   0  0.7203049E-08  0.3703431E+04  0.7818609E-02  0.8067202E-01
       -2   -1    0    0    0  501  0.00000000000E+00  0.00000000000E+00  0.16914491848E+04  0.16914491848E+04  0.25500000920E-02 0.  1.
        2   -1    0    0  501    0  0.00000000000E+00  0.00000000000E+00 -0.20271672382E+04  0.20271672382E+04  0.25500000920E-02 0. -1.
    10030    2    1    2    0    0  0.00000000000E+00  0.00000000000E+00 -0.33571805340E+03  0.37186164231E+04  0.37034310431E+04 0.  0.
        4    1    3    3  502    0 -0.91337712555E+03  0.37013017407E+03  0.14062407091E+04  0.17171979106E+04  0.12699999809E+01 0.  1.
       -4    1    3    3    0  502  0.91337712555E+03 -0.37013017407E+03 -0.17419587625E+04  0.20014185125E+04  0.12699999809E+01 0. -1.
</event>
<event>
 5   0  0.2282000E-08  0.3726662E+04  0.7818609E-02  0.8062079E-01
        1   -1    0    0  501    0  0.00000000000E+00  0.00000000000E+00  0.14381559882E+04  0.14381559882E+04  0.50400001928E-02 0.  1.
       -1   -1    0    0    0  501  0.00000000000E+00  0.00000000000E+00 -0.24142046498E+04  0.24142046498E+04  0.50400001928E-02 0. -1.
    10030    2    1    2    0    0  0.00000000000E+00  0.00000000000E+00 -0.97604866164E+03  0.38523606380E+04  0.37266622460E+04 0.  0.
        1    1    3    3  502    0 -0.46497224086E+02 -0.49161496950E+03 -0.23453332030E+04  0.23967551196E+04  0.50400001928E-02 0. -1.
       -1    1    3    3    0  502  0.46497224086E+02  0.49161496950E+03  0.13692845414E+04  0.14556055185E+04  0.50400001928E-02 0.  1.
</event>
<event>
 5   0  0.7203049E-08  0.3708702E+04  0.7818609E-02  0.8066036E-01
       -2   -1    0    0    0  501  0.00000000000E+00  0.00000000000E+00  0.23049687095E+04  0.23049687095E+04  0.25500000920E-02 0. -1.
        2   -1    0    0  501    0  0.00000000000E+00  0.00000000000E+00 -0.14918286074E+04  0.14918286074E+04  0.25500000920E-02 0.  1.
    10030    2    1    2    0    0  0.00000000000E+00  0.00000000000E+00  0.81314010209E+03  0.37967973170E+04  0.37087023392E+04 0.  0.
        4    1    3    3  502    0 -0.13568818293E+04 -0.68468552832E+03 -0.68106591024E+03  0.16654653880E+04  0.12699999809E+01 0.  1.
       -4    1    3    3    0  502  0.13568818293E+04  0.68468552832E+03  0.14942060123E+04  0.21313319290E+04  0.12699999809E+01 0. -1.
</event>
<event>
 5   0  0.7362817E-08  0.3699882E+04  0.7818609E-02  0.8067988E-01
       -2   -1    0    0    0  501  0.00000000000E+00  0.00000000000E+00  0.12573771993E+04  0.12573771993E+04  0.25500000920E-02 0. -1.
        2   -1    0    0  501    0  0.00000000000E+00  0.00000000000E+00 -0.27217617773E+04  0.27217617773E+04  0.25500000920E-02 0.  1.
    10030    2    1    2    0    0  0.00000000000E+00  0.00000000000E+00 -0.14643845781E+04  0.39791389766E+04  0.36998817282E+04 0.  0.
        1    1    3    3  502    0  0.93530363982E+03 -0.12891036198E+04  0.27995712411E+03  0.16170828775E+04  0.50400001928E-02 0. -1.
       -1    1    3    3    0  502 -0.93530363982E+03  0.12891036198E+04 -0.17443417022E+04  0.23620560991E+04  0.50400001928E-02 0.  1.
</event>
<event>
 5   0  0.2282000E-08  0.3701392E+04  0.7818609E-02  0.8067653E-01
        1   -1    0    0  501    0  0.00000000000E+00  0.00000000000E+00  0.19451725939E+04  0.19451725939E+04  0.50400001928E-02 0. -1.
       -1   -1    0    0    0  501  0.00000000000E+00  0.00000000000E+00 -0.17608081744E+04  0.17608081744E+04  0.50400001928E-02 0.  1.
    10030    2    1    2    0    0  0.00000000000E+00  0.00000000000E+00  0.18436441950E+03  0.37059807683E+04  0.37013920646E+04 0.  0.
        2    1    3    3  502    0 -0.16318229839E+04  0.62282747164E+03  0.70475397273E+03  0.18834644866E+04  0.25500000920E-02 0.  1.
       -2    1    3    3    0  502  0.16318229839E+04 -0.62282747164E+03 -0.52038955323E+03  0.18225162818E+04  0.25500000920E-02 0. -1.
</event>
<event>
 5   0  0.2282000E-08  0.3697463E+04  0.7818609E-02  0.8068524E-01
        1   -1    0    0  501    0  0.00000000000E+00  0.00000000000E+00  0.16616432607E+04  0.16616432608E+04  0.50400001928E-02 0.  1.
       -1   -1    0    0    0  501  0.00000000000E+00  0.00000000000E+00 -0.20568844706E+04  0.20568844706E+04  0.50400001928E-02 0. -1.
    10030    2    1    2    0    0  0.00000000000E+00  0.00000000000E+00 -0.39524120987E+03  0.37185277314E+04  0.36974630323E+04 0.  0.
        1    1    3    3  502    0  0.16902632354E+04 -0.70969370601E+03  0.42808853709E+02  0.18337086898E+04  0.50400001928E-02 0. -1.
       -1    1    3    3    0  502 -0.16902632354E+04  0.70969370601E+03 -0.43805006358E+03  0.18848190416E+04  0.50400001928E-02 0.  1.
</event>
<event>
 5   0  0.7203049E-08  0.3720226E+04  0.7818609E-02  0.8063494E-01
        2   -1    0    0  501    0  0.00000000000E+00  0.00000000000E+00  0.12339915873E+04  0.12339915874E+04  0.25500000920E-02 0.  1.
       -2   -1    0    0    0  501  0.00000000000E+00  0.00000000000E+00 -0.28039251690E+04  0.28039251690E+04  0.25500000920E-02 0. -1.
    10030    2    1    2    0    0  0.00000000000E+00  0.00000000000E+00 -0.15699335817E+04  0.40379167564E+04  0.37202258373E+04 0.  0.
        4    1    3    3  502    0  0.30039018810E+03 -0.80863929866E+03  0.10037594540E+04  0.13235053588E+04  0.12699999809E+01 0.  1.
       -4    1    3    3    0  502 -0.30039018810E+03  0.80863929866E+03 -0.25736930356E+04  0.27144113975E+04  0.12699999809E+01 0. -1.
</event>
<event>
 5   0  0.2282000E-08  0.3694845E+04  0.7818609E-02  0.8069105E-01
        1   -1    0    0  501    0  0.00000000000E+00  0.00000000000E+00  0.28864839863E+04  0.28864839863E+04  0.50400001928E-02 0.  1.
       -1   -1    0    0    0  501  0.00000000000E+00  0.00000000000E+00 -0.11823968719E+04  0.11823968719E+04  0.50400001928E-02 0. -1.
    10030    2    1    2    0    0  0.00000000000E+00  0.00000000000E+00  0.17040871144E+04  0.40688808582E+04  0.36948448607E+04 0.  0.
        4    1    3    3  502    0  0.16619461073E+04  0.75539548397E+03  0.54002194777E+03  0.19037627262E+04  0.12699999809E+01 0. -1.
       -4    1    3    3    0  502 -0.16619461073E+04 -0.75539548397E+03  0.11640651667E+04  0.21651181321E+04  0.12699999809E+01 0.  1.
</event>
<event>
 5   0  0.7203049E-08  0.3702923E+04  0.7818609E-02  0.8067314E-01
       -2   -1    0    0    0  501  0.00000000000E+00  0.00000000000E+00  0.19061080267E+04  0.19061080267E+04  0.25500000920E-02 0. -1.
        2   -1    0    0  501    0  0.00000000000E+00  0.00000000000E+00 -0.17983821146E+04  0.17983821146E+04  0.25500000920E-02 0.  1.
    10030    2    1    2    0    0  0.00000000000E+00  0.00000000000E+00  0.10772591212E+03  0.37044901413E+04  0.37029234849E+04 0.  0.
        4    1    3    3  502    0  0.16693976299E+04  0.19116538080E+03 -0.72394673836E+03  0.18296265036E+04  0.12699999809E+01 0.  1.
       -4    1    3    3    0  502 -0.16693976299E+04 -0.19116538080E+03  0.83167265048E+03  0.18748636377E+04  0.12699999809E+01 0. -1.
</event>
<event>
 5   0  0.2282000E-08  0.3691563E+04  0.7818609E-02  0.8069834E-01
       -1   -1    0    0    0  501  0.00000000000E+00  0.00000000000E+00  0.13291079752E+04  0.13291079752E+04  0.50400001928E-02 0. -1.
        1   -1    0    0  501    0  0.00000000000E+00  0.00000000000E+00 -0.25633045858E+04  0.25633045858E+04  0.50400001928E-02 0.  1.
    10030    2    1    2    0    0  0.00000000000E+00  0.00000000000E+00 -0.12341966107E+04  0.38924125610E+04  0.36915625785E+04 0.  0.
        2    1    3    3  502    0  0.12389983221E+04  0.77461718263E+03  0.57198204359E+03  0.15691756052E+04  0.25500000920E-02 0. -1.
       -2    1    3    3    0  502 -0.12389983221E+04 -0.77461718263E+03 -0.18061786542E+04  0.23232369558E+04  0.25500000920E-02 0.  1.
</event>
<event>
 5   0  0.7362817E-08  0.3701251E+04  0.7818609E-02  0.8067685E-01
       -2   -1    0    0    0  501  0.00000000000E+00  0.00000000000E+00  0.12293089628E+04  0.12293089628E+04  0.25500000920E-02 0. -1.
        2   -1    0    0  501    0  0.00000000000E+00  0.00000000000E+00 -0.27859669200E+04  0.27859669200E+04  0.25500000920E-02 0.  1.
    10030    2    1    2    0    0  0.00000000000E+00  0.00000000000E+00 -0.15566579572E+04  0.40152758828E+04  0.37012506561E+04 0.  0.
        1    1    3    3  502    0  0.64141843433E+03 -0.14230262816E+04  0.30019959945E+03  0.15895097375E+04  0.50400001928E-02 0. -1.
       -1    1    3    3    0  502 -0.64141843433E+03  0.14230262816E+04 -0.18568575566E+04  0.24257661453E+04  0.50400001928E-02 0.  1.
</event>
<event>
 5   0  0.2282000E-08  0.3699412E+04  0.7818609E-02  0.8068092E-01
        1   -1    0    0  501    0  0.00000000000E+00  0.00000000000E+00  0.12524282759E+04  0.12524282759E+04  0.50400001928E-02 0.  1.
       -1   -1    0    0    0  501  0.00000000000E+00  0.00000000000E+00 -0.27318233833E+04  0.27318233833E+04  0.50400001928E-02 0. -1.
    10030    2    1    2    0    0  0.00000000000E+00  0.00000000000E+00 -0.14793951074E+04  0.39842516592E+04  0.36994123046E+04 0.  0.
        3    1    3    3  502    0  0.10868246300E+04  0.65186880963E+03 -0.21907639553E+04  0.25309222508E+04  0.10100000352E+00 0. -1.
       -3    1    3    3    0  502 -0.10868246300E+04 -0.65186880963E+03  0.71136884792E+03  0.14533294084E+04  0.10100000352E+00 0.  1.
</event>
<event>
 5   0  0.2282000E-08  0.3697348E+04  0.7818609E-02  0.8068550E-01
        1   -1    0    0  501    0  0.00000000000E+00  0.00000000000E+00  0.22465946514E+04  0.22465946515E+04  0.50400001928E-02 0. -1.
       -1   -1    0    0    0  501  0.00000000000E+00  0.00000000000E+00 -0.15212338417E+04  0.15212338417E+04  0.50400001928E-02 0.  1.
    10030    2    1    2    0    0  0.00000000000E+00  0.00000000000E+00  0.72536080978E+03  0.37678284931E+04  0.36973481374E+04 0.  0.
        1    1    3    3  502    0  0.97213704950E+03  0.16607823664E+03  0.19561249767E+04  0.21906750896E+04  0.50400001928E-02 0. -1.
       -1    1    3    3    0  502 -0.97213704950E+03 -0.16607823664E+03 -0.12307641669E+04  0.15771534035E+04  0.50400001928E-02 0.  1.
</event>
<event>
 5   0  0.2282000E-08  0.3697033E+04  0.7818609E-02  0.8068620E-01
        1   -1    0    0  501    0  0.00000000000E+00  0.00000000000E+00  0.19334557701E+04  0.19334557701E+04  0.50400001928E-02 0. -1.
       -1   -1    0    0    0  501  0.00000000000E+00  0.00000000000E+00 -0.17673090115E+04  0.17673090115E+04  0.50400001928E-02 0.  1.
    10030    2    1    2    0    0  0.00000000000E+00  0.00000000000E+00  0.16614675862E+03  0.37007647816E+04  0.36970333003E+04 0.  0.
        3    1    3    3  502    0 -0.15938422215E+04 -0.72339997936E+03 -0.51197866081E+03  0.18236673810E+04  0.10100000352E+00 0. -1.
       -3    1    3    3    0  502  0.15938422215E+04  0.72339997936E+03  0.67812541943E+03  0.18770974007E+04  0.10100000352E+00 0.  1.
</event>
<event>
 5   0  0.7254493E-08  0.3702076E+04  0.7818609E-02  0.8067502E-01
       -2   -1    0    0    0  501  0.00000000000E+00  0.00000000000E+00  0.17485455654E+04  0.17485455654E+04  0.25500000920E-02 0.  1.
        2   -1    0    0  501    0  0.00000000000E+00  0.00000000000E+00 -0.19595382714E+04  0.19595382714E+04  0.25500000920E-02 0. -1.
    10030    2    1    2    0    0  0.00000000000E+00  0.00000000000E+00 -0.21099270603E+03  0.37080838369E+04  0.37020761498E+04 0.  0.
        3    1    3    3  502    0 -0.10415674010E+04 -0.15282133708E+04 -0.27632262213E+02  0.18496113942E+04  0.10100000352E+00 0.  1.
       -3    1    3    3    0  502  0.10415674010E+04  0.15282133708E+04 -0.18336044382E+03  0.18584724426E+04  0.10100000352E+00 0. -1.
</event>
<event>
 5   0  0.7309833E-08  0.3713580E+04  0.7818609E-02  0.8064959E-01
       -2   -1    0    0    0  501  0.00000000000E+00  0.00000000000E+00  0.22507529628E+04  0.22507529628E+04  0.25500000920E-02 0. -1.
        2   -1    0    0  501    0  0.00000000000E+00  0.00000000000E+00 -0.15317848137E+04  0.15317848137E+04  0.25500000920E-02 0.  1.
    10030    2    1    2    0    0  0.00000000000E+00  0.00000000000E+00  0.71896814905E+03  0.37825377765E+04  0.37135800559E+04 0.  0.
        2    1    3    3  502    0  0.10219090880E+04  0.93053200064E+03 -0.90349278411E+03  0.16512078002E+04  0.25500000920E-02 0.  1.
       -2    1    3    3    0  502 -0.10219090880E+04 -0.93053200064E+03  0.16224609332E+04  0.21313299763E+04  0.25500000920E-02 0. -1.
</event>
<event>
 5   0  0.2282000E-08  0.3695173E+04  0.7818609E-02  0.8069032E-01
       -1   -1    0    0    0  501  0.00000000000E+00  0.00000000000E+00  0.14354605020E+04  0.14354605020E+04  0.50400001928E-02 0. -1.
        1   -1    0    0  501    0  0.00000000000E+00  0.00000000000E+00 -0.23780352121E+04  0.23780352121E+04  0.50400001928E-02 0.  1.
    10030    2    1    2    0    0  0.00000000000E+00  0.00000000000E+00 -0.94257471011E+03  0.38134957142E+04  0.36951728617E+04 0.  0.
        4    1    3    3  502    0 -0.14945419592E+03  0.41771310425E+03  0.13796740985E+04  0.14492491246E+04  0.12699999809E+01 0. -1.
       -4    1    3    3    0  502  0.14945419592E+03 -0.41771310425E+03 -0.23222488086E+04  0.23642465896E+04  0.12699999809E+01 0.  1.
</event>
<event>
 5   0  0.7362817E-08  0.3700877E+04  0.7818609E-02  0.8067767E-01
       -2   -1    0    0    0  501  0.00000000000E+00  0.00000000000E+00  0.11842869845E+04  0.11842869845E+04  0.25500000920E-02 0. -1.
        2   -1    0    0  501    0  0.00000000000E+00  0.00000000000E+00 -0.28912950639E+04  0.28912950640E+04  0.25500000920E-02 0.  1.
    10030    2    1    2    0    0  0.00000000000E+00  0.00000000000E+00 -0.17070080795E+04  0.40755820484E+04  0.37008772541E+04 0.  0.
        1    1    3    3  502    0 -0.52636668967E+03  0.33184678306E+01  0.11001011275E+04  0.12195472090E+04  0.50400001928E-02 0. -1.
       -1    1    3    3    0  502  0.52636668967E+03 -0.33184678306E+01 -0.28071092070E+04  0.28560348394E+04  0.50400001928E-02 0.  1.
</event>
<event>
 5   0  0.7191801E-08  0.3707926E+04  0.7818609E-02  0.8066208E-01
        2   -1    0    0  501    0  0.00000000000E+00  0.00000000000E+00  0.10624687924E+04  0.10624687924E+04  0.25500000920E-02 0.  1.
       -2   -1    0    0    0  501  0.00000000000E+00  0.00000000000E+00 -0.32350868406E+04  0.32350868406E+04  0.25500000920E-02 0. -1.
    10030    2    1    2    0    0  0.00000000000E+00  0.00000000000E+00 -0.21726180482E+04  0.42975556331E+04  0.37079260019E+04 0.  0.
        5    1    3    3  502    0  0.13389509503E+04 -0.41536420880E+03  0.31980551062E+03  0.14379202787E+04  0.46999998093E+01 0.  1.
       -5    1    3    3    0  502 -0.13389509503E+04  0.41536420880E+03 -0.24924235588E+04  0.28596353543E+04  0.46999998093E+01 0. -1.
</event>
<event>
 5   0  0.2282000E-08  0.3710559E+04  0.7818609E-02  0.8065626E-01
       -1   -1    0    0    0  501  0.00000000000E+00  0.00000000000E+00  0.22000921618E+04  0.22000921618E+04  0.50400001928E-02 0.  1.
        1   -1    0    0  501    0  0.00000000000E+00  0.00000000000E+00 -0.15645083164E+04  0.15645083164E+04  0.50400001928E-02 0. -1.
    10030    2    1    2    0    0  0.00000000000E+00  0.00000000000E+00  0.63558384536E+03  0.37646004782E+04  0.37105592484E+04 0.  0.
        4    1    3    3  502    0 -0.57456622878E+03  0.11460118169E+04 -0.10428560628E+04  0.16525797458E+04  0.12699999809E+01 0. -1.
       -4    1    3    3    0  502  0.57456622878E+03 -0.11460118169E+04  0.16784399082E+04  0.21120207324E+04  0.12699999809E+01 0.  1.
</event>
<event>
 5   0  0.7362817E-08  0.3697602E+04  0.7818609E-02  0.8068493E-01
        2   -1    0    0  501    0  0.00000000000E+00  0.00000000000E+00  0.16213079116E+04  0.16213079116E+04  0.25500000920E-02 0.  1.
       -2   -1    0    0    0  501  0.00000000000E+00  0.00000000000E+00 -0.21082151580E+04  0.21082151580E+04  0.25500000920E-02 0. -1.
    10030    2    1    2    0    0  0.00000000000E+00  0.00000000000E+00 -0.48690724633E+03  0.37295230696E+04  0.36976024205E+04 0.  0.
        1    1    3    3  502    0  0.97301896037E+03  0.14707688165E+04  0.31644125517E+03  0.17916645547E+04  0.50400001928E-02 0.  1.
       -1    1    3    3    0  502 -0.97301896037E+03 -0.14707688165E+04 -0.80334850150E+03  0.19378585148E+04  0.50400001928E-02 0. -1.
</event>
<event>
 5   0  0.2282000E-08  0.3692202E+04  0.7818609E-02  0.8069692E-01
        1   -1    0    0  501    0  0.00000000000E+00  0.00000000000E+00  0.22060500157E+04  0.22060500157E+04  0.50400001928E-02 0. -1.
       -1   -1    0    0    0  501  0.00000000000E+00  0.00000000000E+00 -0.15448832470E+04  0.15448832470E+04  0.50400001928E-02 0.  1.
    10030    2    1    2    0    0  0.00000000000E+00  0.00000000000E+00  0.66116676866E+03  0.37509332627E+04  0.36922024383E+04 0.  0.
        1    1    3    3  502    0 -0.11915540270E+04  0.61274244151E+03  0.16207590838E+04  0.21028823806E+04  0.50400001928E-02 0. -1.
       -1    1    3    3    0  502  0.11915540270E+04 -0.61274244151E+03 -0.95959231514E+03  0.16480508821E+04  0.50400001928E-02 0.  1.
</event>
<event>
 5   0  0.7362817E-08  0.3701858E+04  0.7818609E-02  0.8067550E-01
       -2   -1    0    0    0  501  0.00000000000E+00  0.00000000000E+00  0.15301632584E+04  0.15301632584E+04  0.25500000920E-02 0. -1.
        2   -1    0    0  501    0  0.00000000000E+00  0.00000000000E+00 -0.22389360768E+04  0.22389360768E+04  0.25500000920E-02 0.  1.
    10030    2    1    2    0    0  0.00000000000E+00  0.00000000000E+00 -0.70877281844E+03  0.37690993352E+04  0.37018577620E+04 0.  0.
        1    1    3    3  502    0  0.13473071132E+04 -0.12001962487E+04 -0.77447046552E+03  0.19635457709E+04  0.50400001928E-02 0.  1.
       -1    1    3    3    0  502 -0.13473071132E+04  0.12001962487E+04  0.65697647077E+02  0.18055535643E+04  0.50400001928E-02 0. -1.
</event>
<event>
 5   0  0.2282000E-08  0.3707598E+04  0.7818609E-02  0.8066280E-01
       -1   -1    0    0    0  501  0.00000000000E+00  0.00000000000E+00  0.21074173463E+04  0.21074173463E+04  0.50400001928E-02 0.  1.
        1   -1    0    0  501    0  0.00000000000E+00  0.00000000000E+00 -0.16307025331E+04  0.16307025331E+04  0.50400001928E-02 0. -1.
    10030    2    1    2    0    0  0.00000000000E+00  0.00000000000E+00  0.47671481322E+03  0.37381198794E+04  0.37075980391E+04 0.  0.
        4    1    3    3  502    0  0.69108869402E+03 -0.16504235930E+03 -0.14879666276E+04  0.16489053524E+04  0.12699999809E+01 0. -1.
       -4    1    3    3    0  502 -0.69108869402E+03  0.16504235930E+03  0.19646814408E+04  0.20892145271E+04  0.12699999809E+01 0.  1.
</event>
<event>
 5   0  0.7309833E-08  0.3697730E+04  0.7818609E-02  0.8068465E-01
        2   -1    0    0  501    0  0.00000000000E+00  0.00000000000E+00  0.24289464894E+04  0.24289464894E+04  0.25500000920E-02 0.  1.
       -2   -1    0    0    0  501  0.00000000000E+00  0.00000000000E+00 -0.14073184349E+04  0.14073184349E+04  0.25500000920E-02 0. -1.
    10030    2    1    2    0    0  0.00000000000E+00  0.00000000000E+00  0.10216280545E+04  0.38362649243E+04  0.36977296667E+04 0.  0.
        2    1    3    3  502    0 -0.18131990064E+04 -0.27656273581E+03  0.26945323417E+03  0.18538561511E+04  0.25500000920E-02 0.  1.
       -2    1    3    3    0  502  0.18131990064E+04  0.27656273581E+03  0.75217482032E+03  0.19824087732E+04  0.25500000920E-02 0. -1.
</event>
<event>
 5   0  0.7309833E-08  0.3714383E+04  0.7818609E-02  0.8064782E-01
       -2   -1    0    0    0  501  0.00000000000E+00  0.00000000000E+00  0.14093982721E+04  0.14093982721E+04  0.25500000920E-02 0. -1.
        2   -1    0    0  501    0  0.00000000000E+00  0.00000000000E+00 -0.24472579298E+04  0.24472579298E+04  0.25500000920E-02 0.  1.
    10030    2    1    2    0    0  0.00000000000E+00  0.00000000000E+00 -0.10378596577E+04  0.38566562019E+04  0.37143834468E+04 0.  0.
        2    1    3    3  502    0 -0.26841859491E+03 -0.10228528722E+04 -0.21041316874E+04  0.23549196798E+04  0.25500000920E-02 0.  1.
       -2    1    3    3    0  502  0.26841859491E+03  0.10228528722E+04  0.10662720297E+04  0.15017365221E+04  0.25500000920E-02 0. -1.
</event>
<event>
 5   0  0.2282000E-08  0.3701831E+04  0.7818609E-02  0.8067556E-01
        1   -1    0    0  501    0  0.00000000000E+00  0.00000000000E+00  0.17267875323E+04  0.17267875323E+04  0.50400001928E-02 0.  1.
       -1   -1    0    0    0  501  0.00000000000E+00  0.00000000000E+00 -0.19839663922E+04  0.19839663922E+04  0.50400001928E-02 0. -1.
    10030    2    1    2    0    0  0.00000000000E+00  0.00000000000E+00 -0.25717885995E+03  0.37107539245E+04  0.37018311309E+04 0.  0.
        4    1    3    3  502    0  0.16604091679E+04  0.74775422901E+03  0.20355773961E+03  0.18323570498E+04  0.12699999809E+01 0.  1.
       -4    1    3    3    0  502 -0.16604091679E+04 -0.74775422901E+03 -0.46073659956E+03  0.18783968747E+04  0.12699999809E+01 0. -1.
</event>
<event>
 5   0  0.2282000E-08  0.3695532E+04  0.7818609E-02  0.8068953E-01
       -1   -1    0    0    0  501  0.00000000000E+00  0.00000000000E+00  0.15854884763E+04  0.15854884763E+04  0.50400001928E-02 0.  1.
        1   -1    0    0  501    0  0.00000000000E+00  0.00000000000E+00 -0.21534307731E+04  0.21534307731E+04  0.50400001928E-02 0. -1.
    10030    2    1    2    0    0  0.00000000000E+00  0.00000000000E+00 -0.56794229682E+03  0.37389192494E+04  0.36955322622E+04 0.  0.
        5    1    3    3  502    0 -0.25738775150E+03  0.12913710111E+04 -0.15954653768E+04  0.20686757604E+04  0.46999998093E+01 0. -1.
       -5    1    3    3    0  502  0.25738775150E+03 -0.12913710111E+04  0.10275230800E+04  0.16702434891E+04  0.46999998093E+01 0.  1.
</event>
<event>
 5   0  0.2282000E-08  0.3702241E+04  0.7818609E-02  0.8067465E-01
       -1   -1    0    0    0  501  0.00000000000E+00  0.00000000000E+00  0.16669294241E+04  0.16669294241E+04  0.50400001928E-02 0. -1.
        1   -1    0    0  501    0  0.00000000000E+00  0.00000000000E+00 -0.20556639522E+04  0.20556639522E+04  0.50400001928E-02 0.  1.
    10030    2    1    2    0    0  0.00000000000E+00  0.00000000000E+00 -0.38873452805E+03  0.37225933763E+04  0.37022407961E+04 0.  0.
        2    1    3    3  502    0  0.14278543780E+04 -0.61549281720E+03  0.81566832804E+03  0.17558229849E+04  0.25500000920E-02 0. -1.
       -2    1    3    3    0  502 -0.14278543780E+04  0.61549281720E+03 -0.12044028561E+04  0.19667703914E+04  0.25500000920E-02 0.  1.
</event>
<event>
 5   0  0.7254493E-08  0.3692948E+04  0.7818609E-02  0.8069526E-01
       -2   -1    0    0    0  501  0.00000000000E+00  0.00000000000E+00  0.13993396081E+04  0.13993396081E+04  0.25500000920E-02 0.  1.
        2   -1    0    0  501    0  0.00000000000E+00  0.00000000000E+00 -0.24364826689E+04  0.24364826689E+04  0.25500000920E-02 0. -1.
    10030    2    1    2    0    0  0.00000000000E+00  0.00000000000E+00 -0.10371430608E+04  0.38358222770E+04  0.36929482548E+04 0.  0.
        3    1    3    3  502    0 -0.17516409753E+04 -0.30093009930E+01 -0.11253038141E+04  0.20819615382E+04  0.10100000352E+00 0.  1.
       -3    1    3    3    0  502  0.17516409753E+04  0.30093009930E+01  0.88160753377E+02  0.17538607388E+04  0.10100000352E+00 0. -1.
</event>
<event>
 5   0  0.2282000E-08  0.3699499E+04  0.7818609E-02  0.8068073E-01
       -1   -1    0    0    0  501  0.00000000000E+00  0.00000000000E+00  0.32188189451E+04  0.32188189451E+04  0.50400001928E-02 0.  1.
        1   -1    0    0  501    0  0.00000000000E+00  0.00000000000E+00 -0.10629904454E+04  0.10629904455E+04  0.50400001928E-02 0. -1.
    10030    2    1    2    0    0  0.00000000000E+00  0.00000000000E+00  0.21558284996E+04  0.42818093905E+04  0.36994993090E+04 0.  0.
        2    1    3    3  502    0  0.26208442894E+03  0.11777197624E+04  0.27006987849E+04  0.29579530107E+04  0.25500000920E-02 0.  1.
       -2    1    3    3    0  502 -0.26208442894E+03 -0.11777197624E+04 -0.54487028525E+03  0.13238563799E+04  0.25500000920E-02 0. -1.
</event>
<event>
 5   0  0.2282000E-08  0.3700048E+04  0.7818609E-02  0.8067951E-01
       -1   -1    0    0    0  501  0.00000000000E+00  0.00000000000E+00  0.28848822530E+04  0.28848822530E+04  0.50400001928E-02 0. -1.
        1   -1    0    0  501    0  0.00000000000E+00  0.00000000000E+00 -0.11863875808E+04  0.11863875808E+04  0.50400001928E-02 0.  1.
    10030    2    1    2    0    0  0.00000000000E+00  0.00000000000E+00  0.16984946722E+04  0.40712698338E+04  0.37000478251E+04 0.  0.
        1    1    3    3  502    0  0.70570617730E+03 -0.13809633013E+04 -0.26067192170E+03  0.15725872627E+04  0.50400001928E-02 0.  1.
       -1    1    3    3    0  502 -0.70570617730E+03  0.13809633013E+04  0.19591665939E+04  0.24986825710E+04  0.50400001928E-02 0. -1.
</event>
<event>
 5   0  0.7362817E-08  0.3707660E+04  0.7818609E-02  0.8066266E-01
        2   -1    0    0  501    0  0.00000000000E+00  0.00000000000E+00  0.20367719776E+04  0.20367719776E+04  0.25500000920E-02 0. -1.
       -2   -1    0    0    0  501  0.00000000000E+00  0.00000000000E+00 -0.16873200228E+04  0.16873200228E+04  0.25500000920E-02 0.  1.
    10030    2    1    2    0    0  0.00000000000E+00  0.00000000000E+00  0.34945195478E+03  0.37240920004E+04  0.37076602539E+04 0.  0.
        1    1    3    3  502    0  0.12482413820E+04 -0.12221795889E+04  0.79784350030E+03  0.19205165311E+04  0.50400001928E-02 0. -1.
       -1    1    3    3    0  502 -0.12482413820E+04  0.12221795889E+04 -0.44839154552E+03  0.18035754693E+04  0.50400001928E-02 0.  1.
</event>
<event>
 5   0  0.2282000E-08  0.3702739E+04  0.7818609E-02  0.8067355E-01
       -3   -1    0    0    0  501  0.00000000000E+00  0.00000000000E+00  0.18119295566E+04  0.18119295594E+04  0.10100000352E+00 0.  1.
        3   -1    0    0  501    0  0.00000000000E+00  0.00000000000E+00 -0.18916681992E+04  0.18916682019E+04  0.10100000352E+00 0. -1.
    10030    2    1    2    0    0  0.00000000000E+00  0.00000000000E+00 -0.79738642608E+02  0.37035977614E+04  0.37027392734E+04 0.  0.
        1    1    3    3  502    0 -0.66347914691E+03  0.16801498911E+04  0.36576298402E+03  0.18430655971E+04  0.50400001928E-02 0. -1.
       -1    1    3    3    0  502  0.66347914691E+03 -0.16801498911E+04 -0.44550162663E+03  0.18605321642E+04  0.50400001928E-02 0.  1.
</event>
<event>
 5   0  0.2282000E-08  0.3695180E+04  0.7818609E-02  0.8069031E-01
        1   -1    0    0  501    0  0.00000000000E+00  0.00000000000E+00  0.19454847681E+04  0.19454847681E+04  0.50400001928E-02 0.  1.
       -1   -1    0    0    0  501  0.00000000000E+00  0.00000000000E+00 -0.17546209587E+04  0.17546209587E+04  0.50400001928E-02 0. -1.
    10030    2    1    2    0    0  0.00000000000E+00  0.00000000000E+00  0.19086380938E+03  0.37001057269E+04  0.36951797516E+04 0.  0.
        5    1    3    3  502    0 -0.10443871880E+04  0.44376569203E+03  0.15554200648E+04  0.19253639282E+04  0.46999998093E+01 0.  1.
       -5    1    3    3    0  502  0.10443871880E+04 -0.44376569203E+03 -0.13645562554E+04  0.17747417987E+04  0.46999998093E+01 0. -1.
</event>
<event>
 5   0  0.7309833E-08  0.3697695E+04  0.7818609E-02  0.8068473E-01
       -2   -1    0    0    0  501  0.00000000000E+00  0.00000000000E+00  0.11778270538E+04  0.11778270538E+04  0.25500000920E-02 0.  1.
        2   -1    0    0  501    0  0.00000000000E+00  0.00000000000E+00 -0.29021560823E+04  0.29021560823E+04  0.25500000920E-02 0. -1.
    10030    2    1    2    0    0  0.00000000000E+00  0.00000000000E+00 -0.17243290285E+04  0.40799831362E+04  0.36976954705E+04 0.  0.
        2    1    3    3  502    0  0.16588019416E+04  0.81456499446E+03 -0.80075106456E+03  0.20140363152E+04  0.25500000920E-02 0.  1.
       -2    1    3    3    0  502 -0.16588019416E+04 -0.81456499446E+03 -0.92357796392E+03  0.20659468210E+04  0.25500000920E-02 0. -1.
</event>
<event>
 5   0  0.7309833E-08  0.3713860E+04  0.7818609E-02  0.8064897E-01
       -2   -1    0    0    0  501  0.00000000000E+00  0.00000000000E+00  0.20763982519E+04  0.20763982519E+04  0.25500000920E-02 0.  1.
        2   -1    0    0  501    0  0.00000000000E+00  0.00000000000E+00 -0.16606590081E+04  0.16606590081E+04  0.25500000920E-02 0. -1.
    10030    2    1    2    0    0  0.00000000000E+00  0.00000000000E+00  0.41573924378E+03  0.37370572600E+04  0.37138602351E+04 0.  0.
        2    1    3    3  502    0  0.34861040028E+02  0.17724936762E+04  0.76380608364E+03  0.19303753153E+04  0.25500000920E-02 0.  1.
       -2    1    3    3    0  502 -0.34861040028E+02 -0.17724936762E+04 -0.34806683987E+03  0.18066819447E+04  0.25500000920E-02 0. -1.
</event>
<event>
 5   0  0.2282000E-08  0.3694974E+04  0.7818609E-02  0.8069076E-01
       -1   -1    0    0    0  501  0.00000000000E+00  0.00000000000E+00  0.15579078982E+04  0.15579078982E+04  0.50400001928E-02 0. -1.
        1   -1    0    0  501    0  0.00000000000E+00  0.00000000000E+00 -0.21908926039E+04  0.21908926040E+04  0.50400001928E-02 0.  1.
    10030    2    1    2    0    0  0.00000000000E+00  0.00000000000E+00 -0.63298470572E+03  0.37488005022E+04  0.36949743663E+04 0.  0.
        3    1    3    3  502    0 -0.69600158360E+03  0.16590377455E+04 -0.74259185858E+03  0.19463471232E+04  0.10100000352E+00 0.  1.
       -3    1    3    3    0  502  0.69600158360E+03 -0.16590377455E+04  0.10960715286E+03  0.18024533790E+04  0.10100000352E+00 0. -1.
</event>
<event>
 5   0  0.7191801E-08  0.3705388E+04  0.7818609E-02  0.8066769E-01
       -2   -1    0    0    0  501  0.00000000000E+00  0.00000000000E+00  0.12776471084E+04  0.12776471084E+04  0.25500000920E-02 0.  1.
        2   -1    0    0  501    0  0.00000000000E+00  0.00000000000E+00 -0.26865592003E+04  0.26865592003E+04  0.25500000920E-02 0. -1.
    10030    2    1    2    0    0  0.00000000000E+00  0.00000000000E+00 -0.14089120920E+04  0.39642063087E+04  0.37053877497E+04 0.  0.
        5    1    3    3  502    0 -0.81407802139E+03 -0.74715868316E+03  0.88652287989E+03  0.14166559319E+04  0.46999998093E+01 0.  1.
       -5    1    3    3    0  502  0.81407802139E+03  0.74715868316E+03 -0.22954349718E+04  0.25475503769E+04  0.46999998093E+01 0. -1.
</event>
<event>
 5   0  0.2282000E-08  0.3712396E+04  0.7818609E-02  0.8065220E-01
        1   -1    0    0  501    0  0.00000000000E+00  0.00000000000E+00  0.14886568319E+04  0.14886568319E+04  0.50400001928E-02 0. -1.
       -1   -1    0    0    0  501  0.00000000000E+00  0.00000000000E+00 -0.23144832324E+04  0.23144832324E+04  0.50400001928E-02 0.  1.
    10030    2    1    2    0    0  0.00000000000E+00  0.00000000000E+00 -0.82582640055E+03  0.38031400643E+04  0.37123961406E+04 0.  0.
        4    1    3    3  502    0 -0.53934937118E+03  0.11738061084E+04  0.95261699811E+03  0.16050542927E+04  0.12699999809E+01 0.  1.
       -4    1    3    3    0  502  0.53934937118E+03 -0.11738061084E+04 -0.17784433987E+04  0.21980857717E+04  0.12699999809E+01 0. -1.
</event>
<event>
 5   0  0.7309833E-08  0.3706457E+04  0.7818609E-02  0.8066532E-01
       -2   -1    0    0    0  501  0.00000000000E+00  0.00000000000E+00  0.10985226691E+04  0.10985226691E+04  0.25500000920E-02 0. -1.
        2   -1    0    0  501    0  0.00000000000E+00  0.00000000000E+00 -0.31264320130E+04  0.31264320130E+04  0.25500000920E-02 0.  1.
    10030    2    1    2    0    0  0.00000000000E+00  0.00000000000E+00 -0.20279093439E+04  0.42249546821E+04  0.37064573057E+04 0.  0.
        2    1    3    3  502    0  0.14362526891E+03 -0.15140141601E+04  0.19324745086E+03  0.15330400100E+04  0.25500000920E-02 0. -1.
       -2    1    3    3    0  502 -0.14362526891E+03  0.15140141601E+04 -0.22211567947E+04  0.26919146721E+04  0.25500000920E-02 0.  1.
</event>
<event>
 5   0  0.2282000E-08  0.3702014E+04  0.7818609E-02  0.8067516E-01
        1   -1    0    0  501    0  0.00000000000E+00  0.00000000000E+00  0.21510885172E+04  0.21510885172E+04  0.50400001928E-02 0. -1.
       -1   -1    0    0    0  501  0.00000000000E+00  0.00000000000E+00 -0.15927873320E+04  0.15927873320E+04  0.50400001928E-02 0.  1.
    10030    2    1    2    0    0  0.00000000000E+00  0.00000000000E+00  0.55830118515E+03  0.37438758492E+04  0.37020137981E+04 0.  0.
        5    1    3    3  502    0 -0.26791002009E+03 -0.79446390534E+03 -0.13897390607E+04  0.16230666722E+04  0.46999998093E+01 0.  1.
       -5    1    3    3    0  502  0.26791002009E+03  0.79446390534E+03  0.19480402458E+04  0.21208091770E+04  0.46999998093E+01 0. -1.
</event>
<event>
 5   0  0.2282000E-08  0.3702902E+04  0.7818609E-02  0.8067319E-01
       -3   -1    0    0    0  501  0.00000000000E+00  0.00000000000E+00  0.14070368662E+04  0.14070368698E+04  0.10100000352E+00 0. -1.
        3   -1    0    0  501    0  0.00000000000E+00  0.00000000000E+00 -0.24362344085E+04  0.24362344106E+04  0.10100000352E+00 0.  1.
    10030    2    1    2    0    0  0.00000000000E+00  0.00000000000E+00 -0.10291975424E+04  0.38432712804E+04  0.37029024499E+04 0.  0.
        3    1    3    3  502    0 -0.21243152188E+03 -0.29482996850E+03  0.13696597873E+04  0.14170461548E+04  0.10100000352E+00 0. -1.
       -3    1    3    3    0  502  0.21243152188E+03  0.29482996850E+03 -0.23988573296E+04  0.24262251256E+04  0.10100000352E+00 0.  1.
</event>
<event>
 5   0  0.2282000E-08  0.3696215E+04  0.7818609E-02  0.8068801E-01
       -1   -1    0    0    0  501  0.00000000000E+00  0.00000000000E+00  0.23869385732E+04  0.23869385732E+04  0.50400001928E-02 0.  1.
        1   -1    0    0  501    0  0.00000000000E+00  0.00000000000E+00 -0.14309127645E+04  0.14309127645E+04  0.50400001928E-02 0. -1.
    10030    2    1    2    0    0  0.00000000000E+00  0.00000000000E+00  0.95602580872E+03  0.38178513377E+04  0.36962147516E+04 0.  0.
        2    1    3    3  502    0 -0.78868082582E+03  0.16124742212E+04  0.93226990788E+03  0.20226758861E+04  0.25500000920E-02 0.  1.
       -2    1    3    3    0  502  0.78868082582E+03 -0.16124742212E+04  0.23755900841E+02  0.17951754516E+04  0.25500000920E-02 0. -1.
</event>
<event>
 5   0  0.2282000E-08  0.3696777E+04  0.7818609E-02  0.8068676E-01
       -1   -1    0    0    0  501  0.00000000000E+00  0.00000000000E+00  0.14549181543E+04  0.14549181543E+04  0.50400001928E-02 0.  1.
        1   -1    0    0  501    0  0.00000000000E+00  0.00000000000E+00 -0.23482694958E+04  0.23482694958E+04  0.50400001928E-02 0. -1.
    10030    2    1    2    0    0  0.00000000000E+00  0.00000000000E+00 -0.89335134144E+03  0.38031876501E+04  0.36967769317E+04 0.  0.
        5    1    3    3  502    0  0.81196534872E+03 -0.74655742815E+03  0.10792177926E+04  0.15431684467E+04  0.46999998093E+01 0.  1.
       -5    1    3    3    0  502 -0.81196534872E+03  0.74655742815E+03 -0.19725691341E+04  0.22600192034E+04  0.46999998093E+01 0. -1.
</event>
<event>
 5   0  0.7309833E-08  0.3702809E+04  0.7818609E-02  0.8067340E-01
       -2   -1    0    0    0  501  0.00000000000E+00  0.00000000000E+00  0.13794216259E+04  0.13794216259E+04  0.25500000920E-02 0.  1.
        2   -1    0    0  501    0  0.00000000000E+00  0.00000000000E+00 -0.24848808899E+04  0.24848808899E+04  0.25500000920E-02 0. -1.
    10030    2    1    2    0    0  0.00000000000E+00  0.00000000000E+00 -0.11054592640E+04  0.38643025158E+04  0.37028088999E+04 0.  0.
        2    1    3    3  502    0  0.32333634275E+03 -0.30085557763E+03 -0.24290990827E+04  0.24689234137E+04  0.25500000920E-02 0. -1.
       -2    1    3    3    0  502 -0.32333634275E+03  0.30085557763E+03  0.13236398186E+04  0.13953791021E+04  0.25500000920E-02 0.  1.
</event>
<event>
 5   0  0.7309833E-08  0.3750159E+04  0.7818609E-02  0.8056936E-01
        2   -1    0    0  501    0  0.00000000000E+00  0.00000000000E+00  0.18021856436E+04  0.18021856436E+04  0.25500000920E-02 0.  1.
       -2   -1    0    0    0  501  0.00000000000E+00  0.00000000000E+00 -0.19509221165E+04  0.19509221165E+04  0.25500000920E-02 0. -1.
    10030    2    1    2    0    0  0.00000000000E+00  0.00000000000E+00 -0.14873647291E+03  0.37531077601E+04  0.37501593727E+04 0.  0.
        2    1    3    3  502    0  0.62384048229E+03 -0.95327347317E+02  0.16927095023E+04  0.18065242068E+04  0.25500000920E-02 0.  1.
       -2    1    3    3    0  502 -0.62384048229E+03  0.95327347317E+02 -0.18414459752E+04  0.19465835533E+04  0.25500000920E-02 0. -1.
</event>
<event>
 5   0  0.2282000E-08  0.3695658E+04  0.7818609E-02  0.8068925E-01
       -1   -1    0    0    0  501  0.00000000000E+00  0.00000000000E+00  0.21345061722E+04  0.21345061722E+04  0.50400001928E-02 0.  1.
        1   -1    0    0  501    0  0.00000000000E+00  0.00000000000E+00 -0.15996546292E+04  0.15996546292E+04  0.50400001928E-02 0. -1.
    10030    2    1    2    0    0  0.00000000000E+00  0.00000000000E+00  0.53485154306E+03  0.37341608014E+04  0.36956583605E+04 0.  0.
        4    1    3    3  502    0  0.91082574276E+03  0.15892292678E+04  0.51330824847E+03  0.19022986543E+04  0.12699999809E+01 0. -1.
       -4    1    3    3    0  502 -0.91082574276E+03 -0.15892292678E+04  0.21543294597E+02  0.18318621471E+04  0.12699999809E+01 0.  1.
</event>
<event>
 5   0  0.7203049E-08  0.3697076E+04  0.7818609E-02  0.8068610E-01
        2   -1    0    0  501    0  0.00000000000E+00  0.00000000000E+00  0.10695022684E+04  0.10695022684E+04  0.25500000920E-02 0.  1.
       -2   -1    0    0    0  501  0.00000000000E+00  0.00000000000E+00 -0.31950308413E+04  0.31950308413E+04  0.25500000920E-02 0. -1.
    10030    2    1    2    0    0  0.00000000000E+00  0.00000000000E+00 -0.21255285729E+04  0.42645331097E+04  0.36970759973E+04 0.  0.
        4    1    3    3  502    0  0.96723844218E+03 -0.96294960187E+03  0.37529305072E+03  0.14155100235E+04  0.12699999809E+01 0.  1.
       -4    1    3    3    0  502 -0.96723844218E+03  0.96294960187E+03 -0.25008216237E+04  0.28490230863E+04  0.12699999809E+01 0. -1.
</event>
<event>
 5   0  0.2282000E-08  0.3703131E+04  0.7818609E-02  0.8067268E-01
       -3   -1    0    0    0  501  0.00000000000E+00  0.00000000000E+00  0.20308054575E+04  0.20308054600E+04  0.10100000352E+00 0. -1.
        3   -1    0    0  501    0  0.00000000000E+00  0.00000000000E+00 -0.16881452486E+04  0.16881452516E+04  0.10100000352E+00 0.  1.
    10030    2    1    2    0    0  0.00000000000E+00  0.00000000000E+00  0.34266020889E+03  0.37189507116E+04  0.37031308884E+04 0.  0.
        3    1    3    3  502    0  0.16078350849E+04 -0.30905858957E+03 -0.69702768116E+03  0.17794657823E+04  0.10100000352E+00 0.  1.
       -3    1    3    3    0  502 -0.16078350849E+04  0.30905858957E+03  0.10396878900E+04  0.19394849293E+04  0.10100000352E+00 0. -1.
</event>
<event>
 5   0  0.2282000E-08  0.3700078E+04  0.7818609E-02  0.8067945E-01
        1   -1    0    0  501    0  0.00000000000E+00  0.00000000000E+00  0.21530833776E+04  0.21530833776E+04  0.50400001928E-02 0.  1.
       -1   -1    0    0    0  501  0.00000000000E+00  0.00000000000E+00 -0.15896476604E+04  0.15896476605E+04  0.50400001928E-02 0. -1.
    10030    2    1    2    0    0  0.00000000000E+00  0.00000000000E+00  0.56343571712E+03  0.37427310380E+04  0.37000778121E+04 0.  0.
        3    1    3    3  502    0  0.17783453902E+04 -0.19461219722E+03  0.75859464120E+03  0.19431551852E+04  0.10100000352E+00 0.  1.
       -3    1    3    3    0  502 -0.17783453902E+04  0.19461219722E+03 -0.19515892408E+03  0.17995758528E+04  0.10100000352E+00 0. -1.
</event>
<event>
 5   0  0.7309833E-08  0.3708859E+04  0.7818609E-02  0.8066001E-01
        2   -1    0    0  501    0  0.00000000000E+00  0.00000000000E+00  0.13583751374E+04  0.13583751374E+04  0.25500000920E-02 0. -1.
       -2   -1    0    0    0  501  0.00000000000E+00  0.00000000000E+00 -0.25316336476E+04  0.25316336476E+04  0.25500000920E-02 0.  1.
    10030    2    1    2    0    0  0.00000000000E+00  0.00000000000E+00 -0.11732585102E+04  0.38900087849E+04  0.37088586944E+04 0.  0.
        2    1    3    3  502    0  0.65145124719E+03 -0.96241053804E+03  0.92904273321E+03  0.14878653069E+04  0.25500000920E-02 0. -1.
       -2    1    3    3    0  502 -0.65145124719E+03  0.96241053804E+03 -0.21023012434E+04  0.24021434781E+04  0.25500000920E-02 0.  1.
</event>
<event>
 5   0  0.2282000E-08  0.3696301E+04  0.7818609E-02  0.8068782E-01
        1   -1    0    0  501    0  0.00000000000E+00  0.00000000000E+00  0.15334102591E+04  0.15334102591E+04  0.50400001928E-02 0. -1.
       -1   -1    0    0    0  501  0.00000000000E+00  0.00000000000E+00 -0.22274923868E+04  0.22274923868E+04  0.50400001928E-02 0.  1.
    10030    2    1    2    0    0  0.00000000000E+00  0.00000000000E+00 -0.69408212776E+03  0.37609026459E+04  0.36963006793E+04 0.  0.
        1    1    3    3  502    0 -0.14031847355E+04  0.69662862632E+03 -0.13447091519E+04  0.20645729699E+04  0.50400001928E-02 0.  1.
       -1    1    3    3    0  502  0.14031847355E+04 -0.69662862632E+03  0.65062702419E+03  0.16963296759E+04  0.50400001928E-02 0. -1.
</event>
<event>
 5   0  0.7309833E-08  0.3658073E+04  0.7818609E-02  0.8077317E-01
       -2   -1    0    0    0  501  0.00000000000E+00  0.00000000000E+00  0.14835275128E+04  0.14835275128E+04  0.25500000920E-02 0. -1.
        2   -1    0    0  501    0  0.00000000000E+00  0.00000000000E+00 -0.22550129235E+04  0.22550129235E+04  0.25500000920E-02 0.  1.
    10030    2    1    2    0    0  0.00000000000E+00  0.00000000000E+00 -0.77148541065E+03  0.37385404363E+04  0.36580725601E+04 0.  0.
        2    1    3    3  502    0 -0.64114467852E+03 -0.39927844135E+03 -0.20881841309E+04  0.22205861246E+04  0.25500000920E-02 0.  1.
       -2    1    3    3    0  502  0.64114467852E+03  0.39927844135E+03  0.13166987202E+04  0.15179543117E+04  0.25500000920E-02 0. -1.
</event>
<event>
 5   0  0.7309833E-08  0.3702278E+04  0.7818609E-02  0.8067457E-01
       -2   -1    0    0    0  501  0.00000000000E+00  0.00000000000E+00  0.33207243896E+04  0.33207243896E+04  0.25500000920E-02 0.  1.
        2   -1    0    0  501    0  0.00000000000E+00  0.00000000000E+00 -0.10319183693E+04  0.10319183693E+04  0.25500000920E-02 0. -1.
    10030    2    1    2    0    0  0.00000000000E+00  0.00000000000E+00  0.22888060203E+04  0.43526427589E+04  0.37022784860E+04 0.  0.
        2    1    3    3  502    0  0.85019901962E+03  0.16209494548E+04  0.14693656480E+04  0.23472006551E+04  0.25500000920E-02 0.  1.
       -2    1    3    3    0  502 -0.85019901962E+03 -0.16209494548E+04  0.81944037230E+03  0.20054421038E+04  0.25500000920E-02 0. -1.
</event>
<event>
 5   0  0.2282000E-08  0.3702319E+04  0.7818609E-02  0.8067448E-01
        1   -1    0    0  501    0  0.00000000000E+00  0.00000000000E+00  0.15529730307E+04  0.15529730307E+04  0.50400001928E-02 0. -1.
       -1   -1    0    0    0  501  0.00000000000E+00  0.00000000000E+00 -0.22066011656E+04  0.22066011656E+04  0.50400001928E-02 0.  1.
    10030    2    1    2    0    0  0.00000000000E+00  0.00000000000E+00 -0.65362813488E+03  0.37595741964E+04  0.37023193270E+04 0.  0.
        3    1    3    3  502    0  0.37894994936E+03 -0.10410610757E+04  0.11791513775E+04  0.16179645264E+04  0.10100000352E+00 0. -1.
       -3    1    3    3    0  502 -0.37894994936E+03  0.10410610757E+04 -0.18327795123E+04  0.21416096700E+04  0.10100000352E+00 0.  1.
</event>
<event>
 5   0  0.2282000E-08  0.3695988E+04  0.7818609E-02  0.8068851E-01
        1   -1    0    0  501    0  0.00000000000E+00  0.00000000000E+00  0.14942762013E+04  0.14942762014E+04  0.50400001928E-02 0. -1.
       -1   -1    0    0    0  501  0.00000000000E+00  0.00000000000E+00 -0.22854424299E+04  0.22854424299E+04  0.50400001928E-02 0.  1.
    10030    2    1    2    0    0  0.00000000000E+00  0.00000000000E+00 -0.79116622855E+03  0.37797186312E+04  0.36959882211E+04 0.  0.
        1    1    3    3  502    0 -0.33409261899E+03  0.13524297106E+04  0.84617296174E+03  0.16299364041E+04  0.50400001928E-02 0.  1.
       -1    1    3    3    0  502  0.33409261899E+03 -0.13524297106E+04 -0.16373391903E+04  0.21497822272E+04  0.50400001928E-02 0. -1.
</event>
<event>
 5   0  0.2282000E-08  0.3704417E+04  0.7818609E-02  0.8066984E-01
       -1   -1    0    0    0  501  0.00000000000E+00  0.00000000000E+00  0.12612032404E+04  0.12612032405E+04  0.50400001928E-02 0. -1.
        1   -1    0    0  501    0  0.00000000000E+00  0.00000000000E+00 -0.27201612702E+04  0.27201612702E+04  0.50400001928E-02 0.  1.
    10030    2    1    2    0    0  0.00000000000E+00  0.00000000000E+00 -0.14589580297E+04  0.39813645106E+04  0.37044169358E+04 0.  0.
        3    1    3    3  502    0  0.12939030461E+02  0.73358063996E+03  0.10983639045E+04  0.13208751836E+04  0.10100000352E+00 0. -1.
       -3    1    3    3    0  502 -0.12939030461E+02 -0.73358063996E+03 -0.25573219342E+04  0.26604893270E+04  0.10100000352E+00 0.  1.
</event>
<event>
 5   0  0.2282000E-08  0.3695442E+04  0.7818609E-02  0.8068973E-01
       -1   -1    0    0    0  501  0.00000000000E+00  0.00000000000E+00  0.15084362327E+04  0.15084362327E+04  0.50400001928E-02 0. -1.
        1   -1    0    0  501    0  0.00000000000E+00  0.00000000000E+00 -0.22633198490E+04  0.22633198490E+04  0.50400001928E-02 0.  1.
    10030    2    1    2    0    0  0.00000000000E+00  0.00000000000E+00 -0.75488361633E+03  0.37717560817E+04  0.36954424181E+04 0.  0.
        4    1    3    3  502    0  0.15233353936E+04 -0.10228976500E+04 -0.15569564407E+03  0.18414975076E+04  0.12699999809E+01 0. -1.
       -4    1    3    3    0  502 -0.15233353936E+04  0.10228976500E+04 -0.59918797227E+03  0.19302585741E+04  0.12699999809E+01 0.  1.
</event>
<event>
 5   0  0.2282000E-08  0.3703778E+04  0.7818609E-02  0.8067125E-01
       -1   -1    0    0    0  501  0.00000000000E+00  0.00000000000E+00  0.30479166632E+04  0.30479166632E+04  0.50400001928E-02 0. -1.
        1   -1    0    0  501    0  0.00000000000E+00  0.00000000000E+00 -0.11251922085E+04  0.11251922085E+04  0.50400001928E-02 0.  1.
    10030    2    1    2    0    0  0.00000000000E+00  0.00000000000E+00  0.19227244548E+04  0.41731088717E+04  0.37037775752E+04 0.  0.
        4    1    3    3  502    0  0.79447702823E+03 -0.15609597890E+04  0.16389878612E+04  0.23987646890E+04  0.12699999809E+01 0.  1.
       -4    1    3    3    0  502 -0.79447702823E+03  0.15609597890E+04  0.28373659359E+03  0.17743441827E+04  0.12699999809E+01 0. -1.
</event>
<event>
 5   0  0.7362817E-08  0.3701191E+04  0.7818609E-02  0.8067698E-01
       -2   -1    0    0    0  501  0.00000000000E+00  0.00000000000E+00  0.17741104832E+04  0.17741104832E+04  0.25500000920E-02 0.  1.
        2   -1    0    0  501    0  0.00000000000E+00  0.00000000000E+00 -0.19303775620E+04  0.19303775620E+04  0.25500000920E-02 0. -1.
    10030    2    1    2    0    0  0.00000000000E+00  0.00000000000E+00 -0.15626707885E+03  0.37044880452E+04  0.37011906567E+04 0.  0.
        1    1    3    3  502    0 -0.56388918674E+03 -0.12519496402E+04 -0.13199460027E+04  0.19046276188E+04  0.50400001928E-02 0. -1.
       -1    1    3    3    0  502  0.56388918674E+03  0.12519496402E+04  0.11636789238E+04  0.17998604263E+04  0.50400001928E-02 0.  1.
</event>
<event>
 5   0  0.7254493E-08  0.3703229E+04  0.7818609E-02  0.8067247E-01
       -2   -1    0    0    0  501  0.00000000000E+00  0.00000000000E+00  0.12290643173E+04  0.12290643173E+04  0.25500000920E-02 0.  1.
        2   -1    0    0  501    0  0.00000000000E+00  0.00000000000E+00 -0.27895012195E+04  0.27895012195E+04  0.25500000920E-02 0. -1.
    10030    2    1    2    0    0  0.00000000000E+00  0.00000000000E+00 -0.15604369022E+04  0.40185655368E+04  0.37032290839E+04 0.  0.
        3    1    3    3  502    0  0.92346109200E+03 -0.16989217322E+03  0.95155342453E+03  0.13368237239E+04  0.10100000352E+00 0.  1.
       -3    1    3    3    0  502 -0.92346109200E+03  0.16989217322E+03 -0.25119903267E+04  0.26817418128E+04  0.10100000352E+00 0. -1.
</event>
<event>
 5   0  0.2282000E-08  0.3717533E+04  0.7818609E-02  0.8064087E-01
       -3   -1    0    0    0  501  0.00000000000E+00  0.00000000000E+00  0.29309628382E+04  0.29309628400E+04  0.10100000352E+00 0. -1.
        3   -1    0    0  501    0  0.00000000000E+00  0.00000000000E+00 -0.11787980244E+04  0.11787980287E+04  0.10100000352E+00 0.  1.
    10030    2    1    2    0    0  0.00000000000E+00  0.00000000000E+00  0.17521648139E+04  0.41097608687E+04  0.37175331690E+04 0.  0.
        3    1    3    3  502    0 -0.42380204596E+03 -0.57152014660E+03  0.27744579585E+04  0.28642381929E+04  0.10100000352E+00 0.  1.
       -3    1    3    3    0  502  0.42380204596E+03  0.57152014660E+03 -0.10222931446E+04  0.12455226758E+04  0.10100000352E+00 0. -1.
</event>
<event>
 5   0  0.7309833E-08  0.3709181E+04  0.7818609E-02  0.8065930E-01
        2   -1    0    0  501    0  0.00000000000E+00  0.00000000000E+00  0.27154168190E+04  0.27154168190E+04  0.25500000920E-02 0. -1.
       -2   -1    0    0    0  501  0.00000000000E+00  0.00000000000E+00 -0.12666583251E+04  0.12666583251E+04  0.25500000920E-02 0.  1.
    10030    2    1    2    0    0  0.00000000000E+00  0.00000000000E+00  0.14487584939E+04  0.39820751441E+04  0.37091806750E+04 0.  0.
        2    1    3    3  502    0 -0.12000568829E+04 -0.50443091688E+03  0.21425189140E+04  0.25069851155E+04  0.25500000920E-02 0. -1.
       -2    1    3    3    0  502  0.12000568829E+04  0.50443091688E+03 -0.69376042010E+03  0.14750900286E+04  0.25500000920E-02 0.  1.
</event>
<event>
 5   0  0.7203049E-08  0.3700760E+04  0.7818609E-02  0.8067793E-01
        2   -1    0    0  501    0  0.00000000000E+00  0.00000000000E+00  0.18284760964E+04  0.18284760964E+04  0.25500000920E-02 0.  1.
       -2   -1    0    0    0  501  0.00000000000E+00  0.00000000000E+00 -0.18725465769E+04  0.18725465769E+04  0.25500000920E-02 0. -1.
    10030    2    1    2    0    0  0.00000000000E+00  0.00000000000E+00 -0.44070480513E+02  0.37010226734E+04  0.37007602761E+04 0.  0.
        4    1    3    3  502    0 -0.15695987462E+04  0.97514952865E+03 -0.11872826394E+03  0.18516627233E+04  0.12699999809E+01 0.  1.
       -4    1    3    3    0  502  0.15695987462E+04 -0.97514952865E+03  0.74657783424E+02  0.18493599501E+04  0.12699999809E+01 0. -1.
</event>
<event>
 5   0  0.2282000E-08  0.3694905E+04  0.7818609E-02  0.8069092E-01
        1   -1    0    0  501    0  0.00000000000E+00  0.00000000000E+00  0.17649947275E+04  0.17649947275E+04  0.50400001928E-02 0.  1.
       -1   -1    0    0    0  501  0.00000000000E+00  0.00000000000E+00 -0.19337626415E+04  0.19337626415E+04  0.50400001928E-02 0. -1.
    10030    2    1    2    0    0  0.00000000000E+00  0.00000000000E+00 -0.16876791405E+03  0.36987573690E+04  0.36949050686E+04 0.  0.
        4    1    3    3  502    0  0.38559156900E+03  0.77379999405E+03 -0.17187625017E+04  0.19239525563E+04  0.12699999809E+01 0. -1.
       -4    1    3    3    0  502 -0.38559156900E+03 -0.77379999405E+03  0.15499945876E+04  0.17748048128E+04  0.12699999809E+01 0.  1.
</event>
<event>
 5   0  0.7191801E-08  0.3704315E+04  0.7818609E-02  0.8067006E-01
        2   -1    0    0  501    0  0.00000000000E+00  0.00000000000E+00  0.15862899623E+04  0.15862899623E+04  0.25500000920E-02 0. -1.
       -2   -1    0    0    0  501  0.00000000000E+00  0.00000000000E+00 -0.21625852671E+04  0.21625852671E+04  0.25500000920E-02 0.  1.
    10030    2    1    2    0    0  0.00000000000E+00  0.00000000000E+00 -0.57629530475E+03  0.37488752294E+04  0.37043149444E+04 0.  0.
        5    1    3    3  502    0 -0.21336027946E+03 -0.10154897536E+04  0.12644923578E+04  0.16357582528E+04  0.46999998093E+01 0. -1.
       -5    1    3    3    0  502  0.21336027946E+03  0.10154897536E+04 -0.18407876626E+04  0.21131169767E+04  0.46999998093E+01 0.  1.
</event>
<event>
 5   0  0.7254493E-08  0.3702809E+04  0.7818609E-02  0.8067340E-01
        2   -1    0    0  501    0  0.00000000000E+00  0.00000000000E+00  0.20304936431E+04  0.20304936431E+04  0.25500000920E-02 0.  1.
       -2   -1    0    0    0  501  0.00000000000E+00  0.00000000000E+00 -0.16881109333E+04  0.16881109333E+04  0.25500000920E-02 0. -1.
    10030    2    1    2    0    0  0.00000000000E+00  0.00000000000E+00  0.34238270983E+03  0.37186045764E+04  0.37028089440E+04 0.  0.
        3    1    3    3  502    0 -0.13245963064E+04  0.10724117804E+04 -0.55513388600E+03  0.17924274164E+04  0.10100000352E+00 0. -1.
       -3    1    3    3    0  502  0.13245963064E+04 -0.10724117804E+04  0.89751659583E+03  0.19261771600E+04  0.10100000352E+00 0.  1.
</event>
<event>
 5   0  0.2282000E-08  0.3699627E+04  0.7818609E-02  0.8068045E-01
       -1   -1    0    0    0  501  0.00000000000E+00  0.00000000000E+00  0.15322116870E+04  0.15322116870E+04  0.50400001928E-02 0. -1.
        1   -1    0    0  501    0  0.00000000000E+00  0.00000000000E+00 -0.22332486115E+04  0.22332486115E+04  0.50400001928E-02 0.  1.
    10030    2    1    2    0    0  0.00000000000E+00  0.00000000000E+00 -0.70103692450E+03  0.37654602986E+04  0.36996268042E+04 0.  0.
        4    1    3    3  502    0  0.13882754527E+04 -0.12183942916E+04 -0.24866458819E+03  0.18637674406E+04  0.12699999809E+01 0.  1.
       -4    1    3    3    0  502 -0.13882754527E+04  0.12183942916E+04 -0.45237233630E+03  0.19016928580E+04  0.12699999809E+01 0. -1.
</event>
<event>
 5   0  0.2282000E-08  0.3702495E+04  0.7818609E-02  0.8067409E-01
       -1   -1    0    0    0  501  0.00000000000E+00  0.00000000000E+00  0.10736020096E+04  0.10736020096E+04  0.50400001928E-02 0.  1.
        1   -1    0    0  501    0  0.00000000000E+00  0.00000000000E+00 -0.31921668399E+04  0.31921668399E+04  0.50400001928E-02 0. -1.
    10030    2    1    2    0    0  0.00000000000E+00  0.00000000000E+00 -0.21185648304E+04  0.42657688495E+04  0.37024946910E+04 0.  0.
        3    1    3    3  502    0  0.38304280613E+02 -0.16354803387E+04 -0.60937757153E+02  0.16370634003E+04  0.10100000352E+00 0.  1.
       -3    1    3    3    0  502 -0.38304280613E+02  0.16354803387E+04 -0.20576270732E+04  0.26287054492E+04  0.10100000352E+00 0. -1.
</event>
<event>
 5   0  0.7203049E-08  0.3700334E+04  0.7818609E-02  0.8067888E-01
        2   -1    0    0  501    0  0.00000000000E+00  0.00000000000E+00  0.27542212475E+04  0.27542212475E+04  0.25500000920E-02 0.  1.
       -2   -1    0    0    0  501  0.00000000000E+00  0.00000000000E+00 -0.12428621034E+04  0.12428621034E+04  0.25500000920E-02 0. -1.
    10030    2    1    2    0    0  0.00000000000E+00  0.00000000000E+00  0.15113591441E+04  0.39970833509E+04  0.37003336135E+04 0.  0.
        4    1    3    3  502    0 -0.91555059180E+03  0.11244818283E+04 -0.48556944805E+03  0.15292061896E+04  0.12699999809E+01 0. -1.
       -4    1    3    3    0  502  0.91555059180E+03 -0.11244818283E+04  0.19969285921E+04  0.24678771613E+04  0.12699999809E+01 0.  1.
</event>
<event>
 5   0  0.7254493E-08  0.3703253E+04  0.7818609E-02  0.8067241E-01
        2   -1    0    0  501    0  0.00000000000E+00  0.00000000000E+00  0.19310807803E+04  0.19310807803E+04  0.25500000920E-02 0.  1.
       -2   -1    0    0    0  501  0.00000000000E+00  0.00000000000E+00 -0.17754409364E+04  0.17754409364E+04  0.25500000920E-02 0. -1.
    10030    2    1    2    0    0  0.00000000000E+00  0.00000000000E+00  0.15563984390E+03  0.37065217167E+04  0.37032525535E+04 0.  0.
        3    1    3    3  502    0 -0.66211197706E+02 -0.17184848842E+04  0.76468052632E+03  0.18821026905E+04  0.10100000352E+00 0.  1.
       -3    1    3    3    0  502  0.66211197706E+02  0.17184848842E+04 -0.60904068242E+03  0.18244190262E+04  0.10100000352E+00 0. -1.
</event>
<event>
 5   0  0.7309833E-08  0.3699910E+04  0.7818609E-02  0.8067982E-01
        2   -1    0    0  501    0  0.00000000000E+00  0.00000000000E+00  0.20728744192E+04  0.20728744192E+04  0.25500000920E-02 0. -1.
       -2   -1    0    0    0  501  0.00000000000E+00  0.00000000000E+00 -0.16510085414E+04  0.16510085414E+04  0.25500000920E-02 0.  1.
    10030    2    1    2    0    0  0.00000000000E+00  0.00000000000E+00  0.42186587776E+03  0.37238829606E+04  0.36999099293E+04 0.  0.
        2    1    3    3  502    0  0.53751669871E+03 -0.12250451181E+04  0.14969731859E+04  0.20076325515E+04  0.25500000920E-02 0. -1.
       -2    1    3    3    0  502 -0.53751669871E+03  0.12250451181E+04 -0.10751073081E+04  0.17162504091E+04  0.25500000920E-02 0.  1.
</event>
<event>
 5   0  0.7309833E-08  0.3707554E+04  0.7818609E-02  0.8066290E-01
       -2   -1    0    0    0  501  0.00000000000E+00  0.00000000000E+00  0.11434616231E+04  0.11434616231E+04  0.25500000920E-02 0. -1.
        2   -1    0    0  501    0  0.00000000000E+00  0.00000000000E+00 -0.30053390787E+04  0.30053390787E+04  0.25500000920E-02 0.  1.
    10030    2    1    2    0    0  0.00000000000E+00  0.00000000000E+00 -0.18618774556E+04  0.41488007019E+04  0.37075543967E+04 0.  0.
        2    1    3    3  502    0  0.11090184523E+04  0.67555295411E+03 -0.24113364459E+04  0.27387656301E+04  0.25500000920E-02 0.  1.
       -2    1    3    3    0  502 -0.11090184523E+04 -0.67555295411E+03  0.54945899036E+03  0.14100350717E+04  0.25500000920E-02 0. -1.
</event>
<event>
 5   0  0.7203049E-08  0.3709373E+04  0.7818609E-02  0.8065888E-01
       -2   -1    0    0    0  501  0.00000000000E+00  0.00000000000E+00  0.17339294403E+04  0.17339294403E+04  0.25500000920E-02 0. -1.
        2   -1    0    0  501    0  0.00000000000E+00  0.00000000000E+00 -0.19838540413E+04  0.19838540413E+04  0.25500000920E-02 0.  1.
    10030    2    1    2    0    0  0.00000000000E+00  0.00000000000E+00 -0.24992460100E+03  0.37177834816E+04  0.37093734929E+04 0.  0.
        4    1    3    3  502    0  0.13986185823E+04  0.77192646690E+02 -0.13433535098E+04  0.19407969777E+04  0.12699999809E+01 0.  1.
       -4    1    3    3    0  502 -0.13986185823E+04 -0.77192646690E+02  0.10934289088E+04  0.17769865039E+04  0.12699999809E+01 0. -1.
</event>
<event>
 5   0  0.7191801E-08  0.3697873E+04  0.7818609E-02  0.8068433E-01
       -2   -1    0    0    0  501  0.00000000000E+00  0.00000000000E+00  0.18118664355E+04  0.18118664355E+04  0.25500000920E-02 0. -1.
        2   -1    0    0  501    0  0.00000000000E+00  0.00000000000E+00 -0.18867653390E+04  0.18867653390E+04  0.25500000920E-02 0.  1.
    10030    2    1    2    0    0  0.00000000000E+00  0.00000000000E+00 -0.74898903494E+02  0.36986317744E+04  0.36978733290E+04 0.  0.
        5    1    3    3  502    0 -0.17752534738E+03 -0.79763315297E+03 -0.16963464706E+04  0.18829092740E+04  0.46999998093E+01 0.  1.
       -5    1    3    3    0  502  0.17752534738E+03  0.79763315297E+03  0.16214475671E+04  0.18157225004E+04  0.46999998093E+01 0. -1.
</event>
<event>
 5   0  0.7191801E-08  0.3703967E+04  0.7818609E-02  0.8067083E-01
       -2   -1    0    0    0  501  0.00000000000E+00  0.00000000000E+00  0.14541434822E+04  0.14541434822E+04  0.25500000920E-02 0. -1.
        2   -1    0    0  501    0  0.00000000000E+00  0.00000000000E+00 -0.23586686847E+04  0.23586686847E+04  0.25500000920E-02 0.  1.
    10030    2    1    2    0    0  0.00000000000E+00  0.00000000000E+00 -0.90452520254E+03  0.38128121669E+04  0.37039668976E+04 0.  0.
        5    1    3    3  502    0  0.54376116726E+03 -0.14703479869E+04  0.56272527909E+03  0.16656173748E+04  0.46999998093E+01 0. -1.
       -5    1    3    3    0  502 -0.54376116726E+03  0.14703479869E+04 -0.14672504816E+04  0.21471947921E+04  0.46999998093E+01 0.  1.
</event>
<event>
 5   0  0.7254493E-08  0.3708068E+04  0.7818609E-02  0.8066176E-01
       -2   -1    0    0    0  501  0.00000000000E+00  0.00000000000E+00  0.18320931643E+04  0.18320931643E+04  0.25500000920E-02 0.  1.
        2   -1    0    0  501    0  0.00000000000E+00  0.00000000000E+00 -0.18762380055E+04  0.18762380055E+04  0.25500000920E-02 0. -1.
    10030    2    1    2    0    0  0.00000000000E+00  0.00000000000E+00 -0.44144841160E+02  0.37083311698E+04  0.37080684053E+04 0.  0.
        3    1    3    3  502    0  0.16896296070E+04 -0.26371447261E+03 -0.73839776385E+03  0.18626928893E+04  0.10100000352E+00 0. -1.
       -3    1    3    3    0  502 -0.16896296070E+04  0.26371447261E+03  0.69425292269E+03  0.18456382806E+04  0.10100000352E+00 0.  1.
</event>
<event>
 5   0  0.2282000E-08  0.3689352E+04  0.7818609E-02  0.8070326E-01
       -1   -1    0    0    0  501  0.00000000000E+00  0.00000000000E+00  0.12589600456E+04  0.12589600457E+04  0.50400001928E-02 0. -1.
        1   -1    0    0  501    0  0.00000000000E+00  0.00000000000E+00 -0.27028894957E+04  0.27028894957E+04  0.50400001928E-02 0.  1.
    10030    2    1    2    0    0  0.00000000000E+00  0.00000000000E+00 -0.14439294500E+04  0.39618495413E+04  0.36893521832E+04 0.  0.
        1    1    3    3  502    0  0.86522761313E+02  0.14409313638E+04  0.51136790381E+03  0.15314263014E+04  0.50400001928E-02 0. -1.
       -1    1    3    3    0  502 -0.86522761313E+02 -0.14409313638E+04 -0.19552973539E+04  0.24304232400E+04  0.50400001928E-02 0.  1.
</event>
<event>
 5   0  0.2282000E-08  0.3698174E+04  0.7818609E-02  0.8068367E-01
        1   -1    0    0  501    0  0.00000000000E+00  0.00000000000E+00  0.13239839821E+04  0.13239839822E+04  0.50400001928E-02 0.  1.
       -1   -1    0    0    0  501  0.00000000000E+00  0.00000000000E+00 -0.25824500904E+04  0.25824500904E+04  0.50400001928E-02 0. -1.
    10030    2    1    2    0    0  0.00000000000E+00  0.00000000000E+00 -0.12584661082E+04  0.39064340725E+04  0.36981739031E+04 0.  0.
        1    1    3    3  502    0  0.11237374320E+04  0.12500593796E+04  0.18466949665E+03  0.16910165853E+04  0.50400001928E-02 0.  1.
       -1    1    3    3    0  502 -0.11237374320E+04 -0.12500593796E+04 -0.14431356049E+04  0.22154174872E+04  0.50400001928E-02 0. -1.
</event>
<event>
 5   0  0.7309833E-08  0.3699623E+04  0.7818609E-02  0.8068045E-01
       -2   -1    0    0    0  501  0.00000000000E+00  0.00000000000E+00  0.15549064884E+04  0.15549064884E+04  0.25500000920E-02 0.  1.
        2   -1    0    0  501    0  0.00000000000E+00  0.00000000000E+00 -0.22006490336E+04  0.22006490336E+04  0.25500000920E-02 0. -1.
    10030    2    1    2    0    0  0.00000000000E+00  0.00000000000E+00 -0.64574254515E+03  0.37555555220E+04  0.36996234733E+04 0.  0.
        2    1    3    3  502    0  0.62274147344E+03  0.16278324056E+04  0.30630408095E+03  0.17695952853E+04  0.25500000920E-02 0.  1.
       -2    1    3    3    0  502 -0.62274147344E+03 -0.16278324056E+04 -0.95204662610E+03  0.19859602367E+04  0.25500000920E-02 0. -1.
</event>
<event>
 5   0  0.7203049E-08  0.3693944E+04  0.7818609E-02  0.8069305E-01
       -2   -1    0    0    0  501  0.00000000000E+00  0.00000000000E+00  0.16156282142E+04  0.16156282142E+04  0.25500000920E-02 0.  1.
        2   -1    0    0  501    0  0.00000000000E+00  0.00000000000E+00 -0.21114423233E+04  0.21114423233E+04  0.25500000920E-02 0. -1.
    10030    2    1    2    0    0  0.00000000000E+00  0.00000000000E+00 -0.49581410915E+03  0.37270705375E+04  0.36939441198E+04 0.  0.
        4    1    3    3  502    0 -0.10675638239E+04  0.15070053658E+04 -0.22432036567E+03  0.18603975194E+04  0.12699999809E+01 0. -1.
       -4    1    3    3    0  502  0.10675638239E+04 -0.15070053658E+04 -0.27149374348E+03  0.18666730181E+04  0.12699999809E+01 0.  1.
</event>
<event>
 5   0  0.2282000E-08  0.3693946E+04  0.7818609E-02  0.8069305E-01
       -1   -1    0    0    0  501  0.00000000000E+00  0.00000000000E+00  0.15972284500E+04  0.15972284500E+04  0.50400001928E-02 0.  1.
        1   -1    0    0  501    0  0.00000000000E+00  0.00000000000E+00 -0.21357677334E+04  0.21357677334E+04  0.50400001928E-02 0. -1.
    10030    2    1    2    0    0  0.00000000000E+00  0.00000000000E+00 -0.53853928347E+03  0.37329961834E+04  0.36939458504E+04 0.  0.
        5    1    3    3  502    0  0.14439535966E+04 -0.11349869683E+04 -0.46649810656E+03  0.18949511816E+04  0.46999998093E+01 0. -1.
       -5    1    3    3    0  502 -0.14439535966E+04  0.11349869683E+04 -0.72041176908E+02  0.18380450018E+04  0.46999998093E+01 0.  1.
</event>
<event>
 5   0  0.7362817E-08  0.3702328E+04  0.7818609E-02  0.8067446E-01
        2   -1    0    0  501    0  0.00000000000E+00  0.00000000000E+00  0.23999803646E+04  0.23999803646E+04  0.25500000920E-02 0. -1.
       -2   -1    0    0    0  501  0.00000000000E+00  0.00000000000E+00 -0.14278482441E+04  0.14278482441E+04  0.25500000920E-02 0.  1.
    10030    2    1    2    0    0  0.00000000000E+00  0.00000000000E+00  0.97213212046E+03  0.38278286087E+04  0.37023277810E+04 0.  0.
        1    1    3    3  502    0 -0.18227512996E+04  0.45151555428E+02  0.15530473518E+03  0.18299127094E+04  0.50400001928E-02 0.  1.
       -1    1    3    3    0  502  0.18227512996E+04 -0.45151555428E+02  0.81682738528E+03  0.19979158993E+04  0.50400001928E-02 0. -1.
</event>
<event>
 5   0  0.2282000E-08  0.3699639E+04  0.7818609E-02  0.8068042E-01
       -1   -1    0    0    0  501  0.00000000000E+00  0.00000000000E+00  0.19456973008E+04  0.19456973008E+04  0.50400001928E-02 0. -1.
        1   -1    0    0  501    0  0.00000000000E+00  0.00000000000E+00 -0.17586663775E+04  0.17586663775E+04  0.50400001928E-02 0.  1.
    10030    2    1    2    0    0  0.00000000000E+00  0.00000000000E+00  0.18703092333E+03  0.37043636783E+04  0.36996391303E+04 0.  0.
        5    1    3    3  502    0  0.18267617679E+04  0.18856791480E+03  0.31559572361E+03  0.18633945277E+04  0.46999998093E+01 0. -1.
       -5    1    3    3    0  502 -0.18267617679E+04 -0.18856791480E+03 -0.12856480028E+03  0.18409691505E+04  0.46999998093E+01 0.  1.
</event>
<event>
 5   0  0.2282000E-08  0.3691028E+04  0.7818609E-02  0.8069953E-01
       -1   -1    0    0    0  501  0.00000000000E+00  0.00000000000E+00  0.11317974051E+04  0.11317974051E+04  0.50400001928E-02 0.  1.
        1   -1    0    0  501    0  0.00000000000E+00  0.00000000000E+00 -0.30093037383E+04  0.30093037383E+04  0.50400001928E-02 0. -1.
    10030    2    1    2    0    0  0.00000000000E+00  0.00000000000E+00 -0.18775063332E+04  0.41411011434E+04  0.36910281289E+04 0.  0.
        4    1    3    3  502    0 -0.10713661715E+04 -0.58924979550E+03 -0.24896580469E+04  0.27737050309E+04  0.12699999809E+01 0. -1.
       -4    1    3    3    0  502  0.10713661715E+04  0.58924979550E+03  0.61215171372E+03  0.13673961125E+04  0.12699999809E+01 0.  1.
</event>
<event>
 5   0  0.2282000E-08  0.3713772E+04  0.7818609E-02  0.8064917E-01
        1   -1    0    0  501    0  0.00000000000E+00  0.00000000000E+00  0.22009400131E+04  0.22009400131E+04  0.50400001928E-02 0. -1.
       -1   -1    0    0    0  501  0.00000000000E+00  0.00000000000E+00 -0.15666149832E+04  0.15666149832E+04  0.50400001928E-02 0.  1.
    10030    2    1    2    0    0  0.00000000000E+00  0.00000000000E+00  0.63432502991E+03  0.37675549964E+04  0.37137719918E+04 0.  0.
        1    1    3    3  502    0 -0.22681017624E+03  0.41450454938E+03 -0.15046079235E+04  0.15770548123E+04  0.50400001928E-02 0.  1.
       -1    1    3    3    0  502  0.22681017624E+03 -0.41450454938E+03  0.21389329534E+04  0.21905001841E+04  0.50400001928E-02 0. -1.
</event>
<event>
 5   0  0.2282000E-08  0.3700555E+04  0.7818609E-02  0.8067839E-01
        1   -1    0    0  501    0  0.00000000000E+00  0.00000000000E+00  0.20236018969E+04  0.20236018969E+04  0.50400001928E-02 0.  1.
       -1   -1    0    0    0  501  0.00000000000E+00  0.00000000000E+00 -0.16917981630E+04  0.16917981630E+04  0.50400001928E-02 0. -1.
    10030    2    1    2    0    0  0.00000000000E+00  0.00000000000E+00  0.33180373397E+03  0.37154000599E+04  0.37005545378E+04 0.  0.
        1    1    3    3  502    0 -0.15870569783E+04  0.46347434229E+03  0.99987707464E+03  0.19321781705E+04  0.50400001928E-02 0. -1.
       -1    1    3    3    0  502  0.15870569783E+04 -0.46347434229E+03 -0.66807334067E+03  0.17832218894E+04  0.50400001928E-02 0.  1.
</event>
<event>
 5   0  0.2282000E-08  0.3692681E+04  0.7818609E-02  0.8069586E-01
       -1   -1    0    0    0  501  0.00000000000E+00  0.00000000000E+00  0.18071332446E+04  0.18071332446E+04  0.50400001928E-02 0.  1.
        1   -1    0    0  501    0  0.00000000000E+00  0.00000000000E+00 -0.18863980410E+04  0.18863980410E+04  0.50400001928E-02 0. -1.
    10030    2    1    2    0    0  0.00000000000E+00  0.00000000000E+00 -0.79264796404E+02  0.36935312856E+04  0.36926806590E+04 0.  0.
        1    1    3    3  502    0  0.40574422083E+03 -0.17769850020E+04 -0.33409542767E+03  0.18530849481E+04  0.50400001928E-02 0.  1.
       -1    1    3    3    0  502 -0.40574422083E+03  0.17769850020E+04  0.25483063126E+03  0.18404463374E+04  0.50400001928E-02 0. -1.
</event>
<event>
 5   0  0.2282000E-08  0.3701407E+04  0.7818609E-02  0.8067650E-01
       -1   -1    0    0    0  501  0.00000000000E+00  0.00000000000E+00  0.15477785288E+04  0.15477785288E+04  0.50400001928E-02 0. -1.
        1   -1    0    0  501    0  0.00000000000E+00  0.00000000000E+00 -0.22129159207E+04  0.22129159207E+04  0.50400001928E-02 0.  1.
    10030    2    1    2    0    0  0.00000000000E+00  0.00000000000E+00 -0.66513739183E+03  0.37606944495E+04  0.37014071638E+04 0.  0.
        2    1    3    3  502    0  0.17430402156E+04 -0.48306197452E+03 -0.73072012304E+03  0.19507665064E+04  0.25500000920E-02 0. -1.
       -2    1    3    3    0  502 -0.17430402156E+04  0.48306197452E+03  0.65582731209E+02  0.18099279431E+04  0.25500000920E-02 0.  1.
</event>
<event>
 5   0  0.2282000E-08  0.3701717E+04  0.7818609E-02  0.8067581E-01
        1   -1    0    0  501    0  0.00000000000E+00  0.00000000000E+00  0.29773151721E+04  0.29773151721E+04  0.50400001928E-02 0.  1.
       -1   -1    0    0    0  501  0.00000000000E+00  0.00000000000E+00 -0.11505929672E+04  0.11505929672E+04  0.50400001928E-02 0. -1.
    10030    2    1    2    0    0  0.00000000000E+00  0.00000000000E+00  0.18267222050E+04  0.41279081393E+04  0.37017173842E+04 0.  0.
        5    1    3    3  502    0  0.87688808652E+03  0.98727405798E+03  0.23596046790E+04  0.27039598948E+04  0.46999998093E+01 0.  1.
       -5    1    3    3    0  502 -0.87688808652E+03 -0.98727405798E+03 -0.53288247402E+03  0.14239482445E+04  0.46999998093E+01 0. -1.
</event>
<event>
 5   0  0.7254493E-08  0.3702369E+04  0.7818609E-02  0.8067437E-01
        2   -1    0    0  501    0  0.00000000000E+00  0.00000000000E+00  0.18648979842E+04  0.18648979842E+04  0.25500000920E-02 0. -1.
       -2   -1    0    0    0  501  0.00000000000E+00  0.00000000000E+00 -0.18375719099E+04  0.18375719099E+04  0.25500000920E-02 0.  1.
    10030    2    1    2    0    0  0.00000000000E+00  0.00000000000E+00  0.27326074325E+02  0.37024698941E+04  0.37023690527E+04 0.  0.
        3    1    3    3  502    0 -0.44863772311E+03  0.18331666586E+03 -0.17730034727E+04  0.18380484572E+04  0.10100000352E+00 0.  1.
       -3    1    3    3    0  502  0.44863772311E+03 -0.18331666586E+03  0.18003295470E+04  0.18644214370E+04  0.10100000352E+00 0. -1.
</event>
<event>
 5   0  0.2282000E-08  0.3698469E+04  0.7818609E-02  0.8068301E-01
       -1   -1    0    0    0  501  0.00000000000E+00  0.00000000000E+00  0.22165333467E+04  0.22165333467E+04  0.50400001928E-02 0.  1.
        1   -1    0    0  501    0  0.00000000000E+00  0.00000000000E+00 -0.15428003742E+04  0.15428003742E+04  0.50400001928E-02 0. -1.
    10030    2    1    2    0    0  0.00000000000E+00  0.00000000000E+00  0.67373297259E+03  0.37593337209E+04  0.36984691302E+04 0.  0.
        3    1    3    3  502    0 -0.17425629987E+04  0.27395053998E+03  0.90106291900E+03  0.19807799214E+04  0.10100000352E+00 0.  1.
       -3    1    3    3    0  502  0.17425629987E+04 -0.27395053998E+03 -0.22732994641E+03  0.17785537995E+04  0.10100000352E+00 0. -1.
</event>
<event>
 5   0  0.2282000E-08  0.3697542E+04  0.7818609E-02  0.8068507E-01
        1   -1    0    0  501    0  0.00000000000E+00  0.00000000000E+00  0.21770531447E+04  0.21770531447E+04  0.50400001928E-02 0. -1.
       -1   -1    0    0    0  501  0.00000000000E+00  0.00000000000E+00 -0.15699910196E+04  0.15699910196E+04  0.50400001928E-02 0.  1.
    10030    2    1    2    0    0  0.00000000000E+00  0.00000000000E+00  0.60706212510E+03  0.37470441644E+04  0.36975418248E+04 0.  0.
        2    1    3    3  502    0 -0.72252576557E+03  0.15988057063E+04 -0.28713650499E+03  0.17778274778E+04  0.25500000920E-02 0.  1.
       -2    1    3    3    0  502  0.72252576557E+03 -0.15988057063E+04  0.89419863009E+03  0.19692166865E+04  0.25500000920E-02 0. -1.
</event>
<event>
 5   0  0.7191801E-08  0.3702570E+04  0.7818609E-02  0.8067393E-01
       -2   -1    0    0    0  501  0.00000000000E+00  0.00000000000E+00  0.13022666524E+04  0.13022666524E+04  0.25500000920E-02 0.  1.
        2   -1    0    0  501    0  0.00000000000E+00  0.00000000000E+00 -0.26317615122E+04  0.26317615122E+04  0.25500000920E-02 0. -1.
    10030    2    1    2    0    0  0.00000000000E+00  0.00000000000E+00 -0.13294948598E+04  0.39340281646E+04  0.37025695155E+04 0.  0.
        5    1    3    3  502    0 -0.16524532087E+04  0.37939700914E+03  0.12515752425E+03  0.17000677026E+04  0.46999998093E+01 0.  1.
       -5    1    3    3    0  502  0.16524532087E+04 -0.37939700914E+03 -0.14546523840E+04  0.22339604620E+04  0.46999998093E+01 0. -1.
</event>
<event>
 5   0  0.7254493E-08  0.3665638E+04  0.7818609E-02  0.8075620E-01
       -2   -1    0    0    0  501  0.00000000000E+00  0.00000000000E+00  0.14764854058E+04  0.14764854058E+04  0.25500000920E-02 0.  1.
        2   -1    0    0  501    0  0.00000000000E+00  0.00000000000E+00 -0.22751504048E+04  0.22751504048E+04  0.25500000920E-02 0. -1.
    10030    2    1    2    0    0  0.00000000000E+00  0.00000000000E+00 -0.79866499899E+03  0.37516358106E+04  0.36656384812E+04 0.  0.
        3    1    3    3  502    0 -0.16198292918E+04 -0.60714466789E+02  0.47612596168E+03  0.16894463953E+04  0.10100000352E+00 0.  1.
       -3    1    3    3    0  502  0.16198292918E+04  0.60714466789E+02 -0.12747909607E+04  0.20621894153E+04  0.10100000352E+00 0. -1.
</event>
<event>
 5   0  0.2282000E-08  0.3707969E+04  0.7818609E-02  0.8066198E-01
       -1   -1    0    0    0  501  0.00000000000E+00  0.00000000000E+00  0.33784763024E+04  0.33784763024E+04  0.50400001928E-02 0. -1.
        1   -1    0    0  501    0  0.00000000000E+00  0.00000000000E+00 -0.10173990030E+04  0.10173990030E+04  0.50400001928E-02 0.  1.
    10030    2    1    2    0    0  0.00000000000E+00  0.00000000000E+00  0.23610772994E+04  0.43958753054E+04  0.37079689436E+04 0.  0.
        1    1    3    3  502    0  0.54572473745E+03 -0.17599156003E+04  0.14239028019E+04  0.23286514549E+04  0.50400001928E-02 0.  1.
       -1    1    3    3    0  502 -0.54572473745E+03  0.17599156003E+04  0.93717449749E+03  0.20672238505E+04  0.50400001928E-02 0. -1.
</event>
<event>
 5   0  0.7203049E-08  0.3704364E+04  0.7818609E-02  0.8066995E-01
        2   -1    0    0  501    0  0.00000000000E+00  0.00000000000E+00  0.27419528981E+04  0.27419528981E+04  0.25500000920E-02 0.  1.
       -2   -1    0    0    0  501  0.00000000000E+00  0.00000000000E+00 -0.12511442037E+04  0.12511442037E+04  0.25500000920E-02 0. -1.
    10030    2    1    2    0    0  0.00000000000E+00  0.00000000000E+00  0.14908086944E+04  0.39930971019E+04  0.37043641697E+04 0.  0.
        4    1    3    3  502    0 -0.98843264968E+02  0.17774151885E+04  0.12967409492E+04  0.22023881233E+04  0.12699999809E+01 0. -1.
       -4    1    3    3    0  502  0.98843264968E+02 -0.17774151885E+04  0.19406774517E+03  0.17907089786E+04  0.12699999809E+01 0.  1.
</event>
<event>
 5   0  0.7362817E-08  0.3712758E+04  0.7818609E-02  0.8065140E-01
       -2   -1    0    0    0  501  0.00000000000E+00  0.00000000000E+00  0.12079540830E+04  0.12079540830E+04  0.25500000920E-02 0.  1.
        2   -1    0    0  501    0  0.00000000000E+00  0.00000000000E+00 -0.28528756061E+04  0.28528756061E+04  0.25500000920E-02 0. -1.
    10030    2    1    2    0    0  0.00000000000E+00  0.00000000000E+00 -0.16449215231E+04  0.40608296891E+04  0.37127578627E+04 0.  0.
        1    1    3    3  502    0  0.26136687887E+03  0.25935187307E+03 -0.28125351938E+04  0.28365349029E+04  0.50400001928E-02 0. -1.
       -1    1    3    3    0  502 -0.26136687887E+03 -0.25935187307E+03  0.11676136707E+04  0.12242947862E+04  0.50400001928E-02 0.  1.
</event>
<event>
 5   0  0.7254493E-08  0.3705110E+04  0.7818609E-02  0.8066830E-01
        2   -1    0    0  501    0  0.00000000000E+00  0.00000000000E+00  0.17461563206E+04  0.17461563206E+04  0.25500000920E-02 0. -1.
       -2   -1    0    0    0  501  0.00000000000E+00  0.00000000000E+00 -0.19654372331E+04  0.19654372331E+04  0.25500000920E-02 0.  1.
    10030    2    1    2    0    0  0.00000000000E+00  0.00000000000E+00 -0.21928091246E+03  0.37115935537E+04  0.37051103343E+04 0.  0.
        3    1    3    3  502    0  0.71970193901E+03  0.16023424118E+04  0.48002231767E+03  0.18209595057E+04  0.10100000352E+00 0. -1.
       -3    1    3    3    0  502 -0.71970193901E+03 -0.16023424118E+04 -0.69930323013E+03  0.18906340480E+04  0.10100000352E+00 0.  1.
</event>
<event>
 5   0  0.2282000E-08  0.3701013E+04  0.7818609E-02  0.8067737E-01
        1   -1    0    0  501    0  0.00000000000E+00  0.00000000000E+00  0.11035195529E+04  0.11035195529E+04  0.50400001928E-02 0.  1.
       -1   -1    0    0    0  501  0.00000000000E+00  0.00000000000E+00 -0.31031391759E+04  0.31031391759E+04  0.50400001928E-02 0. -1.
    10030    2    1    2    0    0  0.00000000000E+00  0.00000000000E+00 -0.19996196230E+04  0.42066587288E+04  0.37010132429E+04 0.  0.
        5    1    3    3  502    0 -0.63087199253E+03 -0.16466779509E+04 -0.36207900329E+03  0.18001863902E+04  0.46999998093E+01 0.  1.
       -5    1    3    3    0  502  0.63087199253E+03  0.16466779509E+04 -0.16375406197E+04  0.24064723385E+04  0.46999998093E+01 0. -1.
</event>
<event>
 5   0  0.2282000E-08  0.3707616E+04  0.7818609E-02  0.8066276E-01
        1   -1    0    0  501    0  0.00000000000E+00  0.00000000000E+00  0.20335245662E+04  0.20335245662E+04  0.50400001928E-02 0.  1.
       -1   -1    0    0    0  501  0.00000000000E+00  0.00000000000E+00 -0.16899740621E+04  0.16899740621E+04  0.50400001928E-02 0. -1.
    10030    2    1    2    0    0  0.00000000000E+00  0.00000000000E+00  0.34355050403E+03  0.37234986283E+04  0.37076158223E+04 0.  0.
        2    1    3    3  502    0 -0.11096321733E+04 -0.10945769420E+04 -0.83612829014E+03  0.17687545787E+04  0.25500000920E-02 0. -1.
       -2    1    3    3    0  502  0.11096321733E+04  0.10945769420E+04  0.11796787942E+04  0.19547440496E+04  0.25500000920E-02 0.  1.
</event>
<event>
 5   0  0.2282000E-08  0.3697471E+04  0.7818609E-02  0.8068522E-01
       -1   -1    0    0    0  501  0.00000000000E+00  0.00000000000E+00  0.23245625791E+04  0.23245625791E+04  0.50400001928E-02 0.  1.
        1   -1    0    0  501    0  0.00000000000E+00  0.00000000000E+00 -0.14703083334E+04  0.14703083334E+04  0.50400001928E-02 0. -1.
    10030    2    1    2    0    0  0.00000000000E+00  0.00000000000E+00  0.85425424571E+03  0.37948709125E+04  0.36974714233E+04 0.  0.
        3    1    3    3  502    0  0.33325939648E+03  0.15552634274E+04 -0.53998873731E+03  0.16797303356E+04  0.10100000352E+00 0. -1.
       -3    1    3    3    0  502 -0.33325939648E+03 -0.15552634274E+04  0.13942429830E+04  0.21151405768E+04  0.10100000352E+00 0.  1.
</event>
<event>
 5   0  0.7309833E-08  0.3698262E+04  0.7818609E-02  0.8068347E-01
        2   -1    0    0  501    0  0.00000000000E+00  0.00000000000E+00  0.25677868149E+04  0.25677868149E+04  0.25500000920E-02 0. -1.
       -2   -1    0    0    0  501  0.00000000000E+00  0.00000000000E+00 -0.13316082967E+04  0.13316082967E+04  0.25500000920E-02 0.  1.
    10030    2    1    2    0    0  0.00000000000E+00  0.00000000000E+00  0.12361785182E+04  0.38993951116E+04  0.36982624173E+04 0.  0.
        2    1    3    3  502    0  0.10004295399E+04 -0.17403802474E+03  0.22474948557E+04  0.24662484921E+04  0.25500000920E-02 0. -1.
       -2    1    3    3    0  502 -0.10004295399E+04  0.17403802474E+03 -0.10113163375E+04  0.14331466195E+04  0.25500000920E-02 0.  1.
</event>
<event>
 5   0  0.7203049E-08  0.3695358E+04  0.7818609E-02  0.8068991E-01
       -2   -1    0    0    0  501  0.00000000000E+00  0.00000000000E+00  0.16905293645E+04  0.16905293645E+04  0.25500000920E-02 0. -1.
        2   -1    0    0  501    0  0.00000000000E+00  0.00000000000E+00 -0.20194374842E+04  0.20194374842E+04  0.25500000920E-02 0.  1.
    10030    2    1    2    0    0  0.00000000000E+00  0.00000000000E+00 -0.32890811968E+03  0.37099668488E+04  0.36953583680E+04 0.  0.
        4    1    3    3  502    0  0.12804874981E+04 -0.10752067068E+03 -0.14973726761E+04  0.19731536867E+04  0.12699999809E+01 0.  1.
       -4    1    3    3    0  502 -0.12804874981E+04  0.10752067068E+03  0.11684645564E+04  0.17368131620E+04  0.12699999809E+01 0. -1.
</event>
<event>
 5   0  0.2282000E-08  0.3702500E+04  0.7818609E-02  0.8067408E-01
        1   -1    0    0  501    0  0.00000000000E+00  0.00000000000E+00  0.22109953367E+04  0.22109953367E+04  0.50400001928E-02 0. -1.
       -1   -1    0    0    0  501  0.00000000000E+00  0.00000000000E+00 -0.15500377378E+04  0.15500377378E+04  0.50400001928E-02 0.  1.
    10030    2    1    2    0    0  0.00000000000E+00  0.00000000000E+00  0.66095759883E+03  0.37610330745E+04  0.37024998096E+04 0.  0.
        2    1    3    3  502    0  0.17367146023E+04 -0.24143106250E+03  0.93371860174E+03  0.19865288810E+04  0.25500000920E-02 0. -1.
       -2    1    3    3    0  502 -0.17367146023E+04  0.24143106250E+03 -0.27276100291E+03  0.17745041935E+04  0.25500000920E-02 0.  1.
</event>
<event>
 5   0  0.2282000E-08  0.3699677E+04  0.7818609E-02  0.8068033E-01
       -1   -1    0    0    0  501  0.00000000000E+00  0.00000000000E+00  0.21484747204E+04  0.21484747204E+04  0.50400001928E-02 0.  1.
        1   -1    0    0  501    0  0.00000000000E+00  0.00000000000E+00 -0.15927126061E+04  0.15927126061E+04  0.50400001928E-02 0. -1.
    10030    2    1    2    0    0  0.00000000000E+00  0.00000000000E+00  0.55576211431E+03  0.37411873266E+04  0.36996771596E+04 0.  0.
        5    1    3    3  502    0  0.30121569973E+03  0.10229607002E+04 -0.12506009474E+04  0.16435340920E+04  0.46999998093E+01 0. -1.
       -5    1    3    3    0  502 -0.30121569973E+03 -0.10229607002E+04  0.18063630617E+04  0.20976532346E+04  0.46999998093E+01 0.  1.
</event>
<event>
 5   0  0.2282000E-08  0.3705585E+04  0.7818609E-02  0.8066725E-01
       -1   -1    0    0    0  501  0.00000000000E+00  0.00000000000E+00  0.22368904580E+04  0.22368904580E+04  0.50400001928E-02 0. -1.
        1   -1    0    0  501    0  0.00000000000E+00  0.00000000000E+00 -0.15346480933E+04  0.15346480933E+04  0.50400001928E-02 0.  1.
    10030    2    1    2    0    0  0.00000000000E+00  0.00000000000E+00  0.70224236466E+03  0.37715385513E+04  0.37055847994E+04 0.  0.
        2    1    3    3  502    0  0.91338418858E+02 -0.84733021687E+03 -0.13233130540E+04  0.15739976627E+04  0.25500000920E-02 0.  1.
       -2    1    3    3    0  502 -0.91338418858E+02  0.84733021687E+03  0.20255554187E+04  0.21975408886E+04  0.25500000920E-02 0. -1.
</event>
<event>
 5   0  0.7309833E-08  0.3700028E+04  0.7818609E-02  0.8067956E-01
       -2   -1    0    0    0  501  0.00000000000E+00  0.00000000000E+00  0.23420086514E+04  0.23420086514E+04  0.25500000920E-02 0. -1.
        2   -1    0    0  501    0  0.00000000000E+00  0.00000000000E+00 -0.14613748348E+04  0.14613748348E+04  0.25500000920E-02 0.  1.
    10030    2    1    2    0    0  0.00000000000E+00  0.00000000000E+00  0.88063381657E+03  0.38033834862E+04  0.37000283816E+04 0.  0.
        2    1    3    3  502    0 -0.67134200538E+03  0.40627529441E+03 -0.12818301663E+04  0.15029465321E+04  0.25500000920E-02 0.  1.
       -2    1    3    3    0  502  0.67134200538E+03 -0.40627529441E+03  0.21624639828E+04  0.23004369542E+04  0.25500000920E-02 0. -1.
</event>
<event>
 5   0  0.7254493E-08  0.3695977E+04  0.7818609E-02  0.8068854E-01
        2   -1    0    0  501    0  0.00000000000E+00  0.00000000000E+00  0.21355292770E+04  0.21355292770E+04  0.25500000920E-02 0.  1.
       -2   -1    0    0    0  501  0.00000000000E+00  0.00000000000E+00 -0.15991640962E+04  0.15991640962E+04  0.25500000920E-02 0. -1.
    10030    2    1    2    0    0  0.00000000000E+00  0.00000000000E+00  0.53636518087E+03  0.37346933732E+04  0.36959771353E+04 0.  0.
        3    1    3    3  502    0 -0.11837218851E+04 -0.29012093673E+02 -0.11654900365E+04  0.16614470314E+04  0.10100000352E+00 0. -1.
       -3    1    3    3    0  502  0.11837218851E+04  0.29012093673E+02  0.17018552173E+04  0.20732463418E+04  0.10100000352E+00 0.  1.
</event>
<event>
 5   0  0.7309833E-08  0.3806192E+04  0.7818609E-02  0.8044827E-01
       -2   -1    0    0    0  501  0.00000000000E+00  0.00000000000E+00  0.24007537567E+04  0.24007537567E+04  0.25500000920E-02 0.  1.
        2   -1    0    0  501    0  0.00000000000E+00  0.00000000000E+00 -0.15085991748E+04  0.15085991748E+04  0.25500000920E-02 0. -1.
    10030    2    1    2    0    0  0.00000000000E+00  0.00000000000E+00  0.89215458190E+03  0.39093529315E+04  0.38061923946E+04 0.  0.
        2    1    3    3  502    0  0.20214905962E+03  0.18815313531E+04  0.65341651663E+03  0.20019934114E+04  0.25500000920E-02 0. -1.
       -2    1    3    3    0  502 -0.20214905962E+03 -0.18815313531E+04  0.23873806526E+03  0.19073595201E+04  0.25500000920E-02 0.  1.
</event>
<event>
 5   0  0.2282000E-08  0.3675610E+04  0.7818609E-02  0.8073389E-01
       -1   -1    0    0    0  501  0.00000000000E+00  0.00000000000E+00  0.17736490620E+04  0.17736490620E+04  0.50400001928E-02 0.  1.
        1   -1    0    0  501    0  0.00000000000E+00  0.00000000000E+00 -0.19042816086E+04  0.19042816086E+04  0.50400001928E-02 0. -1.
    10030    2    1    2    0    0  0.00000000000E+00  0.00000000000E+00 -0.13063254659E+03  0.36779306707E+04  0.36756100386E+04 0.  0.
        3    1    3    3  502    0  0.16916520977E+03  0.15254940827E+04 -0.10767849286E+04  0.18748906254E+04  0.10100000352E+00 0. -1.
       -3    1    3    3    0  502 -0.16916520977E+03 -0.15254940827E+04  0.94615238203E+03  0.18030400453E+04  0.10100000352E+00 0.  1.
</event>
<event>
 5   0  0.2282000E-08  0.3697107E+04  0.7818609E-02  0.8068603E-01
        1   -1    0    0  501    0  0.00000000000E+00  0.00000000000E+00  0.28361387978E+04  0.28361387978E+04  0.50400001928E-02 0.  1.
       -1   -1    0    0    0  501  0.00000000000E+00  0.00000000000E+00 -0.12048602329E+04  0.12048602329E+04  0.50400001928E-02 0. -1.
    10030    2    1    2    0    0  0.00000000000E+00  0.00000000000E+00  0.16312785649E+04  0.40409990308E+04  0.36971074383E+04 0.  0.
        5    1    3    3  502    0 -0.10108247108E+04  0.15442759577E+04  0.92803375462E+03  0.20658711405E+04  0.46999998093E+01 0. -1.
       -5    1    3    3    0  502  0.10108247108E+04 -0.15442759577E+04  0.70324481033E+03  0.19751278902E+04  0.46999998093E+01 0.  1.
</event>
<event>
 5   0  0.7191801E-08  0.3699307E+04  0.7818609E-02  0.8068116E-01
        2   -1    0    0  501    0  0.00000000000E+00  0.00000000000E+00  0.14115128375E+04  0.14115128375E+04  0.25500000920E-02 0. -1.
       -2   -1    0    0    0  501  0.00000000000E+00  0.00000000000E+00 -0.24237946566E+04  0.24237946566E+04  0.25500000920E-02 0.  1.
    10030    2    1    2    0    0  0.00000000000E+00  0.00000000000E+00 -0.10122818191E+04  0.38353074941E+04  0.36993065692E+04 0.  0.
        5    1    3    3  502    0 -0.21239461781E+03 -0.84528625693E+03  0.11852703125E+04  0.14712267444E+04  0.46999998093E+01 0. -1.
       -5    1    3    3    0  502  0.21239461781E+03  0.84528625693E+03 -0.21975521316E+04  0.23640807497E+04  0.46999998093E+01 0.  1.
</event>
<event>
 5   0  0.2282000E-08  0.3696257E+04  0.7818609E-02  0.8068792E-01
       -1   -1    0    0    0  501  0.00000000000E+00  0.00000000000E+00  0.12367013874E+04  0.12367013874E+04  0.50400001928E-02 0.  1.
        1   -1    0    0  501    0  0.00000000000E+00  0.00000000000E+00 -0.27618466293E+04  0.27618466293E+04  0.50400001928E-02 0. -1.
    10030    2    1    2    0    0  0.00000000000E+00  0.00000000000E+00 -0.15251452419E+04  0.39985480167E+04  0.36962573277E+04 0.  0.
        5    1    3    3  502    0  0.90223939005E+03  0.72036644945E+03 -0.23237145759E+04  0.25947322133E+04  0.46999998093E+01 0. -1.
       -5    1    3    3    0  502 -0.90223939005E+03 -0.72036644945E+03  0.79856933407E+03  0.14038158034E+04  0.46999998093E+01 0.  1.
</event>
<event>
 5   0  0.2282000E-08  0.3763421E+04  0.7818609E-02  0.8054050E-01
       -1   -1    0    0    0  501  0.00000000000E+00  0.00000000000E+00  0.30351111292E+04  0.30351111292E+04  0.50400001928E-02 0. -1.
        1   -1    0    0  501    0  0.00000000000E+00  0.00000000000E+00 -0.11666244926E+04  0.11666244926E+04  0.50400001928E-02 0.  1.
    10030    2    1    2    0    0  0.00000000000E+00  0.00000000000E+00  0.18684866366E+04  0.42017356218E+04  0.37634213057E+04 0.  0.
        2    1    3    3  502    0 -0.14367227596E+04  0.10549143929E+04  0.16076666571E+04  0.24003351317E+04  0.25500000920E-02 0. -1.
       -2    1    3    3    0  502  0.14367227596E+04 -0.10549143929E+04  0.26081997956E+03  0.18014004901E+04  0.25500000920E-02 0.  1.
</event>
<event>
 5   0  0.7191801E-08  0.3700026E+04  0.7818609E-02  0.8067956E-01
        2   -1    0    0  501    0  0.00000000000E+00  0.00000000000E+00  0.23788955549E+04  0.23788955549E+04  0.25500000920E-02 0.  1.
       -2   -1    0    0    0  501  0.00000000000E+00  0.00000000000E+00 -0.14387128410E+04  0.14387128410E+04  0.25500000920E-02 0. -1.
    10030    2    1    2    0    0  0.00000000000E+00  0.00000000000E+00  0.94018271381E+03  0.38176083959E+04  0.37000257201E+04 0.  0.
        5    1    3    3  502    0  0.84284515922E+03  0.96922049436E+02  0.21663382361E+04  0.23265479340E+04  0.46999998093E+01 0.  1.
       -5    1    3    3    0  502 -0.84284515922E+03 -0.96922049436E+02 -0.12261555223E+04  0.14910604619E+04  0.46999998093E+01 0. -1.
</event>
<event>
 5   0  0.2282000E-08  0.3699898E+04  0.7818609E-02  0.8067984E-01
       -1   -1    0    0    0  501  0.00000000000E+00  0.00000000000E+00  0.24656856374E+04  0.24656856374E+04  0.50400001928E-02 0. -1.
        1   -1    0    0  501    0  0.00000000000E+00  0.00000000000E+00 -0.13879756178E+04  0.13879756178E+04  0.50400001928E-02 0.  1.
    10030    2    1    2    0    0  0.00000000000E+00  0.00000000000E+00  0.10777100196E+04  0.38536612552E+04  0.36998981315E+04 0.  0.
        1    1    3    3  502    0 -0.52950083761E+03  0.33043741914E+03 -0.12749983939E+04  0.14195706849E+04  0.50400001928E-02 0.  1.
       -1    1    3    3    0  502  0.52950083761E+03 -0.33043741914E+03  0.23527084135E+04  0.24340905702E+04  0.50400001928E-02 0. -1.
</event>
<event>
 5   0  0.7254493E-08  0.3705386E+04  0.7818609E-02  0.8066769E-01
        2   -1    0    0  501    0  0.00000000000E+00  0.00000000000E+00  0.12195704658E+04  0.12195704658E+04  0.25500000920E-02 0.  1.
       -2   -1    0    0    0  501  0.00000000000E+00  0.00000000000E+00 -0.28144913806E+04  0.28144913806E+04  0.25500000920E-02 0. -1.
    10030    2    1    2    0    0  0.00000000000E+00  0.00000000000E+00 -0.15949209147E+04  0.40340618464E+04  0.37053855746E+04 0.  0.
        3    1    3    3  502    0  0.37672312946E+03 -0.25202058038E+03  0.11582791978E+04  0.12438027977E+04  0.10100000352E+00 0.  1.
       -3    1    3    3    0  502 -0.37672312946E+03  0.25202058038E+03 -0.27532001125E+04  0.27902590487E+04  0.10100000352E+00 0. -1.
</event>
<event>
 5   0  0.7362817E-08  0.3700315E+04  0.7818609E-02  0.8067892E-01
        2   -1    0    0  501    0  0.00000000000E+00  0.00000000000E+00  0.26699150013E+04  0.26699150013E+04  0.25500000920E-02 0.  1.
       -2   -1    0    0    0  501  0.00000000000E+00  0.00000000000E+00 -0.12820940884E+04  0.12820940884E+04  0.25500000920E-02 0. -1.
    10030    2    1    2    0    0  0.00000000000E+00  0.00000000000E+00  0.13878209129E+04  0.39520090897E+04  0.37003147108E+04 0.  0.
        1    1    3    3  502    0 -0.14671277711E+04  0.44501086415E+02  0.18968619891E+04  0.23984431720E+04  0.50400001928E-02 0.  1.
       -1    1    3    3    0  502  0.14671277711E+04 -0.44501086415E+02 -0.50904107622E+03  0.15535659177E+04  0.50400001928E-02 0. -1.
</event>
<event>
 5   0  0.7254493E-08  0.3695668E+04  0.7818609E-02  0.8068922E-01
        2   -1    0    0  501    0  0.00000000000E+00  0.00000000000E+00  0.29766688776E+04  0.29766688776E+04  0.25500000920E-02 0. -1.
       -2   -1    0    0    0  501  0.00000000000E+00  0.00000000000E+00 -0.11470846086E+04  0.11470846086E+04  0.25500000920E-02 0.  1.
    10030    2    1    2    0    0  0.00000000000E+00  0.00000000000E+00  0.18295842690E+04  0.41237534862E+04  0.36956683047E+04 0.  0.
        3    1    3    3  502    0 -0.53236115467E+03  0.13278324517E+04 -0.39027787710E+03  0.14828567869E+04  0.10100000352E+00 0.  1.
       -3    1    3    3    0  502  0.53236115467E+03 -0.13278324517E+04  0.22198621461E+04  0.26408966994E+04  0.10100000352E+00 0. -1.
</event>
<event>
 5   0  0.2282000E-08  0.3657727E+04  0.7818609E-02  0.8077395E-01
       -1   -1    0    0    0  501  0.00000000000E+00  0.00000000000E+00  0.20622753166E+04  0.20622753166E+04  0.50400001928E-02 0.  1.
        1   -1    0    0  501    0  0.00000000000E+00  0.00000000000E+00 -0.16218700604E+04  0.16218700604E+04  0.50400001928E-02 0. -1.
    10030    2    1    2    0    0  0.00000000000E+00  0.00000000000E+00  0.44040525623E+03  0.36841453770E+04  0.36577274870E+04 0.  0.
        2    1    3    3  502    0 -0.77470528031E+03 -0.65092307084E+03 -0.13142417344E+04  0.16586441607E+04  0.25500000920E-02 0. -1.
       -2    1    3    3    0  502  0.77470528031E+03  0.65092307084E+03  0.17546469906E+04  0.20255012163E+04  0.25500000920E-02 0.  1.
</event>
<event>
 5   0  0.7203049E-08  0.3698692E+04  0.7818609E-02  0.8068252E-01
       -2   -1    0    0    0  501  0.00000000000E+00  0.00000000000E+00  0.31820565902E+04  0.31820565902E+04  0.25500000920E-02 0.  1.
        2   -1    0    0  501    0  0.00000000000E+00  0.00000000000E+00 -0.10748021555E+04  0.10748021555E+04  0.25500000920E-02 0. -1.
    10030    2    1    2    0    0  0.00000000000E+00  0.00000000000E+00  0.21072544346E+04  0.42568587457E+04  0.36986923539E+04 0.  0.
        4    1    3    3  502    0 -0.15209590150E+04 -0.93340374567E+03  0.49508544875E+03  0.18519368489E+04  0.12699999809E+01 0. -1.
       -4    1    3    3    0  502  0.15209590150E+04  0.93340374567E+03  0.16121689859E+04  0.24049218968E+04  0.12699999809E+01 0.  1.
</event>
<event>
 5   0  0.2282000E-08  0.3661022E+04  0.7818609E-02  0.8076655E-01
        1   -1    0    0  501    0  0.00000000000E+00  0.00000000000E+00  0.25596679526E+04  0.25596679527E+04  0.50400001928E-02 0.  1.
       -1   -1    0    0    0  501  0.00000000000E+00  0.00000000000E+00 -0.13090646560E+04  0.13090646560E+04  0.50400001928E-02 0. -1.
    10030    2    1    2    0    0  0.00000000000E+00  0.00000000000E+00  0.12506032966E+04  0.38687326087E+04  0.36610221785E+04 0.  0.
        5    1    3    3  502    0 -0.16899420726E+03  0.72167341916E+03 -0.11433900949E+04  0.13626204773E+04  0.46999998093E+01 0. -1.
       -5    1    3    3    0  502  0.16899420726E+03 -0.72167341916E+03  0.23939933916E+04  0.25061121314E+04  0.46999998093E+01 0.  1.
</event>
<event>
 5   0  0.2282000E-08  0.3676644E+04  0.7818609E-02  0.8073158E-01
       -1   -1    0    0    0  501  0.00000000000E+00  0.00000000000E+00  0.30885257084E+04  0.30885257084E+04  0.50400001928E-02 0. -1.
        1   -1    0    0  501    0  0.00000000000E+00  0.00000000000E+00 -0.10941878478E+04  0.10941878478E+04  0.50400001928E-02 0.  1.
    10030    2    1    2    0    0  0.00000000000E+00  0.00000000000E+00  0.19943378606E+04  0.41827135561E+04  0.36766437400E+04 0.  0.
        2    1    3    3  502    0 -0.13317316508E+04 -0.28815877925E+03  0.24010806204E+04  0.27607485972E+04  0.25500000920E-02 0. -1.
       -2    1    3    3    0  502  0.13317316508E+04  0.28815877925E+03 -0.40674275977E+03  0.14219649589E+04  0.25500000920E-02 0.  1.
</event>
<event>
 5   0  0.2282000E-08  0.3710018E+04  0.7818609E-02  0.8065745E-01
        1   -1    0    0  501    0  0.00000000000E+00  0.00000000000E+00  0.23140861376E+04  0.23140861376E+04  0.50400001928E-02 0.  1.
       -1   -1    0    0    0  501  0.00000000000E+00  0.00000000000E+00 -0.14870050984E+04  0.14870050984E+04  0.50400001928E-02 0. -1.
    10030    2    1    2    0    0  0.00000000000E+00  0.00000000000E+00  0.82708103913E+03  0.38010912360E+04  0.37100177276E+04 0.  0.
        2    1    3    3  502    0  0.14665048547E+04  0.45653348844E+03 -0.65218570450E+03  0.16686538011E+04  0.25500000920E-02 0. -1.
       -2    1    3    3    0  502 -0.14665048547E+04 -0.45653348844E+03  0.14792667436E+04  0.21324374349E+04  0.25500000920E-02 0.  1.
</event>
<event>
 5   0  0.2282000E-08  0.3707048E+04  0.7818609E-02  0.8066402E-01
       -1   -1    0    0    0  501  0.00000000000E+00  0.00000000000E+00  0.18518038020E+04  0.18518038020E+04  0.50400001928E-02 0. -1.
        1   -1    0    0  501    0  0.00000000000E+00  0.00000000000E+00 -0.18552455500E+04  0.18552455500E+04  0.50400001928E-02 0.  1.
    10030    2    1    2    0    0  0.00000000000E+00  0.00000000000E+00 -0.34417480083E+01  0.37070493520E+04  0.37070477542E+04 0.  0.
        3    1    3    3  502    0  0.11774354340E+04 -0.63968542250E+03  0.12789041787E+04  0.18523357011E+04  0.10100000352E+00 0. -1.
       -3    1    3    3    0  502 -0.11774354340E+04  0.63968542250E+03 -0.12823459267E+04  0.18547136509E+04  0.10100000352E+00 0.  1.
</event>
<event>
 5   0  0.2282000E-08  0.3691883E+04  0.7818609E-02  0.8069763E-01
       -1   -1    0    0    0  501  0.00000000000E+00  0.00000000000E+00  0.19238784592E+04  0.19238784592E+04  0.50400001928E-02 0.  1.
        1   -1    0    0  501    0  0.00000000000E+00  0.00000000000E+00 -0.17711615113E+04  0.17711615113E+04  0.50400001928E-02 0. -1.
    10030    2    1    2    0    0  0.00000000000E+00  0.00000000000E+00  0.15271694794E+03  0.36950399705E+04  0.36918827063E+04 0.  0.
        5    1    3    3  502    0  0.11975919060E+04 -0.42336864210E+03  0.14169105105E+04  0.19029253441E+04  0.46999998093E+01 0.  1.
       -5    1    3    3    0  502 -0.11975919060E+04  0.42336864210E+03 -0.12641935626E+04  0.17921146264E+04  0.46999998093E+01 0. -1.
</event>
<event>
 5   0  0.7191801E-08  0.3710917E+04  0.7818609E-02  0.8065547E-01
        2   -1    0    0  501    0  0.00000000000E+00  0.00000000000E+00  0.13208627596E+04  0.13208627596E+04  0.25500000920E-02 0.  1.
       -2   -1    0    0    0  501  0.00000000000E+00  0.00000000000E+00 -0.26064226082E+04  0.26064226082E+04  0.25500000920E-02 0. -1.
    10030    2    1    2    0    0  0.00000000000E+00  0.00000000000E+00 -0.12855598485E+04  0.39272853678E+04  0.37109171691E+04 0.  0.
        5    1    3    3  502    0  0.10373128256E+04 -0.43791040433E+03  0.91796865061E+03  0.14527463488E+04  0.46999998093E+01 0.  1.
       -5    1    3    3    0  502 -0.10373128256E+04  0.43791040433E+03 -0.22035284992E+04  0.24745390191E+04  0.46999998093E+01 0. -1.
</event>
<event>
 5   0  0.2282000E-08  0.3698312E+04  0.7818609E-02  0.8068336E-01
       -1   -1    0    0    0  501  0.00000000000E+00  0.00000000000E+00  0.22442126168E+04  0.22442126168E+04  0.50400001928E-02 0.  1.
        1   -1    0    0  501    0  0.00000000000E+00  0.00000000000E+00 -0.15236423985E+04  0.15236423985E+04  0.50400001928E-02 0. -1.
    10030    2    1    2    0    0  0.00000000000E+00  0.00000000000E+00  0.72057021823E+03  0.37678550153E+04  0.36983117739E+04 0.  0.
        3    1    3    3  502    0 -0.52693061059E+03  0.13339676113E+03  0.21609839944E+04  0.22282958508E+04  0.10100000352E+00 0.  1.
       -3    1    3    3    0  502  0.52693061059E+03 -0.13339676113E+03 -0.14404137762E+04  0.15395591645E+04  0.10100000352E+00 0. -1.
</event>
<event>
 5   0  0.2282000E-08  0.3697788E+04  0.7818609E-02  0.8068452E-01
        1   -1    0    0  501    0  0.00000000000E+00  0.00000000000E+00  0.19069255476E+04  0.19069255476E+04  0.50400001928E-02 0. -1.
       -1   -1    0    0    0  501  0.00000000000E+00  0.00000000000E+00 -0.17926285647E+04  0.17926285647E+04  0.50400001928E-02 0.  1.
    10030    2    1    2    0    0  0.00000000000E+00  0.00000000000E+00  0.11429698290E+03  0.36995541123E+04  0.36977880996E+04 0.  0.
        5    1    3    3  502    0  0.56342633978E+02  0.11332937378E+04  0.15175914899E+04  0.18948971499E+04  0.46999998093E+01 0. -1.
       -5    1    3    3    0  502 -0.56342633978E+02 -0.11332937378E+04 -0.14032945070E+04  0.18046569624E+04  0.46999998093E+01 0.  1.
</event>
<event>
 5   0  0.2282000E-08  0.3709704E+04  0.7818609E-02  0.8065815E-01
        1   -1    0    0  501    0  0.00000000000E+00  0.00000000000E+00  0.16450792632E+04  0.16450792632E+04  0.50400001928E-02 0.  1.
       -1   -1    0    0    0  501  0.00000000000E+00  0.00000000000E+00 -0.20913739049E+04  0.20913739049E+04  0.50400001928E-02 0. -1.
    10030    2    1    2    0    0  0.00000000000E+00  0.00000000000E+00 -0.44629464172E+03  0.37364531681E+04  0.37097039464E+04 0.  0.
        4    1    3    3  502    0 -0.16152483326E+04 -0.45003899713E+03  0.57561067066E+03  0.17728202199E+04  0.12699999809E+01 0.  1.
       -4    1    3    3    0  502  0.16152483326E+04  0.45003899713E+03 -0.10219053124E+04  0.19636329482E+04  0.12699999809E+01 0. -1.
</event>
<event>
 5   0  0.2282000E-08  0.3703538E+04  0.7818609E-02  0.8067178E-01
       -1   -1    0    0    0  501  0.00000000000E+00  0.00000000000E+00  0.12347764419E+04  0.12347764420E+04  0.50400001928E-02 0. -1.
        1   -1    0    0  501    0  0.00000000000E+00  0.00000000000E+00 -0.27770596310E+04  0.27770596310E+04  0.50400001928E-02 0.  1.
    10030    2    1    2    0    0  0.00000000000E+00  0.00000000000E+00 -0.15422831891E+04  0.40118360730E+04  0.37035376657E+04 0.  0.
        2    1    3    3  502    0  0.97038221627E+03 -0.11823004329E+04 -0.19018597111E+04  0.24406036794E+04  0.25500000920E-02 0.  1.
       -2    1    3    3    0  502 -0.97038221627E+03  0.11823004329E+04  0.35957652205E+03  0.15712323935E+04  0.25500000920E-02 0. -1.
</event>
<event>
 5   0  0.7309833E-08  0.3702891E+04  0.7818609E-02  0.8067322E-01
        2   -1    0    0  501    0  0.00000000000E+00  0.00000000000E+00  0.25456775641E+04  0.25456775641E+04  0.25500000920E-02 0.  1.
       -2   -1    0    0    0  501  0.00000000000E+00  0.00000000000E+00 -0.13465372424E+04  0.13465372424E+04  0.25500000920E-02 0. -1.
    10030    2    1    2    0    0  0.00000000000E+00  0.00000000000E+00  0.11991403218E+04  0.38922148065E+04  0.37028905721E+04 0.  0.
        2    1    3    3  502    0 -0.12233994407E+04 -0.12929834419E+04  0.64281068594E+02  0.17811918561E+04  0.25500000920E-02 0. -1.
       -2    1    3    3    0  502  0.12233994407E+04  0.12929834419E+04  0.11348592532E+04  0.21110229504E+04  0.25500000920E-02 0.  1.
</event>
<event>
 5   0  0.7254493E-08  0.3714743E+04  0.7818609E-02  0.8064702E-01
       -2   -1    0    0    0  501  0.00000000000E+00  0.00000000000E+00  0.16750857759E+04  0.16750857759E+04  0.25500000920E-02 0. -1.
        2   -1    0    0  501    0  0.00000000000E+00  0.00000000000E+00 -0.20594941283E+04  0.20594941283E+04  0.25500000920E-02 0.  1.
    10030    2    1    2    0    0  0.00000000000E+00  0.00000000000E+00 -0.38440835239E+03  0.37345799043E+04  0.37147432320E+04 0.  0.
        3    1    3    3  502    0  0.16411680991E+04  0.69483256048E+03 -0.71806934964E+03  0.19214183870E+04  0.10100000352E+00 0.  1.
       -3    1    3    3    0  502 -0.16411680991E+04 -0.69483256048E+03  0.33366099725E+03  0.18131615173E+04  0.10100000352E+00 0. -1.
</event>
<event>
 5   0  0.7203049E-08  0.3700558E+04  0.7818609E-02  0.8067838E-01
       -2   -1    0    0    0  501  0.00000000000E+00  0.00000000000E+00  0.13058832640E+04  0.13058832641E+04  0.25500000920E-02 0. -1.
        2   -1    0    0  501    0  0.00000000000E+00  0.00000000000E+00 -0.26216224249E+04  0.26216224249E+04  0.25500000920E-02 0.  1.
    10030    2    1    2    0    0  0.00000000000E+00  0.00000000000E+00 -0.13157391608E+04  0.39275056889E+04  0.37005582548E+04 0.  0.
        4    1    3    3  502    0  0.31865487932E+03  0.12724494618E+03  0.12718215526E+04  0.13172941521E+04  0.12699999809E+01 0. -1.
       -4    1    3    3    0  502 -0.31865487932E+03 -0.12724494618E+03 -0.25875607134E+04  0.26102115368E+04  0.12699999809E+01 0.  1.
</event>
<event>
 5   0  0.2282000E-08  0.3698238E+04  0.7818609E-02  0.8068353E-01
        1   -1    0    0  501    0  0.00000000000E+00  0.00000000000E+00  0.22475576229E+04  0.22475576229E+04  0.50400001928E-02 0.  1.
       -1   -1    0    0    0  501  0.00000000000E+00  0.00000000000E+00 -0.15213137298E+04  0.15213137298E+04  0.50400001928E-02 0. -1.
    10030    2    1    2    0    0  0.00000000000E+00  0.00000000000E+00  0.72624389310E+03  0.37688713527E+04  0.36982375641E+04 0.  0.
        5    1    3    3  502    0  0.52125643368E+03 -0.17263882794E+04 -0.53455909885E+02  0.18041630706E+04  0.46999998093E+01 0. -1.
       -5    1    3    3    0  502 -0.52125643368E+03  0.17263882794E+04  0.77969980299E+03  0.19647082821E+04  0.46999998093E+01 0.  1.
</event>
<event>
 5   0  0.7362817E-08  0.3698072E+04  0.7818609E-02  0.8068389E-01
       -2   -1    0    0    0  501  0.00000000000E+00  0.00000000000E+00  0.14767617910E+04  0.14767617910E+04  0.25500000920E-02 0.  1.
        2   -1    0    0  501    0  0.00000000000E+00  0.00000000000E+00 -0.23151560729E+04  0.23151560729E+04  0.25500000920E-02 0. -1.
    10030    2    1    2    0    0  0.00000000000E+00  0.00000000000E+00 -0.83839428188E+03  0.37919178638E+04  0.36980719455E+04 0.  0.
        1    1    3    3  502    0  0.14866548311E+03  0.12100691973E+04  0.10062484214E+04  0.15807924511E+04  0.50400001928E-02 0.  1.
       -1    1    3    3    0  502 -0.14866548311E+03 -0.12100691973E+04 -0.18446427032E+04  0.22111254127E+04  0.50400001928E-02 0. -1.
</event>
<event>
 5   0  0.7191801E-08  0.3702326E+04  0.7818609E-02  0.8067446E-01
       -2   -1    0    0    0  501  0.00000000000E+00  0.00000000000E+00  0.18754805792E+04  0.18754805792E+04  0.25500000920E-02 0. -1.
        2   -1    0    0  501    0  0.00000000000E+00  0.00000000000E+00 -0.18271611552E+04  0.18271611552E+04  0.25500000920E-02 0.  1.
    10030    2    1    2    0    0  0.00000000000E+00  0.00000000000E+00  0.48319423967E+02  0.37026417344E+04  0.37023264371E+04 0.  0.
        5    1    3    3  502    0 -0.11760123766E+04  0.11725661621E+04 -0.79375262193E+03  0.18406471224E+04  0.46999998093E+01 0.  1.
       -5    1    3    3    0  502  0.11760123766E+04 -0.11725661621E+04  0.84207204590E+03  0.18619946120E+04  0.46999998093E+01 0. -1.
</event>
<event>
 5   0  0.2282000E-08  0.3699301E+04  0.7818609E-02  0.8068117E-01
       -1   -1    0    0    0  501  0.00000000000E+00  0.00000000000E+00  0.21294559930E+04  0.21294559930E+04  0.50400001928E-02 0.  1.
        1   -1    0    0  501    0  0.00000000000E+00  0.00000000000E+00 -0.16066106537E+04  0.16066106537E+04  0.50400001928E-02 0. -1.
    10030    2    1    2    0    0  0.00000000000E+00  0.00000000000E+00  0.52284533924E+03  0.37360666467E+04  0.36993008448E+04 0.  0.
        4    1    3    3  502    0 -0.13492632639E+03  0.17442418971E+04 -0.34506219332E+03  0.17831585570E+04  0.12699999809E+01 0. -1.
       -4    1    3    3    0  502  0.13492632639E+03 -0.17442418971E+04  0.86790753257E+03  0.19529080898E+04  0.12699999809E+01 0.  1.
</event>
<event>
 5   0  0.2282000E-08  0.3698342E+04  0.7818609E-02  0.8068329E-01
        1   -1    0    0  501    0  0.00000000000E+00  0.00000000000E+00  0.21364966050E+04  0.21364966050E+04  0.50400001928E-02 0. -1.
       -1   -1    0    0    0  501  0.00000000000E+00  0.00000000000E+00 -0.16004863762E+04  0.16004863762E+04  0.50400001928E-02 0.  1.
    10030    2    1    2    0    0  0.00000000000E+00  0.00000000000E+00  0.53601022886E+03  0.37369829812E+04  0.36983421741E+04 0.  0.
        2    1    3    3  502    0 -0.38560901628E+00  0.14185006083E+04  0.14666920354E+04  0.20404238901E+04  0.25500000920E-02 0. -1.
       -2    1    3    3    0  502  0.38560901628E+00 -0.14185006083E+04 -0.93068180657E+03  0.16965590911E+04  0.25500000920E-02 0.  1.
</event>
<event>
 5   0  0.2282000E-08  0.3699757E+04  0.7818609E-02  0.8068016E-01
        1   -1    0    0  501    0  0.00000000000E+00  0.00000000000E+00  0.31391955719E+04  0.31391955719E+04  0.50400001928E-02 0. -1.
       -1   -1    0    0    0  501  0.00000000000E+00  0.00000000000E+00 -0.10901040289E+04  0.10901040289E+04  0.50400001928E-02 0.  1.
    10030    2    1    2    0    0  0.00000000000E+00  0.00000000000E+00  0.20490915430E+04  0.42292996008E+04  0.36997566085E+04 0.  0.
        2    1    3    3  502    0  0.15525827641E+04  0.28273459843E+03  0.21278860899E+04  0.26492171115E+04  0.25500000920E-02 0. -1.
       -2    1    3    3    0  502 -0.15525827641E+04 -0.28273459843E+03 -0.78794546897E+02  0.15800824893E+04  0.25500000920E-02 0.  1.
</event>
<event>
 5   0  0.2282000E-08  0.3711534E+04  0.7818609E-02  0.8065410E-01
       -1   -1    0    0    0  501  0.00000000000E+00  0.00000000000E+00  0.26108846192E+04  0.26108846192E+04  0.50400001928E-02 0. -1.
        1   -1    0    0  501    0  0.00000000000E+00  0.00000000000E+00 -0.13190441395E+04  0.13190441395E+04  0.50400001928E-02 0.  1.
    10030    2    1    2    0    0  0.00000000000E+00  0.00000000000E+00  0.12918404798E+04  0.39299287587E+04  0.37115344836E+04 0.  0.
        5    1    3    3  502    0  0.36198712036E+01  0.73140694142E+03 -0.11599815831E+04  0.13713309522E+04  0.46999998093E+01 0.  1.
       -5    1    3    3    0  502 -0.36198712036E+01 -0.73140694142E+03  0.24518220628E+04  0.25585978065E+04  0.46999998093E+01 0. -1.
</event>
<event>
 5   0  0.2282000E-08  0.3691269E+04  0.7818609E-02  0.8069899E-01
        1   -1    0    0  501    0  0.00000000000E+00  0.00000000000E+00  0.23241400707E+04  0.23241400707E+04  0.50400001928E-02 0. -1.
       -1   -1    0    0    0  501  0.00000000000E+00  0.00000000000E+00 -0.14656463384E+04  0.14656463384E+04  0.50400001928E-02 0.  1.
    10030    2    1    2    0    0  0.00000000000E+00  0.00000000000E+00  0.85849373229E+03  0.37897864092E+04  0.36912693668E+04 0.  0.
        2    1    3    3  502    0  0.39012262965E+03 -0.53090009562E+03  0.21993009811E+04  0.22958604886E+04  0.25500000920E-02 0. -1.
       -2    1    3    3    0  502 -0.39012262965E+03  0.53090009562E+03 -0.13408072488E+04  0.14939259206E+04  0.25500000920E-02 0.  1.
</event>
<event>
 5   0  0.7309833E-08  0.3695510E+04  0.7818609E-02  0.8068958E-01
       -2   -1    0    0    0  501  0.00000000000E+00  0.00000000000E+00  0.16170912799E+04  0.16170912799E+04  0.25500000920E-02 0. -1.
        2   -1    0    0  501    0  0.00000000000E+00  0.00000000000E+00 -0.21113208703E+04  0.21113208703E+04  0.25500000920E-02 0.  1.
    10030    2    1    2    0    0  0.00000000000E+00  0.00000000000E+00 -0.49422959048E+03  0.37284121502E+04  0.36955100154E+04 0.  0.
        2    1    3    3  502    0 -0.42350290515E+03  0.84512073208E+03  0.13546648571E+04  0.16518779124E+04  0.25500000920E-02 0. -1.
       -2    1    3    3    0  502  0.42350290515E+03 -0.84512073208E+03 -0.18488944476E+04  0.20765342378E+04  0.25500000920E-02 0.  1.
</event>
<event>
 5   0  0.7309833E-08  0.3699262E+04  0.7818609E-02  0.8068125E-01
        2   -1    0    0  501    0  0.00000000000E+00  0.00000000000E+00  0.27050368548E+04  0.27050368548E+04  0.25500000920E-02 0.  1.
       -2   -1    0    0    0  501  0.00000000000E+00  0.00000000000E+00 -0.12647276639E+04  0.12647276639E+04  0.25500000920E-02 0. -1.
    10030    2    1    2    0    0  0.00000000000E+00  0.00000000000E+00  0.14403091909E+04  0.39697645187E+04  0.36992620572E+04 0.  0.
        2    1    3    3  502    0 -0.17751003424E+04 -0.41006645387E+03  0.37742779020E+03  0.18605341865E+04  0.25500000920E-02 0.  1.
       -2    1    3    3    0  502  0.17751003424E+04  0.41006645387E+03  0.10628814007E+04  0.21092303322E+04  0.25500000920E-02 0. -1.
</event>
<event>
 5   0  0.7254493E-08  0.3696860E+04  0.7818609E-02  0.8068658E-01
        2   -1    0    0  501    0  0.00000000000E+00  0.00000000000E+00  0.21857360320E+04  0.21857360320E+04  0.25500000920E-02 0.  1.
       -2   -1    0    0    0  501  0.00000000000E+00  0.00000000000E+00 -0.15631773697E+04  0.15631773697E+04  0.25500000920E-02 0. -1.
    10030    2    1    2    0    0  0.00000000000E+00  0.00000000000E+00  0.62255866227E+03  0.37489134017E+04  0.36968598034E+04 0.  0.
        3    1    3    3  502    0 -0.92818928644E+03 -0.39596336277E+03  0.18817527402E+04  0.21352554230E+04  0.10100000352E+00 0.  1.
       -3    1    3    3    0  502  0.92818928644E+03  0.39596336277E+03 -0.12591940779E+04  0.16136579787E+04  0.10100000352E+00 0. -1.
</event>
<event>
 5   0  0.2282000E-08  0.3619902E+04  0.7818609E-02  0.8085948E-01
        1   -1    0    0  501    0  0.00000000000E+00  0.00000000000E+00  0.17641234377E+04  0.17641234377E+04  0.50400001928E-02 0.  1.
       -1   -1    0    0    0  501  0.00000000000E+00  0.00000000000E+00 -0.18569692095E+04  0.18569692095E+04  0.50400001928E-02 0. -1.
    10030    2    1    2    0    0  0.00000000000E+00  0.00000000000E+00 -0.92845771813E+02  0.36210926472E+04  0.36199021564E+04 0.  0.
        1    1    3    3  502    0 -0.12885292901E+04  0.12214913783E+04  0.30522364220E+03  0.18015300137E+04  0.50400001928E-02 0.  1.
       -1    1    3    3    0  502  0.12885292901E+04 -0.12214913783E+04 -0.39806941402E+03  0.18195626334E+04  0.50400001928E-02 0. -1.
</event>
<event>
 5   0  0.2282000E-08  0.3699345E+04  0.7818609E-02  0.8068107E-01
       -1   -1    0    0    0  501  0.00000000000E+00  0.00000000000E+00  0.26232029801E+04  0.26232029801E+04  0.50400001928E-02 0. -1.
        1   -1    0    0  501    0  0.00000000000E+00  0.00000000000E+00 -0.13042410176E+04  0.13042410176E+04  0.50400001928E-02 0.  1.
    10030    2    1    2    0    0  0.00000000000E+00  0.00000000000E+00  0.13189619625E+04  0.39274439977E+04  0.36993453065E+04 0.  0.
        2    1    3    3  502    0 -0.77432830887E+02  0.43805381439E+03 -0.12466044456E+04  0.13235972315E+04  0.25500000920E-02 0.  1.
       -2    1    3    3    0  502  0.77432830887E+02 -0.43805381439E+03  0.25655664081E+04  0.26038467662E+04  0.25500000920E-02 0. -1.
</event>
<event>
 5   0  0.2282000E-08  0.3684051E+04  0.7818609E-02  0.8071506E-01
       -1   -1    0    0    0  501  0.00000000000E+00  0.00000000000E+00  0.25024057739E+04  0.25024057739E+04  0.50400001928E-02 0. -1.
        1   -1    0    0  501    0  0.00000000000E+00  0.00000000000E+00 -0.13559180122E+04  0.13559180122E+04  0.50400001928E-02 0.  1.
    10030    2    1    2    0    0  0.00000000000E+00  0.00000000000E+00  0.11464877618E+04  0.38583237861E+04  0.36840505223E+04 0.  0.
        2    1    3    3  502    0 -0.27422734777E+03 -0.65237493863E+03  0.23543590860E+04  0.24584142052E+04  0.25500000920E-02 0. -1.
       -2    1    3    3    0  502  0.27422734777E+03  0.65237493863E+03 -0.12078713242E+04  0.13999095809E+04  0.25500000920E-02 0.  1.
</event>
<event>
 5   0  0.7254493E-08  0.3713281E+04  0.7818609E-02  0.8065025E-01
       -2   -1    0    0    0  501  0.00000000000E+00  0.00000000000E+00  0.25801295099E+04  0.25801295099E+04  0.25500000920E-02 0.  1.
        2   -1    0    0  501    0  0.00000000000E+00  0.00000000000E+00 -0.13360233095E+04  0.13360233095E+04  0.25500000920E-02 0. -1.
    10030    2    1    2    0    0  0.00000000000E+00  0.00000000000E+00  0.12441062004E+04  0.39161528194E+04  0.37132805802E+04 0.  0.
        3    1    3    3  502    0 -0.16198379776E+03 -0.86716656860E+03 -0.11008773023E+04  0.14107258605E+04  0.10100000352E+00 0. -1.
       -3    1    3    3    0  502  0.16198379776E+03  0.86716656860E+03  0.23449835027E+04  0.25054269590E+04  0.10100000352E+00 0.  1.
</event>
<event>
 5   0  0.7309833E-08  0.3702678E+04  0.7818609E-02  0.8067369E-01
       -2   -1    0    0    0  501  0.00000000000E+00  0.00000000000E+00  0.22411302368E+04  0.22411302368E+04  0.25500000920E-02 0. -1.
        2   -1    0    0  501    0  0.00000000000E+00  0.00000000000E+00 -0.15293425749E+04  0.15293425749E+04  0.25500000920E-02 0.  1.
    10030    2    1    2    0    0  0.00000000000E+00  0.00000000000E+00  0.71178766186E+03  0.37704728117E+04  0.37026778888E+04 0.  0.
        2    1    3    3  502    0  0.35260390101E+03  0.17041537539E+04 -0.28732522869E+03  0.17638098863E+04  0.25500000920E-02 0.  1.
       -2    1    3    3    0  502 -0.35260390101E+03 -0.17041537539E+04  0.99911289055E+03  0.20066629254E+04  0.25500000920E-02 0. -1.
</event>
<event>
 5   0  0.7309833E-08  0.3703726E+04  0.7818609E-02  0.8067137E-01
        2   -1    0    0  501    0  0.00000000000E+00  0.00000000000E+00  0.12688984446E+04  0.12688984446E+04  0.25500000920E-02 0.  1.
       -2   -1    0    0    0  501  0.00000000000E+00  0.00000000000E+00 -0.27026565126E+04  0.27026565126E+04  0.25500000920E-02 0. -1.
    10030    2    1    2    0    0  0.00000000000E+00  0.00000000000E+00 -0.14337580680E+04  0.39715549573E+04  0.37037260402E+04 0.  0.
        2    1    3    3  502    0  0.10245239007E+04 -0.70981273078E+03  0.75180408763E+03  0.14555729875E+04  0.25500000920E-02 0.  1.
       -2    1    3    3    0  502 -0.10245239007E+04  0.70981273078E+03 -0.21855621556E+04  0.25159819697E+04  0.25500000920E-02 0. -1.
</event>
<event>
 5   0  0.2282000E-08  0.3698042E+04  0.7818609E-02  0.8068396E-01
        1   -1    0    0  501    0  0.00000000000E+00  0.00000000000E+00  0.25606585727E+04  0.25606585727E+04  0.50400001928E-02 0. -1.
       -1   -1    0    0    0  501  0.00000000000E+00  0.00000000000E+00 -0.13351558072E+04  0.13351558072E+04  0.50400001928E-02 0.  1.
    10030    2    1    2    0    0  0.00000000000E+00  0.00000000000E+00  0.12255027655E+04  0.38958143799E+04  0.36980417324E+04 0.  0.
        4    1    3    3  502    0  0.15080003852E+04 -0.10533434478E+04  0.81062340617E+03  0.20101516113E+04  0.12699999809E+01 0. -1.
       -4    1    3    3    0  502 -0.15080003852E+04  0.10533434478E+04  0.41487935937E+03  0.18856627686E+04  0.12699999809E+01 0.  1.
</event>
<event>
 5   0  0.7362817E-08  0.3693591E+04  0.7818609E-02  0.8069384E-01
        2   -1    0    0  501    0  0.00000000000E+00  0.00000000000E+00  0.14828682255E+04  0.14828682256E+04  0.25500000920E-02 0.  1.
       -2   -1    0    0    0  501  0.00000000000E+00  0.00000000000E+00 -0.23000379571E+04  0.23000379571E+04  0.25500000920E-02 0. -1.
    10030    2    1    2    0    0  0.00000000000E+00  0.00000000000E+00 -0.81716973154E+03  0.37829061826E+04  0.36935907755E+04 0.  0.
        1    1    3    3  502    0  0.45598520861E+03 -0.42563020006E+03 -0.21888844768E+04  0.22760269837E+04  0.50400001928E-02 0. -1.
       -1    1    3    3    0  502 -0.45598520861E+03  0.42563020006E+03  0.13717147453E+04  0.15068791989E+04  0.50400001928E-02 0.  1.
</event>
<event>
 5   0  0.7254493E-08  0.3712152E+04  0.7818609E-02  0.8065274E-01
       -2   -1    0    0    0  501  0.00000000000E+00  0.00000000000E+00  0.16695781571E+04  0.16695781571E+04  0.25500000920E-02 0.  1.
        2   -1    0    0  501    0  0.00000000000E+00  0.00000000000E+00 -0.20634060191E+04  0.20634060191E+04  0.25500000920E-02 0. -1.
    10030    2    1    2    0    0  0.00000000000E+00  0.00000000000E+00 -0.39382786197E+03  0.37329841763E+04  0.37121517312E+04 0.  0.
        3    1    3    3  502    0  0.11188121071E+04  0.11953971688E+04  0.68223635696E+03  0.17737421964E+04  0.10100000352E+00 0.  1.
       -3    1    3    3    0  502 -0.11188121071E+04 -0.11953971688E+04 -0.10760642189E+04  0.19592419799E+04  0.10100000352E+00 0. -1.
</event>
<event>
 5   0  0.2282000E-08  0.3703120E+04  0.7818609E-02  0.8067271E-01
       -1   -1    0    0    0  501  0.00000000000E+00  0.00000000000E+00  0.14256183767E+04  0.14256183768E+04  0.50400001928E-02 0.  1.
        1   -1    0    0  501    0  0.00000000000E+00  0.00000000000E+00 -0.24047631968E+04  0.24047631968E+04  0.50400001928E-02 0. -1.
    10030    2    1    2    0    0  0.00000000000E+00  0.00000000000E+00 -0.97914482008E+03  0.38303815736E+04  0.37031200927E+04 0.  0.
        2    1    3    3  502    0  0.17644700361E+04 -0.53016942671E+03 -0.29929270287E+03  0.18665503613E+04  0.25500000920E-02 0.  1.
       -2    1    3    3    0  502 -0.17644700361E+04  0.53016942671E+03 -0.67985211721E+03  0.19638312123E+04  0.25500000920E-02 0. -1.
</event>
<event>
 5   0  0.7254493E-08  0.3686158E+04  0.7818609E-02  0.8071036E-01
       -2   -1    0    0    0  501  0.00000000000E+00  0.00000000000E+00  0.13804039542E+04  0.13804039542E+04  0.25500000920E-02 0.  1.
        2   -1    0    0  501    0  0.00000000000E+00  0.00000000000E+00 -0.24608302081E+04  0.24608302081E+04  0.25500000920E-02 0. -1.
    10030    2    1    2    0    0  0.00000000000E+00  0.00000000000E+00 -0.10804262539E+04  0.38412341623E+04  0.36861577557E+04 0.  0.
        3    1    3    3  502    0 -0.15724735881E+03  0.51396052492E+03  0.12969232362E+04  0.14038846262E+04  0.10100000352E+00 0.  1.
       -3    1    3    3    0  502  0.15724735881E+03 -0.51396052492E+03 -0.23773494901E+04  0.24373495361E+04  0.10100000352E+00 0. -1.
</event>
<event>
 5   0  0.7309833E-08  0.3699352E+04  0.7818609E-02  0.8068105E-01
        2   -1    0    0  501    0  0.00000000000E+00  0.00000000000E+00  0.27958771666E+04  0.27958771666E+04  0.25500000920E-02 0. -1.
       -2   -1    0    0    0  501  0.00000000000E+00  0.00000000000E+00 -0.12236951644E+04  0.12236951644E+04  0.25500000920E-02 0.  1.
    10030    2    1    2    0    0  0.00000000000E+00  0.00000000000E+00  0.15721820022E+04  0.40195723310E+04  0.36993520347E+04 0.  0.
        2    1    3    3  502    0  0.17442489501E+04 -0.15587998692E+03  0.13906375077E+03  0.17567133224E+04  0.25500000920E-02 0.  1.
       -2    1    3    3    0  502 -0.17442489501E+04  0.15587998692E+03  0.14331182514E+04  0.22628590086E+04  0.25500000920E-02 0. -1.
</event>
<event>
 5   0  0.7191801E-08  0.3710208E+04  0.7818609E-02  0.8065703E-01
        2   -1    0    0  501    0  0.00000000000E+00  0.00000000000E+00  0.25560365783E+04  0.25560365783E+04  0.25500000920E-02 0. -1.
       -2   -1    0    0    0  501  0.00000000000E+00  0.00000000000E+00 -0.13463853148E+04  0.13463853148E+04  0.25500000920E-02 0.  1.
    10030    2    1    2    0    0  0.00000000000E+00  0.00000000000E+00  0.12096512635E+04  0.39024218932E+04  0.37102076024E+04 0.  0.
        5    1    3    3  502    0 -0.11929517437E+04 -0.11514747377E+04 -0.27036371170E+03  0.16799245700E+04  0.46999998093E+01 0.  1.
       -5    1    3    3    0  502  0.11929517437E+04  0.11514747377E+04  0.14800149752E+04  0.22224973231E+04  0.46999998093E+01 0. -1.
</event>
<event>
 5   0  0.2282000E-08  0.3700107E+04  0.7818609E-02  0.8067938E-01
       -1   -1    0    0    0  501  0.00000000000E+00  0.00000000000E+00  0.17812190930E+04  0.17812190930E+04  0.50400001928E-02 0.  1.
        1   -1    0    0  501    0  0.00000000000E+00  0.00000000000E+00 -0.19215475872E+04  0.19215475873E+04  0.50400001928E-02 0. -1.
    10030    2    1    2    0    0  0.00000000000E+00  0.00000000000E+00 -0.14032849426E+03  0.37027666803E+04  0.37001066204E+04 0.  0.
        5    1    3    3  502    0 -0.32317842519E+03 -0.11219120348E+04  0.13659787083E+04  0.17969559900E+04  0.46999998093E+01 0.  1.
       -5    1    3    3    0  502  0.32317842519E+03  0.11219120348E+04 -0.15063072026E+04  0.19058106902E+04  0.46999998093E+01 0. -1.
</event>
<event>
 5   0  0.2282000E-08  0.3708347E+04  0.7818609E-02  0.8066115E-01
        1   -1    0    0  501    0  0.00000000000E+00  0.00000000000E+00  0.17388621128E+04  0.17388621128E+04  0.50400001928E-02 0. -1.
       -1   -1    0    0    0  501  0.00000000000E+00  0.00000000000E+00 -0.19771316420E+04  0.19771316420E+04  0.50400001928E-02 0.  1.
    10030    2    1    2    0    0  0.00000000000E+00  0.00000000000E+00 -0.23826952928E+03  0.37159937548E+04  0.37083469656E+04 0.  0.
        5    1    3    3  502    0  0.11132680849E+04 -0.10083369356E+04 -0.12084955896E+04  0.19278466964E+04  0.46999998093E+01 0.  1.
       -5    1    3    3    0  502 -0.11132680849E+04  0.10083369356E+04  0.97022606035E+03  0.17881470585E+04  0.46999998093E+01 0. -1.
</event>
<event>
 5   0  0.7362817E-08  0.3689960E+04  0.7818609E-02  0.8070190E-01
       -2   -1    0    0    0  501  0.00000000000E+00  0.00000000000E+00  0.21269391401E+04  0.21269391401E+04  0.25500000920E-02 0.  1.
        2   -1    0    0  501    0  0.00000000000E+00  0.00000000000E+00 -0.16003991507E+04  0.16003991507E+04  0.25500000920E-02 0. -1.
    10030    2    1    2    0    0  0.00000000000E+00  0.00000000000E+00  0.52653998943E+03  0.37273382908E+04  0.36899602130E+04 0.  0.
        1    1    3    3  502    0  0.16460897946E+04  0.76787576699E+03 -0.63592089775E+02  0.18174951883E+04  0.50400001928E-02 0. -1.
       -1    1    3    3    0  502 -0.16460897946E+04 -0.76787576699E+03  0.59013207920E+03  0.19098431025E+04  0.50400001928E-02 0.  1.
</event>
<event>
 5   0  0.2282000E-08  0.3680692E+04  0.7818609E-02  0.8072254E-01
        1   -1    0    0  501    0  0.00000000000E+00  0.00000000000E+00  0.12933166384E+04  0.12933166384E+04  0.50400001928E-02 0. -1.
       -1   -1    0    0    0  501  0.00000000000E+00  0.00000000000E+00 -0.26187510448E+04  0.26187510448E+04  0.50400001928E-02 0.  1.
    10030    2    1    2    0    0  0.00000000000E+00  0.00000000000E+00 -0.13254344064E+04  0.39120676832E+04  0.36806924881E+04 0.  0.
        4    1    3    3  502    0  0.85501988563E+03  0.36349231903E+03 -0.23511919579E+04  0.25281002565E+04  0.12699999809E+01 0.  1.
       -4    1    3    3    0  502 -0.85501988563E+03 -0.36349231903E+03  0.10257575515E+04  0.13839674267E+04  0.12699999809E+01 0. -1.
</event>
<event>
 5   0  0.7309833E-08  0.3704551E+04  0.7818609E-02  0.8066954E-01
        2   -1    0    0  501    0  0.00000000000E+00  0.00000000000E+00  0.27738314495E+04  0.27738314495E+04  0.25500000920E-02 0.  1.
       -2   -1    0    0    0  501  0.00000000000E+00  0.00000000000E+00 -0.12368898131E+04  0.12368898131E+04  0.25500000920E-02 0. -1.
    10030    2    1    2    0    0  0.00000000000E+00  0.00000000000E+00  0.15369416364E+04  0.40107212625E+04  0.37045506410E+04 0.  0.
        2    1    3    3  502    0  0.62800516993E+03  0.12668987861E+04 -0.52686611156E+03  0.15089767815E+04  0.25500000920E-02 0. -1.
       -2    1    3    3    0  502 -0.62800516993E+03 -0.12668987861E+04  0.20638077480E+04  0.25017444810E+04  0.25500000920E-02 0.  1.
</event>
<event>
 5   0  0.2282000E-08  0.3685812E+04  0.7818609E-02  0.8071113E-01
       -1   -1    0    0    0  501  0.00000000000E+00  0.00000000000E+00  0.31220687328E+04  0.31220687328E+04  0.50400001928E-02 0.  1.
        1   -1    0    0  501    0  0.00000000000E+00  0.00000000000E+00 -0.10878371513E+04  0.10878371513E+04  0.50400001928E-02 0. -1.
    10030    2    1    2    0    0  0.00000000000E+00  0.00000000000E+00  0.20342315814E+04  0.42099058841E+04  0.36858119087E+04 0.  0.
        1    1    3    3  502    0  0.12468282810E+04  0.48644884238E+03  0.24641833024E+04  0.28041777024E+04  0.50400001928E-02 0.  1.
       -1    1    3    3    0  502 -0.12468282810E+04 -0.48644884238E+03 -0.42995172101E+03  0.14057281817E+04  0.50400001928E-02 0. -1.
</event>
<event>
 5   0  0.7203049E-08  0.3702141E+04  0.7818609E-02  0.8067487E-01
       -2   -1    0    0    0  501  0.00000000000E+00  0.00000000000E+00  0.24816497926E+04  0.24816497927E+04  0.25500000920E-02 0. -1.
        2   -1    0    0  501    0  0.00000000000E+00  0.00000000000E+00 -0.13807197034E+04  0.13807197034E+04  0.25500000920E-02 0.  1.
    10030    2    1    2    0    0  0.00000000000E+00  0.00000000000E+00  0.11009300893E+04  0.38623694960E+04  0.37021414158E+04 0.  0.
        4    1    3    3  502    0 -0.47424321786E+03 -0.58521560803E+03 -0.12135965972E+04  0.14283564860E+04  0.12699999809E+01 0.  1.
       -4    1    3    3    0  502  0.47424321786E+03  0.58521560803E+03  0.23145266865E+04  0.24340130100E+04  0.12699999809E+01 0. -1.
</event>
<event>
 5   0  0.2282000E-08  0.3703666E+04  0.7818609E-02  0.8067150E-01
        1   -1    0    0  501    0  0.00000000000E+00  0.00000000000E+00  0.21251690514E+04  0.21251690514E+04  0.50400001928E-02 0.  1.
       -1   -1    0    0    0  501  0.00000000000E+00  0.00000000000E+00 -0.16136527714E+04  0.16136527714E+04  0.50400001928E-02 0. -1.
    10030    2    1    2    0    0  0.00000000000E+00  0.00000000000E+00  0.51151627999E+03  0.37388218229E+04  0.37036657137E+04 0.  0.
        4    1    3    3  502    0  0.93915232670E+03 -0.45103490730E+03  0.18012521095E+04  0.20808532758E+04  0.12699999809E+01 0.  1.
       -4    1    3    3    0  502 -0.93915232670E+03  0.45103490730E+03 -0.12897358295E+04  0.16579685471E+04  0.12699999809E+01 0. -1.
</event>
<event>
 5   0  0.7191801E-08  0.3696597E+04  0.7818609E-02  0.8068716E-01
        2   -1    0    0  501    0  0.00000000000E+00  0.00000000000E+00  0.24598920052E+04  0.24598920052E+04  0.25500000920E-02 0.  1.
       -2   -1    0    0    0  501  0.00000000000E+00  0.00000000000E+00 -0.13887633307E+04  0.13887633307E+04  0.25500000920E-02 0. -1.
    10030    2    1    2    0    0  0.00000000000E+00  0.00000000000E+00  0.10711286745E+04  0.38486553359E+04  0.36965972539E+04 0.  0.
        5    1    3    3  502    0  0.42407674145E+03 -0.37426888015E+03 -0.12964383936E+04  0.14144585097E+04  0.46999998093E+01 0. -1.
       -5    1    3    3    0  502 -0.42407674145E+03  0.37426888015E+03  0.23675670680E+04  0.24341968263E+04  0.46999998093E+01 0.  1.
</event>
<event>
 5   0  0.2282000E-08  0.3696186E+04  0.7818609E-02  0.8068808E-01
       -1   -1    0    0    0  501  0.00000000000E+00  0.00000000000E+00  0.15306770704E+04  0.15306770704E+04  0.50400001928E-02 0.  1.
        1   -1    0    0  501    0  0.00000000000E+00  0.00000000000E+00 -0.22313313726E+04  0.22313313726E+04  0.50400001928E-02 0. -1.
    10030    2    1    2    0    0  0.00000000000E+00  0.00000000000E+00 -0.70065430216E+03  0.37620084430E+04  0.36961860173E+04 0.  0.
        4    1    3    3  502    0  0.68365385235E+03 -0.11278045567E+04 -0.16680332568E+04  0.21264200588E+04  0.12699999809E+01 0. -1.
       -4    1    3    3    0  502 -0.68365385235E+03  0.11278045567E+04  0.96737895460E+03  0.16355883842E+04  0.12699999809E+01 0.  1.
</event>
<event>
 5   0  0.2282000E-08  0.3696578E+04  0.7818609E-02  0.8068721E-01
        1   -1    0    0  501    0  0.00000000000E+00  0.00000000000E+00  0.11995704317E+04  0.11995704317E+04  0.50400001928E-02 0.  1.
       -1   -1    0    0    0  501  0.00000000000E+00  0.00000000000E+00 -0.28478292329E+04  0.28478292329E+04  0.50400001928E-02 0. -1.
    10030    2    1    2    0    0  0.00000000000E+00  0.00000000000E+00 -0.16482588012E+04  0.40473996646E+04  0.36965777375E+04 0.  0.
        5    1    3    3  502    0  0.11408424863E+03 -0.16424322471E+04  0.95558296148E+02  0.16491671777E+04  0.46999998093E+01 0.  1.
       -5    1    3    3    0  502 -0.11408424863E+03  0.16424322471E+04 -0.17438170973E+04  0.23982324869E+04  0.46999998093E+01 0. -1.
</event>
<event>
 5   0  0.7362817E-08  0.3694351E+04  0.7818609E-02  0.8069215E-01
       -2   -1    0    0    0  501  0.00000000000E+00  0.00000000000E+00  0.25309969510E+04  0.25309969510E+04  0.25500000920E-02 0.  1.
        2   -1    0    0  501    0  0.00000000000E+00  0.00000000000E+00 -0.13481080253E+04  0.13481080253E+04  0.25500000920E-02 0. -1.
    10030    2    1    2    0    0  0.00000000000E+00  0.00000000000E+00  0.11828889257E+04  0.38791049763E+04  0.36943509858E+04 0.  0.
        1    1    3    3  502    0 -0.51258659756E+03  0.38057822227E+03 -0.12285811319E+04  0.13845563914E+04  0.50400001928E-02 0. -1.
       -1    1    3    3    0  502  0.51258659756E+03 -0.38057822227E+03  0.24114700576E+04  0.24945485849E+04  0.50400001928E-02 0.  1.
</event>
<event>
 5   0  0.2282000E-08  0.3705189E+04  0.7818609E-02  0.8066813E-01
       -1   -1    0    0    0  501  0.00000000000E+00  0.00000000000E+00  0.19369785065E+04  0.19369785065E+04  0.50400001928E-02 0.  1.
        1   -1    0    0  501    0  0.00000000000E+00  0.00000000000E+00 -0.17718868196E+04  0.17718868196E+04  0.50400001928E-02 0. -1.
    10030    2    1    2    0    0  0.00000000000E+00  0.00000000000E+00  0.16509168690E+03  0.37088653262E+04  0.37051891642E+04 0.  0.
        5    1    3    3  502    0  0.12286492385E+04 -0.13781803055E+04  0.23476476356E+03  0.18612083414E+04  0.46999998093E+01 0. -1.
       -5    1    3    3    0  502 -0.12286492385E+04  0.13781803055E+04 -0.69673076661E+02  0.18476569848E+04  0.46999998093E+01 0.  1.
</event>
<event>
 5   0  0.7362817E-08  0.3704265E+04  0.7818609E-02  0.8067017E-01
        2   -1    0    0  501    0  0.00000000000E+00  0.00000000000E+00  0.29850491863E+04  0.29850491863E+04  0.25500000920E-02 0. -1.
       -2   -1    0    0    0  501  0.00000000000E+00  0.00000000000E+00 -0.11491920613E+04  0.11491920613E+04  0.25500000920E-02 0.  1.
    10030    2    1    2    0    0  0.00000000000E+00  0.00000000000E+00  0.18358571250E+04  0.41342412475E+04  0.37042650161E+04 0.  0.
        1    1    3    3  502    0  0.11996519570E+04  0.29729223109E+03  0.24574854437E+04  0.27507784706E+04  0.50400001928E-02 0. -1.
       -1    1    3    3    0  502 -0.11996519570E+04 -0.29729223109E+03 -0.62162831866E+03  0.13834627769E+04  0.50400001928E-02 0.  1.
</event>
<event>
 5   0  0.2282000E-08  0.3692377E+04  0.7818609E-02  0.8069653E-01
        1   -1    0    0  501    0  0.00000000000E+00  0.00000000000E+00  0.25301654079E+04  0.25301654079E+04  0.50400001928E-02 0.  1.
       -1   -1    0    0    0  501  0.00000000000E+00  0.00000000000E+00 -0.13471105130E+04  0.13471105130E+04  0.50400001928E-02 0. -1.
    10030    2    1    2    0    0  0.00000000000E+00  0.00000000000E+00  0.11830548949E+04  0.38772759210E+04  0.36923772400E+04 0.  0.
        3    1    3    3  502    0 -0.51826976651E+03  0.17591635403E+04  0.81465928114E+03  0.20067211234E+04  0.10100000352E+00 0. -1.
       -3    1    3    3    0  502  0.51826976651E+03 -0.17591635403E+04  0.36839561377E+03  0.18705547976E+04  0.10100000352E+00 0.  1.
</event>
<event>
 5   0  0.2282000E-08  0.3681245E+04  0.7818609E-02  0.8072131E-01
       -1   -1    0    0    0  501  0.00000000000E+00  0.00000000000E+00  0.12856359762E+04  0.12856359762E+04  0.50400001928E-02 0. -1.
        1   -1    0    0  501    0  0.00000000000E+00  0.00000000000E+00 -0.26351868432E+04  0.26351868432E+04  0.50400001928E-02 0.  1.
    10030    2    1    2    0    0  0.00000000000E+00  0.00000000000E+00 -0.13495508670E+04  0.39208228193E+04  0.36812449033E+04 0.  0.
        5    1    3    3  502    0 -0.65035353159E+03 -0.12462228826E+04  0.59076171592E+03  0.15248123439E+04  0.46999998093E+01 0. -1.
       -5    1    3    3    0  502  0.65035353159E+03  0.12462228826E+04 -0.19403125829E+04  0.23960104755E+04  0.46999998093E+01 0.  1.
</event>
<event>
 5   0  0.7203049E-08  0.3710418E+04  0.7818609E-02  0.8065657E-01
        2   -1    0    0  501    0  0.00000000000E+00  0.00000000000E+00  0.19640736588E+04  0.19640736588E+04  0.25500000920E-02 0. -1.
       -2   -1    0    0    0  501  0.00000000000E+00  0.00000000000E+00 -0.17523786545E+04  0.17523786545E+04  0.25500000920E-02 0.  1.
    10030    2    1    2    0    0  0.00000000000E+00  0.00000000000E+00  0.21169500427E+03  0.37164523133E+04  0.37104181735E+04 0.  0.
        4    1    3    3  502    0 -0.11223814805E+04 -0.14078303938E+04  0.55386961091E+03  0.18837462048E+04  0.12699999809E+01 0. -1.
       -4    1    3    3    0  502  0.11223814805E+04  0.14078303938E+04 -0.34217460664E+03  0.18327061084E+04  0.12699999809E+01 0.  1.
</event>
<event>
 5   0  0.7309833E-08  0.3696768E+04  0.7818609E-02  0.8068679E-01
        2   -1    0    0  501    0  0.00000000000E+00  0.00000000000E+00  0.16178689549E+04  0.16178689549E+04  0.25500000920E-02 0.  1.
       -2   -1    0    0    0  501  0.00000000000E+00  0.00000000000E+00 -0.21117426335E+04  0.21117426335E+04  0.25500000920E-02 0. -1.
    10030    2    1    2    0    0  0.00000000000E+00  0.00000000000E+00 -0.49387367858E+03  0.37296115885E+04  0.36967676949E+04 0.  0.
        2    1    3    3  502    0 -0.78239312236E+03 -0.11755614844E+03 -0.19322766128E+04  0.20879778147E+04  0.25500000920E-02 0. -1.
       -2    1    3    3    0  502  0.78239312236E+03  0.11755614844E+03  0.14384029343E+04  0.16416337738E+04  0.25500000920E-02 0.  1.
</event>
<event>
 5   0  0.2282000E-08  0.3697414E+04  0.7818609E-02  0.8068535E-01
       -1   -1    0    0    0  501  0.00000000000E+00  0.00000000000E+00  0.17233849145E+04  0.17233849145E+04  0.50400001928E-02 0.  1.
        1   -1    0    0  501    0  0.00000000000E+00  0.00000000000E+00 -0.19831423143E+04  0.19831423143E+04  0.50400001928E-02 0. -1.
    10030    2    1    2    0    0  0.00000000000E+00  0.00000000000E+00 -0.25975739980E+03  0.37065272289E+04  0.36974139870E+04 0.  0.
        4    1    3    3  502    0  0.31871924642E+03  0.10384575036E+04 -0.16294735029E+04  0.19583568251E+04  0.12699999809E+01 0. -1.
       -4    1    3    3    0  502 -0.31871924642E+03 -0.10384575036E+04  0.13697161031E+04  0.17481704038E+04  0.12699999809E+01 0.  1.
</event>
<event>
 5   0  0.7191801E-08  0.3699660E+04  0.7818609E-02  0.8068037E-01
       -2   -1    0    0    0  501  0.00000000000E+00  0.00000000000E+00  0.14844793120E+04  0.14844793120E+04  0.25500000920E-02 0.  1.
        2   -1    0    0  501    0  0.00000000000E+00  0.00000000000E+00 -0.23050979525E+04  0.23050979525E+04  0.25500000920E-02 0. -1.
    10030    2    1    2    0    0  0.00000000000E+00  0.00000000000E+00 -0.82061864050E+03  0.37895772646E+04  0.36996595642E+04 0.  0.
        5    1    3    3  502    0 -0.23293759903E+03 -0.13684070796E+04 -0.16627492393E+04  0.21659997653E+04  0.46999998093E+01 0. -1.
       -5    1    3    3    0  502  0.23293759903E+03  0.13684070796E+04  0.84213059883E+03  0.16235774992E+04  0.46999998093E+01 0.  1.
</event>
<event>
 5   0  0.2282000E-08  0.3697178E+04  0.7818609E-02  0.8068587E-01
        1   -1    0    0  501    0  0.00000000000E+00  0.00000000000E+00  0.25495939378E+04  0.25495939378E+04  0.50400001928E-02 0. -1.
       -1   -1    0    0    0  501  0.00000000000E+00  0.00000000000E+00 -0.13403239819E+04  0.13403239819E+04  0.50400001928E-02 0.  1.
    10030    2    1    2    0    0  0.00000000000E+00  0.00000000000E+00  0.12092699558E+04  0.38899179197E+04  0.36971783289E+04 0.  0.
        1    1    3    3  502    0  0.33290681384E+02 -0.15773633137E+04  0.16182361379E+04  0.22600600636E+04  0.50400001928E-02 0. -1.
       -1    1    3    3    0  502 -0.33290681384E+02  0.15773633137E+04 -0.40896618211E+03  0.16298578561E+04  0.50400001928E-02 0.  1.
</event>
<event>
 5   0  0.7203049E-08  0.3701100E+04  0.7818609E-02  0.8067718E-01
        2   -1    0    0  501    0  0.00000000000E+00  0.00000000000E+00  0.23041243213E+04  0.23041243213E+04  0.25500000920E-02 0.  1.
       -2   -1    0    0    0  501  0.00000000000E+00  0.00000000000E+00 -0.14862631901E+04  0.14862631901E+04  0.25500000920E-02 0. -1.
    10030    2    1    2    0    0  0.00000000000E+00  0.00000000000E+00  0.81786113123E+03  0.37903875114E+04  0.37010999252E+04 0.  0.
        4    1    3    3  502    0  0.13365834973E+04 -0.29081969774E+03 -0.86753384730E+03  0.16197679251E+04  0.12699999809E+01 0. -1.
       -4    1    3    3    0  502 -0.13365834973E+04  0.29081969774E+03  0.16853949785E+04  0.21706195863E+04  0.12699999809E+01 0.  1.
</event>
<event>
 5   0  0.2282000E-08  0.3693464E+04  0.7818609E-02  0.8069412E-01
        1   -1    0    0  501    0  0.00000000000E+00  0.00000000000E+00  0.26785552360E+04  0.26785552360E+04  0.50400001928E-02 0.  1.
       -1   -1    0    0    0  501  0.00000000000E+00  0.00000000000E+00 -0.12732309097E+04  0.12732309097E+04  0.50400001928E-02 0. -1.
    10030    2    1    2    0    0  0.00000000000E+00  0.00000000000E+00  0.14053243263E+04  0.39517861458E+04  0.36934641301E+04 0.  0.
        2    1    3    3  502    0  0.94654864720E+03 -0.79685653017E+03  0.21694893141E+04  0.24975224834E+04  0.25500000920E-02 0.  1.
       -2    1    3    3    0  502 -0.94654864720E+03  0.79685653017E+03 -0.76416498778E+03  0.14542636624E+04  0.25500000920E-02 0. -1.
</event>
<event>
 5   0  0.2282000E-08  0.3700202E+04  0.7818609E-02  0.8067917E-01
       -1   -1    0    0    0  501  0.00000000000E+00  0.00000000000E+00  0.20752136347E+04  0.20752136347E+04  0.50400001928E-02 0. -1.
        1   -1    0    0  501    0  0.00000000000E+00  0.00000000000E+00 -0.16494074769E+04  0.16494074770E+04  0.50400001928E-02 0.  1.
    10030    2    1    2    0    0  0.00000000000E+00  0.00000000000E+00  0.42580615776E+03  0.37246211117E+04  0.37002015542E+04 0.  0.
        2    1    3    3  502    0  0.88321481423E+03 -0.32296005170E+03 -0.13908792093E+04  0.16789629472E+04  0.25500000920E-02 0.  1.
       -2    1    3    3    0  502 -0.88321481423E+03  0.32296005170E+03  0.18166853671E+04  0.20456581645E+04  0.25500000920E-02 0. -1.
</event>
<event>
 5   0  0.7309833E-08  0.3700970E+04  0.7818609E-02  0.8067747E-01
       -2   -1    0    0    0  501  0.00000000000E+00  0.00000000000E+00  0.16246058402E+04  0.16246058402E+04  0.25500000920E-02 0. -1.
        2   -1    0    0  501    0  0.00000000000E+00  0.00000000000E+00 -0.21077690207E+04  0.21077690207E+04  0.25500000920E-02 0.  1.
    10030    2    1    2    0    0  0.00000000000E+00  0.00000000000E+00 -0.48316318052E+03  0.37323748608E+04  0.37009695274E+04 0.  0.
        2    1    3    3  502    0 -0.11016724511E+04  0.98399229673E+03 -0.13656567986E+04  0.20117011510E+04  0.25500000920E-02 0.  1.
       -2    1    3    3    0  502  0.11016724511E+04 -0.98399229673E+03  0.88249361805E+03  0.17206737098E+04  0.25500000920E-02 0. -1.
</event>
<event>
 5   0  0.2282000E-08  0.3727449E+04  0.7818609E-02  0.8061906E-01
       -3   -1    0    0    0  501  0.00000000000E+00  0.00000000000E+00  0.16598214172E+04  0.16598214203E+04  0.10100000352E+00 0. -1.
        3   -1    0    0  501    0  0.00000000000E+00  0.00000000000E+00 -0.20926764146E+04  0.20926764171E+04  0.10100000352E+00 0.  1.
    10030    2    1    2    0    0  0.00000000000E+00  0.00000000000E+00 -0.43285499743E+03  0.37524978373E+04  0.37274490701E+04 0.  0.
        2    1    3    3  502    0 -0.16693830808E+04  0.46624997872E+03 -0.90604194667E+03  0.19557967487E+04  0.25500000920E-02 0. -1.
       -2    1    3    3    0  502  0.16693830808E+04 -0.46624997872E+03  0.47318694924E+03  0.17967010886E+04  0.25500000920E-02 0.  1.
</event>
<event>
 5   0  0.2282000E-08  0.3699988E+04  0.7818609E-02  0.8067965E-01
        1   -1    0    0  501    0  0.00000000000E+00  0.00000000000E+00  0.28645198617E+04  0.28645198617E+04  0.50400001928E-02 0. -1.
       -1   -1    0    0    0  501  0.00000000000E+00  0.00000000000E+00 -0.11947820819E+04  0.11947820819E+04  0.50400001928E-02 0.  1.
    10030    2    1    2    0    0  0.00000000000E+00  0.00000000000E+00  0.16697377797E+04  0.40593019436E+04  0.36999875697E+04 0.  0.
        1    1    3    3  502    0  0.18232335868E+04 -0.21717066079E+03  0.10829550639E+04  0.21316977924E+04  0.50400001928E-02 0. -1.
       -1    1    3    3    0  502 -0.18232335868E+04  0.21717066079E+03  0.58678271586E+03  0.19276041512E+04  0.50400001928E-02 0.  1.
</event>
<event>
 5   0  0.2282000E-08  0.3693700E+04  0.7818609E-02  0.8069359E-01
        1   -1    0    0  501    0  0.00000000000E+00  0.00000000000E+00  0.26608851891E+04  0.26608851891E+04  0.50400001928E-02 0.  1.
       -1   -1    0    0    0  501  0.00000000000E+00  0.00000000000E+00 -0.12818497587E+04  0.12818497587E+04  0.50400001928E-02 0. -1.
    10030    2    1    2    0    0  0.00000000000E+00  0.00000000000E+00  0.13790354304E+04  0.39427349479E+04  0.36937000624E+04 0.  0.
        5    1    3    3  502    0 -0.82344739218E+03 -0.10598614028E+04  0.20436971191E+04  0.24450136616E+04  0.46999998093E+01 0.  1.
       -5    1    3    3    0  502  0.82344739218E+03  0.10598614028E+04 -0.66466168869E+03  0.14977212863E+04  0.46999998093E+01 0. -1.
</event>
<event>
 5   0  0.7309833E-08  0.3693978E+04  0.7818609E-02  0.8069298E-01
        2   -1    0    0  501    0  0.00000000000E+00  0.00000000000E+00  0.23751858179E+04  0.23751858179E+04  0.25500000920E-02 0.  1.
       -2   -1    0    0    0  501  0.00000000000E+00  0.00000000000E+00 -0.14362533229E+04  0.14362533229E+04  0.25500000920E-02 0. -1.
    10030    2    1    2    0    0  0.00000000000E+00  0.00000000000E+00  0.93893249501E+03  0.38114391408E+04  0.36939780852E+04 0.  0.
        2    1    3    3  502    0 -0.73234346853E+03  0.15774934149E+04 -0.17204006865E+03  0.17476871045E+04  0.25500000920E-02 0. -1.
       -2    1    3    3    0  502  0.73234346853E+03 -0.15774934149E+04  0.11109725637E+04  0.20637520363E+04  0.25500000920E-02 0.  1.
</event>
<event>
 5   0  0.7309833E-08  0.3692605E+04  0.7818609E-02  0.8069603E-01
        2   -1    0    0  501    0  0.00000000000E+00  0.00000000000E+00  0.25126762498E+04  0.25126762498E+04  0.25500000920E-02 0.  1.
       -2   -1    0    0    0  501  0.00000000000E+00  0.00000000000E+00 -0.13566539997E+04  0.13566539997E+04  0.25500000920E-02 0. -1.
    10030    2    1    2    0    0  0.00000000000E+00  0.00000000000E+00  0.11560222501E+04  0.38693302495E+04  0.36926046548E+04 0.  0.
        2    1    3    3  502    0  0.68789474632E+03 -0.15229748781E+04  0.14005510822E+04  0.21804116573E+04  0.25500000920E-02 0.  1.
       -2    1    3    3    0  502 -0.68789474632E+03  0.15229748781E+04 -0.24452883212E+03  0.16889185922E+04  0.25500000920E-02 0. -1.
</event>
<event>
 5   0  0.2282000E-08  0.3707392E+04  0.7818609E-02  0.8066326E-01
       -1   -1    0    0    0  501  0.00000000000E+00  0.00000000000E+00  0.25666185448E+04  0.25666185448E+04  0.50400001928E-02 0.  1.
        1   -1    0    0  501    0  0.00000000000E+00  0.00000000000E+00 -0.13387998542E+04  0.13387998542E+04  0.50400001928E-02 0. -1.
    10030    2    1    2    0    0  0.00000000000E+00  0.00000000000E+00  0.12278186906E+04  0.39054183991E+04  0.37073918237E+04 0.  0.
        1    1    3    3  502    0  0.14583337532E+03 -0.11616308823E+04  0.21278726327E+04  0.24286818691E+04  0.50400001928E-02 0.  1.
       -1    1    3    3    0  502 -0.14583337532E+03  0.11616308823E+04 -0.90005394212E+03  0.14767365300E+04  0.50400001928E-02 0. -1.
</event>
<event>
 5   0  0.7254493E-08  0.3701501E+04  0.7818609E-02  0.8067629E-01
       -2   -1    0    0    0  501  0.00000000000E+00  0.00000000000E+00  0.14946354864E+04  0.14946354864E+04  0.25500000920E-02 0.  1.
        2   -1    0    0  501    0  0.00000000000E+00  0.00000000000E+00 -0.22917140505E+04  0.22917140505E+04  0.25500000920E-02 0. -1.
    10030    2    1    2    0    0  0.00000000000E+00  0.00000000000E+00 -0.79707856407E+03  0.37863495369E+04  0.37015008548E+04 0.  0.
        3    1    3    3  502    0  0.17178306442E+04 -0.55055868329E+03 -0.82181200693E+03  0.19822794886E+04  0.10100000352E+00 0.  1.
       -3    1    3    3    0  502 -0.17178306442E+04  0.55055868329E+03  0.24733442851E+02  0.18040700483E+04  0.10100000352E+00 0. -1.
</event>
<event>
 5   0  0.7254493E-08  0.3703148E+04  0.7818609E-02  0.8067265E-01
       -2   -1    0    0    0  501  0.00000000000E+00  0.00000000000E+00  0.21867827607E+04  0.21867827607E+04  0.25500000920E-02 0.  1.
        2   -1    0    0  501    0  0.00000000000E+00  0.00000000000E+00 -0.15677489552E+04  0.15677489552E+04  0.25500000920E-02 0. -1.
    10030    2    1    2    0    0  0.00000000000E+00  0.00000000000E+00  0.61903380553E+03  0.37545317159E+04  0.37031480599E+04 0.  0.
        3    1    3    3  502    0 -0.22408716203E+03 -0.32765779825E+03  0.21431333171E+04  0.21795859960E+04  0.10100000352E+00 0.  1.
       -3    1    3    3    0  502  0.22408716203E+03  0.32765779825E+03 -0.15240995116E+04  0.15749457198E+04  0.10100000352E+00 0. -1.
</event>
<event>
 5   0  0.7203049E-08  0.3691469E+04  0.7818609E-02  0.8069855E-01
       -2   -1    0    0    0  501  0.00000000000E+00  0.00000000000E+00  0.11603289025E+04  0.11603289025E+04  0.25500000920E-02 0.  1.
        2   -1    0    0  501    0  0.00000000000E+00  0.00000000000E+00 -0.29360095616E+04  0.29360095616E+04  0.25500000920E-02 0. -1.
    10030    2    1    2    0    0  0.00000000000E+00  0.00000000000E+00 -0.17756806591E+04  0.40963384641E+04  0.36914694918E+04 0.  0.
        4    1    3    3  502    0  0.15148598758E+04  0.10501463435E+04 -0.78182492468E+03  0.20022136779E+04  0.12699999809E+01 0.  1.
       -4    1    3    3    0  502 -0.15148598758E+04 -0.10501463435E+04 -0.99385573445E+03  0.20941247862E+04  0.12699999809E+01 0. -1.
</event>
<event>
 5   0  0.2282000E-08  0.3698152E+04  0.7818609E-02  0.8068371E-01
        1   -1    0    0  501    0  0.00000000000E+00  0.00000000000E+00  0.23505665825E+04  0.23505665825E+04  0.50400001928E-02 0.  1.
       -1   -1    0    0    0  501  0.00000000000E+00  0.00000000000E+00 -0.14545780771E+04  0.14545780771E+04  0.50400001928E-02 0. -1.
    10030    2    1    2    0    0  0.00000000000E+00  0.00000000000E+00  0.89598850541E+03  0.38051446596E+04  0.36981523061E+04 0.  0.
        4    1    3    3  502    0  0.12777378945E+04 -0.69563185810E+02 -0.92539888847E+03  0.15791826619E+04  0.12699999809E+01 0. -1.
       -4    1    3    3    0  502 -0.12777378945E+04  0.69563185810E+02  0.18213873939E+04  0.22259619977E+04  0.12699999809E+01 0.  1.
</event>
<event>
 5   0  0.2282000E-08  0.3703816E+04  0.7818609E-02  0.8067117E-01
       -1   -1    0    0    0  501  0.00000000000E+00  0.00000000000E+00  0.16648249620E+04  0.16648249620E+04  0.50400001928E-02 0. -1.
        1   -1    0    0  501    0  0.00000000000E+00  0.00000000000E+00 -0.20600144607E+04  0.20600144607E+04  0.50400001928E-02 0.  1.
    10030    2    1    2    0    0  0.00000000000E+00  0.00000000000E+00 -0.39518949869E+03  0.37248394227E+04  0.37038161381E+04 0.  0.
        4    1    3    3  502    0  0.10127930250E+04  0.51068833928E+03 -0.16698062056E+04  0.20186150372E+04  0.12699999809E+01 0.  1.
       -4    1    3    3    0  502 -0.10127930250E+04 -0.51068833928E+03  0.12746167069E+04  0.17062243855E+04  0.12699999809E+01 0. -1.
</event>
<event>
 5   0  0.7191801E-08  0.3696260E+04  0.7818609E-02  0.8068791E-01
        2   -1    0    0  501    0  0.00000000000E+00  0.00000000000E+00  0.27110526407E+04  0.27110526407E+04  0.25500000920E-02 0. -1.
       -2   -1    0    0    0  501  0.00000000000E+00  0.00000000000E+00 -0.12598738688E+04  0.12598738688E+04  0.25500000920E-02 0.  1.
    10030    2    1    2    0    0  0.00000000000E+00  0.00000000000E+00  0.14511787719E+04  0.39709265094E+04  0.36962599361E+04 0.  0.
        5    1    3    3  502    0 -0.63245392893E+03 -0.15265885704E+04  0.16147980443E+04  0.23104253827E+04  0.46999998093E+01 0. -1.
       -5    1    3    3    0  502  0.63245392893E+03  0.15265885704E+04 -0.16361927241E+03  0.16605011267E+04  0.46999998093E+01 0.  1.
</event>
<event>
 5   0  0.2282000E-08  0.3720466E+04  0.7818609E-02  0.8063441E-01
        1   -1    0    0  501    0  0.00000000000E+00  0.00000000000E+00  0.28098842125E+04  0.28098842125E+04  0.50400001928E-02 0. -1.
       -1   -1    0    0    0  501  0.00000000000E+00  0.00000000000E+00 -0.12315335745E+04  0.12315335745E+04  0.50400001928E-02 0.  1.
    10030    2    1    2    0    0  0.00000000000E+00  0.00000000000E+00  0.15783506380E+04  0.40414177871E+04  0.37204659645E+04 0.  0.
        4    1    3    3  502    0 -0.15237533750E+03  0.18486979258E+04  0.94110852697E+03  0.20800454651E+04  0.12699999809E+01 0. -1.
       -4    1    3    3    0  502  0.15237533750E+03 -0.18486979258E+04  0.63724211104E+03  0.19613723220E+04  0.12699999809E+01 0.  1.
</event>
<event>
 5   0  0.7254493E-08  0.3701419E+04  0.7818609E-02  0.8067648E-01
        2   -1    0    0  501    0  0.00000000000E+00  0.00000000000E+00  0.11278357270E+04  0.11278357270E+04  0.25500000920E-02 0.  1.
       -2   -1    0    0    0  501  0.00000000000E+00  0.00000000000E+00 -0.30369004748E+04  0.30369004748E+04  0.25500000920E-02 0. -1.
    10030    2    1    2    0    0  0.00000000000E+00  0.00000000000E+00 -0.19090647479E+04  0.41647362018E+04  0.37014185685E+04 0.  0.
        3    1    3    3  502    0 -0.54408759862E+03 -0.79372343118E+03 -0.27332656278E+04  0.28977179301E+04  0.10100000352E+00 0. -1.
       -3    1    3    3    0  502  0.54408759862E+03  0.79372343118E+03  0.82420087992E+03  0.12670182717E+04  0.10100000352E+00 0.  1.
</event>
<event>
 5   0  0.7254493E-08  0.3713094E+04  0.7818609E-02  0.8065066E-01
       -2   -1    0    0    0  501  0.00000000000E+00  0.00000000000E+00  0.14259904650E+04  0.14259904650E+04  0.25500000920E-02 0. -1.
        2   -1    0    0  501    0  0.00000000000E+00  0.00000000000E+00 -0.24171042892E+04  0.24171042892E+04  0.25500000920E-02 0.  1.
    10030    2    1    2    0    0  0.00000000000E+00  0.00000000000E+00 -0.99111382423E+03  0.38430947542E+04  0.37130944881E+04 0.  0.
        3    1    3    3  502    0  0.75125575974E+03 -0.16643864378E+04 -0.84224742837E+03  0.20109570288E+04  0.10100000352E+00 0.  1.
       -3    1    3    3    0  502 -0.75125575974E+03  0.16643864378E+04 -0.14886639585E+03  0.18321377254E+04  0.10100000352E+00 0. -1.
</event>
<event>
 5   0  0.2282000E-08  0.3696173E+04  0.7818609E-02  0.8068811E-01
        1   -1    0    0  501    0  0.00000000000E+00  0.00000000000E+00  0.13890900485E+04  0.13890900485E+04  0.50400001928E-02 0. -1.
       -1   -1    0    0    0  501  0.00000000000E+00  0.00000000000E+00 -0.24587483921E+04  0.24587483921E+04  0.50400001928E-02 0.  1.
    10030    2    1    2    0    0  0.00000000000E+00  0.00000000000E+00 -0.10696583436E+04  0.38478384406E+04  0.36961725735E+04 0.  0.
        4    1    3    3  502    0  0.12817808550E+04 -0.13130029024E+04 -0.30560668553E+03  0.18601977962E+04  0.12699999809E+01 0.  1.
       -4    1    3    3    0  502 -0.12817808550E+04  0.13130029024E+04 -0.76405165807E+03  0.19876406443E+04  0.12699999809E+01 0. -1.
</event>
<event>
 5   0  0.2282000E-08  0.3701331E+04  0.7818609E-02  0.8067667E-01
        1   -1    0    0  501    0  0.00000000000E+00  0.00000000000E+00  0.16234270951E+04  0.16234270951E+04  0.50400001928E-02 0. -1.
       -1   -1    0    0    0  501  0.00000000000E+00  0.00000000000E+00 -0.21097111419E+04  0.21097111419E+04  0.50400001928E-02 0.  1.
    10030    2    1    2    0    0  0.00000000000E+00  0.00000000000E+00 -0.48628404681E+03  0.37331382370E+04  0.37013306961E+04 0.  0.
        3    1    3    3  502    0 -0.15936352370E+04 -0.82780245727E+03  0.20795085311E+03  0.18078091006E+04  0.10100000352E+00 0.  1.
       -3    1    3    3    0  502  0.15936352370E+04  0.82780245727E+03 -0.69423489992E+03  0.19253291363E+04  0.10100000352E+00 0. -1.
</event>
<event>
 5   0  0.2282000E-08  0.3702393E+04  0.7818609E-02  0.8067432E-01
        1   -1    0    0  501    0  0.00000000000E+00  0.00000000000E+00  0.20985371317E+04  0.20985371317E+04  0.50400001928E-02 0.  1.
       -1   -1    0    0    0  501  0.00000000000E+00  0.00000000000E+00 -0.16330078970E+04  0.16330078970E+04  0.50400001928E-02 0. -1.
    10030    2    1    2    0    0  0.00000000000E+00  0.00000000000E+00  0.46552923471E+03  0.37315450288E+04  0.37023925823E+04 0.  0.
        4    1    3    3  502    0 -0.11675348898E+04  0.75466167863E+03  0.14647948297E+04  0.20194745540E+04  0.12699999809E+01 0.  1.
       -4    1    3    3    0  502  0.11675348898E+04 -0.75466167863E+03 -0.99926559503E+03  0.17120704748E+04  0.12699999809E+01 0. -1.
</event>
<event>
 5   0  0.7191801E-08  0.3693681E+04  0.7818609E-02  0.8069364E-01
        2   -1    0    0  501    0  0.00000000000E+00  0.00000000000E+00  0.25436772218E+04  0.25436772218E+04  0.25500000920E-02 0.  1.
       -2   -1    0    0    0  501  0.00000000000E+00  0.00000000000E+00 -0.13409015120E+04  0.13409015120E+04  0.25500000920E-02 0. -1.
    10030    2    1    2    0    0  0.00000000000E+00  0.00000000000E+00  0.12027757098E+04  0.38845787338E+04  0.36936814334E+04 0.  0.
        5    1    3    3  502    0 -0.16693686279E+03 -0.41465504340E+02 -0.13324526116E+04  0.13435175311E+04  0.46999998093E+01 0. -1.
       -5    1    3    3    0  502  0.16693686279E+03  0.41465504340E+02  0.25352283214E+04  0.25410612027E+04  0.46999998093E+01 0.  1.
</event>
<event>
 5   0  0.2282000E-08  0.3689807E+04  0.7818609E-02  0.8070224E-01
        1   -1    0    0  501    0  0.00000000000E+00  0.00000000000E+00  0.22010263538E+04  0.22010263538E+04  0.50400001928E-02 0.  1.
       -1   -1    0    0    0  501  0.00000000000E+00  0.00000000000E+00 -0.15464011147E+04  0.15464011147E+04  0.50400001928E-02 0. -1.
    10030    2    1    2    0    0  0.00000000000E+00  0.00000000000E+00  0.65462523906E+03  0.37474274685E+04  0.36898073701E+04 0.  0.
        4    1    3    3  502    0  0.16707639050E+03 -0.71967654691E+03  0.20442201768E+04  0.21736344211E+04  0.12699999809E+01 0.  1.
       -4    1    3    3    0  502 -0.16707639050E+03  0.71967654691E+03 -0.13895949377E+04  0.15737930475E+04  0.12699999809E+01 0. -1.
</event>
<event>
 5   0  0.2282000E-08  0.3697118E+04  0.7818609E-02  0.8068601E-01
        1   -1    0    0  501    0  0.00000000000E+00  0.00000000000E+00  0.20667510287E+04  0.20667510287E+04  0.50400001928E-02 0. -1.
       -1   -1    0    0    0  501  0.00000000000E+00  0.00000000000E+00 -0.16534020842E+04  0.16534020842E+04  0.50400001928E-02 0.  1.
    10030    2    1    2    0    0  0.00000000000E+00  0.00000000000E+00  0.41334894452E+03  0.37201531129E+04  0.36971180443E+04 0.  0.
        2    1    3    3  502    0 -0.89334818257E+03 -0.10285016996E+04 -0.10506240801E+04  0.17203771909E+04  0.25500000920E-02 0.  1.
       -2    1    3    3    0  502  0.89334818257E+03  0.10285016996E+04  0.14639730246E+04  0.19997759220E+04  0.25500000920E-02 0. -1.
</event>
<event>
 5   0  0.2282000E-08  0.3694754E+04  0.7818609E-02  0.8069125E-01
       -3   -1    0    0    0  501  0.00000000000E+00  0.00000000000E+00  0.15350987191E+04  0.15350987224E+04  0.10100000352E+00 0. -1.
        3   -1    0    0  501    0  0.00000000000E+00  0.00000000000E+00 -0.22231804173E+04  0.22231804196E+04  0.10100000352E+00 0.  1.
    10030    2    1    2    0    0  0.00000000000E+00  0.00000000000E+00 -0.68808169817E+03  0.37582791420E+04  0.36947538059E+04 0.  0.
        2    1    3    3  502    0 -0.18324706726E+04 -0.15659528490E+03 -0.52119193964E+03  0.19115731446E+04  0.25500000920E-02 0.  1.
       -2    1    3    3    0  502  0.18324706726E+04  0.15659528490E+03 -0.16688975853E+03  0.18467059974E+04  0.25500000920E-02 0. -1.
</event>
<event>
 5   0  0.7309833E-08  0.3700301E+04  0.7818609E-02  0.8067895E-01
        2   -1    0    0  501    0  0.00000000000E+00  0.00000000000E+00  0.12002449692E+04  0.12002449692E+04  0.25500000920E-02 0. -1.
       -2   -1    0    0    0  501  0.00000000000E+00  0.00000000000E+00 -0.28519648801E+04  0.28519648801E+04  0.25500000920E-02 0.  1.
    10030    2    1    2    0    0  0.00000000000E+00  0.00000000000E+00 -0.16517199109E+04  0.40522098493E+04  0.37003007985E+04 0.  0.
        2    1    3    3  502    0 -0.16024856953E+04  0.27902472599E+03 -0.17913167264E+04  0.24196344384E+04  0.25500000920E-02 0.  1.
       -2    1    3    3    0  502  0.16024856953E+04 -0.27902472599E+03  0.13959681551E+03  0.16325754109E+04  0.25500000920E-02 0. -1.
</event>
<event>
 5   0  0.7203049E-08  0.3668954E+04  0.7818609E-02  0.8074877E-01
        2   -1    0    0  501    0  0.00000000000E+00  0.00000000000E+00  0.28006586671E+04  0.28006586671E+04  0.25500000920E-02 0.  1.
       -2   -1    0    0    0  501  0.00000000000E+00  0.00000000000E+00 -0.12016123820E+04  0.12016123820E+04  0.25500000920E-02 0. -1.
    10030    2    1    2    0    0  0.00000000000E+00  0.00000000000E+00  0.15990462850E+04  0.40022710491E+04  0.36689541464E+04 0.  0.
        4    1    3    3  502    0 -0.38784196004E+03 -0.14537631026E+04  0.19443710240E+04  0.24585420144E+04  0.12699999809E+01 0.  1.
       -4    1    3    3    0  502  0.38784196004E+03  0.14537631026E+04 -0.34532473901E+03  0.15437290347E+04  0.12699999809E+01 0. -1.
</event>
<event>
 5   0  0.7254493E-08  0.3694804E+04  0.7818609E-02  0.8069114E-01
        2   -1    0    0  501    0  0.00000000000E+00  0.00000000000E+00  0.18128550540E+04  0.18128550540E+04  0.25500000920E-02 0.  1.
       -2   -1    0    0    0  501  0.00000000000E+00  0.00000000000E+00 -0.18826070084E+04  0.18826070084E+04  0.25500000920E-02 0. -1.
    10030    2    1    2    0    0  0.00000000000E+00  0.00000000000E+00 -0.69751954460E+02  0.36954620624E+04  0.36948037187E+04 0.  0.
        3    1    3    3  502    0  0.10591834710E+04  0.11714472382E+04  0.92380165063E+03  0.18296359630E+04  0.10100000352E+00 0.  1.
       -3    1    3    3    0  502 -0.10591834710E+04 -0.11714472382E+04 -0.99355360509E+03  0.18658260995E+04  0.10100000352E+00 0. -1.
</event>
<event>
 5   0  0.2282000E-08  0.3700373E+04  0.7818609E-02  0.8067879E-01
       -1   -1    0    0    0  501  0.00000000000E+00  0.00000000000E+00  0.21861351701E+04  0.21861351701E+04  0.50400001928E-02 0.  1.
        1   -1    0    0  501    0  0.00000000000E+00  0.00000000000E+00 -0.15658639032E+04  0.15658639032E+04  0.50400001928E-02 0. -1.
    10030    2    1    2    0    0  0.00000000000E+00  0.00000000000E+00  0.62027126691E+03  0.37519990732E+04  0.37003730354E+04 0.  0.
        1    1    3    3  502    0 -0.67239710915E+02  0.14547050701E+04  0.14673303338E+04  0.20673041209E+04  0.50400001928E-02 0.  1.
       -1    1    3    3    0  502  0.67239710915E+02 -0.14547050701E+04 -0.84705906689E+03  0.16846949524E+04  0.50400001928E-02 0. -1.
</event>
<event>
 5   0  0.2282000E-08  0.3694147E+04  0.7818609E-02  0.8069260E-01
       -1   -1    0    0    0  501  0.00000000000E+00  0.00000000000E+00  0.18499811822E+04  0.18499811822E+04  0.50400001928E-02 0.  1.
        1   -1    0    0  501    0  0.00000000000E+00  0.00000000000E+00 -0.18441699344E+04  0.18441699344E+04  0.50400001928E-02 0. -1.
    10030    2    1    2    0    0  0.00000000000E+00  0.00000000000E+00  0.58112477656E+01  0.36941511167E+04  0.36941465458E+04 0.  0.
        3    1    3    3  502    0 -0.18240828608E+04  0.14178566979E+03 -0.25066559951E+03  0.18466766669E+04  0.10100000352E+00 0.  1.
       -3    1    3    3    0  502  0.18240828608E+04 -0.14178566979E+03  0.25647684728E+03  0.18474744498E+04  0.10100000352E+00 0. -1.
</event>
<event>
 5   0  0.2282000E-08  0.3692661E+04  0.7818609E-02  0.8069590E-01
       -1   -1    0    0    0  501  0.00000000000E+00  0.00000000000E+00  0.17942335162E+04  0.17942335162E+04  0.50400001928E-02 0.  1.
        1   -1    0    0  501    0  0.00000000000E+00  0.00000000000E+00 -0.18999405924E+04  0.18999405925E+04  0.50400001928E-02 0. -1.
    10030    2    1    2    0    0  0.00000000000E+00  0.00000000000E+00 -0.10570707625E+03  0.36941741087E+04  0.36926614195E+04 0.  0.
        5    1    3    3  502    0  0.30844990278E+02  0.93881595162E+03  0.15373221251E+04  0.18015849163E+04  0.46999998093E+01 0.  1.
       -5    1    3    3    0  502 -0.30844990278E+02 -0.93881595162E+03 -0.16430292013E+04  0.18925891923E+04  0.46999998093E+01 0. -1.
</event>
<event>
 5   0  0.2282000E-08  0.3701893E+04  0.7818609E-02  0.8067543E-01
        1   -1    0    0  501    0  0.00000000000E+00  0.00000000000E+00  0.15239935959E+04  0.15239935959E+04  0.50400001928E-02 0. -1.
       -1   -1    0    0    0  501  0.00000000000E+00  0.00000000000E+00 -0.22480425458E+04  0.22480425458E+04  0.50400001928E-02 0.  1.
    10030    2    1    2    0    0  0.00000000000E+00  0.00000000000E+00 -0.72404894995E+03  0.37720361417E+04  0.37018927283E+04 0.  0.
        5    1    3    3  502    0  0.14312948350E+04 -0.11736145330E+04 -0.35989290083E+03  0.18856089114E+04  0.46999998093E+01 0.  1.
       -5    1    3    3    0  502 -0.14312948350E+04  0.11736145330E+04 -0.36415604911E+03  0.18864272302E+04  0.46999998093E+01 0. -1.
</event>
<event>
 5   0  0.7309833E-08  0.3710763E+04  0.7818609E-02  0.8065581E-01
       -2   -1    0    0    0  501  0.00000000000E+00  0.00000000000E+00  0.20492240058E+04  0.20492240058E+04  0.25500000920E-02 0. -1.
        2   -1    0    0  501    0  0.00000000000E+00  0.00000000000E+00 -0.16798751418E+04  0.16798751418E+04  0.25500000920E-02 0.  1.
    10030    2    1    2    0    0  0.00000000000E+00  0.00000000000E+00  0.36934886391E+03  0.37290991476E+04  0.37107629767E+04 0.  0.
        2    1    3    3  502    0  0.79146686501E+03 -0.87166604207E+03 -0.12563634486E+04  0.17218218846E+04  0.25500000920E-02 0.  1.
       -2    1    3    3    0  502 -0.79146686501E+03  0.87166604207E+03  0.16257123125E+04  0.20072772630E+04  0.25500000920E-02 0. -1.
</event>
<event>
 5   0  0.7309833E-08  0.3701846E+04  0.7818609E-02  0.8067553E-01
       -2   -1    0    0    0  501  0.00000000000E+00  0.00000000000E+00  0.20690452448E+04  0.20690452448E+04  0.25500000920E-02 0.  1.
        2   -1    0    0  501    0  0.00000000000E+00  0.00000000000E+00 -0.16557956733E+04  0.16557956733E+04  0.25500000920E-02 0. -1.
    10030    2    1    2    0    0  0.00000000000E+00  0.00000000000E+00  0.41324957151E+03  0.37248409182E+04  0.37018461147E+04 0.  0.
        2    1    3    3  502    0 -0.89521073367E+03 -0.14590657746E+04  0.91501567698E+03  0.19410123342E+04  0.25500000920E-02 0.  1.
       -2    1    3    3    0  502  0.89521073367E+03  0.14590657746E+04 -0.50176610547E+03  0.17838285840E+04  0.25500000920E-02 0. -1.
</event>
<event>
 5   0  0.2282000E-08  0.3700218E+04  0.7818609E-02  0.8067913E-01
       -1   -1    0    0    0  501  0.00000000000E+00  0.00000000000E+00  0.23436122702E+04  0.23436122702E+04  0.50400001928E-02 0.  1.
        1   -1    0    0  501    0  0.00000000000E+00  0.00000000000E+00 -0.14605247841E+04  0.14605247841E+04  0.50400001928E-02 0. -1.
    10030    2    1    2    0    0  0.00000000000E+00  0.00000000000E+00  0.88308748609E+03  0.38041370543E+04  0.37002182665E+04 0.  0.
        3    1    3    3  502    0 -0.16392517059E+04  0.32788763094E+02  0.13227522291E+04  0.21066311324E+04  0.10100000352E+00 0. -1.
       -3    1    3    3    0  502  0.16392517059E+04 -0.32788763094E+02 -0.43966474299E+03  0.16975059219E+04  0.10100000352E+00 0.  1.
</event>
<event>
 5   0  0.2282000E-08  0.3700146E+04  0.7818609E-02  0.8067929E-01
        1   -1    0    0  501    0  0.00000000000E+00  0.00000000000E+00  0.21368442164E+04  0.21368442164E+04  0.50400001928E-02 0.  1.
       -1   -1    0    0    0  501  0.00000000000E+00  0.00000000000E+00 -0.16017873200E+04  0.16017873200E+04  0.50400001928E-02 0. -1.
    10030    2    1    2    0    0  0.00000000000E+00  0.00000000000E+00  0.53505689644E+03  0.37386315364E+04  0.37001459272E+04 0.  0.
        1    1    3    3  502    0  0.83913023625E+03 -0.88611776566E+03  0.16724677413E+04  0.20703846487E+04  0.50400001928E-02 0.  1.
       -1    1    3    3    0  502 -0.83913023625E+03  0.88611776566E+03 -0.11374108449E+04  0.16682468876E+04  0.50400001928E-02 0. -1.
</event>
<event>
 5   0  0.7362817E-08  0.3709749E+04  0.7818609E-02  0.8065805E-01
        2   -1    0    0  501    0  0.00000000000E+00  0.00000000000E+00  0.18341830654E+04  0.18341830654E+04  0.25500000920E-02 0.  1.
       -2   -1    0    0    0  501  0.00000000000E+00  0.00000000000E+00 -0.18757990742E+04  0.18757990742E+04  0.25500000920E-02 0. -1.
    10030    2    1    2    0    0  0.00000000000E+00  0.00000000000E+00 -0.41616008803E+02  0.37099821396E+04  0.37097487225E+04 0.  0.
        1    1    3    3  502    0 -0.70520617621E+03 -0.17038500661E+04  0.17954954659E+03  0.18527435976E+04  0.50400001928E-02 0.  1.
       -1    1    3    3    0  502  0.70520617621E+03  0.17038500661E+04 -0.22116555539E+03  0.18572385420E+04  0.50400001928E-02 0. -1.
</event>
<event>
 5   0  0.7191801E-08  0.3714201E+04  0.7818609E-02  0.8064822E-01
       -2   -1    0    0    0  501  0.00000000000E+00  0.00000000000E+00  0.16212598645E+04  0.16212598645E+04  0.25500000920E-02 0.  1.
        2   -1    0    0  501    0  0.00000000000E+00  0.00000000000E+00 -0.21272484594E+04  0.21272484594E+04  0.25500000920E-02 0. -1.
    10030    2    1    2    0    0  0.00000000000E+00  0.00000000000E+00 -0.50598859486E+03  0.37485083238E+04  0.37142011518E+04 0.  0.
        5    1    3    3  502    0 -0.29178772555E+03 -0.12212728089E+04  0.11279105079E+04  0.16878541271E+04  0.46999998093E+01 0.  1.
       -5    1    3    3    0  502  0.29178772555E+03  0.12212728089E+04 -0.16338991028E+04  0.20606541967E+04  0.46999998093E+01 0. -1.
</event>
<event>
 5   0  0.2282000E-08  0.3699160E+04  0.7818609E-02  0.8068148E-01
        1   -1    0    0  501    0  0.00000000000E+00  0.00000000000E+00  0.26954769666E+04  0.26954769666E+04  0.50400001928E-02 0. -1.
       -1   -1    0    0    0  501  0.00000000000E+00  0.00000000000E+00 -0.12691432451E+04  0.12691432451E+04  0.50400001928E-02 0.  1.
    10030    2    1    2    0    0  0.00000000000E+00  0.00000000000E+00  0.14263337215E+04  0.39646202117E+04  0.36991601125E+04 0.  0.
        2    1    3    3  502    0 -0.52703781448E+03 -0.24034561369E+03 -0.11694199382E+04  0.13050202542E+04  0.25500000920E-02 0.  1.
       -2    1    3    3    0  502  0.52703781448E+03  0.24034561369E+03  0.25957536597E+04  0.26595999575E+04  0.25500000920E-02 0. -1.
</event>
<event>
 5   0  0.2282000E-08  0.3702093E+04  0.7818609E-02  0.8067498E-01
        1   -1    0    0  501    0  0.00000000000E+00  0.00000000000E+00  0.18010326179E+04  0.18010326179E+04  0.50400001928E-02 0. -1.
       -1   -1    0    0    0  501  0.00000000000E+00  0.00000000000E+00 -0.19024492998E+04  0.19024492998E+04  0.50400001928E-02 0.  1.
    10030    2    1    2    0    0  0.00000000000E+00  0.00000000000E+00 -0.10141668194E+03  0.37034819177E+04  0.37020930528E+04 0.  0.
        2    1    3    3  502    0 -0.61764743054E+03  0.18419425499E+03  0.16851536801E+04  0.18042058634E+04  0.25500000920E-02 0. -1.
       -2    1    3    3    0  502  0.61764743054E+03 -0.18419425499E+03 -0.17865703620E+04  0.18992760543E+04  0.25500000920E-02 0.  1.
</event>
<event>
 5   0  0.2282000E-08  0.3697984E+04  0.7818609E-02  0.8068409E-01
       -1   -1    0    0    0  501  0.00000000000E+00  0.00000000000E+00  0.21735385727E+04  0.21735385728E+04  0.50400001928E-02 0.  1.
        1   -1    0    0  501    0  0.00000000000E+00  0.00000000000E+00 -0.15729055043E+04  0.15729055043E+04  0.50400001928E-02 0. -1.
    10030    2    1    2    0    0  0.00000000000E+00  0.00000000000E+00  0.60063306847E+03  0.37464440770E+04  0.36979836586E+04 0.  0.
        3    1    3    3  502    0 -0.18400737204E+04  0.11766037237E+03  0.16046584437E+03  0.18508010582E+04  0.10100000352E+00 0.  1.
       -3    1    3    3    0  502  0.18400737204E+04 -0.11766037237E+03  0.44016722410E+03  0.18956430189E+04  0.10100000352E+00 0. -1.
</event>
<event>
 5   0  0.7254493E-08  0.3680953E+04  0.7818609E-02  0.8072196E-01
       -2   -1    0    0    0  501  0.00000000000E+00  0.00000000000E+00  0.10653376742E+04  0.10653376742E+04  0.25500000920E-02 0.  1.
        2   -1    0    0  501    0  0.00000000000E+00  0.00000000000E+00 -0.31796056458E+04  0.31796056458E+04  0.25500000920E-02 0. -1.
    10030    2    1    2    0    0  0.00000000000E+00  0.00000000000E+00 -0.21142679716E+04  0.42449433200E+04  0.36809529655E+04 0.  0.
        3    1    3    3  502    0 -0.13181394212E+03 -0.18044327385E+04 -0.66776044668E+03  0.19285373856E+04  0.10100000352E+00 0. -1.
       -3    1    3    3    0  502  0.13181394212E+03  0.18044327385E+04 -0.14465075249E+04  0.23164059344E+04  0.10100000352E+00 0.  1.
</event>
<event>
 5   0  0.2282000E-08  0.3698412E+04  0.7818609E-02  0.8068314E-01
       -1   -1    0    0    0  501  0.00000000000E+00  0.00000000000E+00  0.19001777235E+04  0.19001777235E+04  0.50400001928E-02 0. -1.
        1   -1    0    0  501    0  0.00000000000E+00  0.00000000000E+00 -0.17996017824E+04  0.17996017824E+04  0.50400001928E-02 0.  1.
    10030    2    1    2    0    0  0.00000000000E+00  0.00000000000E+00  0.10057594104E+03  0.36997795059E+04  0.36984122097E+04 0.  0.
        5    1    3    3  502    0 -0.13417380157E+04  0.20241566760E+03 -0.12064838202E+04  0.18157252831E+04  0.46999998093E+01 0.  1.
       -5    1    3    3    0  502  0.13417380157E+04 -0.20241566760E+03  0.13070597612E+04  0.18840542229E+04  0.46999998093E+01 0. -1.
</event>
<event>
 5   0  0.2282000E-08  0.3691579E+04  0.7818609E-02  0.8069831E-01
       -1   -1    0    0    0  501  0.00000000000E+00  0.00000000000E+00  0.16511394119E+04  0.16511394119E+04  0.50400001928E-02 0.  1.
        1   -1    0    0  501    0  0.00000000000E+00  0.00000000000E+00 -0.20633869777E+04  0.20633869777E+04  0.50400001928E-02 0. -1.
    10030    2    1    2    0    0  0.00000000000E+00  0.00000000000E+00 -0.41224756578E+03  0.37145263896E+04  0.36915793698E+04 0.  0.
        4    1    3    3  502    0  0.30936466555E+03  0.12763430392E+04  0.10989271374E+04  0.17124253316E+04  0.12699999809E+01 0.  1.
       -4    1    3    3    0  502 -0.30936466555E+03 -0.12763430392E+04 -0.15111747031E+04  0.20021010580E+04  0.12699999809E+01 0. -1.
</event>
<event>
 5   0  0.7254493E-08  0.3706043E+04  0.7818609E-02  0.8066624E-01
        2   -1    0    0  501    0  0.00000000000E+00  0.00000000000E+00  0.26123510328E+04  0.26123510328E+04  0.25500000920E-02 0.  1.
       -2   -1    0    0    0  501  0.00000000000E+00  0.00000000000E+00 -0.13144052659E+04  0.13144052659E+04  0.25500000920E-02 0. -1.
    10030    2    1    2    0    0  0.00000000000E+00  0.00000000000E+00  0.12979457669E+04  0.39267562987E+04  0.37060426085E+04 0.  0.
        3    1    3    3  502    0 -0.11175729104E+03 -0.98127787843E+03  0.23102430761E+04  0.25124925966E+04  0.10100000352E+00 0.  1.
       -3    1    3    3    0  502  0.11175729104E+03  0.98127787843E+03 -0.10122973093E+04  0.14142637022E+04  0.10100000352E+00 0. -1.
</event>
<event>
 5   0  0.7191801E-08  0.3703676E+04  0.7818609E-02  0.8067148E-01
        2   -1    0    0  501    0  0.00000000000E+00  0.00000000000E+00  0.17663487013E+04  0.17663487013E+04  0.25500000920E-02 0.  1.
       -2   -1    0    0    0  501  0.00000000000E+00  0.00000000000E+00 -0.19414654000E+04  0.19414654000E+04  0.25500000920E-02 0. -1.
    10030    2    1    2    0    0  0.00000000000E+00  0.00000000000E+00 -0.17511669875E+03  0.37078141013E+04  0.37036764913E+04 0.  0.
        5    1    3    3  502    0 -0.98069044082E+03 -0.39818008285E+02 -0.16596449827E+04  0.19281552772E+04  0.46999998093E+01 0. -1.
       -5    1    3    3    0  502  0.98069044082E+03  0.39818008285E+02  0.14845282839E+04  0.17796588241E+04  0.46999998093E+01 0.  1.
</event>
<event>
 5   0  0.7191801E-08  0.3722677E+04  0.7818609E-02  0.8062955E-01
        2   -1    0    0  501    0  0.00000000000E+00  0.00000000000E+00  0.26366633356E+04  0.26366633356E+04  0.25500000920E-02 0. -1.
       -2   -1    0    0    0  501  0.00000000000E+00  0.00000000000E+00 -0.13140017287E+04  0.13140017287E+04  0.25500000920E-02 0.  1.
    10030    2    1    2    0    0  0.00000000000E+00  0.00000000000E+00  0.13226616069E+04  0.39506650644E+04  0.37226765538E+04 0.  0.
        5    1    3    3  502    0 -0.36728637433E+03  0.42733105834E+02 -0.12746259424E+04  0.13271845321E+04  0.46999998093E+01 0.  1.
       -5    1    3    3    0  502  0.36728637433E+03 -0.42733105834E+02  0.25972875494E+04  0.26234805323E+04  0.46999998093E+01 0. -1.
</event>
<event>
 5   0  0.7191801E-08  0.3710774E+04  0.7818609E-02  0.8065578E-01
        2   -1    0    0  501    0  0.00000000000E+00  0.00000000000E+00  0.15030905633E+04  0.15030905633E+04  0.25500000920E-02 0.  1.
       -2   -1    0    0    0  501  0.00000000000E+00  0.00000000000E+00 -0.22902557448E+04  0.22902557448E+04  0.25500000920E-02 0. -1.
    10030    2    1    2    0    0  0.00000000000E+00  0.00000000000E+00 -0.78716518153E+03  0.37933463081E+04  0.37107744731E+04 0.  0.
        5    1    3    3  502    0 -0.69802498714E+03  0.94383554150E+03 -0.18623474017E+04  0.22014595946E+04  0.46999998093E+01 0. -1.
       -5    1    3    3    0  502  0.69802498714E+03 -0.94383554150E+03  0.10751822202E+04  0.15918867135E+04  0.46999998093E+01 0.  1.
</event>
<event>
 5   0  0.7309833E-08  0.3685248E+04  0.7818609E-02  0.8071239E-01
       -2   -1    0    0    0  501  0.00000000000E+00  0.00000000000E+00  0.15616268777E+04  0.15616268777E+04  0.25500000920E-02 0.  1.
        2   -1    0    0  501    0  0.00000000000E+00  0.00000000000E+00 -0.21741829477E+04  0.21741829477E+04  0.25500000920E-02 0. -1.
    10030    2    1    2    0    0  0.00000000000E+00  0.00000000000E+00 -0.61255606999E+03  0.37358098254E+04  0.36852476324E+04 0.  0.
        2    1    3    3  502    0 -0.53057210408E+03  0.24667518841E+02  0.14823412870E+04  0.15746272369E+04  0.25500000920E-02 0.  1.
       -2    1    3    3    0  502  0.53057210408E+03 -0.24667518841E+02 -0.20948973570E+04  0.21611825884E+04  0.25500000920E-02 0. -1.
</event>
<event>
 5   0  0.7203049E-08  0.3699794E+04  0.7818609E-02  0.8068007E-01
       -2   -1    0    0    0  501  0.00000000000E+00  0.00000000000E+00  0.16976158602E+04  0.16976158602E+04  0.25500000920E-02 0. -1.
        2   -1    0    0  501    0  0.00000000000E+00  0.00000000000E+00 -0.20158384996E+04  0.20158384996E+04  0.25500000920E-02 0.  1.
    10030    2    1    2    0    0  0.00000000000E+00  0.00000000000E+00 -0.31822263939E+03  0.37134543598E+04  0.36997942692E+04 0.  0.
        4    1    3    3  502    0 -0.64301221024E+03 -0.76577190965E+03  0.14029917347E+04  0.17228635293E+04  0.12699999809E+01 0. -1.
       -4    1    3    3    0  502  0.64301221024E+03  0.76577190965E+03 -0.17212143741E+04  0.19905908305E+04  0.12699999809E+01 0.  1.
</event>
<event>
 5   0  0.7254493E-08  0.3690630E+04  0.7818609E-02  0.8070042E-01
        2   -1    0    0  501    0  0.00000000000E+00  0.00000000000E+00  0.18376692459E+04  0.18376692459E+04  0.25500000920E-02 0. -1.
       -2   -1    0    0    0  501  0.00000000000E+00  0.00000000000E+00 -0.18529920905E+04  0.18529920905E+04  0.25500000920E-02 0.  1.
    10030    2    1    2    0    0  0.00000000000E+00  0.00000000000E+00 -0.15322844611E+02  0.36906613364E+04  0.36906295277E+04 0.  0.
        3    1    3    3  502    0  0.12505170705E+04  0.10256088700E+04 -0.89621849925E+03  0.18490197691E+04  0.10100000352E+00 0.  1.
       -3    1    3    3    0  502 -0.12505170705E+04 -0.10256088700E+04  0.88089565464E+03  0.18416415673E+04  0.10100000352E+00 0. -1.
</event>
<event>
 5   0  0.7191801E-08  0.3702454E+04  0.7818609E-02  0.8067418E-01
        2   -1    0    0  501    0  0.00000000000E+00  0.00000000000E+00  0.16764872053E+04  0.16764872053E+04  0.25500000920E-02 0.  1.
       -2   -1    0    0    0  501  0.00000000000E+00  0.00000000000E+00 -0.20441802714E+04  0.20441802714E+04  0.25500000920E-02 0. -1.
    10030    2    1    2    0    0  0.00000000000E+00  0.00000000000E+00 -0.36769306609E+03  0.37206674767E+04  0.37024543591E+04 0.  0.
        5    1    3    3  502    0 -0.14043817274E+04 -0.11838684424E+04 -0.41560507509E+03  0.18832371581E+04  0.46999998093E+01 0.  1.
       -5    1    3    3    0  502  0.14043817274E+04  0.11838684424E+04  0.47912009000E+02  0.18374303186E+04  0.46999998093E+01 0. -1.
</event>
<event>
 5   0  0.7362817E-08  0.3692127E+04  0.7818609E-02  0.8069709E-01
       -2   -1    0    0    0  501  0.00000000000E+00  0.00000000000E+00  0.24733376055E+04  0.24733376055E+04  0.25500000920E-02 0.  1.
        2   -1    0    0  501    0  0.00000000000E+00  0.00000000000E+00 -0.13778752395E+04  0.13778752395E+04  0.25500000920E-02 0. -1.
    10030    2    1    2    0    0  0.00000000000E+00  0.00000000000E+00  0.10954623660E+04  0.38512128449E+04  0.36921271080E+04 0.  0.
        1    1    3    3  502    0  0.59721287702E+02  0.18340302024E+04  0.33725159303E+03  0.18657363299E+04  0.50400001928E-02 0. -1.
       -1    1    3    3    0  502 -0.59721287702E+02 -0.18340302024E+04  0.75821077299E+03  0.19854765151E+04  0.50400001928E-02 0.  1.
</event>
<event>
 5   0  0.7362817E-08  0.3693899E+04  0.7818609E-02  0.8069315E-01
        2   -1    0    0  501    0  0.00000000000E+00  0.00000000000E+00  0.23261924722E+04  0.23261924722E+04  0.25500000920E-02 0.  1.
       -2   -1    0    0    0  501  0.00000000000E+00  0.00000000000E+00 -0.14664399482E+04  0.14664399482E+04  0.25500000920E-02 0. -1.
    10030    2    1    2    0    0  0.00000000000E+00  0.00000000000E+00  0.85975252405E+03  0.37926324204E+04  0.36938985197E+04 0.  0.
        1    1    3    3  502    0 -0.13041750556E+04  0.11418389499E+04 -0.22478142851E+03  0.17479117408E+04  0.50400001928E-02 0. -1.
       -1    1    3    3    0  502  0.13041750556E+04 -0.11418389499E+04  0.10845339526E+04  0.20447206796E+04  0.50400001928E-02 0.  1.
</event>
<event>
 5   0  0.2282000E-08  0.3695358E+04  0.7818609E-02  0.8068991E-01
        1   -1    0    0  501    0  0.00000000000E+00  0.00000000000E+00  0.24141507873E+04  0.24141507873E+04  0.50400001928E-02 0. -1.
       -1   -1    0    0    0  501  0.00000000000E+00  0.00000000000E+00 -0.14141279040E+04  0.14141279040E+04  0.50400001928E-02 0.  1.
    10030    2    1    2    0    0  0.00000000000E+00  0.00000000000E+00  0.10000228833E+04  0.38282786913E+04  0.36953581655E+04 0.  0.
        2    1    3    3  502    0  0.11619499752E+04  0.10694559081E+04 -0.49368501187E+03  0.16545659779E+04  0.25500000920E-02 0.  1.
       -2    1    3    3    0  502 -0.11619499752E+04 -0.10694559081E+04  0.14937078952E+04  0.21737127134E+04  0.25500000920E-02 0. -1.
</event>
<event>
 5   0  0.7254493E-08  0.3691743E+04  0.7818609E-02  0.8069794E-01
        2   -1    0    0  501    0  0.00000000000E+00  0.00000000000E+00  0.23270799862E+04  0.23270799862E+04  0.25500000920E-02 0. -1.
       -2   -1    0    0    0  501  0.00000000000E+00  0.00000000000E+00 -0.14641700605E+04  0.14641700605E+04  0.25500000920E-02 0.  1.
    10030    2    1    2    0    0  0.00000000000E+00  0.00000000000E+00  0.86290992566E+03  0.37912500467E+04  0.36917425935E+04 0.  0.
        3    1    3    3  502    0  0.91390282539E+03 -0.15997113001E+04  0.54830327512E+03  0.19222203592E+04  0.10100000352E+00 0. -1.
       -3    1    3    3    0  502 -0.91390282539E+03  0.15997113001E+04  0.31460665054E+03  0.18690296874E+04  0.10100000352E+00 0.  1.
</event>
<event>
 5   0  0.2282000E-08  0.3736329E+04  0.7818609E-02  0.8059958E-01
       -1   -1    0    0    0  501  0.00000000000E+00  0.00000000000E+00  0.15460918920E+04  0.15460918920E+04  0.50400001928E-02 0. -1.
        1   -1    0    0  501    0  0.00000000000E+00  0.00000000000E+00 -0.22573295899E+04  0.22573295899E+04  0.50400001928E-02 0.  1.
    10030    2    1    2    0    0  0.00000000000E+00  0.00000000000E+00 -0.71123769793E+03  0.38034214819E+04  0.37363292021E+04 0.  0.
        4    1    3    3  502    0 -0.10955382856E+04  0.12699512710E+04 -0.11932290086E+04  0.20583433741E+04  0.12699999809E+01 0.  1.
       -4    1    3    3    0  502  0.10955382856E+04 -0.12699512710E+04  0.48199131062E+03  0.17450781078E+04  0.12699999809E+01 0. -1.
</event>
<event>
 5   0  0.2282000E-08  0.3696191E+04  0.7818609E-02  0.8068806E-01
        1   -1    0    0  501    0  0.00000000000E+00  0.00000000000E+00  0.15983453571E+04  0.15983453571E+04  0.50400001928E-02 0. -1.
       -1   -1    0    0    0  501  0.00000000000E+00  0.00000000000E+00 -0.21368704768E+04  0.21368704768E+04  0.50400001928E-02 0.  1.
    10030    2    1    2    0    0  0.00000000000E+00  0.00000000000E+00 -0.53852511978E+03  0.37352158339E+04  0.36961910152E+04 0.  0.
        1    1    3    3  502    0  0.15191961325E+04 -0.26171016994E+03 -0.12993420035E+04  0.20161197247E+04  0.50400001928E-02 0.  1.
       -1    1    3    3    0  502 -0.15191961325E+04  0.26171016994E+03  0.76081688375E+03  0.17190961092E+04  0.50400001928E-02 0. -1.
</event>
<event>
 5   0  0.2282000E-08  0.3687283E+04  0.7818609E-02  0.8070786E-01
       -1   -1    0    0    0  501  0.00000000000E+00  0.00000000000E+00  0.13504060746E+04  0.13504060746E+04  0.50400001928E-02 0.  1.
        1   -1    0    0  501    0  0.00000000000E+00  0.00000000000E+00 -0.25170310227E+04  0.25170310227E+04  0.50400001928E-02 0. -1.
    10030    2    1    2    0    0  0.00000000000E+00  0.00000000000E+00 -0.11666249481E+04  0.38674370973E+04  0.36872830013E+04 0.  0.
        5    1    3    3  502    0 -0.11918222031E+04 -0.11719354242E+04  0.23258805502E+03  0.16875995069E+04  0.46999998093E+01 0.  1.
       -5    1    3    3    0  502  0.11918222031E+04  0.11719354242E+04 -0.13992130031E+04  0.21798375904E+04  0.46999998093E+01 0. -1.
</event>
<event>
 5   0  0.7203049E-08  0.3713186E+04  0.7818609E-02  0.8065046E-01
       -2   -1    0    0    0  501  0.00000000000E+00  0.00000000000E+00  0.14042699736E+04  0.14042699736E+04  0.25500000920E-02 0.  1.
        2   -1    0    0  501    0  0.00000000000E+00  0.00000000000E+00 -0.24546117868E+04  0.24546117868E+04  0.25500000920E-02 0. -1.
    10030    2    1    2    0    0  0.00000000000E+00  0.00000000000E+00 -0.10503418132E+04  0.38588817604E+04  0.37131860331E+04 0.  0.
        4    1    3    3  502    0 -0.61534979251E+03  0.99985479252E+03 -0.20198569655E+04  0.23362766846E+04  0.12699999809E+01 0. -1.
       -4    1    3    3    0  502  0.61534979251E+03 -0.99985479252E+03  0.96951515230E+03  0.15226050758E+04  0.12699999809E+01 0.  1.
</event>
<event>
 5   0  0.2282000E-08  0.3698598E+04  0.7818609E-02  0.8068273E-01
        1   -1    0    0  501    0  0.00000000000E+00  0.00000000000E+00  0.15892130841E+04  0.15892130841E+04  0.50400001928E-02 0.  1.
       -1   -1    0    0    0  501  0.00000000000E+00  0.00000000000E+00 -0.21519500713E+04  0.21519500713E+04  0.50400001928E-02 0. -1.
    10030    2    1    2    0    0  0.00000000000E+00  0.00000000000E+00 -0.56273698719E+03  0.37411631555E+04  0.36985982262E+04 0.  0.
        4    1    3    3  502    0 -0.80645154687E+03 -0.16501046701E+04 -0.62788861609E+02  0.18377033422E+04  0.12699999809E+01 0.  1.
       -4    1    3    3    0  502  0.80645154687E+03  0.16501046701E+04 -0.49994812559E+03  0.19034598133E+04  0.12699999809E+01 0. -1.
</event>
<event>
 5   0  0.7309833E-08  0.3696422E+04  0.7818609E-02  0.8068755E-01
       -2   -1    0    0    0  501  0.00000000000E+00  0.00000000000E+00  0.18399738502E+04  0.18399738502E+04  0.25500000920E-02 0. -1.
        2   -1    0    0  501    0  0.00000000000E+00  0.00000000000E+00 -0.18564845600E+04  0.18564845600E+04  0.25500000920E-02 0.  1.
    10030    2    1    2    0    0  0.00000000000E+00  0.00000000000E+00 -0.16510709793E+02  0.36964584103E+04  0.36964215365E+04 0.  0.
        2    1    3    3  502    0  0.16800655085E+04 -0.55018164129E+03  0.53078906772E+03  0.18458214935E+04  0.25500000920E-02 0.  1.
       -2    1    3    3    0  502 -0.16800655085E+04  0.55018164129E+03 -0.54729977751E+03  0.18506369168E+04  0.25500000920E-02 0. -1.
</event>
<event>
 5   0  0.7362817E-08  0.3705522E+04  0.7818609E-02  0.8066739E-01
        2   -1    0    0  501    0  0.00000000000E+00  0.00000000000E+00  0.25670746506E+04  0.25670746506E+04  0.25500000920E-02 0. -1.
       -2   -1    0    0    0  501  0.00000000000E+00  0.00000000000E+00 -0.13372117768E+04  0.13372117768E+04  0.25500000920E-02 0.  1.
    10030    2    1    2    0    0  0.00000000000E+00  0.00000000000E+00  0.12298628738E+04  0.39042864274E+04  0.37055215313E+04 0.  0.
        1    1    3    3  502    0  0.39149853854E+02 -0.18013951129E+04  0.16031848662E+03  0.18089386615E+04  0.50400001928E-02 0.  1.
       -1    1    3    3    0  502 -0.39149853854E+02  0.18013951129E+04  0.10695443872E+04  0.20953477659E+04  0.50400001928E-02 0. -1.
</event>
<event>
 5   0  0.7191801E-08  0.3694040E+04  0.7818609E-02  0.8069284E-01
        2   -1    0    0  501    0  0.00000000000E+00  0.00000000000E+00  0.22795991780E+04  0.22795991780E+04  0.25500000920E-02 0.  1.
       -2   -1    0    0    0  501  0.00000000000E+00  0.00000000000E+00 -0.14965273399E+04  0.14965273399E+04  0.25500000920E-02 0. -1.
    10030    2    1    2    0    0  0.00000000000E+00  0.00000000000E+00  0.78307183808E+03  0.37761265179E+04  0.36940397907E+04 0.  0.
        5    1    3    3  502    0 -0.12600335681E+04  0.49211148311E+03 -0.89402773081E+03  0.16214703136E+04  0.46999998093E+01 0. -1.
       -5    1    3    3    0  502  0.12600335681E+04 -0.49211148311E+03  0.16770995689E+04  0.21546562043E+04  0.46999998093E+01 0.  1.
</event>
<event>
 5   0  0.2282000E-08  0.3693614E+04  0.7818609E-02  0.8069378E-01
       -1   -1    0    0    0  501  0.00000000000E+00  0.00000000000E+00  0.23693272061E+04  0.23693272061E+04  0.50400001928E-02 0.  1.
        1   -1    0    0  501    0  0.00000000000E+00  0.00000000000E+00 -0.14395210212E+04  0.14395210212E+04  0.50400001928E-02 0. -1.
    10030    2    1    2    0    0  0.00000000000E+00  0.00000000000E+00  0.92980618490E+03  0.38088482274E+04  0.36936141214E+04 0.  0.
        2    1    3    3  502    0 -0.57936558245E+03 -0.13006137925E+03  0.22682077919E+04  0.23446421961E+04  0.25500000920E-02 0.  1.
       -2    1    3    3    0  502  0.57936558245E+03  0.13006137925E+03 -0.13384016070E+04  0.14642060313E+04  0.25500000920E-02 0. -1.
</event>
<event>
 5   0  0.2282000E-08  0.3692868E+04  0.7818609E-02  0.8069544E-01
       -1   -1    0    0    0  501  0.00000000000E+00  0.00000000000E+00  0.17558009671E+04  0.17558009671E+04  0.50400001928E-02 0. -1.
        1   -1    0    0  501    0  0.00000000000E+00  0.00000000000E+00 -0.19417454001E+04  0.19417454001E+04  0.50400001928E-02 0.  1.
    10030    2    1    2    0    0  0.00000000000E+00  0.00000000000E+00 -0.18594443295E+03  0.36975463672E+04  0.36928679648E+04 0.  0.
        4    1    3    3  502    0 -0.75067211177E+03  0.80706279469E+03 -0.15762191934E+04  0.19233635986E+04  0.12699999809E+01 0.  1.
       -4    1    3    3    0  502  0.75067211177E+03 -0.80706279469E+03  0.13902747604E+04  0.17741827686E+04  0.12699999809E+01 0. -1.
</event>
<event>
 5   0  0.7203049E-08  0.3603074E+04  0.7818609E-02  0.8089788E-01
        2   -1    0    0  501    0  0.00000000000E+00  0.00000000000E+00  0.16896609404E+04  0.16896609404E+04  0.25500000920E-02 0. -1.
       -2   -1    0    0    0  501  0.00000000000E+00  0.00000000000E+00 -0.19208203444E+04  0.19208203444E+04  0.25500000920E-02 0.  1.
    10030    2    1    2    0    0  0.00000000000E+00  0.00000000000E+00 -0.23115940395E+03  0.36104812848E+04  0.36030737486E+04 0.  0.
        4    1    3    3  502    0  0.56737972853E+03  0.54124525422E+03  0.15096880231E+04  0.17011836237E+04  0.12699999809E+01 0. -1.
       -4    1    3    3    0  502 -0.56737972853E+03 -0.54124525422E+03 -0.17408474270E+04  0.19092976611E+04  0.12699999809E+01 0.  1.
</event>
<event>
 5   0  0.7254493E-08  0.3732389E+04  0.7818609E-02  0.8060822E-01
       -2   -1    0    0    0  501  0.00000000000E+00  0.00000000000E+00  0.23391497628E+04  0.23391497628E+04  0.25500000920E-02 0. -1.
        2   -1    0    0  501    0  0.00000000000E+00  0.00000000000E+00 -0.14888664846E+04  0.14888664846E+04  0.25500000920E-02 0.  1.
    10030    2    1    2    0    0  0.00000000000E+00  0.00000000000E+00  0.85028327826E+03  0.38280162474E+04  0.37323888781E+04 0.  0.
        3    1    3    3  502    0 -0.12392837289E+04 -0.43598715266E+03 -0.93425025119E+03  0.16120584667E+04  0.10100000352E+00 0.  1.
       -3    1    3    3    0  502  0.12392837289E+04  0.43598715266E+03  0.17845335294E+04  0.22159577807E+04  0.10100000352E+00 0. -1.
</event>
<event>
 5   0  0.2282000E-08  0.3695357E+04  0.7818609E-02  0.8068992E-01
        1   -1    0    0  501    0  0.00000000000E+00  0.00000000000E+00  0.10236688002E+04  0.10236688003E+04  0.50400001928E-02 0. -1.
       -1   -1    0    0    0  501  0.00000000000E+00  0.00000000000E+00 -0.33349800380E+04  0.33349800380E+04  0.50400001928E-02 0.  1.
    10030    2    1    2    0    0  0.00000000000E+00  0.00000000000E+00 -0.23113112377E+04  0.43586488383E+04  0.36953565535E+04 0.  0.
        1    1    3    3  502    0 -0.41654044948E+02 -0.16197599695E+04 -0.10825640874E+03  0.16239079002E+04  0.50400001928E-02 0. -1.
       -1    1    3    3    0  502  0.41654044948E+02  0.16197599695E+04 -0.22030548290E+04  0.27347409380E+04  0.50400001928E-02 0.  1.
</event>
<event>
 5   0  0.2282000E-08  0.3705071E+04  0.7818609E-02  0.8066839E-01
        1   -1    0    0  501    0  0.00000000000E+00  0.00000000000E+00  0.18305085139E+04  0.18305085139E+04  0.50400001928E-02 0. -1.
       -1   -1    0    0    0  501  0.00000000000E+00  0.00000000000E+00 -0.18748273198E+04  0.18748273199E+04  0.50400001928E-02 0.  1.
    10030    2    1    2    0    0  0.00000000000E+00  0.00000000000E+00 -0.44318805971E+02  0.37053358337E+04  0.37050707799E+04 0.  0.
        3    1    3    3  502    0  0.49842326786E+03  0.64566196399E+03  0.16412641996E+04  0.18327720286E+04  0.10100000352E+00 0. -1.
       -3    1    3    3    0  502 -0.49842326786E+03 -0.64566196399E+03 -0.16855830055E+04  0.18725638052E+04  0.10100000352E+00 0.  1.
</event>
<event>
 5   0  0.2282000E-08  0.3702648E+04  0.7818609E-02  0.8067375E-01
        1   -1    0    0  501    0  0.00000000000E+00  0.00000000000E+00  0.14388102543E+04  0.14388102543E+04  0.50400001928E-02 0.  1.
       -1   -1    0    0    0  501  0.00000000000E+00  0.00000000000E+00 -0.23821078982E+04  0.23821078982E+04  0.50400001928E-02 0. -1.
    10030    2    1    2    0    0  0.00000000000E+00  0.00000000000E+00 -0.94329764395E+03  0.38209181525E+04  0.37026483877E+04 0.  0.
        2    1    3    3  502    0 -0.37814687111E+03 -0.14268931451E+04  0.68135046979E+03  0.16258098187E+04  0.25500000920E-02 0.  1.
       -2    1    3    3    0  502  0.37814687111E+03  0.14268931451E+04 -0.16246481137E+04  0.21951083338E+04  0.25500000920E-02 0. -1.
</event>
<event>
 5   0  0.2282000E-08  0.3700808E+04  0.7818609E-02  0.8067783E-01
        1   -1    0    0  501    0  0.00000000000E+00  0.00000000000E+00  0.13299567681E+04  0.13299567681E+04  0.50400001928E-02 0.  1.
       -1   -1    0    0    0  501  0.00000000000E+00  0.00000000000E+00 -0.25745163875E+04  0.25745163875E+04  0.50400001928E-02 0. -1.
    10030    2    1    2    0    0  0.00000000000E+00  0.00000000000E+00 -0.12445596194E+04  0.39044731556E+04  0.37008082869E+04 0.  0.
        2    1    3    3  502    0 -0.33078321673E+03 -0.18147290280E+04 -0.77638865663E+03  0.20013591201E+04  0.25500000920E-02 0. -1.
       -2    1    3    3    0  502  0.33078321673E+03  0.18147290280E+04 -0.46817096278E+03  0.19031140354E+04  0.25500000920E-02 0.  1.
</event>
<event>
 5   0  0.7191801E-08  0.3678156E+04  0.7818609E-02  0.8072820E-01
        2   -1    0    0  501    0  0.00000000000E+00  0.00000000000E+00  0.17098909958E+04  0.17098909958E+04  0.25500000920E-02 0. -1.
       -2   -1    0    0    0  501  0.00000000000E+00  0.00000000000E+00 -0.19780249953E+04  0.19780249953E+04  0.25500000920E-02 0.  1.
    10030    2    1    2    0    0  0.00000000000E+00  0.00000000000E+00 -0.26813399950E+03  0.36879159911E+04  0.36781555861E+04 0.  0.
        5    1    3    3  502    0 -0.15164751728E+04 -0.71149977626E+03  0.62706277757E+03  0.17886192156E+04  0.46999998093E+01 0. -1.
       -5    1    3    3    0  502  0.15164751728E+04  0.71149977626E+03 -0.89519677707E+03  0.18992967754E+04  0.46999998093E+01 0.  1.
</event>
<event>
 5   0  0.2282000E-08  0.3698263E+04  0.7818609E-02  0.8068347E-01
       -1   -1    0    0    0  501  0.00000000000E+00  0.00000000000E+00  0.23849947595E+04  0.23849947595E+04  0.50400001928E-02 0. -1.
        1   -1    0    0  501    0  0.00000000000E+00  0.00000000000E+00 -0.14336664648E+04  0.14336664648E+04  0.50400001928E-02 0.  1.
    10030    2    1    2    0    0  0.00000000000E+00  0.00000000000E+00  0.95132829470E+03  0.38186612244E+04  0.36982628385E+04 0.  0.
        5    1    3    3  502    0  0.53587678102E+03 -0.51608560939E+03 -0.12723019741E+04  0.14738665760E+04  0.46999998093E+01 0.  1.
       -5    1    3    3    0  502 -0.53587678102E+03  0.51608560939E+03  0.22236302688E+04  0.23447946484E+04  0.46999998093E+01 0. -1.
</event>
<event>
 5   0  0.2282000E-08  0.3694623E+04  0.7818609E-02  0.8069154E-01
        1   -1    0    0  501    0  0.00000000000E+00  0.00000000000E+00  0.18558792267E+04  0.18558792267E+04  0.50400001928E-02 0.  1.
       -1   -1    0    0    0  501  0.00000000000E+00  0.00000000000E+00 -0.18387834831E+04  0.18387834831E+04  0.50400001928E-02 0. -1.
    10030    2    1    2    0    0  0.00000000000E+00  0.00000000000E+00  0.17095743577E+02  0.36946627099E+04  0.36946231574E+04 0.  0.
        3    1    3    3  502    0 -0.94095574809E+03 -0.14674553805E+04 -0.60279904048E+03  0.18445025635E+04  0.10100000352E+00 0. -1.
       -3    1    3    3    0  502  0.94095574809E+03  0.14674553805E+04  0.61989478405E+03  0.18501601463E+04  0.10100000352E+00 0.  1.
</event>
<event>
 5   0  0.2282000E-08  0.3691462E+04  0.7818609E-02  0.8069857E-01
       -1   -1    0    0    0  501  0.00000000000E+00  0.00000000000E+00  0.14545326902E+04  0.14545326902E+04  0.50400001928E-02 0.  1.
        1   -1    0    0  501    0  0.00000000000E+00  0.00000000000E+00 -0.23421428996E+04  0.23421428996E+04  0.50400001928E-02 0. -1.
    10030    2    1    2    0    0  0.00000000000E+00  0.00000000000E+00 -0.88761020939E+03  0.37966755898E+04  0.36914622645E+04 0.  0.
        5    1    3    3  502    0  0.17432392591E+04 -0.37650924300E+03  0.45202886205E+02  0.17840144942E+04  0.46999998093E+01 0.  1.
       -5    1    3    3    0  502 -0.17432392591E+04  0.37650924300E+03 -0.93281309559E+03  0.20126610956E+04  0.46999998093E+01 0. -1.
</event>
<event>
 5   0  0.2282000E-08  0.3701852E+04  0.7818609E-02  0.8067552E-01
       -1   -1    0    0    0  501  0.00000000000E+00  0.00000000000E+00  0.16455617604E+04  0.16455617604E+04  0.50400001928E-02 0.  1.
        1   -1    0    0  501    0  0.00000000000E+00  0.00000000000E+00 -0.20819190481E+04  0.20819190481E+04  0.50400001928E-02 0. -1.
    10030    2    1    2    0    0  0.00000000000E+00  0.00000000000E+00 -0.43635728765E+03  0.37274808085E+04  0.37018516307E+04 0.  0.
        1    1    3    3  502    0 -0.90808950542E+03 -0.12033273410E+04 -0.12995332734E+04  0.19903291105E+04  0.50400001928E-02 0. -1.
       -1    1    3    3    0  502  0.90808950542E+03  0.12033273410E+04  0.86317598576E+03  0.17371516980E+04  0.50400001928E-02 0.  1.
</event>
<event>
 5   0  0.7309833E-08  0.3704300E+04  0.7818609E-02  0.8067010E-01
       -2   -1    0    0    0  501  0.00000000000E+00  0.00000000000E+00  0.12937474001E+04  0.12937474001E+04  0.25500000920E-02 0. -1.
        2   -1    0    0  501    0  0.00000000000E+00  0.00000000000E+00 -0.26515678014E+04  0.26515678014E+04  0.25500000920E-02 0.  1.
    10030    2    1    2    0    0  0.00000000000E+00  0.00000000000E+00 -0.13578204013E+04  0.39453152015E+04  0.37042996365E+04 0.  0.
        2    1    3    3  502    0  0.76095540135E+03  0.23198474876E+03 -0.24603352102E+04  0.25857531578E+04  0.25500000920E-02 0.  1.
       -2    1    3    3    0  502 -0.76095540135E+03 -0.23198474876E+03  0.11025148090E+04  0.13595620436E+04  0.25500000920E-02 0. -1.
</event>
<event>
 5   0  0.7362817E-08  0.3702896E+04  0.7818609E-02  0.8067320E-01
        2   -1    0    0  501    0  0.00000000000E+00  0.00000000000E+00  0.25913876755E+04  0.25913876755E+04  0.25500000920E-02 0. -1.
       -2   -1    0    0    0  501  0.00000000000E+00  0.00000000000E+00 -0.13227892144E+04  0.13227892144E+04  0.25500000920E-02 0.  1.
    10030    2    1    2    0    0  0.00000000000E+00  0.00000000000E+00  0.12685984611E+04  0.39141768899E+04  0.37028959842E+04 0.  0.
        1    1    3    3  502    0  0.53129467348E+03  0.80368251087E+03 -0.10369497239E+04  0.14154307960E+04  0.50400001928E-02 0.  1.
       -1    1    3    3    0  502 -0.53129467348E+03 -0.80368251087E+03  0.23055481850E+04  0.24987460939E+04  0.50400001928E-02 0. -1.
</event>
<event>
 5   0  0.2282000E-08  0.3707439E+04  0.7818609E-02  0.8066315E-01
       -3   -1    0    0    0  501  0.00000000000E+00  0.00000000000E+00  0.26842866554E+04  0.26842866573E+04  0.10100000352E+00 0.  1.
        3   -1    0    0  501    0  0.00000000000E+00  0.00000000000E+00 -0.12801447833E+04  0.12801447873E+04  0.10100000352E+00 0. -1.
    10030    2    1    2    0    0  0.00000000000E+00  0.00000000000E+00  0.14041418721E+04  0.39644314446E+04  0.37074387765E+04 0.  0.
        1    1    3    3  502    0  0.88894942328E+03  0.15399446758E+04  0.14170856527E+03  0.17837438154E+04  0.50400001928E-02 0.  1.
       -1    1    3    3    0  502 -0.88894942328E+03 -0.15399446758E+04  0.12624333068E+04  0.21806876291E+04  0.50400001928E-02 0. -1.
</event>
<event>
 5   0  0.2282000E-08  0.3701978E+04  0.7818609E-02  0.8067524E-01
       -1   -1    0    0    0  501  0.00000000000E+00  0.00000000000E+00  0.25300578956E+04  0.25300578956E+04  0.50400001928E-02 0. -1.
        1   -1    0    0  501    0  0.00000000000E+00  0.00000000000E+00 -0.13541828143E+04  0.13541828143E+04  0.50400001928E-02 0.  1.
    10030    2    1    2    0    0  0.00000000000E+00  0.00000000000E+00  0.11758750813E+04  0.38842407099E+04  0.37019783475E+04 0.  0.
        2    1    3    3  502    0  0.31082766775E+03  0.17152787398E+04  0.12409672955E+04  0.21398118662E+04  0.25500000920E-02 0. -1.
       -2    1    3    3    0  502 -0.31082766775E+03 -0.17152787398E+04 -0.65092214189E+02  0.17444288437E+04  0.25500000920E-02 0.  1.
</event>
<event>
 5   0  0.2282000E-08  0.3689393E+04  0.7818609E-02  0.8070316E-01
       -1   -1    0    0    0  501  0.00000000000E+00  0.00000000000E+00  0.19795296655E+04  0.19795296655E+04  0.50400001928E-02 0.  1.
        1   -1    0    0  501    0  0.00000000000E+00  0.00000000000E+00 -0.17190477656E+04  0.17190477656E+04  0.50400001928E-02 0. -1.
    10030    2    1    2    0    0  0.00000000000E+00  0.00000000000E+00  0.26048189995E+03  0.36985774311E+04  0.36893934723E+04 0.  0.
        3    1    3    3  502    0 -0.12137313696E+04 -0.12331750063E+04 -0.51091471201E+03  0.18041336666E+04  0.10100000352E+00 0. -1.
       -3    1    3    3    0  502  0.12137313696E+04  0.12331750063E+04  0.77139661196E+03  0.18944437645E+04  0.10100000352E+00 0.  1.
</event>
<event>
 5   0  0.7309833E-08  0.3698431E+04  0.7818609E-02  0.8068310E-01
        2   -1    0    0  501    0  0.00000000000E+00  0.00000000000E+00  0.17209839540E+04  0.17209839540E+04  0.25500000920E-02 0. -1.
       -2   -1    0    0    0  501  0.00000000000E+00  0.00000000000E+00 -0.19870017465E+04  0.19870017465E+04  0.25500000920E-02 0.  1.
    10030    2    1    2    0    0  0.00000000000E+00  0.00000000000E+00 -0.26601779247E+03  0.37079857005E+04  0.36984310848E+04 0.  0.
        2    1    3    3  502    0 -0.35675065220E+02 -0.61797556624E+03 -0.18800465769E+04  0.19793285836E+04  0.25500000920E-02 0.  1.
       -2    1    3    3    0  502  0.35675065220E+02  0.61797556624E+03  0.16140287844E+04  0.17286571168E+04  0.25500000920E-02 0. -1.
</event>
<event>
 5   0  0.7362817E-08  0.3730448E+04  0.7818609E-02  0.8061247E-01
        2   -1    0    0  501    0  0.00000000000E+00  0.00000000000E+00  0.20721452174E+04  0.20721452174E+04  0.25500000920E-02 0. -1.
       -2   -1    0    0    0  501  0.00000000000E+00  0.00000000000E+00 -0.16789659722E+04  0.16789659722E+04  0.25500000920E-02 0.  1.
    10030    2    1    2    0    0  0.00000000000E+00  0.00000000000E+00  0.39317924524E+03  0.37511111896E+04  0.37304483963E+04 0.  0.
        1    1    3    3  502    0  0.10527183435E+04 -0.73264493061E+03 -0.11651925990E+04  0.17328180221E+04  0.50400001928E-02 0.  1.
       -1    1    3    3    0  502 -0.10527183435E+04  0.73264493061E+03  0.15583718442E+04  0.20182931675E+04  0.50400001928E-02 0. -1.
</event>
<event>
 5   0  0.2282000E-08  0.3711462E+04  0.7818609E-02  0.8065426E-01
        1   -1    0    0  501    0  0.00000000000E+00  0.00000000000E+00  0.29736831797E+04  0.29736831797E+04  0.50400001928E-02 0.  1.
       -1   -1    0    0    0  501  0.00000000000E+00  0.00000000000E+00 -0.11580717063E+04  0.11580717063E+04  0.50400001928E-02 0. -1.
    10030    2    1    2    0    0  0.00000000000E+00  0.00000000000E+00  0.18156114734E+04  0.41317548860E+04  0.37114624363E+04 0.  0.
        1    1    3    3  502    0  0.10118518327E+03  0.72222323708E+03  0.28074716239E+04  0.29006450600E+04  0.50400001928E-02 0.  1.
       -1    1    3    3    0  502 -0.10118518327E+03 -0.72222323708E+03 -0.99186015051E+03  0.12311098260E+04  0.50400001928E-02 0. -1.
</event>
<event>
 5   0  0.7309833E-08  0.3697530E+04  0.7818609E-02  0.8068509E-01
       -2   -1    0    0    0  501  0.00000000000E+00  0.00000000000E+00  0.11581338323E+04  0.11581338323E+04  0.25500000920E-02 0. -1.
        2   -1    0    0  501    0  0.00000000000E+00  0.00000000000E+00 -0.29512417769E+04  0.29512417769E+04  0.25500000920E-02 0.  1.
    10030    2    1    2    0    0  0.00000000000E+00  0.00000000000E+00 -0.17931079446E+04  0.41093756092E+04  0.36975304997E+04 0.  0.
        2    1    3    3  502    0 -0.13709983493E+04  0.10375529511E+04 -0.16517884321E+04  0.23842310342E+04  0.25500000920E-02 0.  1.
       -2    1    3    3    0  502  0.13709983493E+04 -0.10375529511E+04 -0.14131951253E+03  0.17251445750E+04  0.25500000920E-02 0. -1.
</event>
<event>
 5   0  0.2282000E-08  0.3692222E+04  0.7818609E-02  0.8069688E-01
        1   -1    0    0  501    0  0.00000000000E+00  0.00000000000E+00  0.13889260502E+04  0.13889260502E+04  0.50400001928E-02 0.  1.
       -1   -1    0    0    0  501  0.00000000000E+00  0.00000000000E+00 -0.24537855641E+04  0.24537855642E+04  0.50400001928E-02 0. -1.
    10030    2    1    2    0    0  0.00000000000E+00  0.00000000000E+00 -0.10648595140E+04  0.38427116143E+04  0.36922224698E+04 0.  0.
        4    1    3    3  502    0 -0.29615129623E+03 -0.11978860964E+04  0.89666775505E+03  0.15253364763E+04  0.12699999809E+01 0.  1.
       -4    1    3    3    0  502  0.29615129623E+03  0.11978860964E+04 -0.19615272690E+04  0.23173751380E+04  0.12699999809E+01 0. -1.
</event>
<event>
 5   0  0.2282000E-08  0.3701452E+04  0.7818609E-02  0.8067640E-01
       -1   -1    0    0    0  501  0.00000000000E+00  0.00000000000E+00  0.24315406074E+04  0.24315406074E+04  0.50400001928E-02 0.  1.
        1   -1    0    0  501    0  0.00000000000E+00  0.00000000000E+00 -0.14086491302E+04  0.14086491302E+04  0.50400001928E-02 0. -1.
    10030    2    1    2    0    0  0.00000000000E+00  0.00000000000E+00  0.10228914772E+04  0.38401897376E+04  0.37014524509E+04 0.  0.
        3    1    3    3  502    0  0.11371378147E+04 -0.12862347920E+04  0.12285139879E+04  0.21110966293E+04  0.10100000352E+00 0.  1.
       -3    1    3    3    0  502 -0.11371378147E+04  0.12862347920E+04 -0.20562251072E+03  0.17290931082E+04  0.10100000352E+00 0. -1.
</event>
<event>
 5   0  0.7191801E-08  0.3698931E+04  0.7818609E-02  0.8068199E-01
        2   -1    0    0  501    0  0.00000000000E+00  0.00000000000E+00  0.28649149856E+04  0.28649149856E+04  0.25500000920E-02 0. -1.
       -2   -1    0    0    0  501  0.00000000000E+00  0.00000000000E+00 -0.11939348390E+04  0.11939348390E+04  0.25500000920E-02 0.  1.
    10030    2    1    2    0    0  0.00000000000E+00  0.00000000000E+00  0.16709801466E+04  0.40588498246E+04  0.36989305547E+04 0.  0.
        5    1    3    3  502    0 -0.13346477292E+04  0.85967425829E+01 -0.56937623067E+03  0.14510581818E+04  0.46999998093E+01 0.  1.
       -5    1    3    3    0  502  0.13346477292E+04 -0.85967425829E+01  0.22403563773E+04  0.26077916428E+04  0.46999998093E+01 0. -1.
</event>
<event>
 5   0  0.7309833E-08  0.3707743E+04  0.7818609E-02  0.8066248E-01
        2   -1    0    0  501    0  0.00000000000E+00  0.00000000000E+00  0.11177795759E+04  0.11177795759E+04  0.25500000920E-02 0.  1.
       -2   -1    0    0    0  501  0.00000000000E+00  0.00000000000E+00 -0.30747018449E+04  0.30747018449E+04  0.25500000920E-02 0. -1.
    10030    2    1    2    0    0  0.00000000000E+00  0.00000000000E+00 -0.19569222690E+04  0.41924814207E+04  0.37077426685E+04 0.  0.
        2    1    3    3  502    0 -0.18254321951E+04 -0.17813095979E+03 -0.12837717925E+04  0.22387503999E+04  0.25500000920E-02 0. -1.
       -2    1    3    3    0  502  0.18254321951E+04  0.17813095979E+03 -0.67315047655E+03  0.19537310209E+04  0.25500000920E-02 0.  1.
</event>
<event>
 5   0  0.2282000E-08  0.3704310E+04  0.7818609E-02  0.8067007E-01
        3   -1    0    0  501    0  0.00000000000E+00  0.00000000000E+00  0.13908165396E+04  0.13908165432E+04  0.10100000352E+00 0. -1.
       -3   -1    0    0    0  501  0.00000000000E+00  0.00000000000E+00 -0.24665207714E+04  0.24665207735E+04  0.10100000352E+00 0.  1.
    10030    2    1    2    0    0  0.00000000000E+00  0.00000000000E+00 -0.10757042319E+04  0.38573373167E+04  0.37043098656E+04 0.  0.
        4    1    3    3  502    0  0.10944792139E+04 -0.13659909021E+04 -0.11683916294E+04  0.21045086141E+04  0.12699999809E+01 0. -1.
       -4    1    3    3    0  502 -0.10944792139E+04  0.13659909021E+04  0.92687397546E+02  0.17528287026E+04  0.12699999809E+01 0.  1.
</event>
<event>
 5   0  0.2282000E-08  0.3698921E+04  0.7818609E-02  0.8068201E-01
       -1   -1    0    0    0  501  0.00000000000E+00  0.00000000000E+00  0.24329068507E+04  0.24329068507E+04  0.50400001928E-02 0. -1.
        1   -1    0    0  501    0  0.00000000000E+00  0.00000000000E+00 -0.14059328096E+04  0.14059328096E+04  0.50400001928E-02 0.  1.
    10030    2    1    2    0    0  0.00000000000E+00  0.00000000000E+00  0.10269740411E+04  0.38388396603E+04  0.36989206880E+04 0.  0.
        2    1    3    3  502    0 -0.11436596171E+04  0.10539106213E+04  0.15522572849E+04  0.21973137227E+04  0.25500000920E-02 0. -1.
       -2    1    3    3    0  502  0.11436596171E+04 -0.10539106213E+04 -0.52528324388E+03  0.16415259376E+04  0.25500000920E-02 0.  1.
</event>
<event>
 5   0  0.2282000E-08  0.3699223E+04  0.7818609E-02  0.8068134E-01
        1   -1    0    0  501    0  0.00000000000E+00  0.00000000000E+00  0.26746566691E+04  0.26746566691E+04  0.50400001928E-02 0. -1.
       -1   -1    0    0    0  501  0.00000000000E+00  0.00000000000E+00 -0.12790663686E+04  0.12790663686E+04  0.50400001928E-02 0.  1.
    10030    2    1    2    0    0  0.00000000000E+00  0.00000000000E+00  0.13955903005E+04  0.39537230378E+04  0.36992233742E+04 0.  0.
        1    1    3    3  502    0  0.95630447530E+02 -0.87226148789E+03 -0.10424360403E+04  0.13625924497E+04  0.50400001928E-02 0.  1.
       -1    1    3    3    0  502 -0.95630447530E+02  0.87226148789E+03  0.24380263408E+04  0.25911305881E+04  0.50400001928E-02 0. -1.
</event>
<event>
 5   0  0.7309833E-08  0.3697416E+04  0.7818609E-02  0.8068535E-01
        2   -1    0    0  501    0  0.00000000000E+00  0.00000000000E+00  0.26431009651E+04  0.26431009651E+04  0.25500000920E-02 0.  1.
       -2   -1    0    0    0  501  0.00000000000E+00  0.00000000000E+00 -0.12930722745E+04  0.12930722745E+04  0.25500000920E-02 0. -1.
    10030    2    1    2    0    0  0.00000000000E+00  0.00000000000E+00  0.13500286906E+04  0.39361732396E+04  0.36974156254E+04 0.  0.
        2    1    3    3  502    0 -0.44126121093E+03 -0.13423265724E+04  0.19441227424E+04  0.24033654155E+04  0.25500000920E-02 0.  1.
       -2    1    3    3    0  502  0.44126121093E+03  0.13423265724E+04 -0.59409405184E+03  0.15328078241E+04  0.25500000920E-02 0. -1.
</event>
<event>
 5   0  0.2282000E-08  0.3697486E+04  0.7818609E-02  0.8068519E-01
        1   -1    0    0  501    0  0.00000000000E+00  0.00000000000E+00  0.17677457212E+04  0.17677457212E+04  0.50400001928E-02 0. -1.
       -1   -1    0    0    0  501  0.00000000000E+00  0.00000000000E+00 -0.19334513993E+04  0.19334513993E+04  0.50400001928E-02 0.  1.
    10030    2    1    2    0    0  0.00000000000E+00  0.00000000000E+00 -0.16570567818E+03  0.37011971205E+04  0.36974858692E+04 0.  0.
        1    1    3    3  502    0 -0.36572656938E+03  0.33998835668E+03  0.16989625894E+04  0.17708251993E+04  0.50400001928E-02 0. -1.
       -1    1    3    3    0  502  0.36572656938E+03 -0.33998835668E+03 -0.18646682676E+04  0.19303719212E+04  0.50400001928E-02 0.  1.
</event>
<event>
 5   0  0.7191801E-08  0.3715176E+04  0.7818609E-02  0.8064607E-01
        2   -1    0    0  501    0  0.00000000000E+00  0.00000000000E+00  0.22233042152E+04  0.22233042152E+04  0.25500000920E-02 0. -1.
       -2   -1    0    0    0  501  0.00000000000E+00  0.00000000000E+00 -0.15520291305E+04  0.15520291305E+04  0.25500000920E-02 0.  1.
    10030    2    1    2    0    0  0.00000000000E+00  0.00000000000E+00  0.67127508475E+03  0.37753333457E+04  0.37151758548E+04 0.  0.
        5    1    3    3  502    0 -0.13268365088E+04  0.80616824575E+03 -0.70078325336E+03  0.17033853409E+04  0.46999998093E+01 0.  1.
       -5    1    3    3    0  502  0.13268365088E+04 -0.80616824575E+03  0.13720583381E+04  0.20719480048E+04  0.46999998093E+01 0. -1.
</event>
<event>
 5   0  0.2282000E-08  0.3704793E+04  0.7818609E-02  0.8066901E-01
       -1   -1    0    0    0  501  0.00000000000E+00  0.00000000000E+00  0.17523060852E+04  0.17523060852E+04  0.50400001928E-02 0. -1.
        1   -1    0    0  501    0  0.00000000000E+00  0.00000000000E+00 -0.19582037800E+04  0.19582037800E+04  0.50400001928E-02 0.  1.
    10030    2    1    2    0    0  0.00000000000E+00  0.00000000000E+00 -0.20589769474E+03  0.37105098652E+04  0.37047927876E+04 0.  0.
        3    1    3    3  502    0  0.24854874614E+03  0.33691770963E+03  0.17042975152E+04  0.17549701002E+04  0.10100000352E+00 0. -1.
       -3    1    3    3    0  502 -0.24854874614E+03 -0.33691770963E+03 -0.19101952099E+04  0.19555397650E+04  0.10100000352E+00 0.  1.
</event>
<event>
 5   0  0.2282000E-08  0.3712165E+04  0.7818609E-02  0.8065271E-01
       -1   -1    0    0    0  501  0.00000000000E+00  0.00000000000E+00  0.15158205305E+04  0.15158205305E+04  0.50400001928E-02 0. -1.
        1   -1    0    0  501    0  0.00000000000E+00  0.00000000000E+00 -0.22727241329E+04  0.22727241329E+04  0.50400001928E-02 0.  1.
    10030    2    1    2    0    0  0.00000000000E+00  0.00000000000E+00 -0.75690360241E+03  0.37885446634E+04  0.37121648135E+04 0.  0.
        5    1    3    3  502    0 -0.99162254076E+03  0.15438770314E+04 -0.93149801058E+02  0.18372725782E+04  0.46999998093E+01 0. -1.
       -5    1    3    3    0  502  0.99162254076E+03 -0.15438770314E+04 -0.66375380135E+03  0.19512720851E+04  0.46999998093E+01 0.  1.
</event>
<event>
 5   0  0.7309833E-08  0.3702425E+04  0.7818609E-02  0.8067425E-01
       -2   -1    0    0    0  501  0.00000000000E+00  0.00000000000E+00  0.22487890842E+04  0.22487890842E+04  0.25500000920E-02 0.  1.
        2   -1    0    0  501    0  0.00000000000E+00  0.00000000000E+00 -0.15239258246E+04  0.15239258246E+04  0.25500000920E-02 0. -1.
    10030    2    1    2    0    0  0.00000000000E+00  0.00000000000E+00  0.72486325961E+03  0.37727149089E+04  0.37024250213E+04 0.  0.
        2    1    3    3  502    0 -0.96703396071E+03 -0.62781545465E+03  0.18382653230E+04  0.21699138978E+04  0.25500000920E-02 0.  1.
       -2    1    3    3    0  502  0.96703396071E+03  0.62781545465E+03 -0.11134020634E+04  0.16028010110E+04  0.25500000920E-02 0. -1.
</event>
<event>
 5   0  0.2282000E-08  0.3706425E+04  0.7818609E-02  0.8066539E-01
        1   -1    0    0  501    0  0.00000000000E+00  0.00000000000E+00  0.17437842992E+04  0.17437842992E+04  0.50400001928E-02 0.  1.
       -1   -1    0    0    0  501  0.00000000000E+00  0.00000000000E+00 -0.19695081577E+04  0.19695081577E+04  0.50400001928E-02 0. -1.
    10030    2    1    2    0    0  0.00000000000E+00  0.00000000000E+00 -0.22572385848E+03  0.37132924570E+04  0.37064254492E+04 0.  0.
        1    1    3    3  502    0  0.76100105963E+03  0.77318185225E+03  0.13924079169E+04  0.17651437892E+04  0.50400001928E-02 0.  1.
       -1    1    3    3    0  502 -0.76100105963E+03 -0.77318185225E+03 -0.16181317754E+04  0.19481486678E+04  0.50400001928E-02 0. -1.
</event>
<event>
 5   0  0.7309833E-08  0.3701526E+04  0.7818609E-02  0.8067624E-01
       -2   -1    0    0    0  501  0.00000000000E+00  0.00000000000E+00  0.17277538592E+04  0.17277538592E+04  0.25500000920E-02 0. -1.
        2   -1    0    0  501    0  0.00000000000E+00  0.00000000000E+00 -0.19825298879E+04  0.19825298879E+04  0.25500000920E-02 0.  1.
    10030    2    1    2    0    0  0.00000000000E+00  0.00000000000E+00 -0.25477602875E+03  0.37102837471E+04  0.37015259906E+04 0.  0.
        2    1    3    3  502    0  0.14826953622E+04  0.57037714463E+03  0.82438899241E+03  0.17897856953E+04  0.25500000920E-02 0. -1.
       -2    1    3    3    0  502 -0.14826953622E+04 -0.57037714463E+03 -0.10791650212E+04  0.19204980518E+04  0.25500000920E-02 0.  1.
</event>
<event>
 5   0  0.2282000E-08  0.3696924E+04  0.7818609E-02  0.8068644E-01
        1   -1    0    0  501    0  0.00000000000E+00  0.00000000000E+00  0.30219931115E+04  0.30219931115E+04  0.50400001928E-02 0.  1.
       -1   -1    0    0    0  501  0.00000000000E+00  0.00000000000E+00 -0.11306486581E+04  0.11306486581E+04  0.50400001928E-02 0. -1.
    10030    2    1    2    0    0  0.00000000000E+00  0.00000000000E+00  0.18913444534E+04  0.41526417696E+04  0.36969243737E+04 0.  0.
        2    1    3    3  502    0  0.17844621607E+04 -0.90372396488E+02  0.41364073450E+03  0.18340040976E+04  0.25500000920E-02 0. -1.
       -2    1    3    3    0  502 -0.17844621607E+04  0.90372396488E+02  0.14777037189E+04  0.23186376719E+04  0.25500000920E-02 0.  1.
</event>
<event>
 5   0  0.2282000E-08  0.3686531E+04  0.7818609E-02  0.8070953E-01
       -1   -1    0    0    0  501  0.00000000000E+00  0.00000000000E+00  0.17954909265E+04  0.17954909265E+04  0.50400001928E-02 0. -1.
        1   -1    0    0  501    0  0.00000000000E+00  0.00000000000E+00 -0.18923113433E+04  0.18923113433E+04  0.50400001928E-02 0.  1.
    10030    2    1    2    0    0  0.00000000000E+00  0.00000000000E+00 -0.96820416739E+02  0.36878022698E+04  0.36865310779E+04 0.  0.
        2    1    3    3  502    0 -0.16353637126E+04 -0.50265406066E+03  0.63779445347E+03  0.18258853584E+04  0.25500000920E-02 0. -1.
       -2    1    3    3    0  502  0.16353637126E+04  0.50265406066E+03 -0.73461487021E+03  0.18619169114E+04  0.25500000920E-02 0.  1.
</event>
<event>
 5   0  0.2282000E-08  0.3704385E+04  0.7818609E-02  0.8066991E-01
       -1   -1    0    0    0  501  0.00000000000E+00  0.00000000000E+00  0.13348399327E+04  0.13348399328E+04  0.50400001928E-02 0.  1.
        1   -1    0    0  501    0  0.00000000000E+00  0.00000000000E+00 -0.25700590097E+04  0.25700590097E+04  0.50400001928E-02 0. -1.
    10030    2    1    2    0    0  0.00000000000E+00  0.00000000000E+00 -0.12352190769E+04  0.39048989424E+04  0.37043851828E+04 0.  0.
        4    1    3    3  502    0 -0.66945667988E+03 -0.20620144707E+03 -0.24250406321E+04  0.25241860001E+04  0.12699999809E+01 0. -1.
       -4    1    3    3    0  502  0.66945667988E+03  0.20620144707E+03  0.11898215552E+04  0.13807129423E+04  0.12699999809E+01 0.  1.
</event>
<event>
 5   0  0.2282000E-08  0.3700470E+04  0.7818609E-02  0.8067858E-01
        1   -1    0    0  501    0  0.00000000000E+00  0.00000000000E+00  0.14723755544E+04  0.14723755545E+04  0.50400001928E-02 0.  1.
       -1   -1    0    0    0  501  0.00000000000E+00  0.00000000000E+00 -0.23250651253E+04  0.23250651253E+04  0.50400001928E-02 0. -1.
    10030    2    1    2    0    0  0.00000000000E+00  0.00000000000E+00 -0.85268957090E+03  0.37974406798E+04  0.37004697286E+04 0.  0.
        4    1    3    3  502    0 -0.51426706204E+03  0.14969885604E+04 -0.14095338753E+04  0.21194887873E+04  0.12699999809E+01 0. -1.
       -4    1    3    3    0  502  0.51426706204E+03 -0.14969885604E+04  0.55684430437E+03  0.16779518925E+04  0.12699999809E+01 0.  1.
</event>
<event>
 5   0  0.2282000E-08  0.3696829E+04  0.7818609E-02  0.8068665E-01
        1   -1    0    0  501    0  0.00000000000E+00  0.00000000000E+00  0.22010859441E+04  0.22010859441E+04  0.50400001928E-02 0. -1.
       -1   -1    0    0    0  501  0.00000000000E+00  0.00000000000E+00 -0.15522500867E+04  0.15522500867E+04  0.50400001928E-02 0.  1.
    10030    2    1    2    0    0  0.00000000000E+00  0.00000000000E+00  0.64883585737E+03  0.37533360309E+04  0.36968288290E+04 0.  0.
        5    1    3    3  502    0 -0.18184144179E+04 -0.33029085877E+03  0.35471889607E+03  0.18819061167E+04  0.46999998093E+01 0. -1.
       -5    1    3    3    0  502  0.18184144179E+04  0.33029085877E+03  0.29411696130E+03  0.18714299142E+04  0.46999998093E+01 0.  1.
</event>
<event>
 5   0  0.2282000E-08  0.3699248E+04  0.7818609E-02  0.8068128E-01
        1   -1    0    0  501    0  0.00000000000E+00  0.00000000000E+00  0.17370242729E+04  0.17370242729E+04  0.50400001928E-02 0.  1.
       -1   -1    0    0    0  501  0.00000000000E+00  0.00000000000E+00 -0.19695229961E+04  0.19695229961E+04  0.50400001928E-02 0. -1.
    10030    2    1    2    0    0  0.00000000000E+00  0.00000000000E+00 -0.23249872315E+03  0.37065472690E+04  0.36992481670E+04 0.  0.
        3    1    3    3  502    0 -0.11498788703E+04 -0.62040122952E+03 -0.14280270356E+04  0.19355568518E+04  0.10100000352E+00 0. -1.
       -3    1    3    3    0  502  0.11498788703E+04  0.62040122952E+03  0.11955283125E+04  0.17709904172E+04  0.10100000352E+00 0.  1.
</event>
<event>
 5   0  0.7191801E-08  0.3701173E+04  0.7818609E-02  0.8067702E-01
       -2   -1    0    0    0  501  0.00000000000E+00  0.00000000000E+00  0.18551257999E+04  0.18551257999E+04  0.25500000920E-02 0. -1.
        2   -1    0    0  501    0  0.00000000000E+00  0.00000000000E+00 -0.18460585061E+04  0.18460585061E+04  0.25500000920E-02 0.  1.
    10030    2    1    2    0    0  0.00000000000E+00  0.00000000000E+00  0.90672937993E+01  0.37011843060E+04  0.37011731993E+04 0.  0.
        5    1    3    3  502    0 -0.85786911667E+03  0.72406655211E+03  0.14757405902E+04  0.18541963684E+04  0.46999998093E+01 0. -1.
       -5    1    3    3    0  502  0.85786911667E+03 -0.72406655211E+03 -0.14666732964E+04  0.18469879376E+04  0.46999998093E+01 0.  1.
</event>
<event>
 5   0  0.2282000E-08  0.3705436E+04  0.7818609E-02  0.8066758E-01
        1   -1    0    0  501    0  0.00000000000E+00  0.00000000000E+00  0.23601391414E+04  0.23601391414E+04  0.50400001928E-02 0. -1.
       -1   -1    0    0    0  501  0.00000000000E+00  0.00000000000E+00 -0.14543902335E+04  0.14543902335E+04  0.50400001928E-02 0.  1.
    10030    2    1    2    0    0  0.00000000000E+00  0.00000000000E+00  0.90574890789E+03  0.38145293750E+04  0.37054356381E+04 0.  0.
        5    1    3    3  502    0  0.15304465039E+04 -0.78200476603E+03  0.11651581952E+04  0.20763943906E+04  0.46999998093E+01 0.  1.
       -5    1    3    3    0  502 -0.15304465039E+04  0.78200476603E+03 -0.25940928730E+03  0.17381349844E+04  0.46999998093E+01 0. -1.
</event>
<event>
 5   0  0.7362817E-08  0.3696638E+04  0.7818609E-02  0.8068707E-01
       -2   -1    0    0    0  501  0.00000000000E+00  0.00000000000E+00  0.15632433891E+04  0.15632433891E+04  0.25500000920E-02 0.  1.
        2   -1    0    0  501    0  0.00000000000E+00  0.00000000000E+00 -0.21853810203E+04  0.21853810203E+04  0.25500000920E-02 0. -1.
    10030    2    1    2    0    0  0.00000000000E+00  0.00000000000E+00 -0.62213763125E+03  0.37486244094E+04  0.36966376250E+04 0.  0.
        1    1    3    3  502    0 -0.13922245846E+03  0.18115599288E+04  0.33041212822E+02  0.18172022426E+04  0.50400001928E-02 0.  1.
       -1    1    3    3    0  502  0.13922245846E+03 -0.18115599288E+04 -0.65517884407E+03  0.19314221668E+04  0.50400001928E-02 0. -1.
</event>
<event>
 5   0  0.2282000E-08  0.3682990E+04  0.7818609E-02  0.8071742E-01
       -1   -1    0    0    0  501  0.00000000000E+00  0.00000000000E+00  0.13879847830E+04  0.13879847830E+04  0.50400001928E-02 0. -1.
        1   -1    0    0  501    0  0.00000000000E+00  0.00000000000E+00 -0.24431854344E+04  0.24431854344E+04  0.50400001928E-02 0.  1.
    10030    2    1    2    0    0  0.00000000000E+00  0.00000000000E+00 -0.10552006514E+04  0.38311702174E+04  0.36829902009E+04 0.  0.
        3    1    3    3  502    0  0.93873463392E+03 -0.75000671388E+03 -0.19792281351E+04  0.23153999233E+04  0.10100000352E+00 0.  1.
       -3    1    3    3    0  502 -0.93873463392E+03  0.75000671388E+03  0.92402748371E+03  0.15157702942E+04  0.10100000352E+00 0. -1.
</event>
<event>
 5   0  0.2282000E-08  0.3700960E+04  0.7818609E-02  0.8067749E-01
       -1   -1    0    0    0  501  0.00000000000E+00  0.00000000000E+00  0.14448938001E+04  0.14448938001E+04  0.50400001928E-02 0.  1.
        1   -1    0    0  501    0  0.00000000000E+00  0.00000000000E+00 -0.23699160146E+04  0.23699160146E+04  0.50400001928E-02 0. -1.
    10030    2    1    2    0    0  0.00000000000E+00  0.00000000000E+00 -0.92502221453E+03  0.38148098147E+04  0.37009603922E+04 0.  0.
        4    1    3    3  502    0  0.54217896242E+03  0.12579706461E+04  0.81987760562E+03  0.15964488952E+04  0.12699999809E+01 0.  1.
       -4    1    3    3    0  502 -0.54217896242E+03 -0.12579706461E+04 -0.17448998202E+04  0.22183609195E+04  0.12699999809E+01 0. -1.
</event>
<event>
 5   0  0.7362817E-08  0.3697029E+04  0.7818609E-02  0.8068621E-01
        2   -1    0    0  501    0  0.00000000000E+00  0.00000000000E+00  0.21423138421E+04  0.21423138421E+04  0.25500000920E-02 0. -1.
       -2   -1    0    0    0  501  0.00000000000E+00  0.00000000000E+00 -0.15950071378E+04  0.15950071378E+04  0.25500000920E-02 0.  1.
    10030    2    1    2    0    0  0.00000000000E+00  0.00000000000E+00  0.54730670432E+03  0.37373209798E+04  0.36970290069E+04 0.  0.
        1    1    3    3  502    0  0.11641294178E+04  0.26874138512E+03 -0.11522463173E+04  0.16598466222E+04  0.50400001928E-02 0.  1.
       -1    1    3    3    0  502 -0.11641294178E+04 -0.26874138512E+03  0.16995530216E+04  0.20774743577E+04  0.50400001928E-02 0. -1.
</event>
<event>
 5   0  0.7254493E-08  0.3697820E+04  0.7818609E-02  0.8068445E-01
       -2   -1    0    0    0  501  0.00000000000E+00  0.00000000000E+00  0.26224780834E+04  0.26224780834E+04  0.25500000920E-02 0. -1.
        2   -1    0    0  501    0  0.00000000000E+00  0.00000000000E+00 -0.13035256212E+04  0.13035256212E+04  0.25500000920E-02 0.  1.
    10030    2    1    2    0    0  0.00000000000E+00  0.00000000000E+00  0.13189524622E+04  0.39260037047E+04  0.36978195591E+04 0.  0.
        3    1    3    3  502    0  0.17184781492E+04 -0.34723396724E+03  0.36109293256E+02  0.17535799008E+04  0.10100000352E+00 0. -1.
       -3    1    3    3    0  502 -0.17184781492E+04  0.34723396724E+03  0.12828431690E+04  0.21724238039E+04  0.10100000352E+00 0.  1.
</event>
<event>
 5   0  0.7362817E-08  0.3699314E+04  0.7818609E-02  0.8068114E-01
       -2   -1    0    0    0  501  0.00000000000E+00  0.00000000000E+00  0.18346818512E+04  0.18346818512E+04  0.25500000920E-02 0. -1.
        2   -1    0    0  501    0  0.00000000000E+00  0.00000000000E+00 -0.18647544048E+04  0.18647544048E+04  0.25500000920E-02 0.  1.
    10030    2    1    2    0    0  0.00000000000E+00  0.00000000000E+00 -0.30072553617E+02  0.36994362560E+04  0.36993140247E+04 0.  0.
        1    1    3    3  502    0  0.14580437255E+04  0.10127189911E+04 -0.53441824456E+03  0.18539401610E+04  0.50400001928E-02 0.  1.
       -1    1    3    3    0  502 -0.14580437255E+04 -0.10127189911E+04  0.50434569094E+03  0.18454960950E+04  0.50400001928E-02 0. -1.
</event>
<event>
 5   0  0.7254493E-08  0.3696482E+04  0.7818609E-02  0.8068742E-01
        2   -1    0    0  501    0  0.00000000000E+00  0.00000000000E+00  0.21510564018E+04  0.21510564018E+04  0.25500000920E-02 0.  1.
       -2   -1    0    0    0  501  0.00000000000E+00  0.00000000000E+00 -0.15880542388E+04  0.15880542388E+04  0.25500000920E-02 0. -1.
    10030    2    1    2    0    0  0.00000000000E+00  0.00000000000E+00  0.56300216299E+03  0.37391106406E+04  0.36964816985E+04 0.  0.
        3    1    3    3  502    0 -0.40308778000E+03  0.86459665582E+03  0.18827880547E+04  0.21106629301E+04  0.10100000352E+00 0.  1.
       -3    1    3    3    0  502  0.40308778000E+03 -0.86459665582E+03 -0.13197858917E+04  0.16284477105E+04  0.10100000352E+00 0. -1.
</event>
<event>
 5   0  0.7309833E-08  0.3687145E+04  0.7818609E-02  0.8070817E-01
       -2   -1    0    0    0  501  0.00000000000E+00  0.00000000000E+00  0.21449731989E+04  0.21449731989E+04  0.25500000920E-02 0. -1.
        2   -1    0    0  501    0  0.00000000000E+00  0.00000000000E+00 -0.15845233563E+04  0.15845233563E+04  0.25500000920E-02 0.  1.
    10030    2    1    2    0    0  0.00000000000E+00  0.00000000000E+00  0.56044984267E+03  0.37294965552E+04  0.36871453089E+04 0.  0.
        2    1    3    3  502    0 -0.40615925195E+03 -0.15195391796E+04 -0.69248379004E+03  0.17185745418E+04  0.25500000920E-02 0.  1.
       -2    1    3    3    0  502  0.40615925195E+03  0.15195391796E+04  0.12529336327E+04  0.20109220134E+04  0.25500000920E-02 0. -1.
</event>
<event>
 5   0  0.7362817E-08  0.3703877E+04  0.7818609E-02  0.8067103E-01
        2   -1    0    0  501    0  0.00000000000E+00  0.00000000000E+00  0.24078877572E+04  0.24078877572E+04  0.25500000920E-02 0.  1.
       -2   -1    0    0    0  501  0.00000000000E+00  0.00000000000E+00 -0.14243503184E+04  0.14243503184E+04  0.25500000920E-02 0. -1.
    10030    2    1    2    0    0  0.00000000000E+00  0.00000000000E+00  0.98353743888E+03  0.38322380756E+04  0.37038767224E+04 0.  0.
        1    1    3    3  502    0 -0.28074096626E+03  0.78275397059E+02 -0.14004733615E+04  0.14304782991E+04  0.50400001928E-02 0. -1.
       -1    1    3    3    0  502  0.28074096626E+03 -0.78275397059E+02  0.23840108004E+04  0.24017597765E+04  0.50400001928E-02 0.  1.
</event>
<event>
 5   0  0.2282000E-08  0.3701362E+04  0.7818609E-02  0.8067660E-01
        1   -1    0    0  501    0  0.00000000000E+00  0.00000000000E+00  0.13954715523E+04  0.13954715523E+04  0.50400001928E-02 0. -1.
       -1   -1    0    0    0  501  0.00000000000E+00  0.00000000000E+00 -0.24543825590E+04  0.24543825590E+04  0.50400001928E-02 0.  1.
    10030    2    1    2    0    0  0.00000000000E+00  0.00000000000E+00 -0.10589110067E+04  0.38498541113E+04  0.37013624732E+04 0.  0.
        5    1    3    3  502    0 -0.18348204184E+04  0.34419745321E+02 -0.77832049737E+03  0.19933779303E+04  0.46999998093E+01 0.  1.
       -5    1    3    3    0  502  0.18348204184E+04 -0.34419745321E+02 -0.28059050938E+03  0.18564761810E+04  0.46999998093E+01 0. -1.
</event>
<event>
 5   0  0.2282000E-08  0.3695622E+04  0.7818609E-02  0.8068933E-01
        1   -1    0    0  501    0  0.00000000000E+00  0.00000000000E+00  0.23359277299E+04  0.23359277299E+04  0.50400001928E-02 0. -1.
       -1   -1    0    0    0  501  0.00000000000E+00  0.00000000000E+00 -0.14616914800E+04  0.14616914800E+04  0.50400001928E-02 0.  1.
    10030    2    1    2    0    0  0.00000000000E+00  0.00000000000E+00  0.87423624985E+03  0.37976192099E+04  0.36956220915E+04 0.  0.
        5    1    3    3  502    0 -0.11669251831E+04 -0.14156445196E+04  0.66370271190E+03  0.19509708272E+04  0.46999998093E+01 0.  1.
       -5    1    3    3    0  502  0.11669251831E+04  0.14156445196E+04  0.21053353794E+03  0.18466483827E+04  0.46999998093E+01 0. -1.
</event>
<event>
 5   0  0.7309833E-08  0.3707072E+04  0.7818609E-02  0.8066396E-01
       -2   -1    0    0    0  501  0.00000000000E+00  0.00000000000E+00  0.19467230928E+04  0.19467230928E+04  0.25500000920E-02 0. -1.
        2   -1    0    0  501    0  0.00000000000E+00  0.00000000000E+00 -0.17648092247E+04  0.17648092247E+04  0.25500000920E-02 0.  1.
    10030    2    1    2    0    0  0.00000000000E+00  0.00000000000E+00  0.18191386808E+03  0.37115323176E+04  0.37070715516E+04 0.  0.
        2    1    3    3  502    0  0.37214826638E+03  0.17516169376E+04 -0.38809415418E+03  0.18322863588E+04  0.25500000920E-02 0.  1.
       -2    1    3    3    0  502 -0.37214826638E+03 -0.17516169376E+04  0.57000802226E+03  0.18792459588E+04  0.25500000920E-02 0. -1.
</event>
<event>
 5   0  0.2282000E-08  0.3695568E+04  0.7818609E-02  0.8068945E-01
       -1   -1    0    0    0  501  0.00000000000E+00  0.00000000000E+00  0.29368091446E+04  0.29368091446E+04  0.50400001928E-02 0. -1.
        1   -1    0    0  501    0  0.00000000000E+00  0.00000000000E+00 -0.11625902126E+04  0.11625902126E+04  0.50400001928E-02 0.  1.
    10030    2    1    2    0    0  0.00000000000E+00  0.00000000000E+00  0.17742189321E+04  0.40993993572E+04  0.36955679227E+04 0.  0.
        3    1    3    3  502    0 -0.10992767515E+04  0.14693293822E+04  0.64670802943E+03  0.19456540019E+04  0.10100000352E+00 0.  1.
       -3    1    3    3    0  502  0.10992767515E+04 -0.14693293822E+04  0.11275109026E+04  0.21537453553E+04  0.10100000352E+00 0. -1.
</event>
<event>
 5   0  0.2282000E-08  0.3731887E+04  0.7818609E-02  0.8060932E-01
       -1   -1    0    0    0  501  0.00000000000E+00  0.00000000000E+00  0.23333559206E+04  0.23333559207E+04  0.50400001928E-02 0. -1.
        1   -1    0    0  501    0  0.00000000000E+00  0.00000000000E+00 -0.14921617206E+04  0.14921617206E+04  0.50400001928E-02 0.  1.
    10030    2    1    2    0    0  0.00000000000E+00  0.00000000000E+00  0.84119420004E+03  0.38255176413E+04  0.37318865928E+04 0.  0.
        5    1    3    3  502    0 -0.26188262360E+03 -0.26022274770E+03 -0.14543427927E+04  0.15004777358E+04  0.46999998093E+01 0.  1.
       -5    1    3    3    0  502  0.26188262360E+03  0.26022274770E+03  0.22955369927E+04  0.23250399055E+04  0.46999998093E+01 0. -1.
</event>
<event>
 5   0  0.2282000E-08  0.3724440E+04  0.7818609E-02  0.8062567E-01
        4   -1    0    0  501    0  0.00000000000E+00  0.00000000000E+00  0.19589998759E+04  0.19590002876E+04  0.12699999809E+01 0. -1.
       -4   -1    0    0    0  501  0.00000000000E+00  0.00000000000E+00 -0.17702206907E+04  0.17702211463E+04  0.12699999809E+01 0.  1.
    10030    2    1    2    0    0  0.00000000000E+00  0.00000000000E+00  0.18877918519E+03  0.37292214339E+04  0.37244402160E+04 0.  0.
        1    1    3    3  502    0 -0.78684981102E+03 -0.91455031337E+02  0.17818919947E+04  0.19500348019E+04  0.50400001928E-02 0. -1.
       -1    1    3    3    0  502  0.78684981102E+03  0.91455031337E+02 -0.15931128095E+04  0.17791866320E+04  0.50400001928E-02 0.  1.
</event>
<event>
 5   0  0.7254493E-08  0.3663991E+04  0.7818609E-02  0.8075989E-01
        2   -1    0    0  501    0  0.00000000000E+00  0.00000000000E+00  0.15596900036E+04  0.15596900036E+04  0.25500000920E-02 0. -1.
       -2   -1    0    0    0  501  0.00000000000E+00  0.00000000000E+00 -0.21518425253E+04  0.21518425253E+04  0.25500000920E-02 0.  1.
    10030    2    1    2    0    0  0.00000000000E+00  0.00000000000E+00 -0.59215252166E+03  0.37115325289E+04  0.36639908712E+04 0.  0.
        3    1    3    3  502    0  0.93701620683E+03  0.12725959970E+04 -0.12347647047E+04  0.20055283169E+04  0.10100000352E+00 0.  1.
       -3    1    3    3    0  502 -0.93701620683E+03 -0.12725959970E+04  0.64261218307E+03  0.17060042121E+04  0.10100000352E+00 0. -1.
</event>
<event>
 5   0  0.2282000E-08  0.3708739E+04  0.7818609E-02  0.8066028E-01
        3   -1    0    0  501    0  0.00000000000E+00  0.00000000000E+00  0.31486745982E+04  0.31486745998E+04  0.10100000352E+00 0.  1.
       -3   -1    0    0    0  501  0.00000000000E+00  0.00000000000E+00 -0.10921056556E+04  0.10921056602E+04  0.10100000352E+00 0. -1.
    10030    2    1    2    0    0  0.00000000000E+00  0.00000000000E+00  0.20565689426E+04  0.42407802600E+04  0.37087385184E+04 0.  0.
        4    1    3    3  502    0 -0.26568241255E+03  0.16655512887E+04  0.19095884961E+04  0.25477790479E+04  0.12699999809E+01 0.  1.
       -4    1    3    3    0  502  0.26568241255E+03 -0.16655512887E+04  0.14698044652E+03  0.16930012121E+04  0.12699999809E+01 0. -1.
</event>
<event>
 5   0  0.7309833E-08  0.3703282E+04  0.7818609E-02  0.8067235E-01
        2   -1    0    0  501    0  0.00000000000E+00  0.00000000000E+00  0.23972044280E+04  0.23972044280E+04  0.25500000920E-02 0.  1.
       -2   -1    0    0    0  501  0.00000000000E+00  0.00000000000E+00 -0.14302387274E+04  0.14302387274E+04  0.25500000920E-02 0. -1.
    10030    2    1    2    0    0  0.00000000000E+00  0.00000000000E+00  0.96696570061E+03  0.38274431554E+04  0.37032821175E+04 0.  0.
        2    1    3    3  502    0  0.10949178281E+04  0.11051688748E+04  0.15213065393E+04  0.21759174797E+04  0.25500000920E-02 0. -1.
       -2    1    3    3    0  502 -0.10949178281E+04 -0.11051688748E+04 -0.55434083864E+03  0.16515256757E+04  0.25500000920E-02 0.  1.
</event>
<event>
 5   0  0.2282000E-08  0.3692731E+04  0.7818609E-02  0.8069575E-01
        1   -1    0    0  501    0  0.00000000000E+00  0.00000000000E+00  0.24674143788E+04  0.24674143788E+04  0.50400001928E-02 0. -1.
       -1   -1    0    0    0  501  0.00000000000E+00  0.00000000000E+00 -0.13816344598E+04  0.13816344598E+04  0.50400001928E-02 0.  1.
    10030    2    1    2    0    0  0.00000000000E+00  0.00000000000E+00  0.10857799190E+04  0.38490488386E+04  0.36927305520E+04 0.  0.
        1    1    3    3  502    0  0.17047194538E+04 -0.32371731747E+03 -0.11485615612E+03  0.17389805216E+04  0.50400001928E-02 0.  1.
       -1    1    3    3    0  502 -0.17047194538E+04  0.32371731747E+03  0.12006360751E+04  0.21100683171E+04  0.50400001928E-02 0. -1.
</event>
<event>
 5   0  0.7254493E-08  0.3695556E+04  0.7818609E-02  0.8068947E-01
        2   -1    0    0  501    0  0.00000000000E+00  0.00000000000E+00  0.20779007489E+04  0.20779007489E+04  0.25500000920E-02 0. -1.
       -2   -1    0    0    0  501  0.00000000000E+00  0.00000000000E+00 -0.16431411890E+04  0.16431411890E+04  0.25500000920E-02 0.  1.
    10030    2    1    2    0    0  0.00000000000E+00  0.00000000000E+00  0.43475955992E+03  0.37210419379E+04  0.36955564167E+04 0.  0.
        3    1    3    3  502    0 -0.16740459819E+04 -0.62636400530E+03  0.68914316240E+03  0.19156409176E+04  0.10100000352E+00 0. -1.
       -3    1    3    3    0  502  0.16740459819E+04  0.62636400530E+03 -0.25438360249E+03  0.18054010203E+04  0.10100000352E+00 0.  1.
</event>
<event>
 5   0  0.2282000E-08  0.3703245E+04  0.7818609E-02  0.8067243E-01
        1   -1    0    0  501    0  0.00000000000E+00  0.00000000000E+00  0.23147014939E+04  0.23147014939E+04  0.50400001928E-02 0. -1.
       -1   -1    0    0    0  501  0.00000000000E+00  0.00000000000E+00 -0.14811869587E+04  0.14811869587E+04  0.50400001928E-02 0.  1.
    10030    2    1    2    0    0  0.00000000000E+00  0.00000000000E+00  0.83351453517E+03  0.37958884526E+04  0.37032448832E+04 0.  0.
        2    1    3    3  502    0 -0.13950260143E+04  0.65863410424E+02  0.16629308073E+04  0.21715833945E+04  0.25500000920E-02 0. -1.
       -2    1    3    3    0  502  0.13950260143E+04 -0.65863410424E+02 -0.82941627211E+03  0.16243050581E+04  0.25500000920E-02 0.  1.
</event>
<event>
 5   0  0.2282000E-08  0.3703813E+04  0.7818609E-02  0.8067117E-01
       -1   -1    0    0    0  501  0.00000000000E+00  0.00000000000E+00  0.13858674557E+04  0.13858674557E+04  0.50400001928E-02 0. -1.
        1   -1    0    0  501    0  0.00000000000E+00  0.00000000000E+00 -0.24746653316E+04  0.24746653316E+04  0.50400001928E-02 0.  1.
    10030    2    1    2    0    0  0.00000000000E+00  0.00000000000E+00 -0.10887978759E+04  0.38605327873E+04  0.37038132496E+04 0.  0.
        3    1    3    3  502    0 -0.16341117916E+03  0.81178497423E+03 -0.22709488784E+04  0.24172105569E+04  0.10100000352E+00 0.  1.
       -3    1    3    3    0  502  0.16341117916E+03 -0.81178497423E+03  0.11821510025E+04  0.14433222304E+04  0.10100000352E+00 0. -1.
</event>
<event>
 5   0  0.2282000E-08  0.3695778E+04  0.7818609E-02  0.8068898E-01
       -1   -1    0    0    0  501  0.00000000000E+00  0.00000000000E+00  0.14839475603E+04  0.14839475603E+04  0.50400001928E-02 0. -1.
        1   -1    0    0  501    0  0.00000000000E+00  0.00000000000E+00 -0.23010878623E+04  0.23010878623E+04  0.50400001928E-02 0.  1.
    10030    2    1    2    0    0  0.00000000000E+00  0.00000000000E+00 -0.81714030194E+03  0.37850354226E+04  0.36957779800E+04 0.  0.
        5    1    3    3  502    0  0.11894780902E+03 -0.11009144517E+04  0.11065196820E+04  0.15654293686E+04  0.46999998093E+01 0. -1.
       -5    1    3    3    0  502 -0.11894780902E+03  0.11009144517E+04 -0.19236599840E+04  0.22196060541E+04  0.46999998093E+01 0.  1.
</event>
<event>
 5   0  0.2282000E-08  0.3638127E+04  0.7818609E-02  0.8081814E-01
        1   -1    0    0  501    0  0.00000000000E+00  0.00000000000E+00  0.30949756046E+04  0.30949756046E+04  0.50400001928E-02 0.  1.
       -1   -1    0    0    0  501  0.00000000000E+00  0.00000000000E+00 -0.10691495977E+04  0.10691495977E+04  0.50400001928E-02 0. -1.
    10030    2    1    2    0    0  0.00000000000E+00  0.00000000000E+00  0.20258260068E+04  0.41641252023E+04  0.36381269481E+04 0.  0.
        2    1    3    3  502    0 -0.93618334321E+03 -0.15328687463E+04  0.68342901123E+03  0.19217702930E+04  0.25500000920E-02 0.  1.
       -2    1    3    3    0  502  0.93618334321E+03  0.15328687463E+04  0.13423969956E+04  0.22423549093E+04  0.25500000920E-02 0. -1.
</event>
<event>
 5   0  0.7203049E-08  0.3685081E+04  0.7818609E-02  0.8071276E-01
       -2   -1    0    0    0  501  0.00000000000E+00  0.00000000000E+00  0.16529621796E+04  0.16529621796E+04  0.25500000920E-02 0.  1.
        2   -1    0    0  501    0  0.00000000000E+00  0.00000000000E+00 -0.20538611483E+04  0.20538611483E+04  0.25500000920E-02 0. -1.
    10030    2    1    2    0    0  0.00000000000E+00  0.00000000000E+00 -0.40089896875E+03  0.37068233279E+04  0.36850806234E+04 0.  0.
        4    1    3    3  502    0  0.13866411067E+04 -0.81938224010E+03  0.69970045722E+03  0.17560589845E+04  0.12699999809E+01 0.  1.
       -4    1    3    3    0  502 -0.13866411067E+04  0.81938224010E+03 -0.11005994260E+04  0.19507643434E+04  0.12699999809E+01 0. -1.
</event>
<event>
 5   0  0.2282000E-08  0.3695815E+04  0.7818609E-02  0.8068890E-01
       -1   -1    0    0    0  501  0.00000000000E+00  0.00000000000E+00  0.22507627282E+04  0.22507627282E+04  0.50400001928E-02 0. -1.
        1   -1    0    0  501    0  0.00000000000E+00  0.00000000000E+00 -0.15171578579E+04  0.15171578579E+04  0.50400001928E-02 0.  1.
    10030    2    1    2    0    0  0.00000000000E+00  0.00000000000E+00  0.73360487029E+03  0.37679205861E+04  0.36958151249E+04 0.  0.
        4    1    3    3  502    0 -0.11924179666E+04 -0.11979224991E+04  0.11282896378E+04  0.20322199784E+04  0.12699999809E+01 0. -1.
       -4    1    3    3    0  502  0.11924179666E+04  0.11979224991E+04 -0.39468476749E+03  0.17357006077E+04  0.12699999809E+01 0.  1.
</event>
<event>
 5   0  0.2282000E-08  0.3699668E+04  0.7818609E-02  0.8068035E-01
        1   -1    0    0  501    0  0.00000000000E+00  0.00000000000E+00  0.24836305516E+04  0.24836305516E+04  0.50400001928E-02 0.  1.
       -1   -1    0    0    0  501  0.00000000000E+00  0.00000000000E+00 -0.13777755802E+04  0.13777755802E+04  0.50400001928E-02 0. -1.
    10030    2    1    2    0    0  0.00000000000E+00  0.00000000000E+00  0.11058549714E+04  0.38614061317E+04  0.36996678360E+04 0.  0.
        5    1    3    3  502    0 -0.11732784430E+04  0.12199752426E+04 -0.22598300356E+03  0.17076335395E+04  0.46999998093E+01 0. -1.
       -5    1    3    3    0  502  0.11732784430E+04 -0.12199752426E+04  0.13318379750E+04  0.21537725922E+04  0.46999998093E+01 0.  1.
</event>
<event>
 5   0  0.2282000E-08  0.3744505E+04  0.7818609E-02  0.8058170E-01
       -1   -1    0    0    0  501  0.00000000000E+00  0.00000000000E+00  0.17789302733E+04  0.17789302734E+04  0.50400001928E-02 0. -1.
        1   -1    0    0  501    0  0.00000000000E+00  0.00000000000E+00 -0.19704707220E+04  0.19704707220E+04  0.50400001928E-02 0.  1.
    10030    2    1    2    0    0  0.00000000000E+00  0.00000000000E+00 -0.19154044869E+03  0.37494009954E+04  0.37445053186E+04 0.  0.
        2    1    3    3  502    0 -0.45575290995E+03  0.16620946728E+04  0.63666450074E+03  0.18372836207E+04  0.25500000920E-02 0. -1.
       -2    1    3    3    0  502  0.45575290995E+03 -0.16620946728E+04 -0.82820494943E+03  0.19121173747E+04  0.25500000920E-02 0.  1.
</event>
<event>
 5   0  0.7362817E-08  0.3702819E+04  0.7818609E-02  0.8067337E-01
       -2   -1    0    0    0  501  0.00000000000E+00  0.00000000000E+00  0.10885927303E+04  0.10885927303E+04  0.25500000920E-02 0.  1.
        2   -1    0    0  501    0  0.00000000000E+00  0.00000000000E+00 -0.31487605372E+04  0.31487605372E+04  0.25500000920E-02 0. -1.
    10030    2    1    2    0    0  0.00000000000E+00  0.00000000000E+00 -0.20601678068E+04  0.42373532675E+04  0.37028193746E+04 0.  0.
        1    1    3    3  502    0  0.13798192608E+03  0.41735840022E+03 -0.30881774181E+04  0.31193055015E+04  0.50400001928E-02 0. -1.
       -1    1    3    3    0  502 -0.13798192608E+03 -0.41735840022E+03  0.10280096112E+04  0.11180477660E+04  0.50400001928E-02 0.  1.
</event>
<event>
 5   0  0.7254493E-08  0.3690449E+04  0.7818609E-02  0.8070082E-01
        2   -1    0    0  501    0  0.00000000000E+00  0.00000000000E+00  0.24486182057E+04  0.24486182057E+04  0.25500000920E-02 0.  1.
       -2   -1    0    0    0  501  0.00000000000E+00  0.00000000000E+00 -0.13905203897E+04  0.13905203897E+04  0.25500000920E-02 0. -1.
    10030    2    1    2    0    0  0.00000000000E+00  0.00000000000E+00  0.10580978160E+04  0.38391385954E+04  0.36904490467E+04 0.  0.
        3    1    3    3  502    0  0.15323927829E+04 -0.64172255006E+03  0.13644079411E+04  0.21498010402E+04  0.10100000352E+00 0.  1.
       -3    1    3    3    0  502 -0.15323927829E+04  0.64172255006E+03 -0.30631012509E+03  0.16893375552E+04  0.10100000352E+00 0. -1.
</event>
<event>
 5   0  0.7254493E-08  0.3698901E+04  0.7818609E-02  0.8068205E-01
       -2   -1    0    0    0  501  0.00000000000E+00  0.00000000000E+00  0.17104605171E+04  0.17104605171E+04  0.25500000920E-02 0. -1.
        2   -1    0    0  501    0  0.00000000000E+00  0.00000000000E+00 -0.19997346357E+04  0.19997346357E+04  0.25500000920E-02 0.  1.
    10030    2    1    2    0    0  0.00000000000E+00  0.00000000000E+00 -0.28927411861E+03  0.37101951527E+04  0.36989009929E+04 0.  0.
        3    1    3    3  502    0 -0.10112516516E+04  0.15497969553E+03  0.14007874789E+04  0.17346049061E+04  0.10100000352E+00 0. -1.
       -3    1    3    3    0  502  0.10112516516E+04 -0.15497969553E+03 -0.16900615975E+04  0.19755902466E+04  0.10100000352E+00 0.  1.
</event>
<event>
 5   0  0.2282000E-08  0.3698272E+04  0.7818609E-02  0.8068345E-01
        1   -1    0    0  501    0  0.00000000000E+00  0.00000000000E+00  0.19327738851E+04  0.19327738851E+04  0.50400001928E-02 0. -1.
       -1   -1    0    0    0  501  0.00000000000E+00  0.00000000000E+00 -0.17691174767E+04  0.17691174767E+04  0.50400001928E-02 0.  1.
    10030    2    1    2    0    0  0.00000000000E+00  0.00000000000E+00  0.16365640845E+03  0.37018913618E+04  0.36982720606E+04 0.  0.
        4    1    3    3  502    0  0.51601022718E+03  0.22486477599E+03  0.18449354447E+04  0.19288906475E+04  0.12699999809E+01 0. -1.
       -4    1    3    3    0  502 -0.51601022718E+03 -0.22486477599E+03 -0.16812790363E+04  0.17730007143E+04  0.12699999809E+01 0.  1.
</event>
<event>
 5   0  0.7362817E-08  0.3698546E+04  0.7818609E-02  0.8068284E-01
        2   -1    0    0  501    0  0.00000000000E+00  0.00000000000E+00  0.10092822102E+04  0.10092822102E+04  0.25500000920E-02 0.  1.
       -2   -1    0    0    0  501  0.00000000000E+00  0.00000000000E+00 -0.33883589255E+04  0.33883589255E+04  0.25500000920E-02 0. -1.
    10030    2    1    2    0    0  0.00000000000E+00  0.00000000000E+00 -0.23790767154E+04  0.43976411357E+04  0.36985458684E+04 0.  0.
        1    1    3    3  502    0  0.12898052054E+04 -0.11578016830E+04 -0.19561635073E+04  0.26135565562E+04  0.50400001928E-02 0. -1.
       -1    1    3    3    0  502 -0.12898052054E+04  0.11578016830E+04 -0.42291320809E+03  0.17840845795E+04  0.50400001928E-02 0.  1.
</event>
<event>
 5   0  0.2282000E-08  0.3707253E+04  0.7818609E-02  0.8066356E-01
        1   -1    0    0  501    0  0.00000000000E+00  0.00000000000E+00  0.32018226328E+04  0.32018226328E+04  0.50400001928E-02 0. -1.
       -1   -1    0    0    0  501  0.00000000000E+00  0.00000000000E+00 -0.10731172437E+04  0.10731172438E+04  0.50400001928E-02 0.  1.
    10030    2    1    2    0    0  0.00000000000E+00  0.00000000000E+00  0.21287053890E+04  0.42749398765E+04  0.37072529337E+04 0.  0.
        2    1    3    3  502    0 -0.13964714319E+04  0.26414386785E+03 -0.30783495109E+03  0.14541893962E+04  0.25500000920E-02 0.  1.
       -2    1    3    3    0  502  0.13964714319E+04 -0.26414386785E+03  0.24365403401E+04  0.28207504803E+04  0.25500000920E-02 0. -1.
</event>
<event>
 5   0  0.2282000E-08  0.3694600E+04  0.7818609E-02  0.8069160E-01
       -1   -1    0    0    0  501  0.00000000000E+00  0.00000000000E+00  0.22405011865E+04  0.22405011865E+04  0.50400001928E-02 0. -1.
        1   -1    0    0  501    0  0.00000000000E+00  0.00000000000E+00 -0.15231045210E+04  0.15231045210E+04  0.50400001928E-02 0.  1.
    10030    2    1    2    0    0  0.00000000000E+00  0.00000000000E+00  0.71739666547E+03  0.37636057075E+04  0.36946001063E+04 0.  0.
        3    1    3    3  502    0  0.11548277965E+04  0.24253626166E+02  0.18272560088E+04  0.21617307903E+04  0.10100000352E+00 0. -1.
       -3    1    3    3    0  502 -0.11548277965E+04 -0.24253626166E+02 -0.11098593433E+04  0.16018749171E+04  0.10100000352E+00 0.  1.
</event>
<event>
 5   0  0.2282000E-08  0.3700606E+04  0.7818609E-02  0.8067827E-01
        1   -1    0    0  501    0  0.00000000000E+00  0.00000000000E+00  0.11974944745E+04  0.11974944745E+04  0.50400001928E-02 0. -1.
       -1   -1    0    0    0  501  0.00000000000E+00  0.00000000000E+00 -0.28589875850E+04  0.28589875850E+04  0.50400001928E-02 0.  1.
    10030    2    1    2    0    0  0.00000000000E+00  0.00000000000E+00 -0.16614931105E+04  0.40564820595E+04  0.37006063480E+04 0.  0.
        5    1    3    3  502    0 -0.30315836463E+03 -0.69899271614E+03 -0.26790490014E+04  0.27852866016E+04  0.46999998093E+01 0.  1.
       -5    1    3    3    0  502  0.30315836463E+03  0.69899271614E+03  0.10175558909E+04  0.12711954579E+04  0.46999998093E+01 0. -1.
</event>
<event>
 5   0  0.7309833E-08  0.3673503E+04  0.7818609E-02  0.8073859E-01
        2   -1    0    0  501    0  0.00000000000E+00  0.00000000000E+00  0.16577901214E+04  0.16577901214E+04  0.25500000920E-02 0. -1.
       -2   -1    0    0    0  501  0.00000000000E+00  0.00000000000E+00 -0.20350315875E+04  0.20350315875E+04  0.25500000920E-02 0.  1.
    10030    2    1    2    0    0  0.00000000000E+00  0.00000000000E+00 -0.37724146609E+03  0.36928217089E+04  0.36735025589E+04 0.  0.
        2    1    3    3  502    0  0.51236812302E+03  0.10647948930E+04 -0.16021972730E+04  0.19908152499E+04  0.25500000920E-02 0.  1.
       -2    1    3    3    0  502 -0.51236812302E+03 -0.10647948930E+04  0.12249558069E+04  0.17020064590E+04  0.25500000920E-02 0. -1.
</event>
<event>
 5   0  0.7362817E-08  0.3702739E+04  0.7818609E-02  0.8067355E-01
       -2   -1    0    0    0  501  0.00000000000E+00  0.00000000000E+00  0.20778333052E+04  0.20778333052E+04  0.25500000920E-02 0.  1.
        2   -1    0    0  501    0  0.00000000000E+00  0.00000000000E+00 -0.16495882311E+04  0.16495882312E+04  0.25500000920E-02 0. -1.
    10030    2    1    2    0    0  0.00000000000E+00  0.00000000000E+00  0.42824507403E+03  0.37274215363E+04  0.37027391842E+04 0.  0.
        1    1    3    3  502    0  0.12810832654E+04  0.28155416791E+03  0.15294009851E+04  0.20148236785E+04  0.50400001928E-02 0.  1.
       -1    1    3    3    0  502 -0.12810832654E+04 -0.28155416791E+03 -0.11011559110E+04  0.17125978578E+04  0.50400001928E-02 0. -1.
</event>
<event>
 5   0  0.7191801E-08  0.3704467E+04  0.7818609E-02  0.8066973E-01
        2   -1    0    0  501    0  0.00000000000E+00  0.00000000000E+00  0.26011936761E+04  0.26011936761E+04  0.25500000920E-02 0.  1.
       -2   -1    0    0    0  501  0.00000000000E+00  0.00000000000E+00 -0.13189209628E+04  0.13189209628E+04  0.25500000920E-02 0. -1.
    10030    2    1    2    0    0  0.00000000000E+00  0.00000000000E+00  0.12822727133E+04  0.39201146389E+04  0.37044669618E+04 0.  0.
        5    1    3    3  502    0  0.92879143588E+03  0.15905659298E+04  0.84794394012E+03  0.20277042496E+04  0.46999998093E+01 0.  1.
       -5    1    3    3    0  502 -0.92879143588E+03 -0.15905659298E+04  0.43432877319E+03  0.18924103893E+04  0.46999998093E+01 0. -1.
</event>
<event>
 5   0  0.2282000E-08  0.3709567E+04  0.7818609E-02  0.8065845E-01
       -1   -1    0    0    0  501  0.00000000000E+00  0.00000000000E+00  0.24370705145E+04  0.24370705146E+04  0.50400001928E-02 0.  1.
        1   -1    0    0  501    0  0.00000000000E+00  0.00000000000E+00 -0.14116215666E+04  0.14116215666E+04  0.50400001928E-02 0. -1.
    10030    2    1    2    0    0  0.00000000000E+00  0.00000000000E+00  0.10254489479E+04  0.38486920812E+04  0.37095667120E+04 0.  0.
        2    1    3    3  502    0  0.96841155760E+03  0.88117993890E+03  0.18757393525E+04  0.22875089395E+04  0.25500000920E-02 0.  1.
       -2    1    3    3    0  502 -0.96841155760E+03 -0.88117993890E+03 -0.85029040460E+03  0.15611831417E+04  0.25500000920E-02 0. -1.
</event>
<event>
 5   0  0.7203049E-08  0.3700895E+04  0.7818609E-02  0.8067763E-01
       -2   -1    0    0    0  501  0.00000000000E+00  0.00000000000E+00  0.10919902087E+04  0.10919902087E+04  0.25500000920E-02 0.  1.
        2   -1    0    0  501    0  0.00000000000E+00  0.00000000000E+00 -0.31357022843E+04  0.31357022843E+04  0.25500000920E-02 0. -1.
    10030    2    1    2    0    0  0.00000000000E+00  0.00000000000E+00 -0.20437120756E+04  0.42276924931E+04  0.37008951306E+04 0.  0.
        4    1    3    3  502    0 -0.66085783257E+02  0.13609651969E+04 -0.24520957553E+04  0.28052395270E+04  0.12699999809E+01 0. -1.
       -4    1    3    3    0  502  0.66085783257E+02 -0.13609651969E+04  0.40838367972E+03  0.14224529660E+04  0.12699999809E+01 0.  1.
</event>
<event>
 5   0  0.7362817E-08  0.3700618E+04  0.7818609E-02  0.8067825E-01
       -2   -1    0    0    0  501  0.00000000000E+00  0.00000000000E+00  0.13828778380E+04  0.13828778380E+04  0.25500000920E-02 0.  1.
        2   -1    0    0  501    0  0.00000000000E+00  0.00000000000E+00 -0.24757384322E+04  0.24757384322E+04  0.25500000920E-02 0. -1.
    10030    2    1    2    0    0  0.00000000000E+00  0.00000000000E+00 -0.10928605941E+04  0.38586162702E+04  0.37006182243E+04 0.  0.
        1    1    3    3  502    0 -0.12907119822E+03  0.98430958369E+03 -0.21745441236E+04  0.23904323618E+04  0.50400001928E-02 0. -1.
       -1    1    3    3    0  502  0.12907119822E+03 -0.98430958369E+03  0.10816835295E+04  0.14681839084E+04  0.50400001928E-02 0.  1.
</event>
<event>
 5   0  0.2282000E-08  0.3701642E+04  0.7818609E-02  0.8067598E-01
        1   -1    0    0  501    0  0.00000000000E+00  0.00000000000E+00  0.23016561266E+04  0.23016561266E+04  0.50400001928E-02 0. -1.
       -1   -1    0    0    0  501  0.00000000000E+00  0.00000000000E+00 -0.14882929722E+04  0.14882929722E+04  0.50400001928E-02 0.  1.
    10030    2    1    2    0    0  0.00000000000E+00  0.00000000000E+00  0.81336315441E+03  0.37899490988E+04  0.37016421424E+04 0.  0.
        1    1    3    3  502    0 -0.10319002810E+04 -0.24577822139E+03  0.19595421441E+04  0.22282348482E+04  0.50400001928E-02 0. -1.
       -1    1    3    3    0  502  0.10319002810E+04  0.24577822139E+03 -0.11461789897E+04  0.15617142506E+04  0.50400001928E-02 0.  1.
</event>
<event>
 5   0  0.2282000E-08  0.3698738E+04  0.7818609E-02  0.8068242E-01
        1   -1    0    0  501    0  0.00000000000E+00  0.00000000000E+00  0.20357880601E+04  0.20357880601E+04  0.50400001928E-02 0. -1.
       -1   -1    0    0    0  501  0.00000000000E+00  0.00000000000E+00 -0.16800202271E+04  0.16800202271E+04  0.50400001928E-02 0.  1.
    10030    2    1    2    0    0  0.00000000000E+00  0.00000000000E+00  0.35576783298E+03  0.37158082872E+04  0.36987376869E+04 0.  0.
        5    1    3    3  502    0  0.16459339375E+03 -0.11039563611E+04  0.16592511524E+04  0.19997367600E+04  0.46999998093E+01 0. -1.
       -5    1    3    3    0  502 -0.16459339375E+03  0.11039563611E+04 -0.13034833194E+04  0.17160715272E+04  0.46999998093E+01 0.  1.
</event>
<event>
 5   0  0.7191801E-08  0.3651146E+04  0.7818609E-02  0.8078875E-01
       -2   -1    0    0    0  501  0.00000000000E+00  0.00000000000E+00  0.24549239503E+04  0.24549239503E+04  0.25500000920E-02 0. -1.
        2   -1    0    0  501    0  0.00000000000E+00  0.00000000000E+00 -0.13575642656E+04  0.13575642656E+04  0.25500000920E-02 0.  1.
    10030    2    1    2    0    0  0.00000000000E+00  0.00000000000E+00  0.10973596848E+04  0.38124882159E+04  0.36511461377E+04 0.  0.
        5    1    3    3  502    0  0.13510889779E+03  0.40645395984E+03 -0.13043477118E+04  0.13728817426E+04  0.46999998093E+01 0.  1.
       -5    1    3    3    0  502 -0.13510889779E+03 -0.40645395984E+03  0.24017073966E+04  0.24396064733E+04  0.46999998093E+01 0. -1.
</event>
<event>
 5   0  0.7191801E-08  0.3695779E+04  0.7818609E-02  0.8068898E-01
        2   -1    0    0  501    0  0.00000000000E+00  0.00000000000E+00  0.23015292898E+04  0.23015292898E+04  0.25500000920E-02 0.  1.
       -2   -1    0    0    0  501  0.00000000000E+00  0.00000000000E+00 -0.14836639765E+04  0.14836639766E+04  0.25500000920E-02 0. -1.
    10030    2    1    2    0    0  0.00000000000E+00  0.00000000000E+00  0.81786531330E+03  0.37851932664E+04  0.36957792674E+04 0.  0.
        5    1    3    3  502    0  0.98087270165E+03  0.60792481797E+02 -0.11938130999E+04  0.15462919486E+04  0.46999998093E+01 0. -1.
       -5    1    3    3    0  502 -0.98087270165E+03 -0.60792481797E+02  0.20116784132E+04  0.22389013178E+04  0.46999998093E+01 0.  1.
</event>
<event>
 5   0  0.7191801E-08  0.3695262E+04  0.7818609E-02  0.8069013E-01
       -2   -1    0    0    0  501  0.00000000000E+00  0.00000000000E+00  0.23160860949E+04  0.23160860949E+04  0.25500000920E-02 0.  1.
        2   -1    0    0  501    0  0.00000000000E+00  0.00000000000E+00 -0.14739265498E+04  0.14739265498E+04  0.25500000920E-02 0. -1.
    10030    2    1    2    0    0  0.00000000000E+00  0.00000000000E+00  0.84215954506E+03  0.37900126448E+04  0.36952622570E+04 0.  0.
        5    1    3    3  502    0 -0.46308683062E+03 -0.98555513018E+03 -0.11098249008E+04  0.15548317362E+04  0.46999998093E+01 0. -1.
       -5    1    3    3    0  502  0.46308683062E+03  0.98555513018E+03  0.19519844459E+04  0.22351809086E+04  0.46999998093E+01 0.  1.
</event>
<event>
 5   0  0.7203049E-08  0.3701133E+04  0.7818609E-02  0.8067711E-01
       -2   -1    0    0    0  501  0.00000000000E+00  0.00000000000E+00  0.14452969630E+04  0.14452969630E+04  0.25500000920E-02 0.  1.
        2   -1    0    0  501    0  0.00000000000E+00  0.00000000000E+00 -0.23694760730E+04  0.23694760730E+04  0.25500000920E-02 0. -1.
    10030    2    1    2    0    0  0.00000000000E+00  0.00000000000E+00 -0.92417910995E+03  0.38147730360E+04  0.37011331088E+04 0.  0.
        4    1    3    3  502    0 -0.67532127517E+03 -0.57344406422E+03  0.12125105910E+04  0.15016925336E+04  0.12699999809E+01 0.  1.
       -4    1    3    3    0  502  0.67532127517E+03  0.57344406422E+03 -0.21366897009E+04  0.23130805024E+04  0.12699999809E+01 0. -1.
</event>
<event>
 5   0  0.7203049E-08  0.3702202E+04  0.7818609E-02  0.8067474E-01
        2   -1    0    0  501    0  0.00000000000E+00  0.00000000000E+00  0.11108581584E+04  0.11108581584E+04  0.25500000920E-02 0. -1.
       -2   -1    0    0    0  501  0.00000000000E+00  0.00000000000E+00 -0.30846196094E+04  0.30846196094E+04  0.25500000920E-02 0.  1.
    10030    2    1    2    0    0  0.00000000000E+00  0.00000000000E+00 -0.19737614510E+04  0.41954777678E+04  0.37022019711E+04 0.  0.
        4    1    3    3  502    0  0.15957307319E+04  0.25205655638E+02  0.75938307258E+02  0.15977359397E+04  0.12699999809E+01 0. -1.
       -4    1    3    3    0  502 -0.15957307319E+04 -0.25205655638E+02 -0.20496997582E+04  0.25977418281E+04  0.12699999809E+01 0.  1.
</event>
<event>
 5   0  0.2282000E-08  0.3703254E+04  0.7818609E-02  0.8067241E-01
        1   -1    0    0  501    0  0.00000000000E+00  0.00000000000E+00  0.24656388091E+04  0.24656388091E+04  0.50400001928E-02 0.  1.
       -1   -1    0    0    0  501  0.00000000000E+00  0.00000000000E+00 -0.13905210684E+04  0.13905210684E+04  0.50400001928E-02 0. -1.
    10030    2    1    2    0    0  0.00000000000E+00  0.00000000000E+00  0.10751177407E+04  0.38561598775E+04  0.37032540886E+04 0.  0.
        5    1    3    3  502    0  0.16819636947E+04  0.77118505068E+03  0.46562415809E+03  0.19080241611E+04  0.46999998093E+01 0.  1.
       -5    1    3    3    0  502 -0.16819636947E+04 -0.77118505068E+03  0.60949358257E+03  0.19481357165E+04  0.46999998093E+01 0. -1.
</event>
<event>
 5   0  0.7254493E-08  0.3733505E+04  0.7818609E-02  0.8060577E-01
       -2   -1    0    0    0  501  0.00000000000E+00  0.00000000000E+00  0.18073466716E+04  0.18073466716E+04  0.25500000920E-02 0.  1.
        2   -1    0    0  501    0  0.00000000000E+00  0.00000000000E+00 -0.19281110178E+04  0.19281110178E+04  0.25500000920E-02 0. -1.
    10030    2    1    2    0    0  0.00000000000E+00  0.00000000000E+00 -0.12076434628E+03  0.37354576894E+04  0.37335050719E+04 0.  0.
        3    1    3    3  502    0  0.69846929974E+03 -0.10271594314E+04 -0.14546134522E+04  0.19128032219E+04  0.10100000352E+00 0. -1.
       -3    1    3    3    0  502 -0.69846929974E+03  0.10271594314E+04  0.13338491059E+04  0.18226544675E+04  0.10100000352E+00 0.  1.
</event>
<event>
 5   0  0.7309833E-08  0.3704843E+04  0.7818609E-02  0.8066889E-01
        2   -1    0    0  501    0  0.00000000000E+00  0.00000000000E+00  0.16402333931E+04  0.16402333931E+04  0.25500000920E-02 0.  1.
       -2   -1    0    0    0  501  0.00000000000E+00  0.00000000000E+00 -0.20920596199E+04  0.20920596199E+04  0.25500000920E-02 0. -1.
    10030    2    1    2    0    0  0.00000000000E+00  0.00000000000E+00 -0.45182622683E+03  0.37322930130E+04  0.37048433429E+04 0.  0.
        2    1    3    3  502    0  0.16422268121E+04 -0.28736233653E+03 -0.10393484432E+04  0.19646198618E+04  0.25500000920E-02 0. -1.
       -2    1    3    3    0  502 -0.16422268121E+04  0.28736233653E+03  0.58752221639E+03  0.17676731512E+04  0.25500000920E-02 0.  1.
</event>
<event>
 5   0  0.2282000E-08  0.3698499E+04  0.7818609E-02  0.8068295E-01
        1   -1    0    0  501    0  0.00000000000E+00  0.00000000000E+00  0.21449271049E+04  0.21449271049E+04  0.50400001928E-02 0.  1.
       -1   -1    0    0    0  501  0.00000000000E+00  0.00000000000E+00 -0.15943305599E+04  0.15943305599E+04  0.50400001928E-02 0. -1.
    10030    2    1    2    0    0  0.00000000000E+00  0.00000000000E+00  0.55059654502E+03  0.37392576648E+04  0.36984985235E+04 0.  0.
        3    1    3    3  502    0  0.32212070662E+03 -0.18004256345E+04  0.55112089822E+03  0.19102430394E+04  0.10100000352E+00 0.  1.
       -3    1    3    3    0  502 -0.32212070662E+03  0.18004256345E+04 -0.52435319969E+00  0.18290146254E+04  0.10100000352E+00 0. -1.
</event>
<event>
 5   0  0.7191801E-08  0.3701584E+04  0.7818609E-02  0.8067611E-01
       -2   -1    0    0    0  501  0.00000000000E+00  0.00000000000E+00  0.18002322933E+04  0.18002322933E+04  0.25500000920E-02 0. -1.
        2   -1    0    0  501    0  0.00000000000E+00  0.00000000000E+00 -0.19027718152E+04  0.19027718152E+04  0.25500000920E-02 0.  1.
    10030    2    1    2    0    0  0.00000000000E+00  0.00000000000E+00 -0.10253952191E+03  0.37030041085E+04  0.37015841303E+04 0.  0.
        5    1    3    3  502    0  0.81387191958E+02  0.22554866850E+03 -0.18871612480E+04  0.19023395445E+04  0.46999998093E+01 0.  1.
       -5    1    3    3    0  502 -0.81387191958E+02 -0.22554866850E+03  0.17846217260E+04  0.18006645640E+04  0.46999998093E+01 0. -1.
</event>
<event>
 5   0  0.7309833E-08  0.3726234E+04  0.7818609E-02  0.8062173E-01
        2   -1    0    0  501    0  0.00000000000E+00  0.00000000000E+00  0.16675819323E+04  0.16675819323E+04  0.25500000920E-02 0.  1.
       -2   -1    0    0    0  501  0.00000000000E+00  0.00000000000E+00 -0.20815799235E+04  0.20815799235E+04  0.25500000920E-02 0. -1.
    10030    2    1    2    0    0  0.00000000000E+00  0.00000000000E+00 -0.41399799125E+03  0.37491618558E+04  0.37262340619E+04 0.  0.
        2    1    3    3  502    0  0.18533820211E+04  0.18148326417E+03 -0.26430539710E+03  0.18809089383E+04  0.25500000920E-02 0. -1.
       -2    1    3    3    0  502 -0.18533820211E+04 -0.18148326417E+03 -0.14969259416E+03  0.18682529175E+04  0.25500000920E-02 0.  1.
</event>
<event>
 5   0  0.2282000E-08  0.3699558E+04  0.7818609E-02  0.8068060E-01
       -1   -1    0    0    0  501  0.00000000000E+00  0.00000000000E+00  0.22201030004E+04  0.22201030005E+04  0.50400001928E-02 0.  1.
        1   -1    0    0  501    0  0.00000000000E+00  0.00000000000E+00 -0.15412267988E+04  0.15412267988E+04  0.50400001928E-02 0. -1.
    10030    2    1    2    0    0  0.00000000000E+00  0.00000000000E+00  0.67887620162E+03  0.37613297993E+04  0.36995579414E+04 0.  0.
        1    1    3    3  502    0  0.10281659418E+04 -0.43654422219E+03 -0.11596251945E+04  0.16101014420E+04  0.50400001928E-02 0. -1.
       -1    1    3    3    0  502 -0.10281659418E+04  0.43654422219E+03  0.18385013961E+04  0.21512283573E+04  0.50400001928E-02 0.  1.
</event>
<event>
 5   0  0.7191801E-08  0.3702813E+04  0.7818609E-02  0.8067339E-01
        2   -1    0    0  501    0  0.00000000000E+00  0.00000000000E+00  0.12700575049E+04  0.12700575049E+04  0.25500000920E-02 0.  1.
       -2   -1    0    0    0  501  0.00000000000E+00  0.00000000000E+00 -0.26988593211E+04  0.26988593211E+04  0.25500000920E-02 0. -1.
    10030    2    1    2    0    0  0.00000000000E+00  0.00000000000E+00 -0.14288018163E+04  0.39689168260E+04  0.37028132739E+04 0.  0.
        5    1    3    3  502    0 -0.41563823176E+03  0.67462910259E+03  0.10791101920E+04  0.13387981410E+04  0.46999998093E+01 0.  1.
       -5    1    3    3    0  502  0.41563823176E+03 -0.67462910259E+03 -0.25079120083E+04  0.26301186850E+04  0.46999998093E+01 0. -1.
</event>
<event>
 5   0  0.2282000E-08  0.3701890E+04  0.7818609E-02  0.8067543E-01
       -4   -1    0    0    0  501  0.00000000000E+00  0.00000000000E+00  0.18130586831E+04  0.18130591279E+04  0.12699999809E+01 0.  1.
        4   -1    0    0  501    0  0.00000000000E+00  0.00000000000E+00 -0.18896216331E+04  0.18896220599E+04  0.12699999809E+01 0. -1.
    10030    2    1    2    0    0  0.00000000000E+00  0.00000000000E+00 -0.76562950035E+02  0.37026811877E+04  0.37018895301E+04 0.  0.
        2    1    3    3  502    0 -0.11821512138E+04 -0.85723822069E+03  0.10993524848E+04  0.18278169342E+04  0.25500000920E-02 0. -1.
       -2    1    3    3    0  502  0.11821512138E+04  0.85723822069E+03 -0.11759154348E+04  0.18748642535E+04  0.25500000920E-02 0.  1.
</event>
<event>
 5   0  0.7254493E-08  0.3695857E+04  0.7818609E-02  0.8068881E-01
        2   -1    0    0  501    0  0.00000000000E+00  0.00000000000E+00  0.11455609459E+04  0.11455609459E+04  0.25500000920E-02 0. -1.
       -2   -1    0    0    0  501  0.00000000000E+00  0.00000000000E+00 -0.29809325869E+04  0.29809325869E+04  0.25500000920E-02 0.  1.
    10030    2    1    2    0    0  0.00000000000E+00  0.00000000000E+00 -0.18353716411E+04  0.41264935328E+04  0.36958571151E+04 0.  0.
        3    1    3    3  502    0  0.26279818845E+02  0.14538550368E+04 -0.21909356741E+04  0.26295597037E+04  0.10100000352E+00 0.  1.
       -3    1    3    3    0  502 -0.26279818845E+02 -0.14538550368E+04  0.35556403302E+03  0.14969338291E+04  0.10100000352E+00 0. -1.
</event>
<event>
 5   0  0.2282000E-08  0.3697794E+04  0.7818609E-02  0.8068451E-01
       -1   -1    0    0    0  501  0.00000000000E+00  0.00000000000E+00  0.13720784425E+04  0.13720784425E+04  0.50400001928E-02 0. -1.
        1   -1    0    0  501    0  0.00000000000E+00  0.00000000000E+00 -0.24914174223E+04  0.24914174223E+04  0.50400001928E-02 0.  1.
    10030    2    1    2    0    0  0.00000000000E+00  0.00000000000E+00 -0.11193389798E+04  0.38634958648E+04  0.36977940107E+04 0.  0.
        2    1    3    3  502    0  0.15224358795E+02 -0.16908273291E+04  0.22170057382E+03  0.17053679903E+04  0.25500000920E-02 0.  1.
       -2    1    3    3    0  502 -0.15224358795E+02  0.16908273291E+04 -0.13410395537E+04  0.21581278744E+04  0.25500000920E-02 0. -1.
</event>
<event>
 5   0  0.2282000E-08  0.3705994E+04  0.7818609E-02  0.8066635E-01
        1   -1    0    0  501    0  0.00000000000E+00  0.00000000000E+00  0.29620881723E+04  0.29620881723E+04  0.50400001928E-02 0.  1.
       -1   -1    0    0    0  501  0.00000000000E+00  0.00000000000E+00 -0.11591813441E+04  0.11591813441E+04  0.50400001928E-02 0. -1.
    10030    2    1    2    0    0  0.00000000000E+00  0.00000000000E+00  0.18029068283E+04  0.41212695164E+04  0.37059937123E+04 0.  0.
        5    1    3    3  502    0  0.13285366457E+04 -0.11775108216E+04  0.14920310523E+04  0.23189911827E+04  0.46999998093E+01 0.  1.
       -5    1    3    3    0  502 -0.13285366457E+04  0.11775108216E+04  0.31087577595E+03  0.18022783337E+04  0.46999998093E+01 0. -1.
</event>
<event>
 5   0  0.7309833E-08  0.3702933E+04  0.7818609E-02  0.8067312E-01
       -2   -1    0    0    0  501  0.00000000000E+00  0.00000000000E+00  0.20214474317E+04  0.20214474317E+04  0.25500000920E-02 0.  1.
        2   -1    0    0  501    0  0.00000000000E+00  0.00000000000E+00 -0.16957786963E+04  0.16957786963E+04  0.25500000920E-02 0. -1.
    10030    2    1    2    0    0  0.00000000000E+00  0.00000000000E+00  0.32566873544E+03  0.37172261280E+04  0.37029326164E+04 0.  0.
        2    1    3    3  502    0  0.75287603418E+03  0.16897436909E+04  0.23975537924E+03  0.18653521667E+04  0.25500000920E-02 0.  1.
       -2    1    3    3    0  502 -0.75287603418E+03 -0.16897436909E+04  0.85913356202E+02  0.18518739613E+04  0.25500000920E-02 0. -1.
</event>
<event>
 5   0  0.7362817E-08  0.3699561E+04  0.7818609E-02  0.8068059E-01
       -2   -1    0    0    0  501  0.00000000000E+00  0.00000000000E+00  0.16062947559E+04  0.16062947559E+04  0.25500000920E-02 0.  1.
        2   -1    0    0  501    0  0.00000000000E+00  0.00000000000E+00 -0.21301747534E+04  0.21301747534E+04  0.25500000920E-02 0. -1.
    10030    2    1    2    0    0  0.00000000000E+00  0.00000000000E+00 -0.52387999747E+03  0.37364695093E+04  0.36995613445E+04 0.  0.
        1    1    3    3  502    0  0.15692447596E+04  0.84006467372E+03 -0.77040142578E+03  0.19395247171E+04  0.50400001928E-02 0.  1.
       -1    1    3    3    0  502 -0.15692447596E+04 -0.84006467372E+03  0.24652142831E+03  0.17969447922E+04  0.50400001928E-02 0. -1.
</event>
<event>
 5   0  0.2282000E-08  0.3701168E+04  0.7818609E-02  0.8067703E-01
       -1   -1    0    0    0  501  0.00000000000E+00  0.00000000000E+00  0.21099102316E+04  0.21099102316E+04  0.50400001928E-02 0.  1.
        1   -1    0    0  501    0  0.00000000000E+00  0.00000000000E+00 -0.16231314162E+04  0.16231314162E+04  0.50400001928E-02 0. -1.
    10030    2    1    2    0    0  0.00000000000E+00  0.00000000000E+00  0.48677881544E+03  0.37330416478E+04  0.37011682385E+04 0.  0.
        4    1    3    3  502    0  0.11895541620E+04 -0.91656116850E+03 -0.84737484557E+03  0.17242880333E+04  0.12699999809E+01 0. -1.
       -4    1    3    3    0  502 -0.11895541620E+04  0.91656116850E+03  0.13341536610E+04  0.20087536146E+04  0.12699999809E+01 0.  1.
</event>
<event>
 5   0  0.2282000E-08  0.3695388E+04  0.7818609E-02  0.8068985E-01
       -1   -1    0    0    0  501  0.00000000000E+00  0.00000000000E+00  0.27376299544E+04  0.27376299544E+04  0.50400001928E-02 0.  1.
        1   -1    0    0  501    0  0.00000000000E+00  0.00000000000E+00 -0.12470545135E+04  0.12470545135E+04  0.50400001928E-02 0. -1.
    10030    2    1    2    0    0  0.00000000000E+00  0.00000000000E+00  0.14905754409E+04  0.39846844679E+04  0.36953883644E+04 0.  0.
        3    1    3    3  502    0 -0.14904768459E+04 -0.10096988788E+04  0.29684435770E+03  0.18245902655E+04  0.10100000352E+00 0. -1.
       -3    1    3    3    0  502  0.14904768459E+04  0.10096988788E+04  0.11937310832E+04  0.21600942024E+04  0.10100000352E+00 0.  1.
</event>
<event>
 5   0  0.7309833E-08  0.3697373E+04  0.7818609E-02  0.8068544E-01
       -2   -1    0    0    0  501  0.00000000000E+00  0.00000000000E+00  0.11674357334E+04  0.11674357334E+04  0.25500000920E-02 0. -1.
        2   -1    0    0  501    0  0.00000000000E+00  0.00000000000E+00 -0.29274767649E+04  0.29274767649E+04  0.25500000920E-02 0.  1.
    10030    2    1    2    0    0  0.00000000000E+00  0.00000000000E+00 -0.17600410316E+04  0.40949124983E+04  0.36973725720E+04 0.  0.
        2    1    3    3  502    0 -0.75047938538E+03  0.72812464211E+03 -0.25684907471E+04  0.27731803981E+04  0.25500000920E-02 0.  1.
       -2    1    3    3    0  502  0.75047938538E+03 -0.72812464211E+03  0.80844971549E+03  0.13217321002E+04  0.25500000920E-02 0. -1.
</event>
<event>
 5   0  0.2282000E-08  0.3697954E+04  0.7818609E-02  0.8068415E-01
       -1   -1    0    0    0  501  0.00000000000E+00  0.00000000000E+00  0.16597432995E+04  0.16597432995E+04  0.50400001928E-02 0. -1.
        1   -1    0    0  501    0  0.00000000000E+00  0.00000000000E+00 -0.20597858918E+04  0.20597858918E+04  0.50400001928E-02 0.  1.
    10030    2    1    2    0    0  0.00000000000E+00  0.00000000000E+00 -0.40004259234E+03  0.37195291913E+04  0.36979539382E+04 0.  0.
        3    1    3    3  502    0  0.11345859870E+04 -0.12503780991E+04 -0.95806620273E+03  0.19412937984E+04  0.10100000352E+00 0. -1.
       -3    1    3    3    0  502 -0.11345859870E+04  0.12503780991E+04  0.55802361039E+03  0.17782353929E+04  0.10100000352E+00 0.  1.
</event>
<event>
 5   0  0.2282000E-08  0.3721022E+04  0.7818609E-02  0.8063319E-01
       -1   -1    0    0    0  501  0.00000000000E+00  0.00000000000E+00  0.21655029366E+04  0.21655029366E+04  0.50400001928E-02 0. -1.
        1   -1    0    0  501    0  0.00000000000E+00  0.00000000000E+00 -0.15984743743E+04  0.15984743743E+04  0.50400001928E-02 0.  1.
    10030    2    1    2    0    0  0.00000000000E+00  0.00000000000E+00  0.56702856238E+03  0.37639773109E+04  0.37210218766E+04 0.  0.
        1    1    3    3  502    0  0.90486743490E+03 -0.93651514864E+03  0.16276333084E+04  0.20844749663E+04  0.50400001928E-02 0. -1.
       -1    1    3    3    0  502 -0.90486743490E+03  0.93651514864E+03 -0.10606047460E+04  0.16795023446E+04  0.50400001928E-02 0.  1.
</event>
<event>
 5   0  0.2282000E-08  0.3697945E+04  0.7818609E-02  0.8068417E-01
        1   -1    0    0  501    0  0.00000000000E+00  0.00000000000E+00  0.27508322081E+04  0.27508322081E+04  0.50400001928E-02 0.  1.
       -1   -1    0    0    0  501  0.00000000000E+00  0.00000000000E+00 -0.12427871013E+04  0.12427871013E+04  0.50400001928E-02 0. -1.
    10030    2    1    2    0    0  0.00000000000E+00  0.00000000000E+00  0.15080451068E+04  0.39936193094E+04  0.36979447189E+04 0.  0.
        2    1    3    3  502    0  0.20003630990E+03 -0.15473198000E+03 -0.12240209084E+04  0.12498734716E+04  0.25500000920E-02 0. -1.
       -2    1    3    3    0  502 -0.20003630990E+03  0.15473198000E+03  0.27320660152E+04  0.27437458377E+04  0.25500000920E-02 0.  1.
</event>
<event>
 5   0  0.7203049E-08  0.3676062E+04  0.7818609E-02  0.8073288E-01
       -2   -1    0    0    0  501  0.00000000000E+00  0.00000000000E+00  0.18355558909E+04  0.18355558909E+04  0.25500000920E-02 0. -1.
        2   -1    0    0  501    0  0.00000000000E+00  0.00000000000E+00 -0.18405095959E+04  0.18405095959E+04  0.25500000920E-02 0.  1.
    10030    2    1    2    0    0  0.00000000000E+00  0.00000000000E+00 -0.49537050096E+01  0.36760654867E+04  0.36760621490E+04 0.  0.
        4    1    3    3  502    0 -0.14107972669E+04 -0.59090528923E+03 -0.10217121125E+04  0.18394062202E+04  0.12699999809E+01 0.  1.
       -4    1    3    3    0  502  0.14107972669E+04  0.59090528923E+03  0.10167584075E+04  0.18366592665E+04  0.12699999809E+01 0. -1.
</event>
<event>
 5   0  0.2282000E-08  0.3699829E+04  0.7818609E-02  0.8068000E-01
       -1   -1    0    0    0  501  0.00000000000E+00  0.00000000000E+00  0.25442225116E+04  0.25442225116E+04  0.50400001928E-02 0.  1.
        1   -1    0    0  501    0  0.00000000000E+00  0.00000000000E+00 -0.13450803072E+04  0.13450803072E+04  0.50400001928E-02 0. -1.
    10030    2    1    2    0    0  0.00000000000E+00  0.00000000000E+00  0.11991422044E+04  0.38893028188E+04  0.36998289677E+04 0.  0.
        2    1    3    3  502    0 -0.81490758522E+03 -0.54961795748E+03  0.22470007752E+04  0.24525836897E+04  0.25500000920E-02 0.  1.
       -2    1    3    3    0  502  0.81490758522E+03  0.54961795748E+03 -0.10478585707E+04  0.14367191291E+04  0.25500000920E-02 0. -1.
</event>
<event>
 5   0  0.7203049E-08  0.3644925E+04  0.7818609E-02  0.8080278E-01
       -2   -1    0    0    0  501  0.00000000000E+00  0.00000000000E+00  0.14133066760E+04  0.14133066760E+04  0.25500000920E-02 0. -1.
        2   -1    0    0  501    0  0.00000000000E+00  0.00000000000E+00 -0.23500697691E+04  0.23500697691E+04  0.25500000920E-02 0.  1.
    10030    2    1    2    0    0  0.00000000000E+00  0.00000000000E+00 -0.93676309307E+03  0.37633764451E+04  0.36449248517E+04 0.  0.
        4    1    3    3  502    0 -0.14530144854E+04  0.10980535958E+04 -0.39993320467E+03  0.18646503627E+04  0.12699999809E+01 0.  1.
       -4    1    3    3    0  502  0.14530144854E+04 -0.10980535958E+04 -0.53682988840E+03  0.18987260824E+04  0.12699999809E+01 0. -1.
</event>
<event>
 5   0  0.7362817E-08  0.3697566E+04  0.7818609E-02  0.8068501E-01
       -2   -1    0    0    0  501  0.00000000000E+00  0.00000000000E+00  0.26102222361E+04  0.26102222361E+04  0.25500000920E-02 0. -1.
        2   -1    0    0  501    0  0.00000000000E+00  0.00000000000E+00 -0.13094666052E+04  0.13094666053E+04  0.25500000920E-02 0.  1.
    10030    2    1    2    0    0  0.00000000000E+00  0.00000000000E+00  0.13007556309E+04  0.39196888414E+04  0.36975661457E+04 0.  0.
        1    1    3    3  502    0 -0.38289354309E+03 -0.79744342755E+03  0.23713154069E+04  0.25309405850E+04  0.50400001928E-02 0. -1.
       -1    1    3    3    0  502  0.38289354309E+03  0.79744342755E+03 -0.10705597761E+04  0.13887482564E+04  0.50400001928E-02 0.  1.
</event>
<event>
 5   0  0.7191801E-08  0.3704229E+04  0.7818609E-02  0.8067025E-01
       -2   -1    0    0    0  501  0.00000000000E+00  0.00000000000E+00  0.23706971042E+04  0.23706971042E+04  0.25500000920E-02 0. -1.
        2   -1    0    0  501    0  0.00000000000E+00  0.00000000000E+00 -0.14469702519E+04  0.14469702519E+04  0.25500000920E-02 0.  1.
    10030    2    1    2    0    0  0.00000000000E+00  0.00000000000E+00  0.92372685228E+03  0.38176673561E+04  0.37042290350E+04 0.  0.
        5    1    3    3  502    0 -0.41517020685E+03 -0.12075243425E+03  0.23179479103E+04  0.23579338531E+04  0.46999998093E+01 0. -1.
       -5    1    3    3    0  502  0.41517020685E+03  0.12075243425E+03 -0.13942210580E+04  0.14597335029E+04  0.46999998093E+01 0.  1.
</event>
<event>
 5   0  0.7254493E-08  0.3705128E+04  0.7818609E-02  0.8066826E-01
       -2   -1    0    0    0  501  0.00000000000E+00  0.00000000000E+00  0.16074731062E+04  0.16074731062E+04  0.25500000920E-02 0. -1.
        2   -1    0    0  501    0  0.00000000000E+00  0.00000000000E+00 -0.21350237154E+04  0.21350237154E+04  0.25500000920E-02 0.  1.
    10030    2    1    2    0    0  0.00000000000E+00  0.00000000000E+00 -0.52755060918E+03  0.37424968216E+04  0.37051279080E+04 0.  0.
        3    1    3    3  502    0  0.18026594055E+04 -0.45034121452E+02  0.16522487019E+03  0.18107755997E+04  0.10100000352E+00 0.  1.
       -3    1    3    3    0  502 -0.18026594055E+04  0.45034121452E+02 -0.69277547937E+03  0.19317212220E+04  0.10100000352E+00 0. -1.
</event>
<event>
 5   0  0.7203049E-08  0.3739712E+04  0.7818609E-02  0.8059218E-01
        2   -1    0    0  501    0  0.00000000000E+00  0.00000000000E+00  0.19893048675E+04  0.19893048675E+04  0.25500000920E-02 0. -1.
       -2   -1    0    0    0  501  0.00000000000E+00  0.00000000000E+00 -0.17575791205E+04  0.17575791205E+04  0.25500000920E-02 0.  1.
    10030    2    1    2    0    0  0.00000000000E+00  0.00000000000E+00  0.23172574696E+03  0.37468839880E+04  0.37397115928E+04 0.  0.
        4    1    3    3  502    0  0.49150202189E+03 -0.17113857948E+04  0.68787245701E+03  0.19088178819E+04  0.12699999809E+01 0. -1.
       -4    1    3    3    0  502 -0.49150202189E+03  0.17113857948E+04 -0.45614671005E+03  0.18380661061E+04  0.12699999809E+01 0.  1.
</event>
<event>
 5   0  0.2282000E-08  0.3698163E+04  0.7818609E-02  0.8068369E-01
       -1   -1    0    0    0  501  0.00000000000E+00  0.00000000000E+00  0.20226130003E+04  0.20226130003E+04  0.50400001928E-02 0.  1.
        1   -1    0    0  501    0  0.00000000000E+00  0.00000000000E+00 -0.16904381863E+04  0.16904381863E+04  0.50400001928E-02 0. -1.
    10030    2    1    2    0    0  0.00000000000E+00  0.00000000000E+00  0.33217481398E+03  0.37130511866E+04  0.36981629233E+04 0.  0.
        3    1    3    3  502    0 -0.53902342648E+03 -0.66285773907E+03 -0.14803850785E+04  0.17092298346E+04  0.10100000352E+00 0. -1.
       -3    1    3    3    0  502  0.53902342648E+03  0.66285773907E+03  0.18125598925E+04  0.20038213520E+04  0.10100000352E+00 0.  1.
</event>
<event>
 5   0  0.2282000E-08  0.3698938E+04  0.7818609E-02  0.8068197E-01
        1   -1    0    0  501    0  0.00000000000E+00  0.00000000000E+00  0.15383228244E+04  0.15383228244E+04  0.50400001928E-02 0. -1.
       -1   -1    0    0    0  501  0.00000000000E+00  0.00000000000E+00 -0.22235485522E+04  0.22235485522E+04  0.50400001928E-02 0.  1.
    10030    2    1    2    0    0  0.00000000000E+00  0.00000000000E+00 -0.68522572781E+03  0.37618713766E+04  0.36989379497E+04 0.  0.
        2    1    3    3  502    0  0.99860207462E+03  0.66187928508E+03  0.10903468254E+04  0.16199217546E+04  0.25500000920E-02 0. -1.
       -2    1    3    3    0  502 -0.99860207462E+03 -0.66187928508E+03 -0.17755725532E+04  0.21419496220E+04  0.25500000920E-02 0.  1.
</event>
<event>
 5   0  0.2282000E-08  0.3683569E+04  0.7818609E-02  0.8071613E-01
        1   -1    0    0  501    0  0.00000000000E+00  0.00000000000E+00  0.16014312645E+04  0.16014312645E+04  0.50400001928E-02 0. -1.
       -1   -1    0    0    0  501  0.00000000000E+00  0.00000000000E+00 -0.21182109770E+04  0.21182109770E+04  0.50400001928E-02 0.  1.
    10030    2    1    2    0    0  0.00000000000E+00  0.00000000000E+00 -0.51677971249E+03  0.37196422414E+04  0.36835685324E+04 0.  0.
        5    1    3    3  502    0  0.11677877501E+04  0.12040279750E+04  0.50980698245E+03  0.17530935067E+04  0.46999998093E+01 0. -1.
       -5    1    3    3    0  502 -0.11677877501E+04 -0.12040279750E+04 -0.10265866949E+04  0.19665487347E+04  0.46999998093E+01 0.  1.
</event>
<event>
 5   0  0.7203049E-08  0.3687577E+04  0.7818609E-02  0.8070720E-01
       -2   -1    0    0    0  501  0.00000000000E+00  0.00000000000E+00  0.24460518386E+04  0.24460518386E+04  0.25500000920E-02 0. -1.
        2   -1    0    0  501    0  0.00000000000E+00  0.00000000000E+00 -0.13898135933E+04  0.13898135933E+04  0.25500000920E-02 0.  1.
    10030    2    1    2    0    0  0.00000000000E+00  0.00000000000E+00  0.10562382454E+04  0.38358654319E+04  0.36875770338E+04 0.  0.
        4    1    3    3  502    0  0.12806047552E+02  0.11299042616E+03  0.24424003042E+04  0.24450463575E+04  0.12699999809E+01 0. -1.
       -4    1    3    3    0  502 -0.12806047552E+02 -0.11299042616E+03 -0.13861620589E+04  0.13908190744E+04  0.12699999809E+01 0.  1.
</event>
<event>
 5   0  0.2282000E-08  0.3716329E+04  0.7818609E-02  0.8064353E-01
       -1   -1    0    0    0  501  0.00000000000E+00  0.00000000000E+00  0.17377121707E+04  0.17377121707E+04  0.50400001928E-02 0.  1.
        1   -1    0    0  501    0  0.00000000000E+00  0.00000000000E+00 -0.19869666593E+04  0.19869666593E+04  0.50400001928E-02 0. -1.
    10030    2    1    2    0    0  0.00000000000E+00  0.00000000000E+00 -0.24925448863E+03  0.37246788301E+04  0.37163294508E+04 0.  0.
        1    1    3    3  502    0  0.75272011644E+03  0.33587057263E+03  0.15444609161E+04  0.17506444918E+04  0.50400001928E-02 0.  1.
       -1    1    3    3    0  502 -0.75272011644E+03 -0.33587057263E+03 -0.17937154048E+04  0.19740343382E+04  0.50400001928E-02 0. -1.
</event>
<event>
 5   0  0.2282000E-08  0.3698041E+04  0.7818609E-02  0.8068396E-01
       -1   -1    0    0    0  501  0.00000000000E+00  0.00000000000E+00  0.30705196883E+04  0.30705196883E+04  0.50400001928E-02 0. -1.
        1   -1    0    0  501    0  0.00000000000E+00  0.00000000000E+00 -0.11134521676E+04  0.11134521676E+04  0.50400001928E-02 0.  1.
    10030    2    1    2    0    0  0.00000000000E+00  0.00000000000E+00  0.19570675207E+04  0.41839718559E+04  0.36980409963E+04 0.  0.
        5    1    3    3  502    0  0.66040058067E+03  0.25577511144E+03 -0.95391479955E+03  0.11880763315E+04  0.46999998093E+01 0.  1.
       -5    1    3    3    0  502 -0.66040058067E+03 -0.25577511144E+03  0.29109823202E+04  0.29958955244E+04  0.46999998093E+01 0. -1.
</event>
<event>
 5   0  0.2282000E-08  0.3689114E+04  0.7818609E-02  0.8070379E-01
        1   -1    0    0  501    0  0.00000000000E+00  0.00000000000E+00  0.14123374520E+04  0.14123374521E+04  0.50400001928E-02 0.  1.
       -1   -1    0    0    0  501  0.00000000000E+00  0.00000000000E+00 -0.24090492967E+04  0.24090492967E+04  0.50400001928E-02 0. -1.
    10030    2    1    2    0    0  0.00000000000E+00  0.00000000000E+00 -0.99671184465E+03  0.38213867488E+04  0.36891140105E+04 0.  0.
        1    1    3    3  502    0 -0.18514167398E+03  0.15162643006E+04 -0.15693796150E+04  0.21900427495E+04  0.50400001928E-02 0. -1.
       -1    1    3    3    0  502  0.18514167398E+03 -0.15162643006E+04  0.57266777032E+03  0.16313439993E+04  0.50400001928E-02 0.  1.
</event>
<event>
 5   0  0.2282000E-08  0.3707988E+04  0.7818609E-02  0.8066194E-01
       -1   -1    0    0    0  501  0.00000000000E+00  0.00000000000E+00  0.28406097637E+04  0.28406097637E+04  0.50400001928E-02 0.  1.
        1   -1    0    0  501    0  0.00000000000E+00  0.00000000000E+00 -0.12100548396E+04  0.12100548396E+04  0.50400001928E-02 0. -1.
    10030    2    1    2    0    0  0.00000000000E+00  0.00000000000E+00  0.16305549241E+04  0.40506646033E+04  0.37079879137E+04 0.  0.
        2    1    3    3  502    0 -0.24288159812E+03  0.33767557326E+03 -0.11584241662E+04  0.12308382559E+04  0.25500000920E-02 0. -1.
       -2    1    3    3    0  502  0.24288159812E+03 -0.33767557326E+03  0.27889790902E+04  0.28198263474E+04  0.25500000920E-02 0.  1.
</event>
<event>
 5   0  0.7191801E-08  0.3719477E+04  0.7818609E-02  0.8063659E-01
        2   -1    0    0  501    0  0.00000000000E+00  0.00000000000E+00  0.18288380153E+04  0.18288380153E+04  0.25500000920E-02 0. -1.
       -2   -1    0    0    0  501  0.00000000000E+00  0.00000000000E+00 -0.18911607372E+04  0.18911607372E+04  0.25500000920E-02 0.  1.
    10030    2    1    2    0    0  0.00000000000E+00  0.00000000000E+00 -0.62322721871E+02  0.37199987525E+04  0.37194766564E+04 0.  0.
        5    1    3    3  502    0  0.32480147894E+03  0.18310488354E+04 -0.11956553838E+02  0.18596776300E+04  0.46999998093E+01 0.  1.
       -5    1    3    3    0  502 -0.32480147894E+03 -0.18310488354E+04 -0.50366168033E+02  0.18603211226E+04  0.46999998093E+01 0. -1.
</event>
<event>
 5   0  0.7203049E-08  0.3711996E+04  0.7818609E-02  0.8065309E-01
        2   -1    0    0  501    0  0.00000000000E+00  0.00000000000E+00  0.13050343402E+04  0.13050343402E+04  0.25500000920E-02 0.  1.
       -2   -1    0    0    0  501  0.00000000000E+00  0.00000000000E+00 -0.26395696287E+04  0.26395696287E+04  0.25500000920E-02 0. -1.
    10030    2    1    2    0    0  0.00000000000E+00  0.00000000000E+00 -0.13345352885E+04  0.39446039690E+04  0.37119962333E+04 0.  0.
        4    1    3    3  502    0 -0.98468460400E+02  0.15265493248E+03  0.12955640842E+04  0.13082383098E+04  0.12699999809E+01 0.  1.
       -4    1    3    3    0  502  0.98468460400E+02 -0.15265493248E+03 -0.26300993726E+04  0.26363656592E+04  0.12699999809E+01 0. -1.
</event>
<event>
 5   0  0.2282000E-08  0.3704896E+04  0.7818609E-02  0.8066878E-01
       -1   -1    0    0    0  501  0.00000000000E+00  0.00000000000E+00  0.13859968745E+04  0.13859968746E+04  0.50400001928E-02 0. -1.
        1   -1    0    0  501    0  0.00000000000E+00  0.00000000000E+00 -0.24758815237E+04  0.24758815237E+04  0.50400001928E-02 0.  1.
    10030    2    1    2    0    0  0.00000000000E+00  0.00000000000E+00 -0.10898846491E+04  0.38618783982E+04  0.37048962488E+04 0.  0.
        3    1    3    3  502    0 -0.13112133221E+04  0.13059699258E+04 -0.63043090091E+03  0.19550654603E+04  0.10100000352E+00 0. -1.
       -3    1    3    3    0  502  0.13112133221E+04 -0.13059699258E+04 -0.45945374820E+03  0.19068129379E+04  0.10100000352E+00 0.  1.
</event>
<event>
 5   0  0.2282000E-08  0.3697408E+04  0.7818609E-02  0.8068537E-01
        1   -1    0    0  501    0  0.00000000000E+00  0.00000000000E+00  0.99137448446E+03  0.99137448447E+03  0.50400001928E-02 0. -1.
       -1   -1    0    0    0  501  0.00000000000E+00  0.00000000000E+00 -0.34474416518E+04  0.34474416518E+04  0.50400001928E-02 0.  1.
    10030    2    1    2    0    0  0.00000000000E+00  0.00000000000E+00 -0.24560671673E+04  0.44388161363E+04  0.36974075730E+04 0.  0.
        2    1    3    3  502    0  0.31603099344E+03 -0.99524728729E+03  0.60342550467E+03  0.12060327903E+04  0.25500000920E-02 0. -1.
       -2    1    3    3    0  502 -0.31603099344E+03  0.99524728729E+03 -0.30594926720E+04  0.32327833459E+04  0.25500000920E-02 0.  1.
</event>
<event>
 5   0  0.7203049E-08  0.3700288E+04  0.7818609E-02  0.8067898E-01
       -2   -1    0    0    0  501  0.00000000000E+00  0.00000000000E+00  0.18496436270E+04  0.18496436270E+04  0.25500000920E-02 0.  1.
        2   -1    0    0  501    0  0.00000000000E+00  0.00000000000E+00 -0.18506445718E+04  0.18506445718E+04  0.25500000920E-02 0. -1.
    10030    2    1    2    0    0  0.00000000000E+00  0.00000000000E+00 -0.10009447906E+01  0.37002881989E+04  0.37002880635E+04 0.  0.
        4    1    3    3  502    0  0.13357595267E+04  0.12289468507E+04 -0.35892404829E+03  0.18502410546E+04  0.12699999809E+01 0.  1.
       -4    1    3    3    0  502 -0.13357595267E+04 -0.12289468507E+04  0.35792310350E+03  0.18500471442E+04  0.12699999809E+01 0. -1.
</event>
<event>
 5   0  0.2282000E-08  0.3690906E+04  0.7818609E-02  0.8069980E-01
        1   -1    0    0  501    0  0.00000000000E+00  0.00000000000E+00  0.12744862656E+04  0.12744862656E+04  0.50400001928E-02 0. -1.
       -1   -1    0    0    0  501  0.00000000000E+00  0.00000000000E+00 -0.26722113806E+04  0.26722113806E+04  0.50400001928E-02 0.  1.
    10030    2    1    2    0    0  0.00000000000E+00  0.00000000000E+00 -0.13977251150E+04  0.39466976462E+04  0.36909059611E+04 0.  0.
        1    1    3    3  502    0 -0.17870774047E+04  0.43952356111E+03 -0.55197402587E+03  0.19213281699E+04  0.50400001928E-02 0. -1.
       -1    1    3    3    0  502  0.17870774047E+04 -0.43952356111E+03 -0.84575108909E+03  0.20253694764E+04  0.50400001928E-02 0.  1.
</event>
<event>
 5   0  0.7362817E-08  0.3668157E+04  0.7818609E-02  0.8075055E-01
       -2   -1    0    0    0  501  0.00000000000E+00  0.00000000000E+00  0.17982216446E+04  0.17982216446E+04  0.25500000920E-02 0. -1.
        2   -1    0    0  501    0  0.00000000000E+00  0.00000000000E+00 -0.18706507451E+04  0.18706507451E+04  0.25500000920E-02 0.  1.
    10030    2    1    2    0    0  0.00000000000E+00  0.00000000000E+00 -0.72429100573E+02  0.36688723897E+04  0.36681573899E+04 0.  0.
        1    1    3    3  502    0 -0.18577205982E+03 -0.64190238584E+03  0.16721273713E+04  0.18007109366E+04  0.50400001928E-02 0. -1.
       -1    1    3    3    0  502  0.18577205982E+03  0.64190238584E+03 -0.17445564719E+04  0.18681614531E+04  0.50400001928E-02 0.  1.
</event>
<event>
 5   0  0.2282000E-08  0.3710838E+04  0.7818609E-02  0.8065564E-01
        1   -1    0    0  501    0  0.00000000000E+00  0.00000000000E+00  0.19212243554E+04  0.19212243554E+04  0.50400001928E-02 0.  1.
       -1   -1    0    0    0  501  0.00000000000E+00  0.00000000000E+00 -0.17918672935E+04  0.17918672935E+04  0.50400001928E-02 0. -1.
    10030    2    1    2    0    0  0.00000000000E+00  0.00000000000E+00  0.12935706193E+03  0.37130916489E+04  0.37108376876E+04 0.  0.
        1    1    3    3  502    0  0.13794559193E+03  0.17633440557E+04  0.62552575400E+03  0.18760846766E+04  0.50400001928E-02 0.  1.
       -1    1    3    3    0  502 -0.13794559193E+03 -0.17633440557E+04 -0.49616869206E+03  0.18370069722E+04  0.50400001928E-02 0. -1.
</event>
<event>
 5   0  0.2282000E-08  0.3663245E+04  0.7818609E-02  0.8076156E-01
       -1   -1    0    0    0  501  0.00000000000E+00  0.00000000000E+00  0.19332855691E+04  0.19332855691E+04  0.50400001928E-02 0. -1.
        1   -1    0    0  501    0  0.00000000000E+00  0.00000000000E+00 -0.17353050149E+04  0.17353050149E+04  0.50400001928E-02 0.  1.
    10030    2    1    2    0    0  0.00000000000E+00  0.00000000000E+00  0.19798055420E+03  0.36685905840E+04  0.36632445419E+04 0.  0.
        1    1    3    3  502    0 -0.31085601655E+02  0.13539286756E+04 -0.11359967254E+04  0.17676475139E+04  0.50400001928E-02 0.  1.
       -1    1    3    3    0  502  0.31085601655E+02 -0.13539286756E+04  0.13339772796E+04  0.19009430701E+04  0.50400001928E-02 0. -1.
</event>
<event>
 5   0  0.7254493E-08  0.3701699E+04  0.7818609E-02  0.8067585E-01
       -2   -1    0    0    0  501  0.00000000000E+00  0.00000000000E+00  0.16880804970E+04  0.16880804970E+04  0.25500000920E-02 0.  1.
        2   -1    0    0  501    0  0.00000000000E+00  0.00000000000E+00 -0.20293130165E+04  0.20293130165E+04  0.25500000920E-02 0. -1.
    10030    2    1    2    0    0  0.00000000000E+00  0.00000000000E+00 -0.34123251955E+03  0.37173935135E+04  0.37016989210E+04 0.  0.
        3    1    3    3  502    0  0.33825567021E+03 -0.49125942505E+03  0.15889228394E+04  0.16971825243E+04  0.10100000352E+00 0.  1.
       -3    1    3    3    0  502 -0.33825567021E+03  0.49125942505E+03 -0.19301553589E+04  0.20202109892E+04  0.10100000352E+00 0. -1.
</event>
<event>
 5   0  0.2282000E-08  0.3697577E+04  0.7818609E-02  0.8068499E-01
        3   -1    0    0  501    0  0.00000000000E+00  0.00000000000E+00  0.22555060586E+04  0.22555060609E+04  0.10100000352E+00 0.  1.
       -3   -1    0    0    0  501  0.00000000000E+00  0.00000000000E+00 -0.15154114434E+04  0.15154114467E+04  0.10100000352E+00 0. -1.
    10030    2    1    2    0    0  0.00000000000E+00  0.00000000000E+00  0.74009461526E+03  0.37709175076E+04  0.36975774244E+04 0.  0.
        4    1    3    3  502    0 -0.84740887507E+03  0.16412462218E+04  0.45052465176E+03  0.19012535435E+04  0.12699999809E+01 0. -1.
       -4    1    3    3    0  502  0.84740887507E+03 -0.16412462218E+04  0.28956996350E+03  0.18696639641E+04  0.12699999809E+01 0.  1.
</event>
<event>
 5   0  0.7254493E-08  0.3699279E+04  0.7818609E-02  0.8068122E-01
        2   -1    0    0  501    0  0.00000000000E+00  0.00000000000E+00  0.21536504546E+04  0.21536504546E+04  0.25500000920E-02 0.  1.
       -2   -1    0    0    0  501  0.00000000000E+00  0.00000000000E+00 -0.15885429106E+04  0.15885429106E+04  0.25500000920E-02 0. -1.
    10030    2    1    2    0    0  0.00000000000E+00  0.00000000000E+00  0.56510754397E+03  0.37421933652E+04  0.36992789360E+04 0.  0.
        3    1    3    3  502    0  0.54874579321E+03 -0.44500368638E+02  0.20688424767E+04  0.21408436262E+04  0.10100000352E+00 0.  1.
       -3    1    3    3    0  502 -0.54874579321E+03  0.44500368638E+02 -0.15037349327E+04  0.16013497390E+04  0.10100000352E+00 0. -1.
</event>
<event>
 5   0  0.7203049E-08  0.3703616E+04  0.7818609E-02  0.8067161E-01
       -2   -1    0    0    0  501  0.00000000000E+00  0.00000000000E+00  0.15632996026E+04  0.15632996026E+04  0.25500000920E-02 0.  1.
        2   -1    0    0  501    0  0.00000000000E+00  0.00000000000E+00 -0.21935607568E+04  0.21935607568E+04  0.25500000920E-02 0. -1.
    10030    2    1    2    0    0  0.00000000000E+00  0.00000000000E+00 -0.63026115429E+03  0.37568603594E+04  0.37036158869E+04 0.  0.
        4    1    3    3  502    0  0.79013510075E+03  0.12115789485E+04 -0.14880207575E+04  0.20751974396E+04  0.12699999809E+01 0. -1.
       -4    1    3    3    0  502 -0.79013510075E+03 -0.12115789485E+04  0.85775960316E+03  0.16816629198E+04  0.12699999809E+01 0.  1.
</event>
<event>
 5   0  0.7254493E-08  0.3699082E+04  0.7818609E-02  0.8068165E-01
       -2   -1    0    0    0  501  0.00000000000E+00  0.00000000000E+00  0.33568934312E+04  0.33568934312E+04  0.25500000920E-02 0. -1.
        2   -1    0    0  501    0  0.00000000000E+00  0.00000000000E+00 -0.10190382556E+04  0.10190382556E+04  0.25500000920E-02 0.  1.
    10030    2    1    2    0    0  0.00000000000E+00  0.00000000000E+00  0.23378551756E+04  0.43759316868E+04  0.36990824951E+04 0.  0.
        3    1    3    3  502    0 -0.15909241358E+04 -0.26153024857E+03  0.96804496482E+02  0.16151807322E+04  0.10100000352E+00 0.  1.
       -3    1    3    3    0  502  0.15909241358E+04  0.26153024857E+03  0.22410506791E+04  0.27607509546E+04  0.10100000352E+00 0. -1.
</event>
<event>
 5   0  0.7362817E-08  0.3695780E+04  0.7818609E-02  0.8068898E-01
        2   -1    0    0  501    0  0.00000000000E+00  0.00000000000E+00  0.13943495011E+04  0.13943495011E+04  0.25500000920E-02 0. -1.
       -2   -1    0    0    0  501  0.00000000000E+00  0.00000000000E+00 -0.24489542177E+04  0.24489542177E+04  0.25500000920E-02 0.  1.
    10030    2    1    2    0    0  0.00000000000E+00  0.00000000000E+00 -0.10546047166E+04  0.38433037187E+04  0.36957803460E+04 0.  0.
        1    1    3    3  502    0  0.14754875553E+04 -0.11118567244E+04 -0.56633997796E+03  0.19323638043E+04  0.50400001928E-02 0. -1.
       -1    1    3    3    0  502 -0.14754875553E+04  0.11118567244E+04 -0.48826473868E+03  0.19109399144E+04  0.50400001928E-02 0.  1.
</event>
<event>
 5   0  0.2282000E-08  0.3694723E+04  0.7818609E-02  0.8069132E-01
        1   -1    0    0  501    0  0.00000000000E+00  0.00000000000E+00  0.13703930150E+04  0.13703930150E+04  0.50400001928E-02 0.  1.
       -1   -1    0    0    0  501  0.00000000000E+00  0.00000000000E+00 -0.24903397725E+04  0.24903397725E+04  0.50400001928E-02 0. -1.
    10030    2    1    2    0    0  0.00000000000E+00  0.00000000000E+00 -0.11199467575E+04  0.38607327875E+04  0.36947228471E+04 0.  0.
        2    1    3    3  502    0  0.51291627130E+03 -0.17498034547E+04 -0.25026262605E+03  0.18405234618E+04  0.25500000920E-02 0.  1.
       -2    1    3    3    0  502 -0.51291627130E+03  0.17498034547E+04 -0.86968413148E+03  0.20202093258E+04  0.25500000920E-02 0. -1.
</event>
<event>
 5   0  0.2282000E-08  0.3701502E+04  0.7818609E-02  0.8067629E-01
        1   -1    0    0  501    0  0.00000000000E+00  0.00000000000E+00  0.24778670962E+04  0.24778670962E+04  0.50400001928E-02 0. -1.
       -1   -1    0    0    0  501  0.00000000000E+00  0.00000000000E+00 -0.13823496084E+04  0.13823496084E+04  0.50400001928E-02 0.  1.
    10030    2    1    2    0    0  0.00000000000E+00  0.00000000000E+00  0.10955174878E+04  0.38602167047E+04  0.37015016468E+04 0.  0.
        4    1    3    3  502    0  0.13344891749E+04  0.10201117795E+04  0.13581147075E+04  0.21600848530E+04  0.12699999809E+01 0. -1.
       -4    1    3    3    0  502 -0.13344891749E+04 -0.10201117795E+04 -0.26259721972E+03  0.17001318517E+04  0.12699999809E+01 0.  1.
</event>
<event>
 5   0  0.7191801E-08  0.3701514E+04  0.7818609E-02  0.8067626E-01
        2   -1    0    0  501    0  0.00000000000E+00  0.00000000000E+00  0.18734137384E+04  0.18734137384E+04  0.25500000920E-02 0. -1.
       -2   -1    0    0    0  501  0.00000000000E+00  0.00000000000E+00 -0.18283746632E+04  0.18283746632E+04  0.25500000920E-02 0.  1.
    10030    2    1    2    0    0  0.00000000000E+00  0.00000000000E+00  0.45039075139E+02  0.37017884016E+04  0.37015143998E+04 0.  0.
        5    1    3    3  502    0  0.12621545650E+04  0.13024663171E+04 -0.34605552879E+03  0.18464098061E+04  0.46999998093E+01 0.  1.
       -5    1    3    3    0  502 -0.12621545650E+04 -0.13024663171E+04  0.39109460393E+03  0.18553785954E+04  0.46999998093E+01 0. -1.
</event>
<event>
 5   0  0.2282000E-08  0.3695153E+04  0.7818609E-02  0.8069037E-01
        1   -1    0    0  501    0  0.00000000000E+00  0.00000000000E+00  0.16044503857E+04  0.16044503857E+04  0.50400001928E-02 0. -1.
       -1   -1    0    0    0  501  0.00000000000E+00  0.00000000000E+00 -0.21275442384E+04  0.21275442384E+04  0.50400001928E-02 0.  1.
    10030    2    1    2    0    0  0.00000000000E+00  0.00000000000E+00 -0.52309385265E+03  0.37319946241E+04  0.36951531356E+04 0.  0.
        1    1    3    3  502    0 -0.15818282924E+03  0.27806632601E+01  0.15975966510E+04  0.16054110373E+04  0.50400001928E-02 0. -1.
       -1    1    3    3    0  502  0.15818282924E+03 -0.27806632601E+01 -0.21206905036E+04  0.21265835868E+04  0.50400001928E-02 0.  1.
</event>
<event>
 5   0  0.2282000E-08  0.3704708E+04  0.7818609E-02  0.8066919E-01
       -1   -1    0    0    0  501  0.00000000000E+00  0.00000000000E+00  0.20795899013E+04  0.20795899013E+04  0.50400001928E-02 0. -1.
        1   -1    0    0  501    0  0.00000000000E+00  0.00000000000E+00 -0.16499477884E+04  0.16499477884E+04  0.50400001928E-02 0.  1.
    10030    2    1    2    0    0  0.00000000000E+00  0.00000000000E+00  0.42964211288E+03  0.37295376896E+04  0.37047076853E+04 0.  0.
        4    1    3    3  502    0 -0.17996133176E+04 -0.17852800800E+03  0.61842305975E+03  0.19112637275E+04  0.12699999809E+01 0. -1.
       -4    1    3    3    0  502  0.17996133176E+04  0.17852800800E+03 -0.18878094686E+03  0.18182739621E+04  0.12699999809E+01 0.  1.
</event>
<event>
 5   0  0.2282000E-08  0.3708189E+04  0.7818609E-02  0.8066149E-01
       -1   -1    0    0    0  501  0.00000000000E+00  0.00000000000E+00  0.16420883901E+04  0.16420883901E+04  0.50400001928E-02 0. -1.
        1   -1    0    0  501    0  0.00000000000E+00  0.00000000000E+00 -0.20934723382E+04  0.20934723382E+04  0.50400001928E-02 0.  1.
    10030    2    1    2    0    0  0.00000000000E+00  0.00000000000E+00 -0.45138394811E+03  0.37355607283E+04  0.37081891114E+04 0.  0.
        5    1    3    3  502    0  0.12569148842E+04  0.73090478053E+03  0.93327294182E+03  0.17277376242E+04  0.46999998093E+01 0. -1.
       -5    1    3    3    0  502 -0.12569148842E+04 -0.73090478053E+03 -0.13846568899E+04  0.20078231040E+04  0.46999998093E+01 0.  1.
</event>
<event>
 5   0  0.7203049E-08  0.3702266E+04  0.7818609E-02  0.8067460E-01
       -2   -1    0    0    0  501  0.00000000000E+00  0.00000000000E+00  0.24559452843E+04  0.24559452843E+04  0.25500000920E-02 0.  1.
        2   -1    0    0  501    0  0.00000000000E+00  0.00000000000E+00 -0.13952648300E+04  0.13952648300E+04  0.25500000920E-02 0. -1.
    10030    2    1    2    0    0  0.00000000000E+00  0.00000000000E+00  0.10606804543E+04  0.38512101143E+04  0.37022663760E+04 0.  0.
        4    1    3    3  502    0 -0.81788823359E+03  0.42173603107E+03  0.22011620820E+04  0.23857742070E+04  0.12699999809E+01 0.  1.
       -4    1    3    3    0  502  0.81788823359E+03 -0.42173603107E+03 -0.11404816277E+04  0.14654359074E+04  0.12699999809E+01 0. -1.
</event>
<event>
 5   0  0.2282000E-08  0.3698470E+04  0.7818609E-02  0.8068301E-01
       -1   -1    0    0    0  501  0.00000000000E+00  0.00000000000E+00  0.25441000080E+04  0.25441000080E+04  0.50400001928E-02 0. -1.
        1   -1    0    0  501    0  0.00000000000E+00  0.00000000000E+00 -0.13441570313E+04  0.13441570313E+04  0.50400001928E-02 0.  1.
    10030    2    1    2    0    0  0.00000000000E+00  0.00000000000E+00  0.11999429767E+04  0.38882570393E+04  0.36984699075E+04 0.  0.
        1    1    3    3  502    0  0.30275271322E+03  0.39450844399E+03  0.24724854067E+04  0.25219992474E+04  0.50400001928E-02 0. -1.
       -1    1    3    3    0  502 -0.30275271322E+03 -0.39450844399E+03 -0.12725424300E+04  0.13662577919E+04  0.50400001928E-02 0.  1.
</event>
<event>
 5   0  0.7309833E-08  0.3705707E+04  0.7818609E-02  0.8066698E-01
        2   -1    0    0  501    0  0.00000000000E+00  0.00000000000E+00  0.18047486288E+04  0.18047486288E+04  0.25500000920E-02 0.  1.
       -2   -1    0    0    0  501  0.00000000000E+00  0.00000000000E+00 -0.19022403723E+04  0.19022403723E+04  0.25500000920E-02 0. -1.
    10030    2    1    2    0    0  0.00000000000E+00  0.00000000000E+00 -0.97491743539E+02  0.37069890012E+04  0.37057067902E+04 0.  0.
        2    1    3    3  502    0 -0.15957827017E+04 -0.84769384981E+03  0.36122322503E+03  0.18427125419E+04  0.25500000920E-02 0.  1.
       -2    1    3    3    0  502  0.15957827017E+04  0.84769384981E+03 -0.45871496857E+03  0.18642764592E+04  0.25500000920E-02 0. -1.
</event>
<event>
 5   0  0.7191801E-08  0.3694457E+04  0.7818609E-02  0.8069191E-01
       -2   -1    0    0    0  501  0.00000000000E+00  0.00000000000E+00  0.13679161308E+04  0.13679161308E+04  0.25500000920E-02 0.  1.
        2   -1    0    0  501    0  0.00000000000E+00  0.00000000000E+00 -0.24944894618E+04  0.24944894618E+04  0.25500000920E-02 0. -1.
    10030    2    1    2    0    0  0.00000000000E+00  0.00000000000E+00 -0.11265733310E+04  0.38624055926E+04  0.36944565894E+04 0.  0.
        5    1    3    3  502    0 -0.11919931067E+04  0.35016792041E+03 -0.19924592345E+04  0.23480589920E+04  0.46999998093E+01 0. -1.
       -5    1    3    3    0  502  0.11919931067E+04 -0.35016792041E+03  0.86588590346E+03  0.15143466006E+04  0.46999998093E+01 0.  1.
</event>
<event>
 5   0  0.2282000E-08  0.3699709E+04  0.7818609E-02  0.8068026E-01
        1   -1    0    0  501    0  0.00000000000E+00  0.00000000000E+00  0.24958950603E+04  0.24958950603E+04  0.50400001928E-02 0. -1.
       -1   -1    0    0    0  501  0.00000000000E+00  0.00000000000E+00 -0.13710356577E+04  0.13710356577E+04  0.50400001928E-02 0.  1.
    10030    2    1    2    0    0  0.00000000000E+00  0.00000000000E+00  0.11248594026E+04  0.38669307180E+04  0.36997087050E+04 0.  0.
        3    1    3    3  502    0 -0.83752594292E+03 -0.12496506457E+04  0.16876018392E+04  0.22607689885E+04  0.10100000352E+00 0. -1.
       -3    1    3    3    0  502  0.83752594292E+03  0.12496506457E+04 -0.56274243663E+03  0.16061617295E+04  0.10100000352E+00 0.  1.
</event>
<event>
 5   0  0.2282000E-08  0.3701592E+04  0.7818609E-02  0.8067609E-01
        1   -1    0    0  501    0  0.00000000000E+00  0.00000000000E+00  0.22055179471E+04  0.22055179471E+04  0.50400001928E-02 0.  1.
       -1   -1    0    0    0  501  0.00000000000E+00  0.00000000000E+00 -0.15531256013E+04  0.15531256013E+04  0.50400001928E-02 0. -1.
    10030    2    1    2    0    0  0.00000000000E+00  0.00000000000E+00  0.65239234580E+03  0.37586435484E+04  0.37015922994E+04 0.  0.
        5    1    3    3  502    0 -0.98677185331E+03 -0.11941397290E+04  0.13545920795E+04  0.20578217062E+04  0.46999998093E+01 0.  1.
       -5    1    3    3    0  502  0.98677185331E+03  0.11941397290E+04 -0.70219973369E+03  0.17008218422E+04  0.46999998093E+01 0. -1.
</event>
<event>
 5   0  0.7309833E-08  0.3709880E+04  0.7818609E-02  0.8065776E-01
       -2   -1    0    0    0  501  0.00000000000E+00  0.00000000000E+00  0.15356857971E+04  0.15356857971E+04  0.25500000920E-02 0.  1.
        2   -1    0    0  501    0  0.00000000000E+00  0.00000000000E+00 -0.22405646363E+04  0.22405646363E+04  0.25500000920E-02 0. -1.
    10030    2    1    2    0    0  0.00000000000E+00  0.00000000000E+00 -0.70487883912E+03  0.37762504334E+04  0.37098804776E+04 0.  0.
        2    1    3    3  502    0  0.43920745160E+02  0.62944808380E+03 -0.21279703864E+04  0.22195476763E+04  0.25500000920E-02 0. -1.
       -2    1    3    3    0  502 -0.43920745160E+02 -0.62944808380E+03  0.14230915473E+04  0.15567027571E+04  0.25500000920E-02 0.  1.
</event>
<event>
 5   0  0.2282000E-08  0.3695750E+04  0.7818609E-02  0.8068904E-01
       -1   -1    0    0    0  501  0.00000000000E+00  0.00000000000E+00  0.20471609596E+04  0.20471609596E+04  0.50400001928E-02 0. -1.
        1   -1    0    0  501    0  0.00000000000E+00  0.00000000000E+00 -0.16679893201E+04  0.16679893201E+04  0.50400001928E-02 0.  1.
    10030    2    1    2    0    0  0.00000000000E+00  0.00000000000E+00  0.37917163949E+03  0.37151502797E+04  0.36957503255E+04 0.  0.
        4    1    3    3  502    0  0.11146671851E+04 -0.13265260227E+04  0.83520850231E+03  0.19234679820E+04  0.12699999809E+01 0. -1.
       -4    1    3    3    0  502 -0.11146671851E+04  0.13265260227E+04 -0.45603686282E+03  0.17916822977E+04  0.12699999809E+01 0.  1.
</event>
<event>
 5   0  0.7254493E-08  0.3701902E+04  0.7818609E-02  0.8067541E-01
       -2   -1    0    0    0  501  0.00000000000E+00  0.00000000000E+00  0.19972321401E+04  0.19972321402E+04  0.25500000920E-02 0. -1.
        2   -1    0    0  501    0  0.00000000000E+00  0.00000000000E+00 -0.17153833259E+04  0.17153833259E+04  0.25500000920E-02 0.  1.
    10030    2    1    2    0    0  0.00000000000E+00  0.00000000000E+00  0.28184881423E+03  0.37126154661E+04  0.37019015174E+04 0.  0.
        3    1    3    3  502    0  0.17402041054E+04  0.41885956991E+03  0.61373879182E+03  0.18922021516E+04  0.10100000352E+00 0. -1.
       -3    1    3    3    0  502 -0.17402041054E+04 -0.41885956991E+03 -0.33188997759E+03  0.18204133144E+04  0.10100000352E+00 0.  1.
</event>
<event>
 5   0  0.7191801E-08  0.3705677E+04  0.7818609E-02  0.8066705E-01
        2   -1    0    0  501    0  0.00000000000E+00  0.00000000000E+00  0.22838060912E+04  0.22838060912E+04  0.25500000920E-02 0. -1.
       -2   -1    0    0    0  501  0.00000000000E+00  0.00000000000E+00 -0.15031973725E+04  0.15031973726E+04  0.25500000920E-02 0.  1.
    10030    2    1    2    0    0  0.00000000000E+00  0.00000000000E+00  0.78060871869E+03  0.37870034638E+04  0.37056774365E+04 0.  0.
        5    1    3    3  502    0  0.16173568144E+04 -0.76005891558E+03 -0.10977796005E+03  0.17904205960E+04  0.46999998093E+01 0.  1.
       -5    1    3    3    0  502 -0.16173568144E+04  0.76005891558E+03  0.89038667874E+03  0.19965828678E+04  0.46999998093E+01 0. -1.
</event>
<event>
 5   0  0.7362817E-08  0.3693089E+04  0.7818609E-02  0.8069495E-01
        2   -1    0    0  501    0  0.00000000000E+00  0.00000000000E+00  0.16420140557E+04  0.16420140557E+04  0.25500000920E-02 0.  1.
       -2   -1    0    0    0  501  0.00000000000E+00  0.00000000000E+00 -0.20765508561E+04  0.20765508561E+04  0.25500000920E-02 0. -1.
    10030    2    1    2    0    0  0.00000000000E+00  0.00000000000E+00 -0.43453680038E+03  0.37185649118E+04  0.36930885140E+04 0.  0.
        1    1    3    3  502    0  0.14908897076E+04 -0.10821100969E+04 -0.34467710355E+03  0.18741709335E+04  0.50400001928E-02 0.  1.
       -1    1    3    3    0  502 -0.14908897076E+04  0.10821100969E+04 -0.89859696823E+02  0.18443939783E+04  0.50400001928E-02 0. -1.
</event>
<event>
 5   0  0.2282000E-08  0.3699968E+04  0.7818609E-02  0.8067969E-01
        1   -1    0    0  501    0  0.00000000000E+00  0.00000000000E+00  0.14929835472E+04  0.14929835472E+04  0.50400001928E-02 0. -1.
       -1   -1    0    0    0  501  0.00000000000E+00  0.00000000000E+00 -0.22923501945E+04  0.22923501945E+04  0.50400001928E-02 0.  1.
    10030    2    1    2    0    0  0.00000000000E+00  0.00000000000E+00 -0.79936664729E+03  0.37853337418E+04  0.36999681755E+04 0.  0.
        1    1    3    3  502    0  0.24143275327E+03  0.15962154574E+04 -0.13239922274E+04  0.20878575092E+04  0.50400001928E-02 0.  1.
       -1    1    3    3    0  502 -0.24143275327E+03 -0.15962154574E+04  0.52462558008E+03  0.16974762325E+04  0.50400001928E-02 0. -1.
</event>
<event>
 5   0  0.7362817E-08  0.3701065E+04  0.7818609E-02  0.8067726E-01
       -2   -1    0    0    0  501  0.00000000000E+00  0.00000000000E+00  0.13550894888E+04  0.13550894888E+04  0.25500000920E-02 0. -1.
        2   -1    0    0  501    0  0.00000000000E+00  0.00000000000E+00 -0.25271171161E+04  0.25271171161E+04  0.25500000920E-02 0.  1.
    10030    2    1    2    0    0  0.00000000000E+00  0.00000000000E+00 -0.11720276273E+04  0.38822066049E+04  0.37010646257E+04 0.  0.
        1    1    3    3  502    0 -0.35082998714E+03  0.55749681239E+03 -0.23999837485E+04  0.24887358978E+04  0.50400001928E-02 0.  1.
       -1    1    3    3    0  502  0.35082998714E+03 -0.55749681239E+03  0.12279561212E+04  0.13934707071E+04  0.50400001928E-02 0. -1.
</event>
<event>
 5   0  0.2282000E-08  0.3710561E+04  0.7818609E-02  0.8065625E-01
        1   -1    0    0  501    0  0.00000000000E+00  0.00000000000E+00  0.22945939207E+04  0.22945939207E+04  0.50400001928E-02 0. -1.
       -1   -1    0    0    0  501  0.00000000000E+00  0.00000000000E+00 -0.15000761645E+04  0.15000761645E+04  0.50400001928E-02 0.  1.
    10030    2    1    2    0    0  0.00000000000E+00  0.00000000000E+00  0.79451775624E+03  0.37946700852E+04  0.37105609537E+04 0.  0.
        1    1    3    3  502    0  0.16735039199E+04 -0.12390518218E+03 -0.41194049307E+03  0.17279070675E+04  0.50400001928E-02 0. -1.
       -1    1    3    3    0  502 -0.16735039199E+04  0.12390518218E+03  0.12064582493E+04  0.20667630177E+04  0.50400001928E-02 0.  1.
</event>
<event>
 5   0  0.7203049E-08  0.3695149E+04  0.7818609E-02  0.8069038E-01
       -2   -1    0    0    0  501  0.00000000000E+00  0.00000000000E+00  0.10196047817E+04  0.10196047817E+04  0.25500000920E-02 0.  1.
        2   -1    0    0  501    0  0.00000000000E+00  0.00000000000E+00 -0.33478969315E+04  0.33478969315E+04  0.25500000920E-02 0. -1.
    10030    2    1    2    0    0  0.00000000000E+00  0.00000000000E+00 -0.23282921497E+04  0.43675017132E+04  0.36951491012E+04 0.  0.
        4    1    3    3  502    0  0.14839054120E+04  0.99620676243E+03 -0.17174311891E+04  0.24787042356E+04  0.12699999809E+01 0. -1.
       -4    1    3    3    0  502 -0.14839054120E+04 -0.99620676243E+03 -0.61086096062E+03  0.18887974776E+04  0.12699999809E+01 0.  1.
</event>
<event>
 5   0  0.2282000E-08  0.3699106E+04  0.7818609E-02  0.8068160E-01
       -1   -1    0    0    0  501  0.00000000000E+00  0.00000000000E+00  0.12791584417E+04  0.12791584417E+04  0.50400001928E-02 0. -1.
        1   -1    0    0  501    0  0.00000000000E+00  0.00000000000E+00 -0.26742943060E+04  0.26742943060E+04  0.50400001928E-02 0.  1.
    10030    2    1    2    0    0  0.00000000000E+00  0.00000000000E+00 -0.13951358643E+04  0.39534527477E+04  0.36991059121E+04 0.  0.
        1    1    3    3  502    0 -0.14852452352E+04 -0.60454114092E+03 -0.16825803993E+04  0.23243279028E+04  0.50400001928E-02 0.  1.
       -1    1    3    3    0  502  0.14852452352E+04  0.60454114092E+03  0.28744453502E+03  0.16291248449E+04  0.50400001928E-02 0. -1.
</event>
<event>
 5   0  0.7191801E-08  0.3700883E+04  0.7818609E-02  0.8067766E-01
       -2   -1    0    0    0  501  0.00000000000E+00  0.00000000000E+00  0.15814288495E+04  0.15814288495E+04  0.25500000920E-02 0. -1.
        2   -1    0    0  501    0  0.00000000000E+00  0.00000000000E+00 -0.21652149358E+04  0.21652149358E+04  0.25500000920E-02 0.  1.
    10030    2    1    2    0    0  0.00000000000E+00  0.00000000000E+00 -0.58378608638E+03  0.37466437853E+04  0.37008827946E+04 0.  0.
        5    1    3    3  502    0 -0.80152283320E+03 -0.76943847491E+03 -0.17899320437E+04  0.21067399530E+04  0.46999998093E+01 0.  1.
       -5    1    3    3    0  502  0.80152283320E+03  0.76943847491E+03  0.12061459573E+04  0.16399038323E+04  0.46999998093E+01 0. -1.
</event>
<event>
 5   0  0.7191801E-08  0.3694101E+04  0.7818609E-02  0.8069270E-01
        2   -1    0    0  501    0  0.00000000000E+00  0.00000000000E+00  0.23951742643E+04  0.23951742643E+04  0.25500000920E-02 0.  1.
       -2   -1    0    0    0  501  0.00000000000E+00  0.00000000000E+00 -0.14243622023E+04  0.14243622023E+04  0.25500000920E-02 0. -1.
    10030    2    1    2    0    0  0.00000000000E+00  0.00000000000E+00  0.97081206199E+03  0.38195364665E+04  0.36941010760E+04 0.  0.
        5    1    3    3  502    0  0.15621641243E+04 -0.98005270285E+03  0.59242692020E+03  0.19369697461E+04  0.46999998093E+01 0.  1.
       -5    1    3    3    0  502 -0.15621641243E+04  0.98005270285E+03  0.37838514179E+03  0.18825667205E+04  0.46999998093E+01 0. -1.
</event>
<event>
 5   0  0.7309833E-08  0.3704568E+04  0.7818609E-02  0.8066950E-01
        2   -1    0    0  501    0  0.00000000000E+00  0.00000000000E+00  0.15437632576E+04  0.15437632576E+04  0.25500000920E-02 0. -1.
       -2   -1    0    0    0  501  0.00000000000E+00  0.00000000000E+00 -0.22224621662E+04  0.22224621662E+04  0.25500000920E-02 0.  1.
    10030    2    1    2    0    0  0.00000000000E+00  0.00000000000E+00 -0.67869890853E+03  0.37662254238E+04  0.37045676852E+04 0.  0.
        2    1    3    3  502    0 -0.86631062826E+03  0.16260393362E+04 -0.14523330833E+03  0.18481316894E+04  0.25500000920E-02 0.  1.
       -2    1    3    3    0  502  0.86631062826E+03 -0.16260393362E+04 -0.53346560020E+03  0.19180937344E+04  0.25500000920E-02 0. -1.
</event>
<event>
 5   0  0.7309833E-08  0.3706730E+04  0.7818609E-02  0.8066472E-01
        2   -1    0    0  501    0  0.00000000000E+00  0.00000000000E+00  0.17416518720E+04  0.17416518720E+04  0.25500000920E-02 0. -1.
       -2   -1    0    0    0  501  0.00000000000E+00  0.00000000000E+00 -0.19722438191E+04  0.19722438191E+04  0.25500000920E-02 0.  1.
    10030    2    1    2    0    0  0.00000000000E+00  0.00000000000E+00 -0.23059194710E+03  0.37138956910E+04  0.37067301706E+04 0.  0.
        2    1    3    3  502    0  0.62521647917E+03  0.26047026158E+03 -0.18438038826E+04  0.19642691161E+04  0.25500000920E-02 0.  1.
       -2    1    3    3    0  502 -0.62521647917E+03 -0.26047026158E+03  0.16132119355E+04  0.17496265750E+04  0.25500000920E-02 0. -1.
</event>
<event>
 5   0  0.7362817E-08  0.3699172E+04  0.7818609E-02  0.8068145E-01
       -2   -1    0    0    0  501  0.00000000000E+00  0.00000000000E+00  0.18646696128E+04  0.18646696128E+04  0.25500000920E-02 0.  1.
        2   -1    0    0  501    0  0.00000000000E+00  0.00000000000E+00 -0.18346242333E+04  0.18346242333E+04  0.25500000920E-02 0. -1.
    10030    2    1    2    0    0  0.00000000000E+00  0.00000000000E+00  0.30045379443E+02  0.36992938461E+04  0.36991718310E+04 0.  0.
        1    1    3    3  502    0 -0.13726408363E+04 -0.80199155205E+03  0.96037643140E+03  0.18573250133E+04  0.50400001928E-02 0. -1.
       -1    1    3    3    0  502  0.13726408363E+04  0.80199155205E+03 -0.93033105196E+03  0.18419688329E+04  0.50400001928E-02 0.  1.
</event>
<event>
 5   0  0.2282000E-08  0.3689841E+04  0.7818609E-02  0.8070217E-01
       -1   -1    0    0    0  501  0.00000000000E+00  0.00000000000E+00  0.21498052937E+04  0.21498052937E+04  0.50400001928E-02 0. -1.
        1   -1    0    0  501    0  0.00000000000E+00  0.00000000000E+00 -0.15832745514E+04  0.15832745514E+04  0.50400001928E-02 0.  1.
    10030    2    1    2    0    0  0.00000000000E+00  0.00000000000E+00  0.56653074229E+03  0.37330798452E+04  0.36898411956E+04 0.  0.
        5    1    3    3  502    0 -0.19941648873E+03  0.16616249518E+04  0.10688602339E+04  0.19857614928E+04  0.46999998093E+01 0. -1.
       -5    1    3    3    0  502  0.19941648873E+03 -0.16616249518E+04 -0.50232949162E+03  0.17473183524E+04  0.46999998093E+01 0.  1.
</event>
<event>
 5   0  0.2282000E-08  0.3697665E+04  0.7818609E-02  0.8068479E-01
        1   -1    0    0  501    0  0.00000000000E+00  0.00000000000E+00  0.12064584374E+04  0.12064584374E+04  0.50400001928E-02 0.  1.
       -1   -1    0    0    0  501  0.00000000000E+00  0.00000000000E+00 -0.28332368011E+04  0.28332368011E+04  0.50400001928E-02 0. -1.
    10030    2    1    2    0    0  0.00000000000E+00  0.00000000000E+00 -0.16267783637E+04  0.40396952385E+04  0.36976654493E+04 0.  0.
        3    1    3    3  502    0 -0.17959960461E+04  0.21161490538E+03 -0.12333974724E+04  0.21889842395E+04  0.10100000352E+00 0.  1.
       -3    1    3    3    0  502  0.17959960461E+04 -0.21161490538E+03 -0.39338089131E+03  0.18507109989E+04  0.10100000352E+00 0. -1.
</event>
<event>
 5   0  0.7254493E-08  0.3698894E+04  0.7818609E-02  0.8068207E-01
        2   -1    0    0  501    0  0.00000000000E+00  0.00000000000E+00  0.31518906103E+04  0.31518906103E+04  0.25500000920E-02 0. -1.
       -2   -1    0    0    0  501  0.00000000000E+00  0.00000000000E+00 -0.10852071024E+04  0.10852071024E+04  0.25500000920E-02 0.  1.
    10030    2    1    2    0    0  0.00000000000E+00  0.00000000000E+00  0.20666835079E+04  0.42370977127E+04  0.36988939300E+04 0.  0.
        3    1    3    3  502    0  0.15723991622E+04 -0.94458878958E+03  0.76283065756E+03  0.19866045729E+04  0.10100000352E+00 0.  1.
       -3    1    3    3    0  502 -0.15723991622E+04  0.94458878958E+03  0.13038528504E+04  0.22504931398E+04  0.10100000352E+00 0. -1.
</event>
<event>
 5   0  0.2282000E-08  0.3726653E+04  0.7818609E-02  0.8062081E-01
       -1   -1    0    0    0  501  0.00000000000E+00  0.00000000000E+00  0.18332435747E+04  0.18332435748E+04  0.50400001928E-02 0. -1.
        1   -1    0    0  501    0  0.00000000000E+00  0.00000000000E+00 -0.18939028072E+04  0.18939028072E+04  0.50400001928E-02 0.  1.
    10030    2    1    2    0    0  0.00000000000E+00  0.00000000000E+00 -0.60659232487E+02  0.37271463820E+04  0.37266527354E+04 0.  0.
        1    1    3    3  502    0  0.60326586624E+03 -0.17042732305E+04  0.42084897522E+03  0.18562302685E+04  0.50400001928E-02 0. -1.
       -1    1    3    3    0  502 -0.60326586624E+03  0.17042732305E+04 -0.48150820771E+03  0.18709161135E+04  0.50400001928E-02 0.  1.
</event>
<event>
 5   0  0.7309833E-08  0.3734210E+04  0.7818609E-02  0.8060422E-01
       -2   -1    0    0    0  501  0.00000000000E+00  0.00000000000E+00  0.14360138036E+04  0.14360138036E+04  0.25500000920E-02 0.  1.
        2   -1    0    0  501    0  0.00000000000E+00  0.00000000000E+00 -0.24276099031E+04  0.24276099031E+04  0.25500000920E-02 0. -1.
    10030    2    1    2    0    0  0.00000000000E+00  0.00000000000E+00 -0.99159609941E+03  0.38636237067E+04  0.37342101337E+04 0.  0.
        2    1    3    3  502    0 -0.13131465093E+04  0.21815712428E+02  0.87731652062E+03  0.15794030384E+04  0.25500000920E-02 0.  1.
       -2    1    3    3    0  502  0.13131465093E+04 -0.21815712428E+02 -0.18689126200E+04  0.22842206683E+04  0.25500000920E-02 0. -1.
</event>
<event>
 5   0  0.2282000E-08  0.3694709E+04  0.7818609E-02  0.8069135E-01
        1   -1    0    0  501    0  0.00000000000E+00  0.00000000000E+00  0.13790606867E+04  0.13790606867E+04  0.50400001928E-02 0.  1.
       -1   -1    0    0    0  501  0.00000000000E+00  0.00000000000E+00 -0.24746687564E+04  0.24746687564E+04  0.50400001928E-02 0. -1.
    10030    2    1    2    0    0  0.00000000000E+00  0.00000000000E+00 -0.10956080698E+04  0.38537294431E+04  0.36947088624E+04 0.  0.
        4    1    3    3  502    0  0.18448671965E+04  0.29188679538E+02 -0.45260795577E+03  0.18998006544E+04  0.12699999809E+01 0.  1.
       -4    1    3    3    0  502 -0.18448671965E+04 -0.29188679538E+02 -0.64300011400E+03  0.19539287887E+04  0.12699999809E+01 0. -1.
</event>
<event>
 5   0  0.2282000E-08  0.3702181E+04  0.7818609E-02  0.8067479E-01
       -1   -1    0    0    0  501  0.00000000000E+00  0.00000000000E+00  0.23285701998E+04  0.23285701998E+04  0.50400001928E-02 0. -1.
        1   -1    0    0  501    0  0.00000000000E+00  0.00000000000E+00 -0.14715192584E+04  0.14715192584E+04  0.50400001928E-02 0.  1.
    10030    2    1    2    0    0  0.00000000000E+00  0.00000000000E+00  0.85705094145E+03  0.38000894582E+04  0.37021809213E+04 0.  0.
        1    1    3    3  502    0 -0.32116525540E+03 -0.30145587172E+03 -0.14169417297E+04  0.14838283692E+04  0.50400001928E-02 0.  1.
       -1    1    3    3    0  502  0.32116525540E+03  0.30145587172E+03  0.22739926711E+04  0.23162610890E+04  0.50400001928E-02 0. -1.
</event>
<event>
 5   0  0.2282000E-08  0.3699013E+04  0.7818609E-02  0.8068181E-01
       -1   -1    0    0    0  501  0.00000000000E+00  0.00000000000E+00  0.27973036811E+04  0.27973036811E+04  0.50400001928E-02 0. -1.
        1   -1    0    0  501    0  0.00000000000E+00  0.00000000000E+00 -0.12228468284E+04  0.12228468285E+04  0.50400001928E-02 0.  1.
    10030    2    1    2    0    0  0.00000000000E+00  0.00000000000E+00  0.15744568527E+04  0.40201505096E+04  0.36990128060E+04 0.  0.
        2    1    3    3  502    0  0.58951565523E+03 -0.96780882355E+03 -0.80134408465E+03  0.13879246985E+04  0.25500000920E-02 0.  1.
       -2    1    3    3    0  502 -0.58951565523E+03  0.96780882355E+03  0.23758009373E+04  0.26322258111E+04  0.25500000920E-02 0. -1.
</event>
<event>
 5   0  0.2282000E-08  0.3706426E+04  0.7818609E-02  0.8066539E-01
        1   -1    0    0  501    0  0.00000000000E+00  0.00000000000E+00  0.13342512108E+04  0.13342512109E+04  0.50400001928E-02 0. -1.
       -1   -1    0    0    0  501  0.00000000000E+00  0.00000000000E+00 -0.25740267354E+04  0.25740267354E+04  0.50400001928E-02 0.  1.
    10030    2    1    2    0    0  0.00000000000E+00  0.00000000000E+00 -0.12397755245E+04  0.39082779462E+04  0.37064259272E+04 0.  0.
        5    1    3    3  502    0  0.10938295625E+04 -0.52956412782E+03 -0.20951805529E+04  0.24221281792E+04  0.46999998093E+01 0.  1.
       -5    1    3    3    0  502 -0.10938295625E+04  0.52956412782E+03  0.85540502837E+03  0.14861497670E+04  0.46999998093E+01 0. -1.
</event>
<event>
 5   0  0.7203049E-08  0.3706289E+04  0.7818609E-02  0.8066570E-01
       -2   -1    0    0    0  501  0.00000000000E+00  0.00000000000E+00  0.14467666620E+04  0.14467666620E+04  0.25500000920E-02 0.  1.
        2   -1    0    0  501    0  0.00000000000E+00  0.00000000000E+00 -0.23736685033E+04  0.23736685033E+04  0.25500000920E-02 0. -1.
    10030    2    1    2    0    0  0.00000000000E+00  0.00000000000E+00 -0.92690184126E+03  0.38204351654E+04  0.37062889565E+04 0.  0.
        4    1    3    3  502    0 -0.62444567568E+03 -0.96029947136E+03 -0.19650357341E+04  0.22745273192E+04  0.12699999809E+01 0. -1.
       -4    1    3    3    0  502  0.62444567568E+03  0.96029947136E+03  0.10381338928E+04  0.15459078462E+04  0.12699999809E+01 0.  1.
</event>
<event>
 5   0  0.7203049E-08  0.3694050E+04  0.7818609E-02  0.8069282E-01
       -2   -1    0    0    0  501  0.00000000000E+00  0.00000000000E+00  0.18356191916E+04  0.18356191916E+04  0.25500000920E-02 0.  1.
        2   -1    0    0  501    0  0.00000000000E+00  0.00000000000E+00 -0.18585017888E+04  0.18585017888E+04  0.25500000920E-02 0. -1.
    10030    2    1    2    0    0  0.00000000000E+00  0.00000000000E+00 -0.22882597206E+02  0.36941209804E+04  0.36940501086E+04 0.  0.
        4    1    3    3  502    0  0.41909338091E+03  0.15273407961E+04  0.93888781361E+03  0.18411738399E+04  0.12699999809E+01 0.  1.
       -4    1    3    3    0  502 -0.41909338091E+03 -0.15273407961E+04 -0.96177041082E+03  0.18529471405E+04  0.12699999809E+01 0. -1.
</event>
<event>
 5   0  0.2282000E-08  0.3703168E+04  0.7818609E-02  0.8067260E-01
        1   -1    0    0  501    0  0.00000000000E+00  0.00000000000E+00  0.19438074468E+04  0.19438074468E+04  0.50400001928E-02 0.  1.
       -1   -1    0    0    0  501  0.00000000000E+00  0.00000000000E+00 -0.17637365254E+04  0.17637365254E+04  0.50400001928E-02 0. -1.
    10030    2    1    2    0    0  0.00000000000E+00  0.00000000000E+00  0.18007092140E+03  0.37075439722E+04  0.37031684770E+04 0.  0.
        2    1    3    3  502    0 -0.80701974938E+03 -0.32456307446E+03 -0.15464423041E+04  0.17742902426E+04  0.25500000920E-02 0. -1.
       -2    1    3    3    0  502  0.80701974938E+03  0.32456307446E+03  0.17265132255E+04  0.19332537296E+04  0.25500000920E-02 0.  1.
</event>
<event>
 5   0  0.7203049E-08  0.3694782E+04  0.7818609E-02  0.8069119E-01
        2   -1    0    0  501    0  0.00000000000E+00  0.00000000000E+00  0.22433774271E+04  0.22433774271E+04  0.25500000920E-02 0. -1.
       -2   -1    0    0    0  501  0.00000000000E+00  0.00000000000E+00 -0.15213018377E+04  0.15213018377E+04  0.25500000920E-02 0.  1.
    10030    2    1    2    0    0  0.00000000000E+00  0.00000000000E+00  0.72207558945E+03  0.37646792648E+04  0.36947823766E+04 0.  0.
        4    1    3    3  502    0  0.97709082069E+03 -0.53605064663E+03  0.18622725390E+04  0.21702804865E+04  0.12699999809E+01 0. -1.
       -4    1    3    3    0  502 -0.97709082069E+03  0.53605064663E+03 -0.11401969496E+04  0.15943987783E+04  0.12699999809E+01 0.  1.
</event>
<event>
 5   0  0.7362817E-08  0.3723662E+04  0.7818609E-02  0.8062738E-01
        2   -1    0    0  501    0  0.00000000000E+00  0.00000000000E+00  0.19208899852E+04  0.19208899852E+04  0.25500000920E-02 0. -1.
       -2   -1    0    0    0  501  0.00000000000E+00  0.00000000000E+00 -0.18045878643E+04  0.18045878643E+04  0.25500000920E-02 0.  1.
    10030    2    1    2    0    0  0.00000000000E+00  0.00000000000E+00  0.11630212090E+03  0.37254778495E+04  0.37236620448E+04 0.  0.
        1    1    3    3  502    0 -0.55614300016E+03 -0.60808973946E+03  0.17285000334E+04  0.19148839478E+04  0.50400001928E-02 0. -1.
       -1    1    3    3    0  502  0.55614300016E+03  0.60808973946E+03 -0.16121979125E+04  0.18105939017E+04  0.50400001928E-02 0.  1.
</event>
<event>
 5   0  0.7203049E-08  0.3624598E+04  0.7818609E-02  0.8084880E-01
       -2   -1    0    0    0  501  0.00000000000E+00  0.00000000000E+00  0.23291906355E+04  0.23291906355E+04  0.25500000920E-02 0.  1.
        2   -1    0    0  501    0  0.00000000000E+00  0.00000000000E+00 -0.14101156209E+04  0.14101156209E+04  0.25500000920E-02 0. -1.
    10030    2    1    2    0    0  0.00000000000E+00  0.00000000000E+00  0.91907501467E+03  0.37393062564E+04  0.36245982394E+04 0.  0.
        4    1    3    3  502    0 -0.96118669416E+03 -0.12441009344E+04 -0.47052510315E+03  0.16410552951E+04  0.12699999809E+01 0. -1.
       -4    1    3    3    0  502  0.96118669416E+03  0.12441009344E+04  0.13896001178E+04  0.20982509613E+04  0.12699999809E+01 0.  1.
</event>
<event>
 5   0  0.2282000E-08  0.3695952E+04  0.7818609E-02  0.8068859E-01
        1   -1    0    0  501    0  0.00000000000E+00  0.00000000000E+00  0.26533762453E+04  0.26533762453E+04  0.50400001928E-02 0. -1.
       -1   -1    0    0    0  501  0.00000000000E+00  0.00000000000E+00 -0.12870455928E+04  0.12870455928E+04  0.50400001928E-02 0.  1.
    10030    2    1    2    0    0  0.00000000000E+00  0.00000000000E+00  0.13663306525E+04  0.39404218381E+04  0.36959524903E+04 0.  0.
        5    1    3    3  502    0  0.40160036362E+03  0.16716745945E+04 -0.39312490634E+02  0.17196936832E+04  0.46999998093E+01 0.  1.
       -5    1    3    3    0  502 -0.40160036362E+03 -0.16716745945E+04  0.14056431432E+04  0.22207281549E+04  0.46999998093E+01 0. -1.
</event>
<event>
 5   0  0.7191801E-08  0.3698163E+04  0.7818609E-02  0.8068369E-01
        2   -1    0    0  501    0  0.00000000000E+00  0.00000000000E+00  0.27007296872E+04  0.27007296872E+04  0.25500000920E-02 0.  1.
       -2   -1    0    0    0  501  0.00000000000E+00  0.00000000000E+00 -0.12659918836E+04  0.12659918836E+04  0.25500000920E-02 0. -1.
    10030    2    1    2    0    0  0.00000000000E+00  0.00000000000E+00  0.14347378036E+04  0.39667215708E+04  0.36981627135E+04 0.  0.
        5    1    3    3  502    0 -0.14015082860E+04  0.97788407546E+03 -0.40022808145E+02  0.17094170515E+04  0.46999998093E+01 0. -1.
       -5    1    3    3    0  502  0.14015082860E+04 -0.97788407546E+03  0.14747606117E+04  0.22573045193E+04  0.46999998093E+01 0.  1.
</event>
<event>
 5   0  0.2282000E-08  0.3707690E+04  0.7818609E-02  0.8066260E-01
       -1   -1    0    0    0  501  0.00000000000E+00  0.00000000000E+00  0.17842049911E+04  0.17842049911E+04  0.50400001928E-02 0. -1.
        1   -1    0    0  501    0  0.00000000000E+00  0.00000000000E+00 -0.19262034409E+04  0.19262034409E+04  0.50400001928E-02 0.  1.
    10030    2    1    2    0    0  0.00000000000E+00  0.00000000000E+00 -0.14199844979E+03  0.37104084320E+04  0.37076902746E+04 0.  0.
        5    1    3    3  502    0 -0.45517903538E+03 -0.17296339787E+04 -0.55910473492E+03  0.18738841611E+04  0.46999998093E+01 0.  1.
       -5    1    3    3    0  502  0.45517903538E+03  0.17296339787E+04  0.41710628513E+03  0.18365242709E+04  0.46999998093E+01 0. -1.
</event>
<event>
 5   0  0.2282000E-08  0.3689997E+04  0.7818609E-02  0.8070182E-01
       -1   -1    0    0    0  501  0.00000000000E+00  0.00000000000E+00  0.11593355278E+04  0.11593355278E+04  0.50400001928E-02 0. -1.
        1   -1    0    0  501    0  0.00000000000E+00  0.00000000000E+00 -0.29361811580E+04  0.29361811580E+04  0.50400001928E-02 0.  1.
    10030    2    1    2    0    0  0.00000000000E+00  0.00000000000E+00 -0.17768456302E+04  0.40955166858E+04  0.36899968198E+04 0.  0.
        3    1    3    3  502    0  0.48406565509E+03  0.17794583532E+04 -0.82536802903E+03  0.20204019360E+04  0.10100000352E+00 0.  1.
       -3    1    3    3    0  502 -0.48406565509E+03 -0.17794583532E+04 -0.95147760119E+03  0.20751147498E+04  0.10100000352E+00 0. -1.
</event>
<event>
 5   0  0.7254493E-08  0.3683173E+04  0.7818609E-02  0.8071701E-01
       -2   -1    0    0    0  501  0.00000000000E+00  0.00000000000E+00  0.22818829614E+04  0.22818829614E+04  0.25500000920E-02 0. -1.
        2   -1    0    0  501    0  0.00000000000E+00  0.00000000000E+00 -0.14862468623E+04  0.14862468623E+04  0.25500000920E-02 0.  1.
    10030    2    1    2    0    0  0.00000000000E+00  0.00000000000E+00  0.79563609910E+03  0.37681298236E+04  0.36831733011E+04 0.  0.
        3    1    3    3  502    0  0.11423101591E+04  0.10755739839E+04 -0.58863707806E+03  0.16757760931E+04  0.10100000352E+00 0.  1.
       -3    1    3    3    0  502 -0.11423101591E+04 -0.10755739839E+04  0.13842731772E+04  0.20923537305E+04  0.10100000352E+00 0. -1.
</event>
<event>
 5   0  0.2282000E-08  0.3699968E+04  0.7818609E-02  0.8067969E-01
       -1   -1    0    0    0  501  0.00000000000E+00  0.00000000000E+00  0.16505292161E+04  0.16505292161E+04  0.50400001928E-02 0.  1.
        1   -1    0    0  501    0  0.00000000000E+00  0.00000000000E+00 -0.20735414143E+04  0.20735414143E+04  0.50400001928E-02 0. -1.
    10030    2    1    2    0    0  0.00000000000E+00  0.00000000000E+00 -0.42301219820E+03  0.37240706305E+04  0.36999679378E+04 0.  0.
        1    1    3    3  502    0  0.43760701649E+03 -0.12021223467E+04 -0.15565657458E+04  0.20148188401E+04  0.50400001928E-02 0. -1.
       -1    1    3    3    0  502 -0.43760701649E+03  0.12021223467E+04  0.11335535476E+04  0.17092517903E+04  0.50400001928E-02 0.  1.
</event>
<event>
 5   0  0.2282000E-08  0.3702429E+04  0.7818609E-02  0.8067424E-01
        1   -1    0    0  501    0  0.00000000000E+00  0.00000000000E+00  0.21572967131E+04  0.21572967132E+04  0.50400001928E-02 0.  1.
       -1   -1    0    0    0  501  0.00000000000E+00  0.00000000000E+00 -0.15885602759E+04  0.15885602759E+04  0.50400001928E-02 0. -1.
    10030    2    1    2    0    0  0.00000000000E+00  0.00000000000E+00  0.56873643724E+03  0.37458569891E+04  0.37024293980E+04 0.  0.
        4    1    3    3  502    0 -0.79745938224E+03  0.74399817883E+01 -0.14058552410E+04  0.16163005263E+04  0.12699999809E+01 0. -1.
       -4    1    3    3    0  502  0.79745938224E+03 -0.74399817883E+01  0.19745916782E+04  0.21295564628E+04  0.12699999809E+01 0.  1.
</event>
<event>
 5   0  0.2282000E-08  0.3697147E+04  0.7818609E-02  0.8068594E-01
       -1   -1    0    0    0  501  0.00000000000E+00  0.00000000000E+00  0.15598915878E+04  0.15598915878E+04  0.50400001928E-02 0.  1.
        1   -1    0    0  501    0  0.00000000000E+00  0.00000000000E+00 -0.21906803610E+04  0.21906803610E+04  0.50400001928E-02 0. -1.
    10030    2    1    2    0    0  0.00000000000E+00  0.00000000000E+00 -0.63078877319E+03  0.37505719489E+04  0.36971469361E+04 0.  0.
        5    1    3    3  502    0 -0.44511757657E+03  0.13258180670E+04 -0.15416959957E+04  0.20815311280E+04  0.46999998093E+01 0. -1.
       -5    1    3    3    0  502  0.44511757657E+03 -0.13258180670E+04  0.91090722254E+03  0.16690408209E+04  0.46999998093E+01 0.  1.
</event>
<event>
 5   0  0.2282000E-08  0.3703195E+04  0.7818609E-02  0.8067254E-01
       -1   -1    0    0    0  501  0.00000000000E+00  0.00000000000E+00  0.14082682285E+04  0.14082682285E+04  0.50400001928E-02 0. -1.
        1   -1    0    0  501    0  0.00000000000E+00  0.00000000000E+00 -0.24344883555E+04  0.24344883555E+04  0.50400001928E-02 0.  1.
    10030    2    1    2    0    0  0.00000000000E+00  0.00000000000E+00 -0.10262201270E+04  0.38427565840E+04  0.37031946229E+04 0.  0.
        1    1    3    3  502    0  0.44046079682E+03  0.17439506690E+04 -0.57185158955E+02  0.17996221247E+04  0.50400001928E-02 0. -1.
       -1    1    3    3    0  502 -0.44046079682E+03 -0.17439506690E+04 -0.96903496807E+03  0.20431344593E+04  0.50400001928E-02 0.  1.
</event>
<event>
 5   0  0.2282000E-08  0.3703866E+04  0.7818609E-02  0.8067106E-01
        1   -1    0    0  501    0  0.00000000000E+00  0.00000000000E+00  0.21147270782E+04  0.21147270782E+04  0.50400001928E-02 0. -1.
       -1   -1    0    0    0  501  0.00000000000E+00  0.00000000000E+00 -0.16217962511E+04  0.16217962511E+04  0.50400001928E-02 0.  1.
    10030    2    1    2    0    0  0.00000000000E+00  0.00000000000E+00  0.49293082715E+03  0.37365233293E+04  0.37038663299E+04 0.  0.
        1    1    3    3  502    0 -0.86859306039E+03 -0.12662934225E+04 -0.79789336105E+03  0.17304874319E+04  0.50400001928E-02 0.  1.
       -1    1    3    3    0  502  0.86859306039E+03  0.12662934225E+04  0.12908241882E+04  0.20060358973E+04  0.50400001928E-02 0. -1.
</event>
<event>
 5   0  0.7203049E-08  0.3698505E+04  0.7818609E-02  0.8068293E-01
       -2   -1    0    0    0  501  0.00000000000E+00  0.00000000000E+00  0.16942863182E+04  0.16942863182E+04  0.25500000920E-02 0. -1.
        2   -1    0    0  501    0  0.00000000000E+00  0.00000000000E+00 -0.20183927734E+04  0.20183927734E+04  0.25500000920E-02 0.  1.
    10030    2    1    2    0    0  0.00000000000E+00  0.00000000000E+00 -0.32410645514E+03  0.37126790916E+04  0.36985052444E+04 0.  0.
        4    1    3    3  502    0  0.95233313120E+03 -0.47429776819E+03  0.13563030937E+04  0.17237913043E+04  0.12699999809E+01 0. -1.
       -4    1    3    3    0  502 -0.95233313120E+03  0.47429776819E+03 -0.16804095489E+04  0.19888877873E+04  0.12699999809E+01 0.  1.
</event>
<event>
 5   0  0.2282000E-08  0.3699212E+04  0.7818609E-02  0.8068137E-01
        1   -1    0    0  501    0  0.00000000000E+00  0.00000000000E+00  0.16687809040E+04  0.16687809040E+04  0.50400001928E-02 0. -1.
       -1   -1    0    0    0  501  0.00000000000E+00  0.00000000000E+00 -0.20500243357E+04  0.20500243357E+04  0.50400001928E-02 0.  1.
    10030    2    1    2    0    0  0.00000000000E+00  0.00000000000E+00 -0.38124343171E+03  0.37188052397E+04  0.36992115183E+04 0.  0.
        4    1    3    3  502    0 -0.39075739936E+03 -0.10902013298E+04  0.12591714736E+04  0.17107731286E+04  0.12699999809E+01 0. -1.
       -4    1    3    3    0  502  0.39075739936E+03  0.10902013298E+04 -0.16404149053E+04  0.20080321111E+04  0.12699999809E+01 0.  1.
</event>
<event>
 5   0  0.2282000E-08  0.3699444E+04  0.7818609E-02  0.8068085E-01
        1   -1    0    0  501    0  0.00000000000E+00  0.00000000000E+00  0.19670163837E+04  0.19670163837E+04  0.50400001928E-02 0. -1.
       -1   -1    0    0    0  501  0.00000000000E+00  0.00000000000E+00 -0.17394218222E+04  0.17394218222E+04  0.50400001928E-02 0.  1.
    10030    2    1    2    0    0  0.00000000000E+00  0.00000000000E+00  0.22759456152E+03  0.37064382059E+04  0.36994438622E+04 0.  0.
        1    1    3    3  502    0  0.16370399269E+04  0.85216556527E+02 -0.74474153879E+03  0.18005003592E+04  0.50400001928E-02 0.  1.
       -1    1    3    3    0  502 -0.16370399269E+04 -0.85216556527E+02  0.97233610031E+03  0.19059378468E+04  0.50400001928E-02 0. -1.
</event>
<event>
 5   0  0.2282000E-08  0.3698351E+04  0.7818609E-02  0.8068327E-01
       -1   -1    0    0    0  501  0.00000000000E+00  0.00000000000E+00  0.17615893038E+04  0.17615893038E+04  0.50400001928E-02 0. -1.
        1   -1    0    0  501    0  0.00000000000E+00  0.00000000000E+00 -0.19411160115E+04  0.19411160115E+04  0.50400001928E-02 0.  1.
    10030    2    1    2    0    0  0.00000000000E+00  0.00000000000E+00 -0.17952670766E+03  0.37027053153E+04  0.36983505530E+04 0.  0.
        3    1    3    3  502    0  0.73825764032E+03  0.76820132504E+03  0.14234035872E+04  0.17779863333E+04  0.10100000352E+00 0. -1.
       -3    1    3    3    0  502 -0.73825764032E+03 -0.76820132504E+03 -0.16029302948E+04  0.19247189820E+04  0.10100000352E+00 0.  1.
</event>
<event>
 5   0  0.2282000E-08  0.3685703E+04  0.7818609E-02  0.8071138E-01
        1   -1    0    0  501    0  0.00000000000E+00  0.00000000000E+00  0.16546001166E+04  0.16546001166E+04  0.50400001928E-02 0. -1.
       -1   -1    0    0    0  501  0.00000000000E+00  0.00000000000E+00 -0.20525213944E+04  0.20525213944E+04  0.50400001928E-02 0.  1.
    10030    2    1    2    0    0  0.00000000000E+00  0.00000000000E+00 -0.39792127778E+03  0.37071215111E+04  0.36857032646E+04 0.  0.
        5    1    3    3  502    0 -0.67130035398E+03  0.83893611575E+03  0.13069446263E+04  0.16919173496E+04  0.46999998093E+01 0. -1.
       -5    1    3    3    0  502  0.67130035398E+03 -0.83893611575E+03 -0.17048659041E+04  0.20152041615E+04  0.46999998093E+01 0.  1.
</event>
<event>
 5   0  0.7203049E-08  0.3698275E+04  0.7818609E-02  0.8068344E-01
       -2   -1    0    0    0  501  0.00000000000E+00  0.00000000000E+00  0.24907525954E+04  0.24907525954E+04  0.25500000920E-02 0.  1.
        2   -1    0    0  501    0  0.00000000000E+00  0.00000000000E+00 -0.13728013974E+04  0.13728013974E+04  0.25500000920E-02 0. -1.
    10030    2    1    2    0    0  0.00000000000E+00  0.00000000000E+00  0.11179511980E+04  0.38635539928E+04  0.36982745401E+04 0.  0.
        4    1    3    3  502    0  0.70332924663E+03  0.10793452489E+04  0.19447765062E+04  0.23327699131E+04  0.12699999809E+01 0.  1.
       -4    1    3    3    0  502 -0.70332924663E+03 -0.10793452489E+04 -0.82682530814E+03  0.15307840797E+04  0.12699999809E+01 0. -1.
</event>
<event>
 5   0  0.2282000E-08  0.3696357E+04  0.7818609E-02  0.8068770E-01
        1   -1    0    0  501    0  0.00000000000E+00  0.00000000000E+00  0.16440732971E+04  0.16440732971E+04  0.50400001928E-02 0. -1.
       -1   -1    0    0    0  501  0.00000000000E+00  0.00000000000E+00 -0.20776225951E+04  0.20776225951E+04  0.50400001928E-02 0.  1.
    10030    2    1    2    0    0  0.00000000000E+00  0.00000000000E+00 -0.43354929802E+03  0.37216958921E+04  0.36963570336E+04 0.  0.
        2    1    3    3  502    0  0.12324575083E+04 -0.74970895426E+03  0.94645841965E+03  0.17253401306E+04  0.25500000920E-02 0. -1.
       -2    1    3    3    0  502 -0.12324575083E+04  0.74970895426E+03 -0.13800077177E+04  0.19963557616E+04  0.25500000920E-02 0.  1.
</event>
<event>
 5   0  0.2282000E-08  0.3774397E+04  0.7818609E-02  0.8051672E-01
        1   -1    0    0  501    0  0.00000000000E+00  0.00000000000E+00  0.11664299901E+04  0.11664299901E+04  0.50400001928E-02 0.  1.
       -1   -1    0    0    0  501  0.00000000000E+00  0.00000000000E+00 -0.30533498468E+04  0.30533498468E+04  0.50400001928E-02 0. -1.
    10030    2    1    2    0    0  0.00000000000E+00  0.00000000000E+00 -0.18869198566E+04  0.42197798369E+04  0.37743973461E+04 0.  0.
        4    1    3    3  502    0  0.43949088173E+03 -0.17251273846E+04 -0.24321237512E+03  0.17967667073E+04  0.12699999809E+01 0.  1.
       -4    1    3    3    0  502 -0.43949088173E+03  0.17251273846E+04 -0.16437074815E+04  0.24230131296E+04  0.12699999809E+01 0. -1.
</event>
<event>
 5   0  0.7203049E-08  0.3694487E+04  0.7818609E-02  0.8069185E-01
       -2   -1    0    0    0  501  0.00000000000E+00  0.00000000000E+00  0.13776985033E+04  0.13776985033E+04  0.25500000920E-02 0. -1.
        2   -1    0    0  501    0  0.00000000000E+00  0.00000000000E+00 -0.24768183812E+04  0.24768183812E+04  0.25500000920E-02 0.  1.
    10030    2    1    2    0    0  0.00000000000E+00  0.00000000000E+00 -0.10991198779E+04  0.38545168844E+04  0.36944872319E+04 0.  0.
        4    1    3    3  502    0  0.65453370104E+03  0.11997478100E+04  0.74705041208E+03  0.15575285244E+04  0.12699999809E+01 0. -1.
       -4    1    3    3    0  502 -0.65453370104E+03 -0.11997478100E+04 -0.18461702900E+04  0.22969883600E+04  0.12699999809E+01 0.  1.
</event>
<event>
 5   0  0.7191801E-08  0.3701696E+04  0.7818609E-02  0.8067586E-01
        2   -1    0    0  501    0  0.00000000000E+00  0.00000000000E+00  0.30272379171E+04  0.30272379171E+04  0.25500000920E-02 0.  1.
       -2   -1    0    0    0  501  0.00000000000E+00  0.00000000000E+00 -0.11316053468E+04  0.11316053468E+04  0.25500000920E-02 0. -1.
    10030    2    1    2    0    0  0.00000000000E+00  0.00000000000E+00  0.18956325703E+04  0.41588432639E+04  0.37016961588E+04 0.  0.
        5    1    3    3  502    0  0.11949853329E+03 -0.50579006851E+03  0.29435692075E+04  0.29891010793E+04  0.46999998093E+01 0.  1.
       -5    1    3    3    0  502 -0.11949853329E+03  0.50579006851E+03 -0.10479366372E+04  0.11697421846E+04  0.46999998093E+01 0. -1.
</event>
<event>
 5   0  0.2282000E-08  0.3701565E+04  0.7818609E-02  0.8067615E-01
        1   -1    0    0  501    0  0.00000000000E+00  0.00000000000E+00  0.21540045642E+04  0.21540045642E+04  0.50400001928E-02 0.  1.
       -1   -1    0    0    0  501  0.00000000000E+00  0.00000000000E+00 -0.15902458211E+04  0.15902458212E+04  0.50400001928E-02 0. -1.
    10030    2    1    2    0    0  0.00000000000E+00  0.00000000000E+00  0.56375874308E+03  0.37442503854E+04  0.37015654834E+04 0.  0.
        4    1    3    3  502    0 -0.14102409801E+04  0.99932928821E+03 -0.38753484672E+03  0.17713338247E+04  0.12699999809E+01 0. -1.
       -4    1    3    3    0  502  0.14102409801E+04 -0.99932928821E+03  0.95129358980E+03  0.19729165606E+04  0.12699999809E+01 0.  1.
</event>
<event>
 5   0  0.7203049E-08  0.3691200E+04  0.7818609E-02  0.8069915E-01
       -2   -1    0    0    0  501  0.00000000000E+00  0.00000000000E+00  0.25384679568E+04  0.25384679568E+04  0.25500000920E-02 0. -1.
        2   -1    0    0  501    0  0.00000000000E+00  0.00000000000E+00 -0.13418486941E+04  0.13418486941E+04  0.25500000920E-02 0.  1.
    10030    2    1    2    0    0  0.00000000000E+00  0.00000000000E+00  0.11966192627E+04  0.38803166509E+04  0.36912002996E+04 0.  0.
        4    1    3    3  502    0 -0.18271198640E+04  0.13282370060E+03  0.83391085620E+03  0.20128134692E+04  0.12699999809E+01 0. -1.
       -4    1    3    3    0  502  0.18271198640E+04 -0.13282370060E+03  0.36270840652E+03  0.18675031817E+04  0.12699999809E+01 0.  1.
</event>
<event>
 5   0  0.7254493E-08  0.3695863E+04  0.7818609E-02  0.8068879E-01
       -2   -1    0    0    0  501  0.00000000000E+00  0.00000000000E+00  0.13484914930E+04  0.13484914930E+04  0.25500000920E-02 0. -1.
        2   -1    0    0  501    0  0.00000000000E+00  0.00000000000E+00 -0.25323492256E+04  0.25323492256E+04  0.25500000920E-02 0.  1.
    10030    2    1    2    0    0  0.00000000000E+00  0.00000000000E+00 -0.11838577326E+04  0.38808407186E+04  0.36958633027E+04 0.  0.
        3    1    3    3  502    0 -0.80425543420E+03  0.17843472134E+02  0.11549786390E+04  0.14075229517E+04  0.10100000352E+00 0. -1.
       -3    1    3    3    0  502  0.80425543420E+03 -0.17843472134E+02 -0.23388363715E+04  0.24733177669E+04  0.10100000352E+00 0.  1.
</event>
<event>
 5   0  0.2282000E-08  0.3684088E+04  0.7818609E-02  0.8071497E-01
       -1   -1    0    0    0  501  0.00000000000E+00  0.00000000000E+00  0.21557022515E+04  0.21557022515E+04  0.50400001928E-02 0.  1.
        1   -1    0    0  501    0  0.00000000000E+00  0.00000000000E+00 -0.15740238127E+04  0.15740238127E+04  0.50400001928E-02 0. -1.
    10030    2    1    2    0    0  0.00000000000E+00  0.00000000000E+00  0.58167843877E+03  0.37297260642E+04  0.36840883143E+04 0.  0.
        5    1    3    3  502    0  0.15850533333E+04  0.79216680981E+03  0.80024461616E+03  0.19443085814E+04  0.46999998093E+01 0.  1.
       -5    1    3    3    0  502 -0.15850533333E+04 -0.79216680981E+03 -0.21856617739E+03  0.17854174828E+04  0.46999998093E+01 0. -1.
</event>
<event>
 5   0  0.7309833E-08  0.3701006E+04  0.7818609E-02  0.8067739E-01
       -2   -1    0    0    0  501  0.00000000000E+00  0.00000000000E+00  0.15533873501E+04  0.15533873501E+04  0.25500000920E-02 0.  1.
        2   -1    0    0  501    0  0.00000000000E+00  0.00000000000E+00 -0.22044477805E+04  0.22044477805E+04  0.25500000920E-02 0. -1.
    10030    2    1    2    0    0  0.00000000000E+00  0.00000000000E+00 -0.65106043032E+03  0.37578351306E+04  0.37010059693E+04 0.  0.
        2    1    3    3  502    0  0.89235606968E+03  0.13245846282E+02 -0.19714976464E+04  0.21640882093E+04  0.25500000920E-02 0. -1.
       -2    1    3    3    0  502 -0.89235606968E+03 -0.13245846282E+02  0.13204372161E+04  0.15937469213E+04  0.25500000920E-02 0.  1.
</event>
<event>
 5   0  0.2282000E-08  0.3696308E+04  0.7818609E-02  0.8068781E-01
        3   -1    0    0  501    0  0.00000000000E+00  0.00000000000E+00  0.21873801100E+04  0.21873801123E+04  0.10100000352E+00 0. -1.
       -3   -1    0    0    0  501  0.00000000000E+00  0.00000000000E+00 -0.15615360335E+04  0.15615360368E+04  0.10100000352E+00 0.  1.
    10030    2    1    2    0    0  0.00000000000E+00  0.00000000000E+00  0.62584407651E+03  0.37489161491E+04  0.36963078179E+04 0.  0.
        3    1    3    3  502    0  0.13695420479E+04 -0.10074510368E+04 -0.42200823315E+03  0.17517688122E+04  0.10100000352E+00 0.  1.
       -3    1    3    3    0  502 -0.13695420479E+04  0.10074510368E+04  0.10478523097E+04  0.19971473369E+04  0.10100000352E+00 0. -1.
</event>
<event>
 5   0  0.7309833E-08  0.3742477E+04  0.7818609E-02  0.8058613E-01
       -2   -1    0    0    0  501  0.00000000000E+00  0.00000000000E+00  0.16324760745E+04  0.16324760745E+04  0.25500000920E-02 0.  1.
        2   -1    0    0  501    0  0.00000000000E+00  0.00000000000E+00 -0.21449221288E+04  0.21449221288E+04  0.25500000920E-02 0. -1.
    10030    2    1    2    0    0  0.00000000000E+00  0.00000000000E+00 -0.51244605433E+03  0.37773982033E+04  0.37424772849E+04 0.  0.
        2    1    3    3  502    0 -0.10812109758E+04  0.44250572712E+03 -0.17316099741E+04  0.20888517408E+04  0.25500000920E-02 0. -1.
       -2    1    3    3    0  502  0.10812109758E+04 -0.44250572712E+03  0.12191639198E+04  0.16885464625E+04  0.25500000920E-02 0.  1.
</event>
<event>
 5   0  0.2282000E-08  0.3700511E+04  0.7818609E-02  0.8067849E-01
       -1   -1    0    0    0  501  0.00000000000E+00  0.00000000000E+00  0.13351575083E+04  0.13351575083E+04  0.50400001928E-02 0. -1.
        1   -1    0    0  501    0  0.00000000000E+00  0.00000000000E+00 -0.25640754828E+04  0.25640754829E+04  0.50400001928E-02 0.  1.
    10030    2    1    2    0    0  0.00000000000E+00  0.00000000000E+00 -0.12289179745E+04  0.38992329912E+04  0.37005105772E+04 0.  0.
        3    1    3    3  502    0  0.41519937223E+03  0.32389855459E+03  0.12545303473E+04  0.13605687027E+04  0.10100000352E+00 0. -1.
       -3    1    3    3    0  502 -0.41519937223E+03 -0.32389855459E+03 -0.24834483218E+04  0.25386642885E+04  0.10100000352E+00 0.  1.
</event>
<event>
 5   0  0.7254493E-08  0.3706575E+04  0.7818609E-02  0.8066506E-01
        2   -1    0    0  501    0  0.00000000000E+00  0.00000000000E+00  0.13381828709E+04  0.13381828709E+04  0.25500000920E-02 0.  1.
       -2   -1    0    0    0  501  0.00000000000E+00  0.00000000000E+00 -0.25666707961E+04  0.25666707961E+04  0.25500000920E-02 0. -1.
    10030    2    1    2    0    0  0.00000000000E+00  0.00000000000E+00 -0.12284879252E+04  0.39048536670E+04  0.37065751818E+04 0.  0.
        3    1    3    3  502    0 -0.35338047643E+03  0.85816329538E+03  0.10757362606E+04  0.14207499834E+04  0.10100000352E+00 0.  1.
       -3    1    3    3    0  502  0.35338047643E+03 -0.85816329538E+03 -0.23042241858E+04  0.24841036836E+04  0.10100000352E+00 0. -1.
</event>
<event>
 5   0  0.2282000E-08  0.3734698E+04  0.7818609E-02  0.8060316E-01
       -1   -1    0    0    0  501  0.00000000000E+00  0.00000000000E+00  0.14551928405E+04  0.14551928405E+04  0.50400001928E-02 0. -1.
        1   -1    0    0  501    0  0.00000000000E+00  0.00000000000E+00 -0.23962401830E+04  0.23962401830E+04  0.50400001928E-02 0.  1.
    10030    2    1    2    0    0  0.00000000000E+00  0.00000000000E+00 -0.94104734245E+03  0.38514330235E+04  0.37346976094E+04 0.  0.
        4    1    3    3  502    0  0.41193610298E+03 -0.84560868126E+03 -0.21340932123E+04  0.23321879955E+04  0.12699999809E+01 0.  1.
       -4    1    3    3    0  502 -0.41193610298E+03  0.84560868126E+03  0.11930458698E+04  0.15192450280E+04  0.12699999809E+01 0. -1.
</event>
<event>
 5   0  0.2282000E-08  0.3694937E+04  0.7818609E-02  0.8069085E-01
       -1   -1    0    0    0  501  0.00000000000E+00  0.00000000000E+00  0.24396308090E+04  0.24396308090E+04  0.50400001928E-02 0. -1.
        1   -1    0    0  501    0  0.00000000000E+00  0.00000000000E+00 -0.13990395303E+04  0.13990395303E+04  0.50400001928E-02 0.  1.
    10030    2    1    2    0    0  0.00000000000E+00  0.00000000000E+00  0.10405912787E+04  0.38386703393E+04  0.36949370447E+04 0.  0.
        3    1    3    3  502    0 -0.90531726078E+03  0.83412668293E+03 -0.91088988826E+03  0.15313677104E+04  0.10100000352E+00 0.  1.
       -3    1    3    3    0  502  0.90531726078E+03 -0.83412668293E+03  0.19514811669E+04  0.23073026288E+04  0.10100000352E+00 0. -1.
</event>
<event>
 5   0  0.7309833E-08  0.3700691E+04  0.7818609E-02  0.8067809E-01
       -2   -1    0    0    0  501  0.00000000000E+00  0.00000000000E+00  0.19683691490E+04  0.19683691490E+04  0.25500000920E-02 0. -1.
        2   -1    0    0  501    0  0.00000000000E+00  0.00000000000E+00 -0.17393981588E+04  0.17393981588E+04  0.25500000920E-02 0.  1.
    10030    2    1    2    0    0  0.00000000000E+00  0.00000000000E+00  0.22897099019E+03  0.37077673078E+04  0.37006905700E+04 0.  0.
        2    1    3    3  502    0 -0.86580666004E+03 -0.12269104415E+04  0.11976853190E+04  0.19207760222E+04  0.25500000920E-02 0. -1.
       -2    1    3    3    0  502  0.86580666004E+03  0.12269104415E+04 -0.96871432882E+03  0.17869912856E+04  0.25500000920E-02 0.  1.
</event>
<event>
 5   0  0.2282000E-08  0.3701770E+04  0.7818609E-02  0.8067570E-01
       -1   -1    0    0    0  501  0.00000000000E+00  0.00000000000E+00  0.16700579050E+04  0.16700579050E+04  0.50400001928E-02 0. -1.
        1   -1    0    0  501    0  0.00000000000E+00  0.00000000000E+00 -0.20512911823E+04  0.20512911823E+04  0.50400001928E-02 0.  1.
    10030    2    1    2    0    0  0.00000000000E+00  0.00000000000E+00 -0.38123327723E+03  0.37213490873E+04  0.37017698764E+04 0.  0.
        5    1    3    3  502    0 -0.34736629212E+03  0.15948679861E+03 -0.20111765754E+04  0.20471816449E+04  0.46999998093E+01 0.  1.
       -5    1    3    3    0  502  0.34736629212E+03 -0.15948679861E+03  0.16299432982E+04  0.16741674424E+04  0.46999998093E+01 0. -1.
</event>
<event>
 5   0  0.7203049E-08  0.3694692E+04  0.7818609E-02  0.8069139E-01
       -2   -1    0    0    0  501  0.00000000000E+00  0.00000000000E+00  0.15613889412E+04  0.15613889412E+04  0.25500000920E-02 0.  1.
        2   -1    0    0  501    0  0.00000000000E+00  0.00000000000E+00 -0.21856740449E+04  0.21856740449E+04  0.25500000920E-02 0. -1.
    10030    2    1    2    0    0  0.00000000000E+00  0.00000000000E+00 -0.62428510369E+03  0.37470629860E+04  0.36946920211E+04 0.  0.
        4    1    3    3  502    0  0.10596930573E+04  0.10121538386E+04  0.82864881783E+03  0.16834682191E+04  0.12699999809E+01 0.  1.
       -4    1    3    3    0  502 -0.10596930573E+04 -0.10121538386E+04 -0.14529339215E+04  0.20635947669E+04  0.12699999809E+01 0. -1.
</event>
<event>
 5   0  0.7254493E-08  0.3695338E+04  0.7818609E-02  0.8068996E-01
       -2   -1    0    0    0  501  0.00000000000E+00  0.00000000000E+00  0.13128841616E+04  0.13128841616E+04  0.25500000920E-02 0. -1.
        2   -1    0    0  501    0  0.00000000000E+00  0.00000000000E+00 -0.26002914039E+04  0.26002914039E+04  0.25500000920E-02 0.  1.
    10030    2    1    2    0    0  0.00000000000E+00  0.00000000000E+00 -0.12874072423E+04  0.39131755655E+04  0.36953383605E+04 0.  0.
        3    1    3    3  502    0 -0.16264756022E+04  0.48408325161E+02  0.28317346296E+03  0.16516517402E+04  0.10100000352E+00 0. -1.
       -3    1    3    3    0  502  0.16264756022E+04 -0.48408325161E+02 -0.15705807053E+04  0.22615238253E+04  0.10100000352E+00 0.  1.
</event>
<event>
 5   0  0.7191801E-08  0.3698566E+04  0.7818609E-02  0.8068280E-01
        2   -1    0    0  501    0  0.00000000000E+00  0.00000000000E+00  0.25904119148E+04  0.25904119148E+04  0.25500000920E-02 0. -1.
       -2   -1    0    0    0  501  0.00000000000E+00  0.00000000000E+00 -0.13201943574E+04  0.13201943574E+04  0.25500000920E-02 0.  1.
    10030    2    1    2    0    0  0.00000000000E+00  0.00000000000E+00  0.12702175575E+04  0.39106062722E+04  0.36985657724E+04 0.  0.
        5    1    3    3  502    0  0.98718590192E+03  0.14784471442E+04  0.11737075007E+04  0.21302472510E+04  0.46999998093E+01 0. -1.
       -5    1    3    3    0  502 -0.98718590192E+03 -0.14784471442E+04  0.96510056783E+02  0.17803590212E+04  0.46999998093E+01 0.  1.
</event>
<event>
 5   0  0.2282000E-08  0.3702154E+04  0.7818609E-02  0.8067485E-01
        1   -1    0    0  501    0  0.00000000000E+00  0.00000000000E+00  0.21436242549E+04  0.21436242549E+04  0.50400001928E-02 0. -1.
       -1   -1    0    0    0  501  0.00000000000E+00  0.00000000000E+00 -0.15984545808E+04  0.15984545808E+04  0.50400001928E-02 0.  1.
    10030    2    1    2    0    0  0.00000000000E+00  0.00000000000E+00  0.54516967408E+03  0.37420788357E+04  0.37021539729E+04 0.  0.
        4    1    3    3  502    0 -0.17127845048E+04  0.37815016638E+03 -0.32528022357E+03  0.17839386606E+04  0.12699999809E+01 0. -1.
       -4    1    3    3    0  502  0.17127845048E+04 -0.37815016638E+03  0.87044989765E+03  0.19581401751E+04  0.12699999809E+01 0.  1.
</event>
<event>
 5   0  0.2282000E-08  0.3656428E+04  0.7818609E-02  0.8077687E-01
        1   -1    0    0  501    0  0.00000000000E+00  0.00000000000E+00  0.23660824275E+04  0.23660824275E+04  0.50400001928E-02 0.  1.
       -1   -1    0    0    0  501  0.00000000000E+00  0.00000000000E+00 -0.14126159162E+04  0.14126159162E+04  0.50400001928E-02 0. -1.
    10030    2    1    2    0    0  0.00000000000E+00  0.00000000000E+00  0.95346651134E+03  0.37786983437E+04  0.36564275987E+04 0.  0.
        3    1    3    3  502    0 -0.10450167502E+04  0.63263316800E+03 -0.92892779399E+03  0.15346633475E+04  0.10100000352E+00 0. -1.
       -3    1    3    3    0  502  0.10450167502E+04 -0.63263316800E+03  0.18823943053E+04  0.22440349962E+04  0.10100000352E+00 0.  1.
</event>
<event>
 5   0  0.2282000E-08  0.3684140E+04  0.7818609E-02  0.8071486E-01
       -1   -1    0    0    0  501  0.00000000000E+00  0.00000000000E+00  0.13321374247E+04  0.13321374247E+04  0.50400001928E-02 0.  1.
        1   -1    0    0  501    0  0.00000000000E+00  0.00000000000E+00 -0.25472016643E+04  0.25472016643E+04  0.50400001928E-02 0. -1.
    10030    2    1    2    0    0  0.00000000000E+00  0.00000000000E+00 -0.12150642397E+04  0.38793390890E+04  0.36841404236E+04 0.  0.
        5    1    3    3  502    0 -0.55716809952E+03  0.17557322062E+04 -0.59385531939E+03  0.19353857759E+04  0.46999998093E+01 0.  1.
       -5    1    3    3    0  502  0.55716809952E+03 -0.17557322062E+04 -0.62120892028E+03  0.19439533131E+04  0.46999998093E+01 0. -1.
</event>
<event>
 5   0  0.7203049E-08  0.3702092E+04  0.7818609E-02  0.8067498E-01
        2   -1    0    0  501    0  0.00000000000E+00  0.00000000000E+00  0.22996952477E+04  0.22996952477E+04  0.25500000920E-02 0.  1.
       -2   -1    0    0    0  501  0.00000000000E+00  0.00000000000E+00 -0.14899238854E+04  0.14899238854E+04  0.25500000920E-02 0. -1.
    10030    2    1    2    0    0  0.00000000000E+00  0.00000000000E+00  0.80977136236E+03  0.37896191331E+04  0.37020917755E+04 0.  0.
        4    1    3    3  502    0 -0.10276512833E+04  0.26840526377E+03 -0.11469582097E+04  0.15632092929E+04  0.12699999809E+01 0. -1.
       -4    1    3    3    0  502  0.10276512833E+04 -0.26840526377E+03  0.19567295720E+04  0.22264098402E+04  0.12699999809E+01 0.  1.
</event>
<event>
 5   0  0.7362817E-08  0.3714082E+04  0.7818609E-02  0.8064848E-01
       -2   -1    0    0    0  501  0.00000000000E+00  0.00000000000E+00  0.23935164247E+04  0.23935164247E+04  0.25500000920E-02 0.  1.
        2   -1    0    0  501    0  0.00000000000E+00  0.00000000000E+00 -0.14408094908E+04  0.14408094908E+04  0.25500000920E-02 0. -1.
    10030    2    1    2    0    0  0.00000000000E+00  0.00000000000E+00  0.95270693393E+03  0.38343259156E+04  0.37140819491E+04 0.  0.
        1    1    3    3  502    0 -0.21182491924E+03 -0.33293798345E+03  0.23497328570E+04  0.23826376133E+04  0.50400001928E-02 0.  1.
       -1    1    3    3    0  502  0.21182491924E+03  0.33293798345E+03 -0.13970259230E+04  0.14516883022E+04  0.50400001928E-02 0. -1.
</event>
<event>
 5   0  0.7191801E-08  0.3692095E+04  0.7818609E-02  0.8069716E-01
       -2   -1    0    0    0  501  0.00000000000E+00  0.00000000000E+00  0.14428274848E+04  0.14428274848E+04  0.25500000920E-02 0.  1.
        2   -1    0    0  501    0  0.00000000000E+00  0.00000000000E+00 -0.23619528500E+04  0.23619528500E+04  0.25500000920E-02 0. -1.
    10030    2    1    2    0    0  0.00000000000E+00  0.00000000000E+00 -0.91912536516E+03  0.38047803348E+04  0.36920945220E+04 0.  0.
        5    1    3    3  502    0 -0.33171370258E+03 -0.12923380733E+04  0.85518835425E+03  0.15847841769E+04  0.46999998093E+01 0.  1.
       -5    1    3    3    0  502  0.33171370258E+03  0.12923380733E+04 -0.17743137194E+04  0.22199961579E+04  0.46999998093E+01 0. -1.
</event>
<event>
 5   0  0.7203049E-08  0.3699268E+04  0.7818609E-02  0.8068124E-01
       -2   -1    0    0    0  501  0.00000000000E+00  0.00000000000E+00  0.26392117940E+04  0.26392117940E+04  0.25500000920E-02 0. -1.
        2   -1    0    0  501    0  0.00000000000E+00  0.00000000000E+00 -0.12962759660E+04  0.12962759660E+04  0.25500000920E-02 0.  1.
    10030    2    1    2    0    0  0.00000000000E+00  0.00000000000E+00  0.13429358280E+04  0.39354877600E+04  0.36992684778E+04 0.  0.
        4    1    3    3  502    0 -0.16054138840E+04 -0.75088162893E+03  0.10856032740E+03  0.17756587277E+04  0.12699999809E+01 0.  1.
       -4    1    3    3    0  502  0.16054138840E+04  0.75088162893E+03  0.12343755007E+04  0.21598290324E+04  0.12699999809E+01 0. -1.
</event>
<event>
 5   0  0.7309833E-08  0.3700762E+04  0.7818609E-02  0.8067793E-01
       -2   -1    0    0    0  501  0.00000000000E+00  0.00000000000E+00  0.13838232269E+04  0.13838232269E+04  0.25500000920E-02 0.  1.
        2   -1    0    0  501    0  0.00000000000E+00  0.00000000000E+00 -0.24742397679E+04  0.24742397679E+04  0.25500000920E-02 0. -1.
    10030    2    1    2    0    0  0.00000000000E+00  0.00000000000E+00 -0.10904165411E+04  0.38580629948E+04  0.37007623321E+04 0.  0.
        2    1    3    3  502    0  0.87447201697E+03  0.11364770241E+04  0.67395617822E+03  0.15844551950E+04  0.25500000920E-02 0.  1.
       -2    1    3    3    0  502 -0.87447201697E+03 -0.11364770241E+04 -0.17643727193E+04  0.22736077998E+04  0.25500000920E-02 0. -1.
</event>
<event>
 5   0  0.7191801E-08  0.3692884E+04  0.7818609E-02  0.8069541E-01
       -2   -1    0    0    0  501  0.00000000000E+00  0.00000000000E+00  0.13930701671E+04  0.13930701671E+04  0.25500000920E-02 0.  1.
        2   -1    0    0  501    0  0.00000000000E+00  0.00000000000E+00 -0.24473633888E+04  0.24473633888E+04  0.25500000920E-02 0. -1.
    10030    2    1    2    0    0  0.00000000000E+00  0.00000000000E+00 -0.10542932217E+04  0.38404335560E+04  0.36928844689E+04 0.  0.
        5    1    3    3  502    0  0.72401329628E+03 -0.15532042655E+04  0.18784651324E+03  0.17239336258E+04  0.46999998093E+01 0.  1.
       -5    1    3    3    0  502 -0.72401329628E+03  0.15532042655E+04 -0.12421397349E+04  0.21164999302E+04  0.46999998093E+01 0. -1.
</event>
<event>
 5   0  0.7191801E-08  0.3766656E+04  0.7818609E-02  0.8053349E-01
        2   -1    0    0  501    0  0.00000000000E+00  0.00000000000E+00  0.21546565086E+04  0.21546565086E+04  0.25500000920E-02 0. -1.
       -2   -1    0    0    0  501  0.00000000000E+00  0.00000000000E+00 -0.16461666345E+04  0.16461666345E+04  0.25500000920E-02 0.  1.
    10030    2    1    2    0    0  0.00000000000E+00  0.00000000000E+00  0.50848987415E+03  0.38008231431E+04  0.37666556271E+04 0.  0.
        5    1    3    3  502    0  0.13259853199E+04  0.43775704845E+03  0.15294461776E+04  0.20710132791E+04  0.46999998093E+01 0. -1.
       -5    1    3    3    0  502 -0.13259853199E+04 -0.43775704845E+03 -0.10209563035E+04  0.17298098640E+04  0.46999998093E+01 0.  1.
</event>
<event>
 5   0  0.2282000E-08  0.3709703E+04  0.7818609E-02  0.8065815E-01
        1   -1    0    0  501    0  0.00000000000E+00  0.00000000000E+00  0.15138580026E+04  0.15138580026E+04  0.50400001928E-02 0. -1.
       -1   -1    0    0    0  501  0.00000000000E+00  0.00000000000E+00 -0.22726527100E+04  0.22726527100E+04  0.50400001928E-02 0.  1.
    10030    2    1    2    0    0  0.00000000000E+00  0.00000000000E+00 -0.75879470732E+03  0.37865107126E+04  0.37097026793E+04 0.  0.
        2    1    3    3  502    0  0.11729670847E+04  0.82581046582E+03  0.82081362434E+03  0.16527400622E+04  0.25500000920E-02 0. -1.
       -2    1    3    3    0  502 -0.11729670847E+04 -0.82581046582E+03 -0.15796083317E+04  0.21337706504E+04  0.25500000920E-02 0.  1.
</event>
<event>
 5   0  0.2282000E-08  0.3702415E+04  0.7818609E-02  0.8067427E-01
        1   -1    0    0  501    0  0.00000000000E+00  0.00000000000E+00  0.15845445105E+04  0.15845445105E+04  0.50400001928E-02 0. -1.
       -1   -1    0    0    0  501  0.00000000000E+00  0.00000000000E+00 -0.21627471939E+04  0.21627471939E+04  0.50400001928E-02 0.  1.
    10030    2    1    2    0    0  0.00000000000E+00  0.00000000000E+00 -0.57820268338E+03  0.37472917045E+04  0.37024149923E+04 0.  0.
        2    1    3    3  502    0  0.54815541228E+03 -0.16006612404E+04 -0.10494584492E+04  0.19909680557E+04  0.25500000920E-02 0.  1.
       -2    1    3    3    0  502 -0.54815541228E+03  0.16006612404E+04  0.47125576578E+03  0.17563236488E+04  0.25500000920E-02 0. -1.
</event>
<event>
 5   0  0.2282000E-08  0.3699137E+04  0.7818609E-02  0.8068153E-01
        1   -1    0    0  501    0  0.00000000000E+00  0.00000000000E+00  0.21059427688E+04  0.21059427688E+04  0.50400001928E-02 0. -1.
       -1   -1    0    0    0  501  0.00000000000E+00  0.00000000000E+00 -0.16244045835E+04  0.16244045835E+04  0.50400001928E-02 0.  1.
    10030    2    1    2    0    0  0.00000000000E+00  0.00000000000E+00  0.48153818532E+03  0.37303473523E+04  0.36991367027E+04 0.  0.
        2    1    3    3  502    0  0.69734072435E+03  0.79702093579E+03  0.17699326815E+04  0.20625683395E+04  0.25500000920E-02 0. -1.
       -2    1    3    3    0  502 -0.69734072435E+03 -0.79702093579E+03 -0.12883944962E+04  0.16677790129E+04  0.25500000920E-02 0.  1.
</event>
<event>
 5   0  0.2282000E-08  0.3697752E+04  0.7818609E-02  0.8068460E-01
        1   -1    0    0  501    0  0.00000000000E+00  0.00000000000E+00  0.14888642539E+04  0.14888642539E+04  0.50400001928E-02 0. -1.
       -1   -1    0    0    0  501  0.00000000000E+00  0.00000000000E+00 -0.22959396883E+04  0.22959396883E+04  0.50400001928E-02 0.  1.
    10030    2    1    2    0    0  0.00000000000E+00  0.00000000000E+00 -0.80707543445E+03  0.37848039422E+04  0.36977520366E+04 0.  0.
        5    1    3    3  502    0  0.83958713388E+03  0.10405620955E+04  0.90349131864E+03  0.16136897728E+04  0.46999998093E+01 0. -1.
       -5    1    3    3    0  502 -0.83958713388E+03 -0.10405620955E+04 -0.17105667531E+04  0.21711141694E+04  0.46999998093E+01 0.  1.
</event>
<event>
 5   0  0.7254493E-08  0.3691074E+04  0.7818609E-02  0.8069943E-01
        2   -1    0    0  501    0  0.00000000000E+00  0.00000000000E+00  0.17617179525E+04  0.17617179526E+04  0.25500000920E-02 0.  1.
       -2   -1    0    0    0  501  0.00000000000E+00  0.00000000000E+00 -0.19333441590E+04  0.19333441590E+04  0.25500000920E-02 0. -1.
    10030    2    1    2    0    0  0.00000000000E+00  0.00000000000E+00 -0.17162620643E+03  0.36950621115E+04  0.36910741598E+04 0.  0.
        3    1    3    3  502    0  0.17920017651E+04 -0.41653987733E+03  0.60053994460E+02  0.18407559013E+04  0.10100000352E+00 0.  1.
       -3    1    3    3    0  502 -0.17920017651E+04  0.41653987733E+03 -0.23168020089E+03  0.18543062102E+04  0.10100000352E+00 0. -1.
</event>
<event>
 5   0  0.2282000E-08  0.3641557E+04  0.7818609E-02  0.8081038E-01
        1   -1    0    0  501    0  0.00000000000E+00  0.00000000000E+00  0.14498976311E+04  0.14498976311E+04  0.50400001928E-02 0. -1.
       -1   -1    0    0    0  501  0.00000000000E+00  0.00000000000E+00 -0.22865304844E+04  0.22865304844E+04  0.50400001928E-02 0.  1.
    10030    2    1    2    0    0  0.00000000000E+00  0.00000000000E+00 -0.83663285325E+03  0.37364281155E+04  0.36415574321E+04 0.  0.
        3    1    3    3  502    0 -0.50433856566E+03  0.17218384983E+04 -0.73647521951E+03  0.19394537793E+04  0.10100000352E+00 0.  1.
       -3    1    3    3    0  502  0.50433856566E+03 -0.17218384983E+04 -0.10015763374E+03  0.17969743362E+04  0.10100000352E+00 0. -1.
</event>
<event>
 5   0  0.2282000E-08  0.3696041E+04  0.7818609E-02  0.8068840E-01
       -1   -1    0    0    0  501  0.00000000000E+00  0.00000000000E+00  0.14486149335E+04  0.14486149335E+04  0.50400001928E-02 0. -1.
        1   -1    0    0  501    0  0.00000000000E+00  0.00000000000E+00 -0.23575487230E+04  0.23575487230E+04  0.50400001928E-02 0.  1.
    10030    2    1    2    0    0  0.00000000000E+00  0.00000000000E+00 -0.90893378951E+03  0.38061636564E+04  0.36960412803E+04 0.  0.
        2    1    3    3  502    0 -0.13248353307E+04 -0.77435510085E+03  0.60595455316E+03  0.16498470827E+04  0.25500000920E-02 0. -1.
       -2    1    3    3    0  502  0.13248353307E+04  0.77435510085E+03 -0.15148883427E+04  0.21563165738E+04  0.25500000920E-02 0.  1.
</event>
<event>
 5   0  0.2282000E-08  0.3703007E+04  0.7818609E-02  0.8067296E-01
        1   -1    0    0  501    0  0.00000000000E+00  0.00000000000E+00  0.16252935743E+04  0.16252935743E+04  0.50400001928E-02 0.  1.
       -1   -1    0    0    0  501  0.00000000000E+00  0.00000000000E+00 -0.21091980503E+04  0.21091980503E+04  0.50400001928E-02 0. -1.
    10030    2    1    2    0    0  0.00000000000E+00  0.00000000000E+00 -0.48390447596E+03  0.37344916246E+04  0.37030074469E+04 0.  0.
        5    1    3    3  502    0  0.16082103044E+04 -0.21631204654E+03 -0.11411114792E+04  0.19837562306E+04  0.46999998093E+01 0.  1.
       -5    1    3    3    0  502 -0.16082103044E+04  0.21631204654E+03  0.65720700321E+03  0.17507353940E+04  0.46999998093E+01 0. -1.
</event>
<event>
 5   0  0.7309833E-08  0.3739200E+04  0.7818609E-02  0.8059330E-01
       -2   -1    0    0    0  501  0.00000000000E+00  0.00000000000E+00  0.13159670163E+04  0.13159670163E+04  0.25500000920E-02 0. -1.
        2   -1    0    0  501    0  0.00000000000E+00  0.00000000000E+00 -0.26561486362E+04  0.26561486362E+04  0.25500000920E-02 0.  1.
    10030    2    1    2    0    0  0.00000000000E+00  0.00000000000E+00 -0.13401816200E+04  0.39721156525E+04  0.37391999121E+04 0.  0.
        2    1    3    3  502    0  0.17799228134E+04  0.54276737941E+03 -0.47804722220E+03  0.19212628130E+04  0.25500000920E-02 0. -1.
       -2    1    3    3    0  502 -0.17799228134E+04 -0.54276737941E+03 -0.86213439776E+03  0.20508528396E+04  0.25500000920E-02 0.  1.
</event>
<event>
 5   0  0.7203049E-08  0.3700839E+04  0.7818609E-02  0.8067776E-01
        2   -1    0    0  501    0  0.00000000000E+00  0.00000000000E+00  0.21691248535E+04  0.21691248535E+04  0.25500000920E-02 0. -1.
       -2   -1    0    0    0  501  0.00000000000E+00  0.00000000000E+00 -0.15785411463E+04  0.15785411463E+04  0.25500000920E-02 0.  1.
    10030    2    1    2    0    0  0.00000000000E+00  0.00000000000E+00  0.59058370725E+03  0.37476659998E+04  0.37008392738E+04 0.  0.
        4    1    3    3  502    0  0.76865289075E+03  0.21812194290E+03 -0.13948520267E+04  0.16074881765E+04  0.12699999809E+01 0.  1.
       -4    1    3    3    0  502 -0.76865289075E+03 -0.21812194290E+03  0.19854357340E+04  0.21401778232E+04  0.12699999809E+01 0. -1.
</event>
<event>
 5   0  0.2282000E-08  0.3701076E+04  0.7818609E-02  0.8067723E-01
       -1   -1    0    0    0  501  0.00000000000E+00  0.00000000000E+00  0.14742663329E+04  0.14742663329E+04  0.50400001928E-02 0. -1.
        1   -1    0    0  501    0  0.00000000000E+00  0.00000000000E+00 -0.23228439936E+04  0.23228439936E+04  0.50400001928E-02 0.  1.
    10030    2    1    2    0    0  0.00000000000E+00  0.00000000000E+00 -0.84857766071E+03  0.37971103264E+04  0.37010758956E+04 0.  0.
        3    1    3    3  502    0  0.17945463380E+04 -0.25974733842E+03 -0.45069014421E+02  0.18138071742E+04  0.10100000352E+00 0.  1.
       -3    1    3    3    0  502 -0.17945463380E+04  0.25974733842E+03 -0.80350864629E+03  0.19833031523E+04  0.10100000352E+00 0. -1.
</event>
<event>
 5   0  0.7309833E-08  0.3698203E+04  0.7818609E-02  0.8068360E-01
        2   -1    0    0  501    0  0.00000000000E+00  0.00000000000E+00  0.19669630964E+04  0.19669630964E+04  0.25500000920E-02 0. -1.
       -2   -1    0    0    0  501  0.00000000000E+00  0.00000000000E+00 -0.17383018395E+04  0.17383018395E+04  0.25500000920E-02 0.  1.
    10030    2    1    2    0    0  0.00000000000E+00  0.00000000000E+00  0.22866125694E+03  0.37052649359E+04  0.36982025735E+04 0.  0.
        2    1    3    3  502    0 -0.17217276520E+04  0.60125266576E+03  0.42040492119E+03  0.18715210855E+04  0.25500000920E-02 0. -1.
       -2    1    3    3    0  502  0.17217276520E+04 -0.60125266576E+03 -0.19174366425E+03  0.18337438503E+04  0.25500000920E-02 0.  1.
</event>
<event>
 5   0  0.2282000E-08  0.3708622E+04  0.7818609E-02  0.8066054E-01
       -1   -1    0    0    0  501  0.00000000000E+00  0.00000000000E+00  0.17671138321E+04  0.17671138321E+04  0.50400001928E-02 0. -1.
        1   -1    0    0  501    0  0.00000000000E+00  0.00000000000E+00 -0.19458108394E+04  0.19458108394E+04  0.50400001928E-02 0.  1.
    10030    2    1    2    0    0  0.00000000000E+00  0.00000000000E+00 -0.17869700725E+03  0.37129246715E+04  0.37086219808E+04 0.  0.
        5    1    3    3  502    0 -0.13266157848E+04  0.10672114942E+03  0.12033304831E+04  0.17942478050E+04  0.46999998093E+01 0.  1.
       -5    1    3    3    0  502  0.13266157848E+04 -0.10672114942E+03 -0.13820274903E+04  0.19186768666E+04  0.46999998093E+01 0. -1.
</event>
<event>
 5   0  0.2282000E-08  0.3704386E+04  0.7818609E-02  0.8066990E-01
        1   -1    0    0  501    0  0.00000000000E+00  0.00000000000E+00  0.15832849974E+04  0.15832849974E+04  0.50400001928E-02 0.  1.
       -1   -1    0    0    0  501  0.00000000000E+00  0.00000000000E+00 -0.21667730688E+04  0.21667730688E+04  0.50400001928E-02 0. -1.
    10030    2    1    2    0    0  0.00000000000E+00  0.00000000000E+00 -0.58348807136E+03  0.37500580662E+04  0.37043862070E+04 0.  0.
        1    1    3    3  502    0 -0.64488403746E+03 -0.78949927256E+03  0.12737485085E+04  0.16314471447E+04  0.50400001928E-02 0.  1.
       -1    1    3    3    0  502  0.64488403746E+03  0.78949927256E+03 -0.18572365798E+04  0.21186109215E+04  0.50400001928E-02 0. -1.
</event>
<event>
 5   0  0.2282000E-08  0.3700049E+04  0.7818609E-02  0.8067951E-01
       -1   -1    0    0    0  501  0.00000000000E+00  0.00000000000E+00  0.14270876383E+04  0.14270876383E+04  0.50400001928E-02 0.  1.
        1   -1    0    0  501    0  0.00000000000E+00  0.00000000000E+00 -0.23983044271E+04  0.23983044271E+04  0.50400001928E-02 0. -1.
    10030    2    1    2    0    0  0.00000000000E+00  0.00000000000E+00 -0.97121678886E+03  0.38253920654E+04  0.37000489730E+04 0.  0.
        2    1    3    3  502    0 -0.45705684567E+03  0.11928167490E+04  0.89796264264E+03  0.15614255232E+04  0.25500000920E-02 0.  1.
       -2    1    3    3    0  502  0.45705684567E+03 -0.11928167490E+04 -0.18691794315E+04  0.22639665422E+04  0.25500000920E-02 0. -1.
</event>
<event>
 5   0  0.2282000E-08  0.3698901E+04  0.7818609E-02  0.8068206E-01
        1   -1    0    0  501    0  0.00000000000E+00  0.00000000000E+00  0.25516250765E+04  0.25516250765E+04  0.50400001928E-02 0. -1.
       -1   -1    0    0    0  501  0.00000000000E+00  0.00000000000E+00 -0.13405050742E+04  0.13405050742E+04  0.50400001928E-02 0.  1.
    10030    2    1    2    0    0  0.00000000000E+00  0.00000000000E+00  0.12111200023E+04  0.38921301507E+04  0.36989005732E+04 0.  0.
        5    1    3    3  502    0  0.11964978907E+04  0.66674677862E+03 -0.70205091152E+03  0.15391738178E+04  0.46999998093E+01 0.  1.
       -5    1    3    3    0  502 -0.11964978907E+04 -0.66674677862E+03  0.19131709138E+04  0.23529563329E+04  0.46999998093E+01 0. -1.
</event>
<event>
 5   0  0.2282000E-08  0.3680131E+04  0.7818609E-02  0.8072379E-01
       -1   -1    0    0    0  501  0.00000000000E+00  0.00000000000E+00  0.11274736561E+04  0.11274736561E+04  0.50400001928E-02 0. -1.
        1   -1    0    0  501    0  0.00000000000E+00  0.00000000000E+00 -0.30030339881E+04  0.30030339881E+04  0.50400001928E-02 0.  1.
    10030    2    1    2    0    0  0.00000000000E+00  0.00000000000E+00 -0.18755603320E+04  0.41305076443E+04  0.36801313619E+04 0.  0.
        1    1    3    3  502    0 -0.16304996257E+04 -0.81745775668E+03 -0.12105798108E+04  0.21891253257E+04  0.50400001928E-02 0.  1.
       -1    1    3    3    0  502  0.16304996257E+04  0.81745775668E+03 -0.66498052124E+03  0.19413823186E+04  0.50400001928E-02 0. -1.
</event>
<event>
 5   0  0.7254493E-08  0.3699470E+04  0.7818609E-02  0.8068079E-01
        2   -1    0    0  501    0  0.00000000000E+00  0.00000000000E+00  0.18384901544E+04  0.18384901544E+04  0.25500000920E-02 0.  1.
       -2   -1    0    0    0  501  0.00000000000E+00  0.00000000000E+00 -0.18610481720E+04  0.18610481720E+04  0.25500000920E-02 0. -1.
    10030    2    1    2    0    0  0.00000000000E+00  0.00000000000E+00 -0.22558017535E+02  0.36995383264E+04  0.36994695518E+04 0.  0.
        3    1    3    3  502    0  0.99133929205E+02 -0.47695317874E+03 -0.17957467874E+04  0.18606499953E+04  0.10100000352E+00 0. -1.
       -3    1    3    3    0  502 -0.99133929205E+02  0.47695317874E+03  0.17731887698E+04  0.18388883311E+04  0.10100000352E+00 0.  1.
</event>
<event>
 5   0  0.7254493E-08  0.3718983E+04  0.7818609E-02  0.8063768E-01
        2   -1    0    0  501    0  0.00000000000E+00  0.00000000000E+00  0.18919634845E+04  0.18919634845E+04  0.25500000920E-02 0. -1.
       -2   -1    0    0    0  501  0.00000000000E+00  0.00000000000E+00 -0.18275771774E+04  0.18275771774E+04  0.25500000920E-02 0.  1.
    10030    2    1    2    0    0  0.00000000000E+00  0.00000000000E+00  0.64386307102E+02  0.37195406619E+04  0.37189833475E+04 0.  0.
        3    1    3    3  502    0 -0.98906367922E+03 -0.98775440366E+03 -0.11942872967E+04  0.18385396054E+04  0.10100000352E+00 0.  1.
       -3    1    3    3    0  502  0.98906367922E+03  0.98775440366E+03  0.12586736038E+04  0.18810010565E+04  0.10100000352E+00 0. -1.
</event>
<event>
 5   0  0.2282000E-08  0.3671923E+04  0.7818609E-02  0.8074213E-01
       -1   -1    0    0    0  501  0.00000000000E+00  0.00000000000E+00  0.23504853143E+04  0.23504853143E+04  0.50400001928E-02 0. -1.
        1   -1    0    0  501    0  0.00000000000E+00  0.00000000000E+00 -0.14340675488E+04  0.14340675489E+04  0.50400001928E-02 0.  1.
    10030    2    1    2    0    0  0.00000000000E+00  0.00000000000E+00  0.91641776541E+03  0.37845528631E+04  0.36719230456E+04 0.  0.
        5    1    3    3  502    0  0.40965065793E+03 -0.13989444159E+03  0.22971299933E+04  0.23375654884E+04  0.46999998093E+01 0. -1.
       -5    1    3    3    0  502 -0.40965065793E+03  0.13989444159E+03 -0.13807122279E+04  0.14469873747E+04  0.46999998093E+01 0.  1.
</event>
<event>
 5   0  0.2282000E-08  0.3703005E+04  0.7818609E-02  0.8067296E-01
       -1   -1    0    0    0  501  0.00000000000E+00  0.00000000000E+00  0.17535231223E+04  0.17535231223E+04  0.50400001928E-02 0. -1.
        1   -1    0    0  501    0  0.00000000000E+00  0.00000000000E+00 -0.19549565022E+04  0.19549565022E+04  0.50400001928E-02 0.  1.
    10030    2    1    2    0    0  0.00000000000E+00  0.00000000000E+00 -0.20143337989E+03  0.37084796245E+04  0.37030049580E+04 0.  0.
        3    1    3    3  502    0  0.92675552908E+03  0.14364189272E+04  0.61159168725E+03  0.18155493789E+04  0.10100000352E+00 0. -1.
       -3    1    3    3    0  502 -0.92675552908E+03 -0.14364189272E+04 -0.81302506714E+03  0.18929302457E+04  0.10100000352E+00 0.  1.
</event>
<event>
 5   0  0.2282000E-08  0.3702789E+04  0.7818609E-02  0.8067344E-01
       -1   -1    0    0    0  501  0.00000000000E+00  0.00000000000E+00  0.15556024671E+04  0.15556024671E+04  0.50400001928E-02 0. -1.
        1   -1    0    0  501    0  0.00000000000E+00  0.00000000000E+00 -0.22034304094E+04  0.22034304094E+04  0.50400001928E-02 0.  1.
    10030    2    1    2    0    0  0.00000000000E+00  0.00000000000E+00 -0.64782794231E+03  0.37590328766E+04  0.37027891007E+04 0.  0.
        3    1    3    3  502    0 -0.18859756545E+02  0.18512189223E+04 -0.34133806860E+03  0.18825192897E+04  0.10100000352E+00 0. -1.
       -3    1    3    3    0  502  0.18859756545E+02 -0.18512189223E+04 -0.30648987372E+03  0.18765135869E+04  0.10100000352E+00 0.  1.
</event>
<event>
 5   0  0.7309833E-08  0.3705026E+04  0.7818609E-02  0.8066849E-01
       -2   -1    0    0    0  501  0.00000000000E+00  0.00000000000E+00  0.22474508660E+04  0.22474508660E+04  0.25500000920E-02 0.  1.
        2   -1    0    0  501    0  0.00000000000E+00  0.00000000000E+00 -0.15269764289E+04  0.15269764289E+04  0.25500000920E-02 0. -1.
    10030    2    1    2    0    0  0.00000000000E+00  0.00000000000E+00  0.72047443708E+03  0.37744272950E+04  0.37050260445E+04 0.  0.
        2    1    3    3  502    0  0.53017230535E+03  0.13108364880E+04 -0.85902307602E+03  0.16544774452E+04  0.25500000920E-02 0. -1.
       -2    1    3    3    0  502 -0.53017230535E+03 -0.13108364880E+04  0.15794975131E+04  0.21199498498E+04  0.25500000920E-02 0.  1.
</event>
<event>
 5   0  0.7309833E-08  0.3699120E+04  0.7818609E-02  0.8068157E-01
       -2   -1    0    0    0  501  0.00000000000E+00  0.00000000000E+00  0.17311745727E+04  0.17311745727E+04  0.25500000920E-02 0.  1.
        2   -1    0    0  501    0  0.00000000000E+00  0.00000000000E+00 -0.19760406197E+04  0.19760406197E+04  0.25500000920E-02 0. -1.
    10030    2    1    2    0    0  0.00000000000E+00  0.00000000000E+00 -0.24486604701E+03  0.37072151924E+04  0.36991195036E+04 0.  0.
        2    1    3    3  502    0 -0.54056002210E+03 -0.15525590067E+04  0.72690427776E+03  0.17975078402E+04  0.25500000920E-02 0.  1.
       -2    1    3    3    0  502  0.54056002210E+03  0.15525590067E+04 -0.97177032477E+03  0.19097073521E+04  0.25500000920E-02 0. -1.
</event>
<event>
 5   0  0.2282000E-08  0.3701293E+04  0.7818609E-02  0.8067675E-01
       -1   -1    0    0    0  501  0.00000000000E+00  0.00000000000E+00  0.15736957540E+04  0.15736957540E+04  0.50400001928E-02 0.  1.
        1   -1    0    0  501    0  0.00000000000E+00  0.00000000000E+00 -0.21763365280E+04  0.21763365280E+04  0.50400001928E-02 0. -1.
    10030    2    1    2    0    0  0.00000000000E+00  0.00000000000E+00 -0.60264077400E+03  0.37500322821E+04  0.37012925059E+04 0.  0.
        4    1    3    3  502    0 -0.13552949633E+04  0.12601437299E+04 -0.31161704166E+03  0.18766708425E+04  0.12699999809E+01 0. -1.
       -4    1    3    3    0  502  0.13552949633E+04 -0.12601437299E+04 -0.29102373234E+03  0.18733614396E+04  0.12699999809E+01 0.  1.
</event>
<event>
 5   0  0.7362817E-08  0.3708119E+04  0.7818609E-02  0.8066165E-01
        2   -1    0    0  501    0  0.00000000000E+00  0.00000000000E+00  0.16808165126E+04  0.16808165127E+04  0.25500000920E-02 0. -1.
       -2   -1    0    0    0  501  0.00000000000E+00  0.00000000000E+00 -0.20451588607E+04  0.20451588607E+04  0.25500000920E-02 0.  1.
    10030    2    1    2    0    0  0.00000000000E+00  0.00000000000E+00 -0.36434234809E+03  0.37259753734E+04  0.37081190834E+04 0.  0.
        1    1    3    3  502    0  0.13225695600E+04 -0.10053712802E+04  0.64494218731E+03  0.17821088848E+04  0.50400001928E-02 0. -1.
       -1    1    3    3    0  502 -0.13225695600E+04  0.10053712802E+04 -0.10092845354E+04  0.19438664886E+04  0.50400001928E-02 0.  1.
</event>
<event>
 5   0  0.7191801E-08  0.3682245E+04  0.7818609E-02  0.8071908E-01
        2   -1    0    0  501    0  0.00000000000E+00  0.00000000000E+00  0.11340618407E+04  0.11340618407E+04  0.25500000920E-02 0. -1.
       -2   -1    0    0    0  501  0.00000000000E+00  0.00000000000E+00 -0.29890193016E+04  0.29890193016E+04  0.25500000920E-02 0.  1.
    10030    2    1    2    0    0  0.00000000000E+00  0.00000000000E+00 -0.18549574609E+04  0.41230811423E+04  0.36822453645E+04 0.  0.
        5    1    3    3  502    0 -0.27430878645E+03  0.10286211486E+04 -0.26094461343E+04  0.28182508752E+04  0.46999998093E+01 0.  1.
       -5    1    3    3    0  502  0.27430878645E+03 -0.10286211486E+04  0.75448867345E+03  0.13048302671E+04  0.46999998093E+01 0. -1.
</event>
<event>
 5   0  0.7191801E-08  0.3700545E+04  0.7818609E-02  0.8067841E-01
        2   -1    0    0  501    0  0.00000000000E+00  0.00000000000E+00  0.17942865507E+04  0.17942865507E+04  0.25500000920E-02 0.  1.
       -2   -1    0    0    0  501  0.00000000000E+00  0.00000000000E+00 -0.19080055863E+04  0.19080055863E+04  0.25500000920E-02 0. -1.
    10030    2    1    2    0    0  0.00000000000E+00  0.00000000000E+00 -0.11371903555E+03  0.37022921370E+04  0.37005452366E+04 0.  0.
        5    1    3    3  502    0 -0.29816000171E+03 -0.11776088795E+04 -0.14531632271E+04  0.18940347183E+04  0.46999998093E+01 0. -1.
       -5    1    3    3    0  502  0.29816000171E+03  0.11776088795E+04  0.13394441915E+04  0.18082574186E+04  0.46999998093E+01 0.  1.
</event>
<event>
 5   0  0.7309833E-08  0.3712615E+04  0.7818609E-02  0.8065172E-01
       -2   -1    0    0    0  501  0.00000000000E+00  0.00000000000E+00  0.16410265336E+04  0.16410265336E+04  0.25500000920E-02 0.  1.
        2   -1    0    0  501    0  0.00000000000E+00  0.00000000000E+00 -0.20998309161E+04  0.20998309161E+04  0.25500000920E-02 0. -1.
    10030    2    1    2    0    0  0.00000000000E+00  0.00000000000E+00 -0.45880438252E+03  0.37408574498E+04  0.37126153851E+04 0.  0.
        2    1    3    3  502    0  0.50388288467E+03 -0.15520989249E+04 -0.11209888115E+04  0.19797790153E+04  0.25500000920E-02 0. -1.
       -2    1    3    3    0  502 -0.50388288467E+03  0.15520989249E+04  0.66218442893E+03  0.17610784344E+04  0.25500000920E-02 0.  1.
</event>
<event>
 5   0  0.2282000E-08  0.3709055E+04  0.7818609E-02  0.8065958E-01
        3   -1    0    0  501    0  0.00000000000E+00  0.00000000000E+00  0.15368725594E+04  0.15368725627E+04  0.10100000352E+00 0.  1.
       -3   -1    0    0    0  501  0.00000000000E+00  0.00000000000E+00 -0.22378377330E+04  0.22378377353E+04  0.10100000352E+00 0. -1.
    10030    2    1    2    0    0  0.00000000000E+00  0.00000000000E+00 -0.70096517355E+03  0.37747102980E+04  0.37090545506E+04 0.  0.
        4    1    3    3  502    0 -0.80541643724E+03  0.10409606575E+04  0.97915717832E+03  0.16404405264E+04  0.12699999809E+01 0.  1.
       -4    1    3    3    0  502  0.80541643724E+03 -0.10409606575E+04 -0.16801223519E+04  0.21342697716E+04  0.12699999809E+01 0. -1.
</event>
<event>
 5   0  0.7254493E-08  0.3699698E+04  0.7818609E-02  0.8068029E-01
       -2   -1    0    0    0  501  0.00000000000E+00  0.00000000000E+00  0.15905292623E+04  0.15905292623E+04  0.25500000920E-02 0. -1.
        2   -1    0    0  501    0  0.00000000000E+00  0.00000000000E+00 -0.21514477405E+04  0.21514477405E+04  0.25500000920E-02 0.  1.
    10030    2    1    2    0    0  0.00000000000E+00  0.00000000000E+00 -0.56091847817E+03  0.37419770028E+04  0.36996976026E+04 0.  0.
        3    1    3    3  502    0  0.60720402605E+03 -0.17421645621E+04 -0.14436116493E+03  0.18505875410E+04  0.10100000352E+00 0.  1.
       -3    1    3    3    0  502 -0.60720402605E+03  0.17421645621E+04 -0.41655731324E+03  0.18913894618E+04  0.10100000352E+00 0. -1.
</event>
<event>
 5   0  0.2282000E-08  0.3720601E+04  0.7818609E-02  0.8063412E-01
        1   -1    0    0  501    0  0.00000000000E+00  0.00000000000E+00  0.23200995138E+04  0.23200995139E+04  0.50400001928E-02 0.  1.
       -1   -1    0    0    0  501  0.00000000000E+00  0.00000000000E+00 -0.14916251845E+04  0.14916251845E+04  0.50400001928E-02 0. -1.
    10030    2    1    2    0    0  0.00000000000E+00  0.00000000000E+00  0.82847432939E+03  0.38117246983E+04  0.37206014919E+04 0.  0.
        3    1    3    3  502    0  0.65158426955E+03 -0.17414103987E+04  0.47610337381E+03  0.19193089042E+04  0.10100000352E+00 0. -1.
       -3    1    3    3    0  502 -0.65158426955E+03  0.17414103987E+04  0.35237095558E+03  0.18924157941E+04  0.10100000352E+00 0.  1.
</event>
<event>
 5   0  0.7203049E-08  0.3685919E+04  0.7818609E-02  0.8071089E-01
        2   -1    0    0  501    0  0.00000000000E+00  0.00000000000E+00  0.17408666961E+04  0.17408666961E+04  0.25500000920E-02 0.  1.
       -2   -1    0    0    0  501  0.00000000000E+00  0.00000000000E+00 -0.19510399676E+04  0.19510399676E+04  0.25500000920E-02 0. -1.
    10030    2    1    2    0    0  0.00000000000E+00  0.00000000000E+00 -0.21017327150E+03  0.36919066636E+04  0.36859194252E+04 0.  0.
        4    1    3    3  502    0  0.14218901209E+03 -0.12681431228E+04 -0.14369435656E+04  0.19217734306E+04  0.12699999809E+01 0. -1.
       -4    1    3    3    0  502 -0.14218901209E+03  0.12681431228E+04  0.12267702941E+04  0.17701332330E+04  0.12699999809E+01 0.  1.
</event>
<event>
 5   0  0.2282000E-08  0.3700416E+04  0.7818609E-02  0.8067870E-01
       -1   -1    0    0    0  501  0.00000000000E+00  0.00000000000E+00  0.14467772422E+04  0.14467772422E+04  0.50400001928E-02 0. -1.
        1   -1    0    0  501    0  0.00000000000E+00  0.00000000000E+00 -0.23661340175E+04  0.23661340175E+04  0.50400001928E-02 0.  1.
    10030    2    1    2    0    0  0.00000000000E+00  0.00000000000E+00 -0.91935677529E+03  0.38129112597E+04  0.37004155705E+04 0.  0.
        2    1    3    3  502    0  0.77435847891E+03 -0.12322683645E+04 -0.16368419845E+04  0.21902894919E+04  0.25500000920E-02 0.  1.
       -2    1    3    3    0  502 -0.77435847891E+03  0.12322683645E+04  0.71748520924E+03  0.16226217678E+04  0.25500000920E-02 0. -1.
</event>
<event>
 5   0  0.2282000E-08  0.3662189E+04  0.7818609E-02  0.8076393E-01
       -1   -1    0    0    0  501  0.00000000000E+00  0.00000000000E+00  0.17014298471E+04  0.17014298471E+04  0.50400001928E-02 0.  1.
        1   -1    0    0  501    0  0.00000000000E+00  0.00000000000E+00 -0.19706408149E+04  0.19706408149E+04  0.50400001928E-02 0. -1.
    10030    2    1    2    0    0  0.00000000000E+00  0.00000000000E+00 -0.26921096785E+03  0.36720706620E+04  0.36621890177E+04 0.  0.
        1    1    3    3  502    0 -0.10335622840E+03 -0.29348444115E+03 -0.19439387676E+04  0.19686832044E+04  0.50400001928E-02 0. -1.
       -1    1    3    3    0  502  0.10335622840E+03  0.29348444115E+03  0.16747277998E+04  0.17033874575E+04  0.50400001928E-02 0.  1.
</event>
<event>
 5   0  0.7191801E-08  0.3703124E+04  0.7818609E-02  0.8067270E-01
        2   -1    0    0  501    0  0.00000000000E+00  0.00000000000E+00  0.31157561383E+04  0.31157561383E+04  0.25500000920E-02 0. -1.
       -2   -1    0    0    0  501  0.00000000000E+00  0.00000000000E+00 -0.11003049486E+04  0.11003049486E+04  0.25500000920E-02 0.  1.
    10030    2    1    2    0    0  0.00000000000E+00  0.00000000000E+00  0.20154511897E+04  0.42160610869E+04  0.37031240312E+04 0.  0.
        5    1    3    3  502    0 -0.40215032381E+03  0.16892304994E+04  0.17394241413E+04  0.24578126447E+04  0.46999998093E+01 0. -1.
       -5    1    3    3    0  502  0.40215032381E+03 -0.16892304994E+04  0.27602704842E+03  0.17582484422E+04  0.46999998093E+01 0.  1.
</event>
<event>
 5   0  0.2282000E-08  0.3704414E+04  0.7818609E-02  0.8066984E-01
       -1   -1    0    0    0  501  0.00000000000E+00  0.00000000000E+00  0.24454467171E+04  0.24454467171E+04  0.50400001928E-02 0. -1.
        1   -1    0    0  501    0  0.00000000000E+00  0.00000000000E+00 -0.14028813281E+04  0.14028813281E+04  0.50400001928E-02 0.  1.
    10030    2    1    2    0    0  0.00000000000E+00  0.00000000000E+00  0.10425653890E+04  0.38483280453E+04  0.37044144144E+04 0.  0.
        5    1    3    3  502    0 -0.72566013742E+03 -0.11259983610E+04  0.18501144106E+04  0.22841629465E+04  0.46999998093E+01 0. -1.
       -5    1    3    3    0  502  0.72566013742E+03  0.11259983610E+04 -0.80754902152E+03  0.15641650988E+04  0.46999998093E+01 0.  1.
</event>
<event>
 5   0  0.7254493E-08  0.3683673E+04  0.7818609E-02  0.8071590E-01
       -2   -1    0    0    0  501  0.00000000000E+00  0.00000000000E+00  0.29425126571E+04  0.29425126571E+04  0.25500000920E-02 0.  1.
        2   -1    0    0  501    0  0.00000000000E+00  0.00000000000E+00 -0.11528791621E+04  0.11528791621E+04  0.25500000920E-02 0. -1.
    10030    2    1    2    0    0  0.00000000000E+00  0.00000000000E+00  0.17896334949E+04  0.40953918192E+04  0.36836729098E+04 0.  0.
        3    1    3    3  502    0 -0.35390252511E+03 -0.16466210492E+04  0.66005652849E+02  0.16855161326E+04  0.10100000352E+00 0. -1.
       -3    1    3    3    0  502  0.35390252511E+03  0.16466210492E+04  0.17236278421E+04  0.24098756866E+04  0.10100000352E+00 0.  1.
</event>
<event>
 5   0  0.7362817E-08  0.3708494E+04  0.7818609E-02  0.8066082E-01
       -2   -1    0    0    0  501  0.00000000000E+00  0.00000000000E+00  0.12131341055E+04  0.12131341055E+04  0.25500000920E-02 0.  1.
        2   -1    0    0  501    0  0.00000000000E+00  0.00000000000E+00 -0.28341726252E+04  0.28341726253E+04  0.25500000920E-02 0. -1.
    10030    2    1    2    0    0  0.00000000000E+00  0.00000000000E+00 -0.16210385197E+04  0.40473067308E+04  0.37084937496E+04 0.  0.
        1    1    3    3  502    0  0.46068488241E+03  0.87687713179E+03  0.90020049684E+03  0.13384711426E+04  0.50400001928E-02 0.  1.
       -1    1    3    3    0  502 -0.46068488241E+03 -0.87687713179E+03 -0.25212390165E+04  0.27088355882E+04  0.50400001928E-02 0. -1.
</event>
<event>
 5   0  0.2282000E-08  0.3710565E+04  0.7818609E-02  0.8065625E-01
        1   -1    0    0  501    0  0.00000000000E+00  0.00000000000E+00  0.24289962844E+04  0.24289962844E+04  0.50400001928E-02 0.  1.
       -1   -1    0    0    0  501  0.00000000000E+00  0.00000000000E+00 -0.14170762382E+04  0.14170762382E+04  0.50400001928E-02 0. -1.
    10030    2    1    2    0    0  0.00000000000E+00  0.00000000000E+00  0.10119200462E+04  0.38460725226E+04  0.37105648720E+04 0.  0.
        2    1    3    3  502    0 -0.76935220826E+03  0.96582401539E+03  0.19412134748E+04  0.23006582980E+04  0.25500000920E-02 0.  1.
       -2    1    3    3    0  502  0.76935220826E+03 -0.96582401539E+03 -0.92929342867E+03  0.15454142246E+04  0.25500000920E-02 0. -1.
</event>
<event>
 5   0  0.2282000E-08  0.3698832E+04  0.7818609E-02  0.8068221E-01
       -1   -1    0    0    0  501  0.00000000000E+00  0.00000000000E+00  0.29238671135E+04  0.29238671136E+04  0.50400001928E-02 0. -1.
        1   -1    0    0  501    0  0.00000000000E+00  0.00000000000E+00 -0.11698000957E+04  0.11698000957E+04  0.50400001928E-02 0.  1.
    10030    2    1    2    0    0  0.00000000000E+00  0.00000000000E+00  0.17540670178E+04  0.40936672093E+04  0.36988322640E+04 0.  0.
        2    1    3    3  502    0 -0.18295361396E+04 -0.27249063127E+02  0.11748181396E+04  0.21744292719E+04  0.25500000920E-02 0. -1.
       -2    1    3    3    0  502  0.18295361396E+04  0.27249063127E+02  0.57924887818E+03  0.19192379374E+04  0.25500000920E-02 0.  1.
</event>
<event>
 5   0  0.7254493E-08  0.3739536E+04  0.7818609E-02  0.8059256E-01
       -2   -1    0    0    0  501  0.00000000000E+00  0.00000000000E+00  0.10627399872E+04  0.10627399872E+04  0.25500000920E-02 0.  1.
        2   -1    0    0  501    0  0.00000000000E+00  0.00000000000E+00 -0.32896409052E+04  0.32896409052E+04  0.25500000920E-02 0. -1.
    10030    2    1    2    0    0  0.00000000000E+00  0.00000000000E+00 -0.22269009180E+04  0.43523808924E+04  0.37395362993E+04 0.  0.
        3    1    3    3  502    0  0.39721814261E+03 -0.13792969391E+04  0.28116571728E+03  0.14626334024E+04  0.10100000352E+00 0.  1.
       -3    1    3    3    0  502 -0.39721814261E+03  0.13792969391E+04 -0.25080666352E+04  0.28897474900E+04  0.10100000352E+00 0. -1.
</event>
<event>
 5   0  0.7191801E-08  0.3693019E+04  0.7818609E-02  0.8069511E-01
        2   -1    0    0  501    0  0.00000000000E+00  0.00000000000E+00  0.18177494148E+04  0.18177494148E+04  0.25500000920E-02 0.  1.
       -2   -1    0    0    0  501  0.00000000000E+00  0.00000000000E+00 -0.18757244022E+04  0.18757244022E+04  0.25500000920E-02 0. -1.
    10030    2    1    2    0    0  0.00000000000E+00  0.00000000000E+00 -0.57974987335E+02  0.36934738170E+04  0.36930187839E+04 0.  0.
        5    1    3    3  502    0 -0.68357901702E+03 -0.10013241525E+04 -0.14218703055E+04  0.18686004352E+04  0.46999998093E+01 0. -1.
       -5    1    3    3    0  502  0.68357901702E+03  0.10013241525E+04  0.13638953182E+04  0.18248733818E+04  0.46999998093E+01 0.  1.
</event>
<event>
 5   0  0.2282000E-08  0.3690161E+04  0.7818609E-02  0.8070146E-01
        1   -1    0    0  501    0  0.00000000000E+00  0.00000000000E+00  0.17083843063E+04  0.17083843063E+04  0.50400001928E-02 0. -1.
       -1   -1    0    0    0  501  0.00000000000E+00  0.00000000000E+00 -0.19927148817E+04  0.19927148817E+04  0.50400001928E-02 0.  1.
    10030    2    1    2    0    0  0.00000000000E+00  0.00000000000E+00 -0.28433057542E+03  0.37010991880E+04  0.36901614224E+04 0.  0.
        4    1    3    3  502    0 -0.18352255800E+04 -0.17830615114E+03 -0.75070028844E+02  0.18453951162E+04  0.12699999809E+01 0. -1.
       -4    1    3    3    0  502  0.18352255800E+04  0.17830615114E+03 -0.20926054658E+03  0.18557040718E+04  0.12699999809E+01 0.  1.
</event>
<event>
 5   0  0.2282000E-08  0.3691210E+04  0.7818609E-02  0.8069913E-01
        1   -1    0    0  501    0  0.00000000000E+00  0.00000000000E+00  0.19716290710E+04  0.19716290710E+04  0.50400001928E-02 0.  1.
       -1   -1    0    0    0  501  0.00000000000E+00  0.00000000000E+00 -0.17276360915E+04  0.17276360915E+04  0.50400001928E-02 0. -1.
    10030    2    1    2    0    0  0.00000000000E+00  0.00000000000E+00  0.24399297948E+03  0.36992651625E+04  0.36912098516E+04 0.  0.
        4    1    3    3  502    0 -0.15695930007E+04  0.43967664371E+03  0.98951722521E+03  0.19068517747E+04  0.12699999809E+01 0.  1.
       -4    1    3    3    0  502  0.15695930007E+04 -0.43967664371E+03 -0.74552424573E+03  0.17924133878E+04  0.12699999809E+01 0. -1.
</event>
<event>
 5   0  0.2282000E-08  0.3700854E+04  0.7818609E-02  0.8067773E-01
       -1   -1    0    0    0  501  0.00000000000E+00  0.00000000000E+00  0.13842910775E+04  0.13842910775E+04  0.50400001928E-02 0.  1.
        1   -1    0    0  501    0  0.00000000000E+00  0.00000000000E+00 -0.24735259985E+04  0.24735259985E+04  0.50400001928E-02 0. -1.
    10030    2    1    2    0    0  0.00000000000E+00  0.00000000000E+00 -0.10892349211E+04  0.38578170760E+04  0.37008539391E+04 0.  0.
        1    1    3    3  502    0 -0.41061629297E+03 -0.79343708231E+03 -0.22338187695E+04  0.24058458884E+04  0.50400001928E-02 0. -1.
       -1    1    3    3    0  502  0.41061629297E+03  0.79343708231E+03  0.11445838484E+04  0.14519711876E+04  0.50400001928E-02 0.  1.
</event>
<event>
 5   0  0.2282000E-08  0.3703859E+04  0.7818609E-02  0.8067107E-01
       -1   -1    0    0    0  501  0.00000000000E+00  0.00000000000E+00  0.20199529569E+04  0.20199529569E+04  0.50400001928E-02 0. -1.
        1   -1    0    0  501    0  0.00000000000E+00  0.00000000000E+00 -0.16978827261E+04  0.16978827261E+04  0.50400001928E-02 0.  1.
    10030    2    1    2    0    0  0.00000000000E+00  0.00000000000E+00  0.32207023083E+03  0.37178356830E+04  0.37038591944E+04 0.  0.
        1    1    3    3  502    0  0.14038402139E+03 -0.14198898276E+04 -0.10240335073E+04  0.17562572192E+04  0.50400001928E-02 0.  1.
       -1    1    3    3    0  502 -0.14038402139E+03  0.14198898276E+04  0.13461037381E+04  0.19615784638E+04  0.50400001928E-02 0. -1.
</event>
<event>
 5   0  0.2282000E-08  0.3699080E+04  0.7818609E-02  0.8068166E-01
        1   -1    0    0  501    0  0.00000000000E+00  0.00000000000E+00  0.22950021151E+04  0.22950021151E+04  0.50400001928E-02 0. -1.
       -1   -1    0    0    0  501  0.00000000000E+00  0.00000000000E+00 -0.14905423226E+04  0.14905423226E+04  0.50400001928E-02 0.  1.
    10030    2    1    2    0    0  0.00000000000E+00  0.00000000000E+00  0.80445979259E+03  0.37855444377E+04  0.36990797683E+04 0.  0.
        2    1    3    3  502    0  0.42053164322E+03  0.71940513736E+03  0.20920092888E+04  0.22518644451E+04  0.25500000920E-02 0. -1.
       -2    1    3    3    0  502 -0.42053164322E+03 -0.71940513736E+03 -0.12875494962E+04  0.15336799926E+04  0.25500000920E-02 0.  1.
</event>
<event>
 5   0  0.2282000E-08  0.3691576E+04  0.7818609E-02  0.8069831E-01
       -1   -1    0    0    0  501  0.00000000000E+00  0.00000000000E+00  0.18266187701E+04  0.18266187701E+04  0.50400001928E-02 0.  1.
        1   -1    0    0  501    0  0.00000000000E+00  0.00000000000E+00 -0.18651586197E+04  0.18651586197E+04  0.50400001928E-02 0. -1.
    10030    2    1    2    0    0  0.00000000000E+00  0.00000000000E+00 -0.38539849670E+02  0.36917773898E+04  0.36915762184E+04 0.  0.
        5    1    3    3  502    0  0.22785652979E+03  0.19341943455E+03  0.18022523972E+04  0.18268731398E+04  0.46999998093E+01 0.  1.
       -5    1    3    3    0  502 -0.22785652979E+03 -0.19341943455E+03 -0.18407922468E+04  0.18649042500E+04  0.46999998093E+01 0. -1.
</event>
<event>
 5   0  0.2282000E-08  0.3716545E+04  0.7818609E-02  0.8064305E-01
       -1   -1    0    0    0  501  0.00000000000E+00  0.00000000000E+00  0.18858762078E+04  0.18858762078E+04  0.50400001928E-02 0.  1.
        1   -1    0    0  501    0  0.00000000000E+00  0.00000000000E+00 -0.18310732905E+04  0.18310732905E+04  0.50400001928E-02 0. -1.
    10030    2    1    2    0    0  0.00000000000E+00  0.00000000000E+00  0.54802917295E+02  0.37169494984E+04  0.37165454677E+04 0.  0.
        2    1    3    3  502    0 -0.35794442954E+03  0.18063355507E+04  0.27683830956E+03  0.18621524605E+04  0.25500000920E-02 0. -1.
       -2    1    3    3    0  502  0.35794442954E+03 -0.18063355507E+04 -0.22203539227E+03  0.18547970379E+04  0.25500000920E-02 0.  1.
</event>
<event>
 5   0  0.7362817E-08  0.3698804E+04  0.7818609E-02  0.8068227E-01
        2   -1    0    0  501    0  0.00000000000E+00  0.00000000000E+00  0.19686414800E+04  0.19686414800E+04  0.25500000920E-02 0.  1.
       -2   -1    0    0    0  501  0.00000000000E+00  0.00000000000E+00 -0.17373849514E+04  0.17373849514E+04  0.25500000920E-02 0. -1.
    10030    2    1    2    0    0  0.00000000000E+00  0.00000000000E+00  0.23125652857E+03  0.37060264314E+04  0.36988041754E+04 0.  0.
        1    1    3    3  502    0  0.14983636618E+04  0.65819268638E+03 -0.74743441689E+03  0.17991579928E+04  0.50400001928E-02 0. -1.
       -1    1    3    3    0  502 -0.14983636618E+04 -0.65819268638E+03  0.97869094547E+03  0.19068684386E+04  0.50400001928E-02 0.  1.
</event>
<event>
 5   0  0.7362817E-08  0.3700579E+04  0.7818609E-02  0.8067833E-01
       -2   -1    0    0    0  501  0.00000000000E+00  0.00000000000E+00  0.15089705058E+04  0.15089705058E+04  0.25500000920E-02 0. -1.
        2   -1    0    0  501    0  0.00000000000E+00  0.00000000000E+00 -0.22688128963E+04  0.22688128963E+04  0.25500000920E-02 0.  1.
    10030    2    1    2    0    0  0.00000000000E+00  0.00000000000E+00 -0.75984239053E+03  0.37777834022E+04  0.37005792756E+04 0.  0.
        1    1    3    3  502    0  0.73953246743E+03  0.16278926780E+04 -0.86590857287E+03  0.19866405055E+04  0.50400001928E-02 0.  1.
       -1    1    3    3    0  502 -0.73953246743E+03 -0.16278926780E+04  0.10606618235E+03  0.17911428967E+04  0.50400001928E-02 0. -1.
</event>
<event>
 5   0  0.7309833E-08  0.3697748E+04  0.7818609E-02  0.8068461E-01
       -2   -1    0    0    0  501  0.00000000000E+00  0.00000000000E+00  0.22669619386E+04  0.22669619386E+04  0.25500000920E-02 0. -1.
        2   -1    0    0  501    0  0.00000000000E+00  0.00000000000E+00 -0.15078921944E+04  0.15078921944E+04  0.25500000920E-02 0.  1.
    10030    2    1    2    0    0  0.00000000000E+00  0.00000000000E+00  0.75906974424E+03  0.37748541330E+04  0.36977475372E+04 0.  0.
        2    1    3    3  502    0  0.12939182309E+04 -0.19465893103E+03  0.17129953323E+04  0.21555670938E+04  0.25500000920E-02 0. -1.
       -2    1    3    3    0  502 -0.12939182309E+04  0.19465893103E+03 -0.95392558803E+03  0.16192870392E+04  0.25500000920E-02 0.  1.
</event>
<event>
 5   0  0.2282000E-08  0.3697333E+04  0.7818609E-02  0.8068553E-01
        1   -1    0    0  501    0  0.00000000000E+00  0.00000000000E+00  0.20536103547E+04  0.20536103547E+04  0.50400001928E-02 0.  1.
       -1   -1    0    0    0  501  0.00000000000E+00  0.00000000000E+00 -0.16641749999E+04  0.16641749999E+04  0.50400001928E-02 0. -1.
    10030    2    1    2    0    0  0.00000000000E+00  0.00000000000E+00  0.38943535485E+03  0.37177853546E+04  0.36973325584E+04 0.  0.
        4    1    3    3  502    0  0.55806417576E+03  0.62243466442E+03  0.18526882927E+04  0.20325639126E+04  0.12699999809E+01 0.  1.
       -4    1    3    3    0  502 -0.55806417576E+03 -0.62243466442E+03 -0.14632529379E+04  0.16852214421E+04  0.12699999809E+01 0. -1.
</event>
<event>
 5   0  0.2282000E-08  0.3700569E+04  0.7818609E-02  0.8067836E-01
       -1   -1    0    0    0  501  0.00000000000E+00  0.00000000000E+00  0.12181754390E+04  0.12181754391E+04  0.50400001928E-02 0. -1.
        1   -1    0    0  501    0  0.00000000000E+00  0.00000000000E+00 -0.28103943171E+04  0.28103943171E+04  0.50400001928E-02 0.  1.
    10030    2    1    2    0    0  0.00000000000E+00  0.00000000000E+00 -0.15922188780E+04  0.40285697561E+04  0.37005693244E+04 0.  0.
        4    1    3    3  502    0  0.10987698035E+04 -0.10380782830E+04 -0.19577653077E+04  0.24734082186E+04  0.12699999809E+01 0.  1.
       -4    1    3    3    0  502 -0.10987698035E+04  0.10380782830E+04  0.36554642970E+03  0.15551615375E+04  0.12699999809E+01 0. -1.
</event>
<event>
 5   0  0.2282000E-08  0.3713671E+04  0.7818609E-02  0.8064939E-01
       -1   -1    0    0    0  501  0.00000000000E+00  0.00000000000E+00  0.26640649601E+04  0.26640649601E+04  0.50400001928E-02 0. -1.
        1   -1    0    0  501    0  0.00000000000E+00  0.00000000000E+00 -0.12942018034E+04  0.12942018034E+04  0.50400001928E-02 0.  1.
    10030    2    1    2    0    0  0.00000000000E+00  0.00000000000E+00  0.13698631567E+04  0.39582667635E+04  0.37136707855E+04 0.  0.
        1    1    3    3  502    0  0.16378692509E+04  0.83157827543E+03  0.39557449439E+03  0.18789936913E+04  0.50400001928E-02 0.  1.
       -1    1    3    3    0  502 -0.16378692509E+04 -0.83157827543E+03  0.97428866228E+03  0.20792730722E+04  0.50400001928E-02 0. -1.
</event>
<event>
 5   0  0.2282000E-08  0.3705327E+04  0.7818609E-02  0.8066782E-01
        1   -1    0    0  501    0  0.00000000000E+00  0.00000000000E+00  0.26385671810E+04  0.26385671810E+04  0.50400001928E-02 0.  1.
       -1   -1    0    0    0  501  0.00000000000E+00  0.00000000000E+00 -0.13008434893E+04  0.13008434893E+04  0.50400001928E-02 0. -1.
    10030    2    1    2    0    0  0.00000000000E+00  0.00000000000E+00  0.13377236917E+04  0.39394106703E+04  0.37053274827E+04 0.  0.
        2    1    3    3  502    0  0.18948613256E+03 -0.12075298614E+04 -0.81133157906E+03  0.14670692866E+04  0.25500000920E-02 0. -1.
       -2    1    3    3    0  502 -0.18948613256E+03  0.12075298614E+04  0.21490552708E+04  0.24723413837E+04  0.25500000920E-02 0.  1.
</event>
<event>
 5   0  0.2282000E-08  0.3674657E+04  0.7818609E-02  0.8073601E-01
       -1   -1    0    0    0  501  0.00000000000E+00  0.00000000000E+00  0.24328506522E+04  0.24328506522E+04  0.50400001928E-02 0.  1.
        1   -1    0    0  501    0  0.00000000000E+00  0.00000000000E+00 -0.13875805343E+04  0.13875805343E+04  0.50400001928E-02 0. -1.
    10030    2    1    2    0    0  0.00000000000E+00  0.00000000000E+00  0.10452701179E+04  0.38204311865E+04  0.36746571039E+04 0.  0.
        2    1    3    3  502    0 -0.18021049787E+04  0.35653340424E+03  0.48850306210E+03  0.19008770776E+04  0.25500000920E-02 0. -1.
       -2    1    3    3    0  502  0.18021049787E+04 -0.35653340424E+03  0.55676705576E+03  0.19195541089E+04  0.25500000920E-02 0.  1.
</event>
<event>
 5   0  0.7254493E-08  0.3714284E+04  0.7818609E-02  0.8064804E-01
        2   -1    0    0  501    0  0.00000000000E+00  0.00000000000E+00  0.26571577261E+04  0.26571577261E+04  0.25500000920E-02 0. -1.
       -2   -1    0    0    0  501  0.00000000000E+00  0.00000000000E+00 -0.12979945720E+04  0.12979945720E+04  0.25500000920E-02 0.  1.
    10030    2    1    2    0    0  0.00000000000E+00  0.00000000000E+00  0.13591631541E+04  0.39551522981E+04  0.37142839447E+04 0.  0.
        3    1    3    3  502    0  0.24752197936E+03  0.10737583117E+04  0.22714339973E+04  0.25246061983E+04  0.10100000352E+00 0. -1.
       -3    1    3    3    0  502 -0.24752197936E+03 -0.10737583117E+04 -0.91227084318E+03  0.14305460998E+04  0.10100000352E+00 0.  1.
</event>
<event>
 5   0  0.7362817E-08  0.3703195E+04  0.7818609E-02  0.8067254E-01
       -2   -1    0    0    0  501  0.00000000000E+00  0.00000000000E+00  0.22286536880E+04  0.22286536880E+04  0.25500000920E-02 0. -1.
        2   -1    0    0  501    0  0.00000000000E+00  0.00000000000E+00 -0.15383336292E+04  0.15383336292E+04  0.25500000920E-02 0.  1.
    10030    2    1    2    0    0  0.00000000000E+00  0.00000000000E+00  0.69032005877E+03  0.37669873172E+04  0.37031947916E+04 0.  0.
        1    1    3    3  502    0 -0.32073525663E+03  0.14057535201E+03  0.21946611554E+04  0.22224243792E+04  0.50400001928E-02 0. -1.
       -1    1    3    3    0  502  0.32073525663E+03 -0.14057535201E+03 -0.15043410966E+04  0.15445629380E+04  0.50400001928E-02 0.  1.
</event>
<event>
 5   0  0.7254493E-08  0.3712390E+04  0.7818609E-02  0.8065222E-01
        2   -1    0    0  501    0  0.00000000000E+00  0.00000000000E+00  0.21800204157E+04  0.21800204157E+04  0.25500000920E-02 0. -1.
       -2   -1    0    0    0  501  0.00000000000E+00  0.00000000000E+00 -0.15804712452E+04  0.15804712452E+04  0.25500000920E-02 0.  1.
    10030    2    1    2    0    0  0.00000000000E+00  0.00000000000E+00  0.59954917054E+03  0.37604916609E+04  0.37123898400E+04 0.  0.
        3    1    3    3  502    0  0.15667330788E+04  0.38495121980E+03  0.12296115992E+04  0.20284932036E+04  0.10100000352E+00 0. -1.
       -3    1    3    3    0  502 -0.15667330788E+04 -0.38495121980E+03 -0.63006242869E+03  0.17319984573E+04  0.10100000352E+00 0.  1.
</event>
<event>
 5   0  0.2282000E-08  0.3699799E+04  0.7818609E-02  0.8068006E-01
        1   -1    0    0  501    0  0.00000000000E+00  0.00000000000E+00  0.11365894616E+04  0.11365894616E+04  0.50400001928E-02 0.  1.
       -1   -1    0    0    0  501  0.00000000000E+00  0.00000000000E+00 -0.30108744480E+04  0.30108744480E+04  0.50400001928E-02 0. -1.
    10030    2    1    2    0    0  0.00000000000E+00  0.00000000000E+00 -0.18742849864E+04  0.41474639096E+04  0.36997990042E+04 0.  0.
        1    1    3    3  502    0  0.30138986872E+03  0.13662862675E+04 -0.22937593255E+04  0.26868021627E+04  0.50400001928E-02 0. -1.
       -1    1    3    3    0  502 -0.30138986872E+03 -0.13662862675E+04  0.41947433916E+03  0.14606617469E+04  0.50400001928E-02 0.  1.
</event>
<event>
 5   0  0.7309833E-08  0.3698088E+04  0.7818609E-02  0.8068386E-01
       -2   -1    0    0    0  501  0.00000000000E+00  0.00000000000E+00  0.12462491369E+04  0.12462491369E+04  0.25500000920E-02 0. -1.
        2   -1    0    0  501    0  0.00000000000E+00  0.00000000000E+00 -0.27434037491E+04  0.27434037491E+04  0.25500000920E-02 0.  1.
    10030    2    1    2    0    0  0.00000000000E+00  0.00000000000E+00 -0.14971546122E+04  0.39896528861E+04  0.36980884547E+04 0.  0.
        2    1    3    3  502    0  0.12761887560E+04 -0.27100219343E+03  0.66502043811E+03  0.14643606499E+04  0.25500000920E-02 0. -1.
       -2    1    3    3    0  502 -0.12761887560E+04  0.27100219343E+03 -0.21621750503E+04  0.25252922362E+04  0.25500000920E-02 0.  1.
</event>
<event>
 5   0  0.7309833E-08  0.3674749E+04  0.7818609E-02  0.8073581E-01
       -2   -1    0    0    0  501  0.00000000000E+00  0.00000000000E+00  0.18634036748E+04  0.18634036749E+04  0.25500000920E-02 0.  1.
        2   -1    0    0  501    0  0.00000000000E+00  0.00000000000E+00 -0.18117086501E+04  0.18117086501E+04  0.25500000920E-02 0. -1.
    10030    2    1    2    0    0  0.00000000000E+00  0.00000000000E+00  0.51695024761E+02  0.36751123249E+04  0.36747487296E+04 0.  0.
        2    1    3    3  502    0 -0.66539021394E+03  0.10432946247E+04 -0.13324977368E+04  0.18184493475E+04  0.25500000920E-02 0. -1.
       -2    1    3    3    0  502  0.66539021394E+03 -0.10432946247E+04  0.13841927616E+04  0.18566629775E+04  0.25500000920E-02 0.  1.
</event>
<event>
 5   0  0.2282000E-08  0.3695425E+04  0.7818609E-02  0.8068976E-01
        1   -1    0    0  501    0  0.00000000000E+00  0.00000000000E+00  0.11681089344E+04  0.11681089344E+04  0.50400001928E-02 0.  1.
       -1   -1    0    0    0  501  0.00000000000E+00  0.00000000000E+00 -0.29227081123E+04  0.29227081123E+04  0.50400001928E-02 0. -1.
    10030    2    1    2    0    0  0.00000000000E+00  0.00000000000E+00 -0.17545991779E+04  0.40908170467E+04  0.36954249870E+04 0.  0.
        1    1    3    3  502    0 -0.10346520741E+04  0.29961947950E+03  0.78458152846E+03  0.13326083152E+04  0.50400001928E-02 0.  1.
       -1    1    3    3    0  502  0.10346520741E+04 -0.29961947950E+03 -0.25391807064E+04  0.27582087315E+04  0.50400001928E-02 0. -1.
</event>
<event>
 5   0  0.2282000E-08  0.3702966E+04  0.7818609E-02  0.8067305E-01
       -1   -1    0    0    0  501  0.00000000000E+00  0.00000000000E+00  0.14194149092E+04  0.14194149092E+04  0.50400001928E-02 0.  1.
        1   -1    0    0  501    0  0.00000000000E+00  0.00000000000E+00 -0.24150718225E+04  0.24150718225E+04  0.50400001928E-02 0. -1.
    10030    2    1    2    0    0  0.00000000000E+00  0.00000000000E+00 -0.99565691329E+03  0.38344867317E+04  0.37029658122E+04 0.  0.
        4    1    3    3  502    0 -0.11154110629E+04  0.13681438994E+04 -0.10762629203E+04  0.20674387669E+04  0.12699999809E+01 0. -1.
       -4    1    3    3    0  502  0.11154110629E+04 -0.13681438994E+04  0.80606007017E+02  0.17670479648E+04  0.12699999809E+01 0.  1.
</event>
<event>
 5   0  0.2282000E-08  0.3683513E+04  0.7818609E-02  0.8071625E-01
       -1   -1    0    0    0  501  0.00000000000E+00  0.00000000000E+00  0.27861684324E+04  0.27861684324E+04  0.50400001928E-02 0. -1.
        1   -1    0    0  501    0  0.00000000000E+00  0.00000000000E+00 -0.12174662942E+04  0.12174662942E+04  0.50400001928E-02 0.  1.
    10030    2    1    2    0    0  0.00000000000E+00  0.00000000000E+00  0.15687021382E+04  0.40036347266E+04  0.36835125391E+04 0.  0.
        5    1    3    3  502    0  0.12717070046E+04 -0.12833566858E+04  0.11729122256E+04  0.21540631995E+04  0.46999998093E+01 0. -1.
       -5    1    3    3    0  502 -0.12717070046E+04  0.12833566858E+04  0.39578991267E+03  0.18495715271E+04  0.46999998093E+01 0.  1.
</event>
<event>
 5   0  0.7203049E-08  0.3701067E+04  0.7818609E-02  0.8067725E-01
        2   -1    0    0  501    0  0.00000000000E+00  0.00000000000E+00  0.23241797525E+04  0.23241797525E+04  0.25500000920E-02 0.  1.
       -2   -1    0    0    0  501  0.00000000000E+00  0.00000000000E+00 -0.14734119790E+04  0.14734119790E+04  0.25500000920E-02 0. -1.
    10030    2    1    2    0    0  0.00000000000E+00  0.00000000000E+00  0.85076777348E+03  0.37975917315E+04  0.37010670292E+04 0.  0.
        4    1    3    3  502    0 -0.56840606816E+03  0.10428967473E+04 -0.10306935985E+04  0.15725933965E+04  0.12699999809E+01 0. -1.
       -4    1    3    3    0  502  0.56840606816E+03 -0.10428967473E+04  0.18814613720E+04  0.22249983350E+04  0.12699999809E+01 0.  1.
</event>
<event>
 5   0  0.2282000E-08  0.3703989E+04  0.7818609E-02  0.8067078E-01
        1   -1    0    0  501    0  0.00000000000E+00  0.00000000000E+00  0.27677467751E+04  0.27677467751E+04  0.50400001928E-02 0.  1.
       -1   -1    0    0    0  501  0.00000000000E+00  0.00000000000E+00 -0.12392333858E+04  0.12392333858E+04  0.50400001928E-02 0. -1.
    10030    2    1    2    0    0  0.00000000000E+00  0.00000000000E+00  0.15285133892E+04  0.40069801609E+04  0.37039893127E+04 0.  0.
        5    1    3    3  502    0  0.64104328409E+03  0.17260184524E+04  0.98003720090E+03  0.20858022906E+04  0.46999998093E+01 0.  1.
       -5    1    3    3    0  502 -0.64104328409E+03 -0.17260184524E+04  0.54847618835E+03  0.19211778703E+04  0.46999998093E+01 0. -1.
</event>
<event>
 5   0  0.7362817E-08  0.3702311E+04  0.7818609E-02  0.8067450E-01
       -2   -1    0    0    0  501  0.00000000000E+00  0.00000000000E+00  0.19283534385E+04  0.19283534385E+04  0.25500000920E-02 0. -1.
        2   -1    0    0  501    0  0.00000000000E+00  0.00000000000E+00 -0.17770483778E+04  0.17770483778E+04  0.25500000920E-02 0.  1.
    10030    2    1    2    0    0  0.00000000000E+00  0.00000000000E+00  0.15130506066E+03  0.37054018164E+04  0.37023113590E+04 0.  0.
        1    1    3    3  502    0 -0.17346510176E+04 -0.56176835663E+03  0.39557465809E+03  0.18657644946E+04  0.50400001928E-02 0. -1.
       -1    1    3    3    0  502  0.17346510176E+04  0.56176835663E+03 -0.24426959743E+03  0.18396373217E+04  0.50400001928E-02 0.  1.
</event>
<event>
 5   0  0.2282000E-08  0.3692717E+04  0.7818609E-02  0.8069578E-01
        1   -1    0    0  501    0  0.00000000000E+00  0.00000000000E+00  0.12187086871E+04  0.12187086871E+04  0.50400001928E-02 0. -1.
       -1   -1    0    0    0  501  0.00000000000E+00  0.00000000000E+00 -0.27972556956E+04  0.27972556956E+04  0.50400001928E-02 0.  1.
    10030    2    1    2    0    0  0.00000000000E+00  0.00000000000E+00 -0.15785470085E+04  0.40159643827E+04  0.36927170572E+04 0.  0.
        5    1    3    3  502    0 -0.74939262336E+03  0.11306099061E+04  0.57303668156E+03  0.14725016782E+04  0.46999998093E+01 0. -1.
       -5    1    3    3    0  502  0.74939262336E+03 -0.11306099061E+04 -0.21515836901E+04  0.25434627045E+04  0.46999998093E+01 0.  1.
</event>
<event>
 5   0  0.2282000E-08  0.3702802E+04  0.7818609E-02  0.8067341E-01
        1   -1    0    0  501    0  0.00000000000E+00  0.00000000000E+00  0.17728029609E+04  0.17728029609E+04  0.50400001928E-02 0.  1.
       -1   -1    0    0    0  501  0.00000000000E+00  0.00000000000E+00 -0.19334832010E+04  0.19334832010E+04  0.50400001928E-02 0. -1.
    10030    2    1    2    0    0  0.00000000000E+00  0.00000000000E+00 -0.16068024011E+03  0.37062861619E+04  0.37028015035E+04 0.  0.
        3    1    3    3  502    0  0.85040235942E+03  0.28443707377E+03  0.15409360746E+04  0.17828551871E+04  0.10100000352E+00 0.  1.
       -3    1    3    3    0  502 -0.85040235942E+03 -0.28443707377E+03 -0.17016163147E+04  0.19234309748E+04  0.10100000352E+00 0. -1.
</event>
<event>
 5   0  0.2282000E-08  0.3703055E+04  0.7818609E-02  0.8067285E-01
       -1   -1    0    0    0  501  0.00000000000E+00  0.00000000000E+00  0.15764664902E+04  0.15764664902E+04  0.50400001928E-02 0. -1.
        1   -1    0    0  501    0  0.00000000000E+00  0.00000000000E+00 -0.21745813263E+04  0.21745813263E+04  0.50400001928E-02 0.  1.
    10030    2    1    2    0    0  0.00000000000E+00  0.00000000000E+00 -0.59811483619E+03  0.37510478165E+04  0.37030552743E+04 0.  0.
        3    1    3    3  502    0 -0.97994160077E+03 -0.28648505693E+03 -0.18636778591E+04  0.21250069179E+04  0.10100000352E+00 0.  1.
       -3    1    3    3    0  502  0.97994160077E+03  0.28648505693E+03  0.12655630229E+04  0.16260408986E+04  0.10100000352E+00 0. -1.
</event>
<event>
 5   0  0.2282000E-08  0.3721597E+04  0.7818609E-02  0.8063192E-01
        3   -1    0    0  501    0  0.00000000000E+00  0.00000000000E+00  0.23848861239E+04  0.23848861260E+04  0.10100000352E+00 0.  1.
       -3   -1    0    0    0  501  0.00000000000E+00  0.00000000000E+00 -0.14518814284E+04  0.14518814319E+04  0.10100000352E+00 0. -1.
    10030    2    1    2    0    0  0.00000000000E+00  0.00000000000E+00  0.93300469554E+03  0.38367675579E+04  0.37215974435E+04 0.  0.
        2    1    3    3  502    0  0.17504014222E+03  0.10944119645E+04 -0.10744764376E+04  0.15436567670E+04  0.25500000920E-02 0. -1.
       -2    1    3    3    0  502 -0.17504014222E+03 -0.10944119645E+04  0.20074811331E+04  0.22931107909E+04  0.25500000920E-02 0.  1.
</event>
<event>
 5   0  0.7203049E-08  0.3700914E+04  0.7818609E-02  0.8067759E-01
       -2   -1    0    0    0  501  0.00000000000E+00  0.00000000000E+00  0.14052864518E+04  0.14052864518E+04  0.25500000920E-02 0.  1.
        2   -1    0    0  501    0  0.00000000000E+00  0.00000000000E+00 -0.24366495119E+04  0.24366495119E+04  0.25500000920E-02 0. -1.
    10030    2    1    2    0    0  0.00000000000E+00  0.00000000000E+00 -0.10313630601E+04  0.38419359637E+04  0.37009136963E+04 0.  0.
        4    1    3    3  502    0 -0.49156512223E+03 -0.15141693157E+04  0.46357863812E+03  0.16580867747E+04  0.12699999809E+01 0.  1.
       -4    1    3    3    0  502  0.49156512223E+03  0.15141693157E+04 -0.14949416983E+04  0.21838491889E+04  0.12699999809E+01 0. -1.
</event>
<event>
 5   0  0.7254493E-08  0.3695679E+04  0.7818609E-02  0.8068920E-01
        2   -1    0    0  501    0  0.00000000000E+00  0.00000000000E+00  0.18448167705E+04  0.18448167705E+04  0.25500000920E-02 0.  1.
       -2   -1    0    0    0  501  0.00000000000E+00  0.00000000000E+00 -0.18508669184E+04  0.18508669184E+04  0.25500000920E-02 0. -1.
    10030    2    1    2    0    0  0.00000000000E+00  0.00000000000E+00 -0.60501478504E+01  0.36956836889E+04  0.36956787366E+04 0.  0.
        3    1    3    3  502    0  0.90448471447E+03  0.14909912159E+04 -0.61406019316E+03  0.18488421608E+04  0.10100000352E+00 0. -1.
       -3    1    3    3    0  502 -0.90448471447E+03 -0.14909912159E+04  0.60801004531E+03  0.18468415281E+04  0.10100000352E+00 0.  1.
</event>
<event>
 5   0  0.7309833E-08  0.3708228E+04  0.7818609E-02  0.8066141E-01
        2   -1    0    0  501    0  0.00000000000E+00  0.00000000000E+00  0.14520329299E+04  0.14520329299E+04  0.25500000920E-02 0.  1.
       -2   -1    0    0    0  501  0.00000000000E+00  0.00000000000E+00 -0.23675351589E+04  0.23675351589E+04  0.25500000920E-02 0. -1.
    10030    2    1    2    0    0  0.00000000000E+00  0.00000000000E+00 -0.91550222895E+03  0.38195680888E+04  0.37082281556E+04 0.  0.
        2    1    3    3  502    0  0.10612213236E+04 -0.14929941503E+04 -0.75363339183E+03  0.19807032892E+04  0.25500000920E-02 0.  1.
       -2    1    3    3    0  502 -0.10612213236E+04  0.14929941503E+04 -0.16186883712E+03  0.18388647996E+04  0.25500000920E-02 0. -1.
</event>
<event>
 5   0  0.7362817E-08  0.3704714E+04  0.7818609E-02  0.8066918E-01
        2   -1    0    0  501    0  0.00000000000E+00  0.00000000000E+00  0.16041293974E+04  0.16041293974E+04  0.25500000920E-02 0.  1.
       -2   -1    0    0    0  501  0.00000000000E+00  0.00000000000E+00 -0.21389954834E+04  0.21389954834E+04  0.25500000920E-02 0. -1.
    10030    2    1    2    0    0  0.00000000000E+00  0.00000000000E+00 -0.53486608596E+03  0.37431248808E+04  0.37047135036E+04 0.  0.
        1    1    3    3  502    0  0.14563377196E+04 -0.64495987107E+03 -0.12229298826E+04  0.20080961846E+04  0.50400001928E-02 0. -1.
       -1    1    3    3    0  502 -0.14563377196E+04  0.64495987107E+03  0.68806379662E+03  0.17350286963E+04  0.50400001928E-02 0.  1.
</event>
<event>
 5   0  0.7191801E-08  0.3695865E+04  0.7818609E-02  0.8068879E-01
        2   -1    0    0  501    0  0.00000000000E+00  0.00000000000E+00  0.23692369144E+04  0.23692369144E+04  0.25500000920E-02 0.  1.
       -2   -1    0    0    0  501  0.00000000000E+00  0.00000000000E+00 -0.14413306535E+04  0.14413306535E+04  0.25500000920E-02 0. -1.
    10030    2    1    2    0    0  0.00000000000E+00  0.00000000000E+00  0.92790626090E+03  0.38105675679E+04  0.36958646026E+04 0.  0.
        5    1    3    3  502    0 -0.75295932857E+03  0.16111640257E+04  0.98156419655E+03  0.20313265690E+04  0.46999998093E+01 0. -1.
       -5    1    3    3    0  502  0.75295932857E+03 -0.16111640257E+04 -0.53657935644E+02  0.17792409989E+04  0.46999998093E+01 0.  1.
</event>
<event>
 5   0  0.7254493E-08  0.3700115E+04  0.7818609E-02  0.8067936E-01
        2   -1    0    0  501    0  0.00000000000E+00  0.00000000000E+00  0.18452584603E+04  0.18452584603E+04  0.25500000920E-02 0. -1.
       -2   -1    0    0    0  501  0.00000000000E+00  0.00000000000E+00 -0.18548690343E+04  0.18548690343E+04  0.25500000920E-02 0.  1.
    10030    2    1    2    0    0  0.00000000000E+00  0.00000000000E+00 -0.96105739898E+01  0.37001274947E+04  0.37001150136E+04 0.  0.
        3    1    3    3  502    0  0.12684422023E+04  0.13128374650E+04 -0.30518096293E+03  0.18508439320E+04  0.10100000352E+00 0.  1.
       -3    1    3    3    0  502 -0.12684422023E+04 -0.13128374650E+04  0.29557038894E+03  0.18492835627E+04  0.10100000352E+00 0. -1.
</event>
<event>
 5   0  0.2282000E-08  0.3703676E+04  0.7818609E-02  0.8067148E-01
       -1   -1    0    0    0  501  0.00000000000E+00  0.00000000000E+00  0.18087940252E+04  0.18087940252E+04  0.50400001928E-02 0.  1.
        1   -1    0    0  501    0  0.00000000000E+00  0.00000000000E+00 -0.18959059187E+04  0.18959059187E+04  0.50400001928E-02 0. -1.
    10030    2    1    2    0    0  0.00000000000E+00  0.00000000000E+00 -0.87111893449E+02  0.37046999439E+04  0.37036756328E+04 0.  0.
        3    1    3    3  502    0  0.22044480988E+03  0.56989691390E+03 -0.17921598028E+04  0.18934664443E+04  0.10100000352E+00 0. -1.
       -3    1    3    3    0  502 -0.22044480988E+03 -0.56989691390E+03  0.17050479094E+04  0.18112334996E+04  0.10100000352E+00 0.  1.
</event>
<event>
 5   0  0.2282000E-08  0.3698400E+04  0.7818609E-02  0.8068317E-01
       -1   -1    0    0    0  501  0.00000000000E+00  0.00000000000E+00  0.19681969833E+04  0.19681969833E+04  0.50400001928E-02 0.  1.
        1   -1    0    0  501    0  0.00000000000E+00  0.00000000000E+00 -0.17373972993E+04  0.17373972993E+04  0.50400001928E-02 0. -1.
    10030    2    1    2    0    0  0.00000000000E+00  0.00000000000E+00  0.23079968395E+03  0.37055942826E+04  0.36983997205E+04 0.  0.
        3    1    3    3  502    0 -0.16180602698E+03  0.33387895049E+03 -0.16997213113E+04  0.17397439151E+04  0.10100000352E+00 0. -1.
       -3    1    3    3    0  502  0.16180602698E+03 -0.33387895049E+03  0.19305209952E+04  0.19658503675E+04  0.10100000352E+00 0.  1.
</event>
<event>
 5   0  0.2282000E-08  0.3635071E+04  0.7818609E-02  0.8082505E-01
        1   -1    0    0  501    0  0.00000000000E+00  0.00000000000E+00  0.15538705659E+04  0.15538705659E+04  0.50400001928E-02 0.  1.
       -1   -1    0    0    0  501  0.00000000000E+00  0.00000000000E+00 -0.21259393100E+04  0.21259393100E+04  0.50400001928E-02 0. -1.
    10030    2    1    2    0    0  0.00000000000E+00  0.00000000000E+00 -0.57206874416E+03  0.36798098759E+04  0.36350705736E+04 0.  0.
        5    1    3    3  502    0 -0.13793148718E+04  0.11469199982E+04 -0.58199794679E+03  0.18859158777E+04  0.46999998093E+01 0. -1.
       -5    1    3    3    0  502  0.13793148718E+04 -0.11469199982E+04  0.99292026292E+01  0.17938939982E+04  0.46999998093E+01 0.  1.
</event>
<event>
 5   0  0.2282000E-08  0.3694974E+04  0.7818609E-02  0.8069077E-01
       -1   -1    0    0    0  501  0.00000000000E+00  0.00000000000E+00  0.18901350915E+04  0.18901350915E+04  0.50400001928E-02 0. -1.
        1   -1    0    0  501    0  0.00000000000E+00  0.00000000000E+00 -0.18058010316E+04  0.18058010316E+04  0.50400001928E-02 0.  1.
    10030    2    1    2    0    0  0.00000000000E+00  0.00000000000E+00  0.84334059922E+02  0.36959361232E+04  0.36949738285E+04 0.  0.
        3    1    3    3  502    0 -0.12482866584E+04  0.83424101761E+03  0.11190300714E+04  0.18725399777E+04  0.10100000352E+00 0. -1.
       -3    1    3    3    0  502  0.12482866584E+04 -0.83424101761E+03 -0.10346960115E+04  0.18233961455E+04  0.10100000352E+00 0.  1.
</event>
<event>
 5   0  0.7309833E-08  0.3700869E+04  0.7818609E-02  0.8067769E-01
        2   -1    0    0  501    0  0.00000000000E+00  0.00000000000E+00  0.15616804222E+04  0.15616804222E+04  0.25500000920E-02 0. -1.
       -2   -1    0    0    0  501  0.00000000000E+00  0.00000000000E+00 -0.21925791244E+04  0.21925791244E+04  0.25500000920E-02 0.  1.
    10030    2    1    2    0    0  0.00000000000E+00  0.00000000000E+00 -0.63089870218E+03  0.37542595466E+04  0.37008690292E+04 0.  0.
        2    1    3    3  502    0  0.61591729027E+03  0.10365590471E+04  0.11084741574E+04  0.16378411780E+04  0.25500000920E-02 0. -1.
       -2    1    3    3    0  502 -0.61591729027E+03 -0.10365590471E+04 -0.17393728596E+04  0.21164183687E+04  0.25500000920E-02 0.  1.
</event>
<event>
 5   0  0.7254493E-08  0.3700128E+04  0.7818609E-02  0.8067934E-01
       -2   -1    0    0    0  501  0.00000000000E+00  0.00000000000E+00  0.15854473332E+04  0.15854473332E+04  0.25500000920E-02 0. -1.
        2   -1    0    0  501    0  0.00000000000E+00  0.00000000000E+00 -0.21588458832E+04  0.21588458832E+04  0.25500000920E-02 0.  1.
    10030    2    1    2    0    0  0.00000000000E+00  0.00000000000E+00 -0.57339854995E+03  0.37442932164E+04  0.37001278077E+04 0.  0.
        3    1    3    3  502    0  0.60169561324E+03 -0.50333853329E+02  0.14829353446E+04  0.16011459504E+04  0.10100000352E+00 0. -1.
       -3    1    3    3    0  502 -0.60169561324E+03  0.50333853329E+02 -0.20563338946E+04  0.21431472661E+04  0.10100000352E+00 0.  1.
</event>
<event>
 5   0  0.2282000E-08  0.3697272E+04  0.7818609E-02  0.8068567E-01
       -1   -1    0    0    0  501  0.00000000000E+00  0.00000000000E+00  0.14037996626E+04  0.14037996627E+04  0.50400001928E-02 0.  1.
        1   -1    0    0  501    0  0.00000000000E+00  0.00000000000E+00 -0.24344327678E+04  0.24344327678E+04  0.50400001928E-02 0. -1.
    10030    2    1    2    0    0  0.00000000000E+00  0.00000000000E+00 -0.10306331051E+04  0.38382324304E+04  0.36972724531E+04 0.  0.
        3    1    3    3  502    0  0.65620958388E+03 -0.17174677244E+04 -0.31522616836E+03  0.18653884179E+04  0.10100000352E+00 0.  1.
       -3    1    3    3    0  502 -0.65620958388E+03  0.17174677244E+04 -0.71540693675E+03  0.19728440125E+04  0.10100000352E+00 0. -1.
</event>
<event>
 5   0  0.2282000E-08  0.3700762E+04  0.7818609E-02  0.8067793E-01
       -1   -1    0    0    0  501  0.00000000000E+00  0.00000000000E+00  0.25055517128E+04  0.25055517128E+04  0.50400001928E-02 0.  1.
        1   -1    0    0  501    0  0.00000000000E+00  0.00000000000E+00 -0.13665291506E+04  0.13665291506E+04  0.50400001928E-02 0. -1.
    10030    2    1    2    0    0  0.00000000000E+00  0.00000000000E+00  0.11390225622E+04  0.38720808634E+04  0.37007617885E+04 0.  0.
        2    1    3    3  502    0  0.17719802152E+04 -0.15076582800E+03  0.11043146079E+04  0.20933597329E+04  0.25500000920E-02 0.  1.
       -2    1    3    3    0  502 -0.17719802152E+04  0.15076582800E+03  0.34707954245E+02  0.17787211305E+04  0.25500000920E-02 0. -1.
</event>
<event>
 5   0  0.7309833E-08  0.3690999E+04  0.7818609E-02  0.8069959E-01
        2   -1    0    0  501    0  0.00000000000E+00  0.00000000000E+00  0.14546526056E+04  0.14546526056E+04  0.25500000920E-02 0. -1.
       -2   -1    0    0    0  501  0.00000000000E+00  0.00000000000E+00 -0.23413622781E+04  0.23413622781E+04  0.25500000920E-02 0.  1.
    10030    2    1    2    0    0  0.00000000000E+00  0.00000000000E+00 -0.88670967248E+03  0.37960148838E+04  0.36909991810E+04 0.  0.
        2    1    3    3  502    0 -0.12210077661E+02 -0.17550412731E+04  0.14344861901E+03  0.17609362460E+04  0.25500000920E-02 0. -1.
       -2    1    3    3    0  502  0.12210077661E+02  0.17550412731E+04 -0.10301582915E+04  0.20350786377E+04  0.25500000920E-02 0.  1.
</event>
<event>
 5   0  0.2282000E-08  0.3704221E+04  0.7818609E-02  0.8067027E-01
        1   -1    0    0  501    0  0.00000000000E+00  0.00000000000E+00  0.16853204983E+04  0.16853204983E+04  0.50400001928E-02 0.  1.
       -1   -1    0    0    0  501  0.00000000000E+00  0.00000000000E+00 -0.20354068037E+04  0.20354068037E+04  0.50400001928E-02 0. -1.
    10030    2    1    2    0    0  0.00000000000E+00  0.00000000000E+00 -0.35008630537E+03  0.37207273020E+04  0.37042207324E+04 0.  0.
        4    1    3    3  502    0  0.72490092440E+03  0.76544875472E+03 -0.17046283900E+04  0.20042835895E+04  0.12699999809E+01 0. -1.
       -4    1    3    3    0  502 -0.72490092440E+03 -0.76544875472E+03  0.13545420846E+04  0.17164437125E+04  0.12699999809E+01 0.  1.
</event>
<event>
 5   0  0.7362817E-08  0.3705887E+04  0.7818609E-02  0.8066658E-01
        2   -1    0    0  501    0  0.00000000000E+00  0.00000000000E+00  0.15186310025E+04  0.15186310025E+04  0.25500000920E-02 0. -1.
       -2   -1    0    0    0  501  0.00000000000E+00  0.00000000000E+00 -0.22608517385E+04  0.22608517385E+04  0.25500000920E-02 0.  1.
    10030    2    1    2    0    0  0.00000000000E+00  0.00000000000E+00 -0.74222073601E+03  0.37794827409E+04  0.37058869610E+04 0.  0.
        1    1    3    3  502    0  0.89243169604E+03 -0.75806421141E+03 -0.18357019237E+04  0.21773601524E+04  0.50400001928E-02 0.  1.
       -1    1    3    3    0  502 -0.89243169604E+03  0.75806421141E+03  0.10934811877E+04  0.16021225885E+04  0.50400001928E-02 0. -1.
</event>
<event>
 5   0  0.2282000E-08  0.3705555E+04  0.7818609E-02  0.8066732E-01
       -1   -1    0    0    0  501  0.00000000000E+00  0.00000000000E+00  0.18048824586E+04  0.18048824586E+04  0.50400001928E-02 0.  1.
        1   -1    0    0  501    0  0.00000000000E+00  0.00000000000E+00 -0.19019430853E+04  0.19019430853E+04  0.50400001928E-02 0. -1.
    10030    2    1    2    0    0  0.00000000000E+00  0.00000000000E+00 -0.97060626670E+02  0.37068255440E+04  0.37055545939E+04 0.  0.
        4    1    3    3  502    0 -0.10171880505E+04 -0.15270505569E+04  0.20890434499E+03  0.18466720260E+04  0.12699999809E+01 0.  1.
       -4    1    3    3    0  502  0.10171880505E+04  0.15270505569E+04 -0.30596497166E+03  0.18601535179E+04  0.12699999809E+01 0. -1.
</event>
<event>
 5   0  0.2282000E-08  0.3696476E+04  0.7818609E-02  0.8068743E-01
       -1   -1    0    0    0  501  0.00000000000E+00  0.00000000000E+00  0.10113260876E+04  0.10113260876E+04  0.50400001928E-02 0.  1.
        1   -1    0    0  501    0  0.00000000000E+00  0.00000000000E+00 -0.33777275593E+04  0.33777275593E+04  0.50400001928E-02 0. -1.
    10030    2    1    2    0    0  0.00000000000E+00  0.00000000000E+00 -0.23664014717E+04  0.43890536469E+04  0.36964761584E+04 0.  0.
        3    1    3    3  502    0  0.42345877531E+03  0.12784466542E+03 -0.33139515147E+04  0.33433420771E+04  0.10100000352E+00 0. -1.
       -3    1    3    3    0  502 -0.42345877531E+03 -0.12784466542E+03  0.94755004301E+03  0.10457115697E+04  0.10100000352E+00 0.  1.
</event>
<event>
 5   0  0.2282000E-08  0.3702396E+04  0.7818609E-02  0.8067431E-01
        1   -1    0    0  501    0  0.00000000000E+00  0.00000000000E+00  0.99665225661E+03  0.99665225662E+03  0.50400001928E-02 0.  1.
       -1   -1    0    0    0  501  0.00000000000E+00  0.00000000000E+00 -0.34384449306E+04  0.34384449306E+04  0.50400001928E-02 0. -1.
    10030    2    1    2    0    0  0.00000000000E+00  0.00000000000E+00 -0.24417926739E+04  0.44350971872E+04  0.37023959266E+04 0.  0.
        2    1    3    3  502    0  0.33675859482E+03  0.65587308546E+03 -0.32549835465E+04  0.33374382007E+04  0.25500000920E-02 0. -1.
       -2    1    3    3    0  502 -0.33675859482E+03 -0.65587308546E+03  0.81319087256E+03  0.10976589865E+04  0.25500000920E-02 0.  1.
</event>
<event>
 5   0  0.7362817E-08  0.3685305E+04  0.7818609E-02  0.8071226E-01
        2   -1    0    0  501    0  0.00000000000E+00  0.00000000000E+00  0.12591371147E+04  0.12591371147E+04  0.25500000920E-02 0. -1.
       -2   -1    0    0    0  501  0.00000000000E+00  0.00000000000E+00 -0.26965835574E+04  0.26965835574E+04  0.25500000920E-02 0.  1.
    10030    2    1    2    0    0  0.00000000000E+00  0.00000000000E+00 -0.14374464427E+04  0.39557206721E+04  0.36853051108E+04 0.  0.
        1    1    3    3  502    0  0.10958321884E+04  0.11270913036E+04 -0.17506092455E+04  0.23528314267E+04  0.50400001928E-02 0.  1.
       -1    1    3    3    0  502 -0.10958321884E+04 -0.11270913036E+04  0.31316280283E+03  0.16028892454E+04  0.50400001928E-02 0. -1.
</event>
<event>
 5   0  0.7191801E-08  0.3700119E+04  0.7818609E-02  0.8067936E-01
       -2   -1    0    0    0  501  0.00000000000E+00  0.00000000000E+00  0.18669926259E+04  0.18669926259E+04  0.25500000920E-02 0.  1.
        2   -1    0    0  501    0  0.00000000000E+00  0.00000000000E+00 -0.18332796768E+04  0.18332796768E+04  0.25500000920E-02 0. -1.
    10030    2    1    2    0    0  0.00000000000E+00  0.00000000000E+00  0.33712949167E+02  0.37002723027E+04  0.37001187212E+04 0.  0.
        5    1    3    3  502    0  0.65070641258E+03 -0.16887000129E+04 -0.36730915305E+03  0.18466360424E+04  0.46999998093E+01 0.  1.
       -5    1    3    3    0  502 -0.65070641258E+03  0.16887000129E+04  0.40102210221E+03  0.18536362603E+04  0.46999998093E+01 0. -1.
</event>
<event>
 5   0  0.2282000E-08  0.3695111E+04  0.7818609E-02  0.8069046E-01
        1   -1    0    0  501    0  0.00000000000E+00  0.00000000000E+00  0.27286318684E+04  0.27286318684E+04  0.50400001928E-02 0.  1.
       -1   -1    0    0    0  501  0.00000000000E+00  0.00000000000E+00 -0.12509787815E+04  0.12509787815E+04  0.50400001928E-02 0. -1.
    10030    2    1    2    0    0  0.00000000000E+00  0.00000000000E+00  0.14776530869E+04  0.39796106499E+04  0.36951105910E+04 0.  0.
        5    1    3    3  502    0 -0.51353754382E+03  0.17583044638E+04  0.47926641748E+03  0.18934291075E+04  0.46999998093E+01 0. -1.
       -5    1    3    3    0  502  0.51353754382E+03 -0.17583044638E+04  0.99838666939E+03  0.20861815424E+04  0.46999998093E+01 0.  1.
</event>
<event>
 5   0  0.7203049E-08  0.3695569E+04  0.7818609E-02  0.8068944E-01
       -2   -1    0    0    0  501  0.00000000000E+00  0.00000000000E+00  0.12323753078E+04  0.12323753078E+04  0.25500000920E-02 0.  1.
        2   -1    0    0  501    0  0.00000000000E+00  0.00000000000E+00 -0.27705101178E+04  0.27705101178E+04  0.25500000920E-02 0. -1.
    10030    2    1    2    0    0  0.00000000000E+00  0.00000000000E+00 -0.15381348100E+04  0.40028854257E+04  0.36955693793E+04 0.  0.
        4    1    3    3  502    0 -0.69952530499E+03 -0.95290071452E+03 -0.23073619403E+04  0.25925424125E+04  0.12699999809E+01 0. -1.
       -4    1    3    3    0  502  0.69952530499E+03  0.95290071452E+03  0.76922713027E+03  0.14103430132E+04  0.12699999809E+01 0.  1.
</event>
<event>
 5   0  0.2282000E-08  0.3682728E+04  0.7818609E-02  0.8071800E-01
       -1   -1    0    0    0  501  0.00000000000E+00  0.00000000000E+00  0.18369066020E+04  0.18369066020E+04  0.50400001928E-02 0.  1.
        1   -1    0    0  501    0  0.00000000000E+00  0.00000000000E+00 -0.18458325365E+04  0.18458325365E+04  0.50400001928E-02 0. -1.
    10030    2    1    2    0    0  0.00000000000E+00  0.00000000000E+00 -0.89259344536E+01  0.36827391385E+04  0.36827283215E+04 0.  0.
        1    1    3    3  502    0 -0.74274451579E+03 -0.16802775389E+04  0.12051719404E+03  0.18410666521E+04  0.50400001928E-02 0. -1.
       -1    1    3    3    0  502  0.74274451579E+03  0.16802775389E+04 -0.12944312849E+03  0.18416724863E+04  0.50400001928E-02 0.  1.
</event>
<event>
 5   0  0.2282000E-08  0.3704167E+04  0.7818609E-02  0.8067039E-01
        1   -1    0    0  501    0  0.00000000000E+00  0.00000000000E+00  0.25967273052E+04  0.25967273052E+04  0.50400001928E-02 0.  1.
       -1   -1    0    0    0  501  0.00000000000E+00  0.00000000000E+00 -0.13209758023E+04  0.13209758023E+04  0.50400001928E-02 0. -1.
    10030    2    1    2    0    0  0.00000000000E+00  0.00000000000E+00  0.12757515029E+04  0.39177031076E+04  0.37041673480E+04 0.  0.
        5    1    3    3  502    0 -0.93369973623E+03  0.92819347580E+03 -0.73985102381E+03  0.15102118902E+04  0.46999998093E+01 0. -1.
       -5    1    3    3    0  502  0.93369973623E+03 -0.92819347580E+03  0.20156025267E+04  0.24074912174E+04  0.46999998093E+01 0.  1.
</event>
<event>
 5   0  0.2282000E-08  0.3692948E+04  0.7818609E-02  0.8069526E-01
        1   -1    0    0  501    0  0.00000000000E+00  0.00000000000E+00  0.16591628422E+04  0.16591628422E+04  0.50400001928E-02 0. -1.
       -1   -1    0    0    0  501  0.00000000000E+00  0.00000000000E+00 -0.20549316614E+04  0.20549316614E+04  0.50400001928E-02 0.  1.
    10030    2    1    2    0    0  0.00000000000E+00  0.00000000000E+00 -0.39576881925E+03  0.37140945036E+04  0.36929480126E+04 0.  0.
        2    1    3    3  502    0 -0.21548140438E+03 -0.52256832437E+03 -0.19657772193E+04  0.20454314863E+04  0.25500000920E-02 0.  1.
       -2    1    3    3    0  502  0.21548140438E+03  0.52256832437E+03  0.15700084000E+04  0.16686630173E+04  0.25500000920E-02 0. -1.
</event>
<event>
 5   0  0.2282000E-08  0.3698001E+04  0.7818609E-02  0.8068405E-01
        1   -1    0    0  501    0  0.00000000000E+00  0.00000000000E+00  0.23820136313E+04  0.23820136313E+04  0.50400001928E-02 0.  1.
       -1   -1    0    0    0  501  0.00000000000E+00  0.00000000000E+00 -0.14352572459E+04  0.14352572459E+04  0.50400001928E-02 0. -1.
    10030    2    1    2    0    0  0.00000000000E+00  0.00000000000E+00  0.94675638543E+03  0.38172708773E+04  0.36980007162E+04 0.  0.
        2    1    3    3  502    0 -0.10604822475E+04  0.73228482345E+03  0.18420138393E+04  0.22480833268E+04  0.25500000920E-02 0.  1.
       -2    1    3    3    0  502  0.10604822475E+04 -0.73228482345E+03 -0.89525745385E+03  0.15691875505E+04  0.25500000920E-02 0. -1.
</event>
<event>
 5   0  0.2282000E-08  0.3722494E+04  0.7818609E-02  0.8062995E-01
       -3   -1    0    0    0  501  0.00000000000E+00  0.00000000000E+00  0.19438496675E+04  0.19438496701E+04  0.10100000352E+00 0.  1.
        3   -1    0    0  501    0  0.00000000000E+00  0.00000000000E+00 -0.17821542957E+04  0.17821542985E+04  0.10100000352E+00 0. -1.
    10030    2    1    2    0    0  0.00000000000E+00  0.00000000000E+00  0.16169537182E+03  0.37260039686E+04  0.37224938121E+04 0.  0.
        4    1    3    3  502    0  0.42210020734E+02 -0.18583568394E+04 -0.13933758629E+02  0.18588888054E+04  0.12699999809E+01 0. -1.
       -4    1    3    3    0  502 -0.42210020734E+02  0.18583568394E+04  0.17562913045E+03  0.18671151632E+04  0.12699999809E+01 0.  1.
</event>
<event>
 5   0  0.2282000E-08  0.3719063E+04  0.7818609E-02  0.8063750E-01
       -3   -1    0    0    0  501  0.00000000000E+00  0.00000000000E+00  0.20149733152E+04  0.20149733177E+04  0.10100000352E+00 0.  1.
        3   -1    0    0  501    0  0.00000000000E+00  0.00000000000E+00 -0.17160811933E+04  0.17160811963E+04  0.10100000352E+00 0. -1.
    10030    2    1    2    0    0  0.00000000000E+00  0.00000000000E+00  0.29889212185E+03  0.37310545140E+04  0.37190632269E+04 0.  0.
        2    1    3    3  502    0 -0.50968808843E+03 -0.53535193091E+03 -0.15623597825E+04  0.17283957091E+04  0.25500000920E-02 0. -1.
       -2    1    3    3    0  502  0.50968808843E+03  0.53535193091E+03  0.18612519043E+04  0.20026588049E+04  0.25500000920E-02 0.  1.
</event>
<event>
 5   0  0.2282000E-08  0.3693769E+04  0.7818609E-02  0.8069344E-01
       -1   -1    0    0    0  501  0.00000000000E+00  0.00000000000E+00  0.11358369078E+04  0.11358369078E+04  0.50400001928E-02 0.  1.
        1   -1    0    0  501    0  0.00000000000E+00  0.00000000000E+00 -0.30030569297E+04  0.30030569297E+04  0.50400001928E-02 0. -1.
    10030    2    1    2    0    0  0.00000000000E+00  0.00000000000E+00 -0.18672200219E+04  0.41388938375E+04  0.36937692928E+04 0.  0.
        2    1    3    3  502    0 -0.54330965738E+03  0.58661398090E+03  0.93185104008E+03  0.12278630654E+04  0.25500000920E-02 0.  1.
       -2    1    3    3    0  502  0.54330965738E+03 -0.58661398090E+03 -0.27990710620E+04  0.29110307722E+04  0.25500000920E-02 0. -1.
</event>
<event>
 5   0  0.2282000E-08  0.3693050E+04  0.7818609E-02  0.8069504E-01
       -1   -1    0    0    0  501  0.00000000000E+00  0.00000000000E+00  0.13044562330E+04  0.13044562330E+04  0.50400001928E-02 0. -1.
        1   -1    0    0  501    0  0.00000000000E+00  0.00000000000E+00 -0.26138509858E+04  0.26138509858E+04  0.50400001928E-02 0.  1.
    10030    2    1    2    0    0  0.00000000000E+00  0.00000000000E+00 -0.13093947529E+04  0.39183072188E+04  0.36930498023E+04 0.  0.
        2    1    3    3  502    0  0.18921214981E+03 -0.16438412635E+04  0.21482593996E+03  0.16685818894E+04  0.25500000920E-02 0. -1.
       -2    1    3    3    0  502 -0.18921214981E+03  0.16438412635E+04 -0.15242206928E+04  0.22497253294E+04  0.25500000920E-02 0.  1.
</event>
<event>
 5   0  0.2282000E-08  0.3702085E+04  0.7818609E-02  0.8067500E-01
        1   -1    0    0  501    0  0.00000000000E+00  0.00000000000E+00  0.25225875738E+04  0.25225875738E+04  0.50400001928E-02 0.  1.
       -1   -1    0    0    0  501  0.00000000000E+00  0.00000000000E+00 -0.13582715520E+04  0.13582715520E+04  0.50400001928E-02 0. -1.
    10030    2    1    2    0    0  0.00000000000E+00  0.00000000000E+00  0.11643160218E+04  0.38808591259E+04  0.37020853253E+04 0.  0.
        2    1    3    3  502    0 -0.50741207738E+03  0.97815551785E+03  0.21412947159E+04  0.24081939901E+04  0.25500000920E-02 0.  1.
       -2    1    3    3    0  502  0.50741207738E+03 -0.97815551785E+03 -0.97697869412E+03  0.14726651358E+04  0.25500000920E-02 0. -1.
</event>
<event>
 5   0  0.7362817E-08  0.3699285E+04  0.7818609E-02  0.8068120E-01
        2   -1    0    0  501    0  0.00000000000E+00  0.00000000000E+00  0.19081388161E+04  0.19081388161E+04  0.25500000920E-02 0. -1.
       -2   -1    0    0    0  501  0.00000000000E+00  0.00000000000E+00 -0.17929398074E+04  0.17929398074E+04  0.25500000920E-02 0.  1.
    10030    2    1    2    0    0  0.00000000000E+00  0.00000000000E+00  0.11519900868E+03  0.37010786236E+04  0.36992853589E+04 0.  0.
        1    1    3    3  502    0 -0.39813867327E+03  0.11870327365E+04  0.14197355013E+04  0.18929368754E+04  0.50400001928E-02 0. -1.
       -1    1    3    3    0  502  0.39813867327E+03 -0.11870327365E+04 -0.13045364926E+04  0.18081417481E+04  0.50400001928E-02 0.  1.
</event>
<event>
 5   0  0.2282000E-08  0.3707070E+04  0.7818609E-02  0.8066397E-01
        1   -1    0    0  501    0  0.00000000000E+00  0.00000000000E+00  0.19461341345E+04  0.19461341345E+04  0.50400001928E-02 0. -1.
       -1   -1    0    0    0  501  0.00000000000E+00  0.00000000000E+00 -0.17653417287E+04  0.17653417287E+04  0.50400001928E-02 0.  1.
    10030    2    1    2    0    0  0.00000000000E+00  0.00000000000E+00  0.18079240581E+03  0.37114758633E+04  0.37070698927E+04 0.  0.
        5    1    3    3  502    0 -0.61059176442E+03  0.16758553250E+04  0.59523387692E+03  0.18803294475E+04  0.46999998093E+01 0. -1.
       -5    1    3    3    0  502  0.61059176442E+03 -0.16758553250E+04 -0.41444147110E+03  0.18311464158E+04  0.46999998093E+01 0.  1.
</event>
<event>
 5   0  0.2282000E-08  0.3694158E+04  0.7818609E-02  0.8069258E-01
       -1   -1    0    0    0  501  0.00000000000E+00  0.00000000000E+00  0.16942043903E+04  0.16942043903E+04  0.50400001928E-02 0. -1.
        1   -1    0    0  501    0  0.00000000000E+00  0.00000000000E+00 -0.20137476522E+04  0.20137476522E+04  0.50400001928E-02 0.  1.
    10030    2    1    2    0    0  0.00000000000E+00  0.00000000000E+00 -0.31954326192E+03  0.37079520425E+04  0.36941576108E+04 0.  0.
        2    1    3    3  502    0 -0.67036824237E+02 -0.16599666571E+04 -0.97007598218E+03  0.19238062921E+04  0.25500000920E-02 0. -1.
       -2    1    3    3    0  502  0.67036824237E+02  0.16599666571E+04  0.65053272026E+03  0.17841457504E+04  0.25500000920E-02 0.  1.
</event>
<event>
 5   0  0.2282000E-08  0.3697141E+04  0.7818609E-02  0.8068596E-01
       -1   -1    0    0    0  501  0.00000000000E+00  0.00000000000E+00  0.17471018620E+04  0.17471018620E+04  0.50400001928E-02 0. -1.
        1   -1    0    0  501    0  0.00000000000E+00  0.00000000000E+00 -0.19559319793E+04  0.19559319793E+04  0.50400001928E-02 0.  1.
    10030    2    1    2    0    0  0.00000000000E+00  0.00000000000E+00 -0.20883011730E+03  0.37030338413E+04  0.36971407346E+04 0.  0.
        1    1    3    3  502    0 -0.14365477684E+04  0.58196410542E+03  0.90459364894E+03  0.17946145493E+04  0.50400001928E-02 0. -1.
       -1    1    3    3    0  502  0.14365477684E+04 -0.58196410542E+03 -0.11134237662E+04  0.19084192920E+04  0.50400001928E-02 0.  1.
</event>
<event>
 5   0  0.7191801E-08  0.3693215E+04  0.7818609E-02  0.8069467E-01
        2   -1    0    0  501    0  0.00000000000E+00  0.00000000000E+00  0.24961325471E+04  0.24961325471E+04  0.25500000920E-02 0.  1.
       -2   -1    0    0    0  501  0.00000000000E+00  0.00000000000E+00 -0.13660968064E+04  0.13660968064E+04  0.25500000920E-02 0. -1.
    10030    2    1    2    0    0  0.00000000000E+00  0.00000000000E+00  0.11300357407E+04  0.38622293535E+04  0.36932146978E+04 0.  0.
        5    1    3    3  502    0  0.85457238252E+03  0.80994683093E+03  0.20526615764E+04  0.23663789771E+04  0.46999998093E+01 0.  1.
       -5    1    3    3    0  502 -0.85457238252E+03 -0.80994683093E+03 -0.92262583575E+03  0.14958503764E+04  0.46999998093E+01 0. -1.
</event>
<event>
 5   0  0.7191801E-08  0.3714564E+04  0.7818609E-02  0.8064742E-01
       -2   -1    0    0    0  501  0.00000000000E+00  0.00000000000E+00  0.23708653418E+04  0.23708653418E+04  0.25500000920E-02 0.  1.
        2   -1    0    0  501    0  0.00000000000E+00  0.00000000000E+00 -0.14549523503E+04  0.14549523503E+04  0.25500000920E-02 0. -1.
    10030    2    1    2    0    0  0.00000000000E+00  0.00000000000E+00  0.91591299149E+03  0.38258176922E+04  0.37145638244E+04 0.  0.
        5    1    3    3  502    0 -0.63747054779E+03  0.17211195562E+04  0.16509387865E+03  0.18427965989E+04  0.46999998093E+01 0. -1.
       -5    1    3    3    0  502  0.63747054779E+03 -0.17211195562E+04  0.75081911284E+03  0.19830210933E+04  0.46999998093E+01 0.  1.
</event>
<event>
 5   0  0.7203049E-08  0.3706375E+04  0.7818609E-02  0.8066551E-01
        2   -1    0    0  501    0  0.00000000000E+00  0.00000000000E+00  0.20479723693E+04  0.20479723693E+04  0.25500000920E-02 0.  1.
       -2   -1    0    0    0  501  0.00000000000E+00  0.00000000000E+00 -0.16769286136E+04  0.16769286136E+04  0.25500000920E-02 0. -1.
    10030    2    1    2    0    0  0.00000000000E+00  0.00000000000E+00  0.37104375575E+03  0.37249009829E+04  0.37063747603E+04 0.  0.
        4    1    3    3  502    0  0.71536107368E+03 -0.16922256624E+04 -0.58452126047E+02  0.18381478238E+04  0.12699999809E+01 0. -1.
       -4    1    3    3    0  502 -0.71536107368E+03  0.16922256624E+04  0.42949588180E+03  0.18867531591E+04  0.12699999809E+01 0.  1.
</event>
<event>
 5   0  0.2282000E-08  0.3699657E+04  0.7818609E-02  0.8068038E-01
        1   -1    0    0  501    0  0.00000000000E+00  0.00000000000E+00  0.27115902087E+04  0.27115902087E+04  0.50400001928E-02 0. -1.
       -1   -1    0    0    0  501  0.00000000000E+00  0.00000000000E+00 -0.12619406417E+04  0.12619406417E+04  0.50400001928E-02 0.  1.
    10030    2    1    2    0    0  0.00000000000E+00  0.00000000000E+00  0.14496495670E+04  0.39735308504E+04  0.36996572209E+04 0.  0.
        5    1    3    3  502    0  0.32490512304E+03 -0.69367828884E+03 -0.10835922735E+04  0.13270068623E+04  0.46999998093E+01 0.  1.
       -5    1    3    3    0  502 -0.32490512304E+03  0.69367828884E+03  0.25332418405E+04  0.26465239882E+04  0.46999998093E+01 0. -1.
</event>
<event>
 5   0  0.7309833E-08  0.3696147E+04  0.7818609E-02  0.8068816E-01
       -2   -1    0    0    0  501  0.00000000000E+00  0.00000000000E+00  0.13195946314E+04  0.13195946314E+04  0.25500000920E-02 0.  1.
        2   -1    0    0  501    0  0.00000000000E+00  0.00000000000E+00 -0.25882003328E+04  0.25882003328E+04  0.25500000920E-02 0. -1.
    10030    2    1    2    0    0  0.00000000000E+00  0.00000000000E+00 -0.12686057013E+04  0.39077949642E+04  0.36961467851E+04 0.  0.
        2    1    3    3  502    0  0.13447708652E+04  0.29689333839E+03 -0.19372771380E+04  0.23768881008E+04  0.25500000920E-02 0. -1.
       -2    1    3    3    0  502 -0.13447708652E+04 -0.29689333839E+03  0.66867143662E+03  0.15309068634E+04  0.25500000920E-02 0.  1.
</event>
<event>
 5   0  0.2282000E-08  0.3687988E+04  0.7818609E-02  0.8070629E-01
        1   -1    0    0  501    0  0.00000000000E+00  0.00000000000E+00  0.24931176372E+04  0.24931176372E+04  0.50400001928E-02 0. -1.
       -1   -1    0    0    0  501  0.00000000000E+00  0.00000000000E+00 -0.13638799434E+04  0.13638799435E+04  0.50400001928E-02 0.  1.
    10030    2    1    2    0    0  0.00000000000E+00  0.00000000000E+00  0.11292376938E+04  0.38569975807E+04  0.36879876041E+04 0.  0.
        2    1    3    3  502    0 -0.17883348017E+04  0.39278556264E+03  0.79348846229E+03  0.19955064022E+04  0.25500000920E-02 0. -1.
       -2    1    3    3    0  502  0.17883348017E+04 -0.39278556264E+03  0.33574923148E+03  0.18614911785E+04  0.25500000920E-02 0.  1.
</event>
<event>
 5   0  0.7309833E-08  0.3697893E+04  0.7818609E-02  0.8068429E-01
        2   -1    0    0  501    0  0.00000000000E+00  0.00000000000E+00  0.12975495453E+04  0.12975495453E+04  0.25500000920E-02 0. -1.
       -2   -1    0    0    0  501  0.00000000000E+00  0.00000000000E+00 -0.26346613260E+04  0.26346613260E+04  0.25500000920E-02 0.  1.
    10030    2    1    2    0    0  0.00000000000E+00  0.00000000000E+00 -0.13371117807E+04  0.39322108713E+04  0.36978932411E+04 0.  0.
        2    1    3    3  502    0 -0.14967567300E+04 -0.20074155570E+03 -0.18029356536E+04  0.23518407369E+04  0.25500000920E-02 0.  1.
       -2    1    3    3    0  502  0.14967567300E+04  0.20074155570E+03  0.46582387287E+03  0.15803701344E+04  0.25500000920E-02 0. -1.
</event>
<event>
 5   0  0.2282000E-08  0.3702637E+04  0.7818609E-02  0.8067378E-01
       -1   -1    0    0    0  501  0.00000000000E+00  0.00000000000E+00  0.17882099391E+04  0.17882099391E+04  0.50400001928E-02 0. -1.
        1   -1    0    0  501    0  0.00000000000E+00  0.00000000000E+00 -0.19166538956E+04  0.19166538956E+04  0.50400001928E-02 0.  1.
    10030    2    1    2    0    0  0.00000000000E+00  0.00000000000E+00 -0.12844395644E+03  0.37048638347E+04  0.37026366530E+04 0.  0.
        5    1    3    3  502    0  0.65484367080E+03 -0.17140491816E+04  0.18204112938E+03  0.18438942196E+04  0.46999998093E+01 0.  1.
       -5    1    3    3    0  502 -0.65484367080E+03  0.17140491816E+04 -0.31048508582E+03  0.18609696152E+04  0.46999998093E+01 0. -1.
</event>
<event>
 5   0  0.7203049E-08  0.3696823E+04  0.7818609E-02  0.8068666E-01
       -2   -1    0    0    0  501  0.00000000000E+00  0.00000000000E+00  0.15855657990E+04  0.15855657990E+04  0.25500000920E-02 0. -1.
        2   -1    0    0  501    0  0.00000000000E+00  0.00000000000E+00 -0.21548300701E+04  0.21548300701E+04  0.25500000920E-02 0.  1.
    10030    2    1    2    0    0  0.00000000000E+00  0.00000000000E+00 -0.56926427102E+03  0.37403958691E+04  0.36968228856E+04 0.  0.
        4    1    3    3  502    0 -0.14216856543E+04 -0.10043926645E+04  0.34449131078E+03  0.17744493794E+04  0.12699999809E+01 0. -1.
       -4    1    3    3    0  502  0.14216856543E+04  0.10043926645E+04 -0.91375558180E+03  0.19659464897E+04  0.12699999809E+01 0.  1.
</event>
<event>
 5   0  0.2282000E-08  0.3687441E+04  0.7818609E-02  0.8070751E-01
       -1   -1    0    0    0  501  0.00000000000E+00  0.00000000000E+00  0.19347377196E+04  0.19347377196E+04  0.50400001928E-02 0. -1.
        1   -1    0    0  501    0  0.00000000000E+00  0.00000000000E+00 -0.17569851630E+04  0.17569851630E+04  0.50400001928E-02 0.  1.
    10030    2    1    2    0    0  0.00000000000E+00  0.00000000000E+00  0.17775255660E+03  0.36917228826E+04  0.36874411006E+04 0.  0.
        1    1    3    3  502    0  0.61738210101E+03 -0.30935124282E+03 -0.16226252641E+04  0.17634544502E+04  0.50400001928E-02 0.  1.
       -1    1    3    3    0  502 -0.61738210101E+03  0.30935124282E+03  0.18003778207E+04  0.19282684324E+04  0.50400001928E-02 0. -1.
</event>
<event>
 5   0  0.2282000E-08  0.3719104E+04  0.7818609E-02  0.8063741E-01
       -1   -1    0    0    0  501  0.00000000000E+00  0.00000000000E+00  0.26003367573E+04  0.26003367573E+04  0.50400001928E-02 0. -1.
        1   -1    0    0  501    0  0.00000000000E+00  0.00000000000E+00 -0.13298018998E+04  0.13298018998E+04  0.50400001928E-02 0.  1.
    10030    2    1    2    0    0  0.00000000000E+00  0.00000000000E+00  0.12705348575E+04  0.39301386571E+04  0.37191035264E+04 0.  0.
        5    1    3    3  502    0  0.56178230821E+03 -0.11574649405E+04 -0.78352096918E+03  0.15064035480E+04  0.46999998093E+01 0.  1.
       -5    1    3    3    0  502 -0.56178230821E+03  0.11574649405E+04  0.20540558266E+04  0.24237351091E+04  0.46999998093E+01 0. -1.
</event>
<event>
 5   0  0.2282000E-08  0.3699219E+04  0.7818609E-02  0.8068135E-01
        1   -1    0    0  501    0  0.00000000000E+00  0.00000000000E+00  0.16596261023E+04  0.16596261023E+04  0.50400001928E-02 0.  1.
       -1   -1    0    0    0  501  0.00000000000E+00  0.00000000000E+00 -0.20613414407E+04  0.20613414407E+04  0.50400001928E-02 0. -1.
    10030    2    1    2    0    0  0.00000000000E+00  0.00000000000E+00 -0.40171533843E+03  0.37209675430E+04  0.36992194099E+04 0.  0.
        1    1    3    3  502    0 -0.12462243770E+03 -0.77751481716E+03  0.14825993637E+04  0.16787378939E+04  0.50400001928E-02 0.  1.
       -1    1    3    3    0  502  0.12462243770E+03  0.77751481716E+03 -0.18843147022E+04  0.20422296491E+04  0.50400001928E-02 0. -1.
</event>
<event>
 5   0  0.7309833E-08  0.3702644E+04  0.7818609E-02  0.8067376E-01
        2   -1    0    0  501    0  0.00000000000E+00  0.00000000000E+00  0.19632098542E+04  0.19632098542E+04  0.25500000920E-02 0.  1.
       -2   -1    0    0    0  501  0.00000000000E+00  0.00000000000E+00 -0.17458110424E+04  0.17458110424E+04  0.25500000920E-02 0. -1.
    10030    2    1    2    0    0  0.00000000000E+00  0.00000000000E+00  0.21739881184E+03  0.37090208966E+04  0.37026441589E+04 0.  0.
        2    1    3    3  502    0 -0.60713747657E+01  0.18413250558E+04  0.30106820284E+03  0.18657858628E+04  0.25500000920E-02 0. -1.
       -2    1    3    3    0  502  0.60713747657E+01 -0.18413250558E+04 -0.83669391001E+02  0.18432350338E+04  0.25500000920E-02 0.  1.
</event>
<event>
 5   0  0.7254493E-08  0.3677387E+04  0.7818609E-02  0.8072992E-01
        2   -1    0    0  501    0  0.00000000000E+00  0.00000000000E+00  0.34239593843E+04  0.34239593843E+04  0.25500000920E-02 0.  1.
       -2   -1    0    0    0  501  0.00000000000E+00  0.00000000000E+00 -0.98739302201E+03  0.98739302201E+03  0.25500000920E-02 0. -1.
    10030    2    1    2    0    0  0.00000000000E+00  0.00000000000E+00  0.24365663623E+04  0.44113524063E+04  0.36773869004E+04 0.  0.
        3    1    3    3  502    0 -0.29505070717E+03  0.85364159807E+03  0.31395118145E+04  0.32668476153E+04  0.10100000352E+00 0.  1.
       -3    1    3    3    0  502  0.29505070717E+03 -0.85364159807E+03 -0.70294545221E+03  0.11445047910E+04  0.10100000352E+00 0. -1.
</event>
<event>
 5   0  0.2282000E-08  0.3714070E+04  0.7818609E-02  0.8064851E-01
        1   -1    0    0  501    0  0.00000000000E+00  0.00000000000E+00  0.15237713694E+04  0.15237713694E+04  0.50400001928E-02 0. -1.
       -1   -1    0    0    0  501  0.00000000000E+00  0.00000000000E+00 -0.22631860405E+04  0.22631860405E+04  0.50400001928E-02 0.  1.
    10030    2    1    2    0    0  0.00000000000E+00  0.00000000000E+00 -0.73941467114E+03  0.37869574099E+04  0.37140695158E+04 0.  0.
        5    1    3    3  502    0 -0.21909875235E+02  0.60832702864E+03 -0.21585646506E+04  0.22427584037E+04  0.46999998093E+01 0.  1.
       -5    1    3    3    0  502  0.21909875235E+02 -0.60832702864E+03  0.14191499795E+04  0.15441990062E+04  0.46999998093E+01 0. -1.
</event>
<event>
 5   0  0.7191801E-08  0.3638295E+04  0.7818609E-02  0.8081776E-01
        2   -1    0    0  501    0  0.00000000000E+00  0.00000000000E+00  0.19105605288E+04  0.19105605288E+04  0.25500000920E-02 0.  1.
       -2   -1    0    0    0  501  0.00000000000E+00  0.00000000000E+00 -0.17321085557E+04  0.17321085557E+04  0.25500000920E-02 0. -1.
    10030    2    1    2    0    0  0.00000000000E+00  0.00000000000E+00  0.17845197313E+03  0.36426690845E+04  0.36382953361E+04 0.  0.
        5    1    3    3  502    0  0.13779047465E+04 -0.10318531614E+04  0.67809433676E+03  0.18501828171E+04  0.46999998093E+01 0.  1.
       -5    1    3    3    0  502 -0.13779047465E+04  0.10318531614E+04 -0.49964236364E+03  0.17924862674E+04  0.46999998093E+01 0. -1.
</event>
<event>
 5   0  0.7191801E-08  0.3698692E+04  0.7818609E-02  0.8068252E-01
        2   -1    0    0  501    0  0.00000000000E+00  0.00000000000E+00  0.20321748030E+04  0.20321748030E+04  0.25500000920E-02 0.  1.
       -2   -1    0    0    0  501  0.00000000000E+00  0.00000000000E+00 -0.16829657324E+04  0.16829657324E+04  0.25500000920E-02 0. -1.
    10030    2    1    2    0    0  0.00000000000E+00  0.00000000000E+00  0.34920907063E+03  0.37151405354E+04  0.36986919610E+04 0.  0.
        5    1    3    3  502    0 -0.40429626774E+03 -0.11158750892E+04  0.15991591022E+04  0.19914729752E+04  0.46999998093E+01 0.  1.
       -5    1    3    3    0  502  0.40429626774E+03  0.11158750892E+04 -0.12499500316E+04  0.17236675602E+04  0.46999998093E+01 0. -1.
</event>
<event>
 5   0  0.7191801E-08  0.3688552E+04  0.7818609E-02  0.8070503E-01
       -2   -1    0    0    0  501  0.00000000000E+00  0.00000000000E+00  0.14873849686E+04  0.14873849686E+04  0.25500000920E-02 0.  1.
        2   -1    0    0  501    0  0.00000000000E+00  0.00000000000E+00 -0.22868018466E+04  0.22868018466E+04  0.25500000920E-02 0. -1.
    10030    2    1    2    0    0  0.00000000000E+00  0.00000000000E+00 -0.79941687806E+03  0.37741868152E+04  0.36885523950E+04 0.  0.
        5    1    3    3  502    0 -0.62778560136E+03  0.15745964016E+04  0.34370167264E+03  0.17296304574E+04  0.46999998093E+01 0.  1.
       -5    1    3    3    0  502  0.62778560136E+03 -0.15745964016E+04 -0.11431185507E+04  0.20445563578E+04  0.46999998093E+01 0. -1.
</event>
<event>
 5   0  0.2282000E-08  0.3699288E+04  0.7818609E-02  0.8068120E-01
       -1   -1    0    0    0  501  0.00000000000E+00  0.00000000000E+00  0.14949177379E+04  0.14949177380E+04  0.50400001928E-02 0. -1.
        1   -1    0    0  501    0  0.00000000000E+00  0.00000000000E+00 -0.22885422453E+04  0.22885422453E+04  0.50400001928E-02 0.  1.
    10030    2    1    2    0    0  0.00000000000E+00  0.00000000000E+00 -0.79362450737E+03  0.37834599833E+04  0.36992877134E+04 0.  0.
        1    1    3    3  502    0 -0.43862663360E+03  0.17617261802E+04 -0.35055255705E+02  0.18158472757E+04  0.50400001928E-02 0. -1.
       -1    1    3    3    0  502  0.43862663360E+03 -0.17617261802E+04 -0.75856925166E+03  0.19676127076E+04  0.50400001928E-02 0.  1.
</event>
<event>
 5   0  0.7203049E-08  0.3664308E+04  0.7818609E-02  0.8075918E-01
       -2   -1    0    0    0  501  0.00000000000E+00  0.00000000000E+00  0.15842257781E+04  0.15842257781E+04  0.25500000920E-02 0.  1.
        2   -1    0    0  501    0  0.00000000000E+00  0.00000000000E+00 -0.21188825874E+04  0.21188825874E+04  0.25500000920E-02 0. -1.
    10030    2    1    2    0    0  0.00000000000E+00  0.00000000000E+00 -0.53465680928E+03  0.37031083655E+04  0.36643080743E+04 0.  0.
        4    1    3    3  502    0  0.92155927118E+03  0.38839763322E+03  0.12840693038E+04  0.16275625339E+04  0.12699999809E+01 0.  1.
       -4    1    3    3    0  502 -0.92155927118E+03 -0.38839763322E+03 -0.18187261131E+04  0.20755458316E+04  0.12699999809E+01 0. -1.
</event>
<event>
 5   0  0.2282000E-08  0.3703551E+04  0.7818609E-02  0.8067175E-01
        1   -1    0    0  501    0  0.00000000000E+00  0.00000000000E+00  0.16502490409E+04  0.16502490409E+04  0.50400001928E-02 0.  1.
       -1   -1    0    0    0  501  0.00000000000E+00  0.00000000000E+00 -0.20779121678E+04  0.20779121678E+04  0.50400001928E-02 0. -1.
    10030    2    1    2    0    0  0.00000000000E+00  0.00000000000E+00 -0.42766312688E+03  0.37281612088E+04  0.37035510322E+04 0.  0.
        1    1    3    3  502    0  0.10446921987E+04  0.13733139632E+04 -0.89038354377E+03  0.19416889263E+04  0.50400001928E-02 0. -1.
       -1    1    3    3    0  502 -0.10446921987E+04 -0.13733139632E+04  0.46272041689E+03  0.17864722824E+04  0.50400001928E-02 0.  1.
</event>
<event>
 5   0  0.2282000E-08  0.3701975E+04  0.7818609E-02  0.8067524E-01
       -1   -1    0    0    0  501  0.00000000000E+00  0.00000000000E+00  0.24154511134E+04  0.24154511134E+04  0.50400001928E-02 0.  1.
        1   -1    0    0  501    0  0.00000000000E+00  0.00000000000E+00 -0.14184329311E+04  0.14184329311E+04  0.50400001928E-02 0. -1.
    10030    2    1    2    0    0  0.00000000000E+00  0.00000000000E+00  0.99701818235E+03  0.38338840445E+04  0.37019753660E+04 0.  0.
        3    1    3    3  502    0  0.69334525451E+03  0.10079111215E+04 -0.94006644592E+03  0.15428342113E+04  0.10100000352E+00 0. -1.
       -3    1    3    3    0  502 -0.69334525451E+03 -0.10079111215E+04  0.19370846283E+04  0.22910498332E+04  0.10100000352E+00 0.  1.
</event>
<event>
 5   0  0.2282000E-08  0.3706106E+04  0.7818609E-02  0.8066610E-01
       -1   -1    0    0    0  501  0.00000000000E+00  0.00000000000E+00  0.16501673736E+04  0.16501673736E+04  0.50400001928E-02 0.  1.
        1   -1    0    0  501    0  0.00000000000E+00  0.00000000000E+00 -0.20808834800E+04  0.20808834800E+04  0.50400001928E-02 0. -1.
    10030    2    1    2    0    0  0.00000000000E+00  0.00000000000E+00 -0.43071610645E+03  0.37310508536E+04  0.37061063271E+04 0.  0.
        4    1    3    3  502    0 -0.11166711633E+04 -0.25565119897E+02  0.12731729210E+04  0.16936879765E+04  0.12699999809E+01 0.  1.
       -4    1    3    3    0  502  0.11166711633E+04  0.25565119897E+02 -0.17038890274E+04  0.20373628771E+04  0.12699999809E+01 0. -1.
</event>
<event>
 5   0  0.7203049E-08  0.3693582E+04  0.7818609E-02  0.8069386E-01
        2   -1    0    0  501    0  0.00000000000E+00  0.00000000000E+00  0.24612856704E+04  0.24612856704E+04  0.25500000920E-02 0. -1.
       -2   -1    0    0    0  501  0.00000000000E+00  0.00000000000E+00 -0.13857134117E+04  0.13857134117E+04  0.25500000920E-02 0.  1.
    10030    2    1    2    0    0  0.00000000000E+00  0.00000000000E+00  0.10755722587E+04  0.38469990822E+04  0.36935817650E+04 0.  0.
        4    1    3    3  502    0  0.21444938132E+03 -0.10267062315E+03  0.24452780292E+04  0.24568101365E+04  0.12699999809E+01 0. -1.
       -4    1    3    3    0  502 -0.21444938132E+03  0.10267062315E+03 -0.13697057705E+04  0.13901889456E+04  0.12699999809E+01 0.  1.
</event>
<event>
 5   0  0.2282000E-08  0.3697862E+04  0.7818609E-02  0.8068436E-01
        1   -1    0    0  501    0  0.00000000000E+00  0.00000000000E+00  0.20821392232E+04  0.20821392232E+04  0.50400001928E-02 0.  1.
       -1   -1    0    0    0  501  0.00000000000E+00  0.00000000000E+00 -0.16418431438E+04  0.16418431438E+04  0.50400001928E-02 0. -1.
    10030    2    1    2    0    0  0.00000000000E+00  0.00000000000E+00  0.44029607942E+03  0.37239823670E+04  0.36978620894E+04 0.  0.
        4    1    3    3  502    0  0.17463864934E+04  0.59971483000E+03  0.31579646671E+03  0.18732999447E+04  0.12699999809E+01 0.  1.
       -4    1    3    3    0  502 -0.17463864934E+04 -0.59971483000E+03  0.12449961272E+03  0.18506824223E+04  0.12699999809E+01 0. -1.
</event>
<event>
 5   0  0.2282000E-08  0.3685016E+04  0.7818609E-02  0.8071291E-01
        1   -1    0    0  501    0  0.00000000000E+00  0.00000000000E+00  0.31056176767E+04  0.31056176767E+04  0.50400001928E-02 0.  1.
       -1   -1    0    0    0  501  0.00000000000E+00  0.00000000000E+00 -0.10931275668E+04  0.10931275668E+04  0.50400001928E-02 0. -1.
    10030    2    1    2    0    0  0.00000000000E+00  0.00000000000E+00  0.20124901099E+04  0.41987452435E+04  0.36850163063E+04 0.  0.
        3    1    3    3  502    0 -0.77983594854E+03  0.14928695357E+04  0.15508752458E+03  0.16914064289E+04  0.10100000352E+00 0.  1.
       -3    1    3    3    0  502  0.77983594854E+03 -0.14928695357E+04  0.18574025853E+04  0.25073388147E+04  0.10100000352E+00 0. -1.
</event>
<event>
 5   0  0.7362817E-08  0.3699564E+04  0.7818609E-02  0.8068058E-01
       -2   -1    0    0    0  501  0.00000000000E+00  0.00000000000E+00  0.23174046018E+04  0.23174046018E+04  0.25500000920E-02 0. -1.
        2   -1    0    0  501    0  0.00000000000E+00  0.00000000000E+00 -0.14765196908E+04  0.14765196908E+04  0.25500000920E-02 0.  1.
    10030    2    1    2    0    0  0.00000000000E+00  0.00000000000E+00  0.84088491103E+03  0.37939242925E+04  0.36995640424E+04 0.  0.
        1    1    3    3  502    0  0.74301652210E+03  0.10321484940E+04 -0.95705630492E+03  0.15916534914E+04  0.50400001928E-02 0.  1.
       -1    1    3    3    0  502 -0.74301652210E+03 -0.10321484940E+04  0.17979412160E+04  0.22022708012E+04  0.50400001928E-02 0. -1.
</event>
<event>
 5   0  0.7191801E-08  0.3683299E+04  0.7818609E-02  0.8071673E-01
       -2   -1    0    0    0  501  0.00000000000E+00  0.00000000000E+00  0.99215438590E+03  0.99215438590E+03  0.25500000920E-02 0.  1.
        2   -1    0    0  501    0  0.00000000000E+00  0.00000000000E+00 -0.34184935364E+04  0.34184935364E+04  0.25500000920E-02 0. -1.
    10030    2    1    2    0    0  0.00000000000E+00  0.00000000000E+00 -0.24263391505E+04  0.44106479223E+04  0.36832992576E+04 0.  0.
        5    1    3    3  502    0  0.77135389601E+03 -0.99357494145E+03 -0.28239690233E+04  0.30914399771E+04  0.46999998093E+01 0. -1.
       -5    1    3    3    0  502 -0.77135389601E+03  0.99357494145E+03  0.39762987277E+03  0.13192079453E+04  0.46999998093E+01 0.  1.
</event>
<event>
 5   0  0.2282000E-08  0.3697456E+04  0.7818609E-02  0.8068526E-01
        1   -1    0    0  501    0  0.00000000000E+00  0.00000000000E+00  0.22506052951E+04  0.22506052951E+04  0.50400001928E-02 0.  1.
       -1   -1    0    0    0  501  0.00000000000E+00  0.00000000000E+00 -0.15186118023E+04  0.15186118023E+04  0.50400001928E-02 0. -1.
    10030    2    1    2    0    0  0.00000000000E+00  0.00000000000E+00  0.73199349280E+03  0.37692170974E+04  0.36974562951E+04 0.  0.
        4    1    3    3  502    0  0.15726972235E+03  0.18295598399E+04  0.58409096093E+03  0.19269631125E+04  0.12699999809E+01 0. -1.
       -4    1    3    3    0  502 -0.15726972235E+03 -0.18295598399E+04  0.14790253187E+03  0.18422539850E+04  0.12699999809E+01 0.  1.
</event>
<event>
 5   0  0.7203049E-08  0.3705559E+04  0.7818609E-02  0.8066731E-01
        2   -1    0    0  501    0  0.00000000000E+00  0.00000000000E+00  0.21052880750E+04  0.21052880750E+04  0.25500000920E-02 0. -1.
       -2   -1    0    0    0  501  0.00000000000E+00  0.00000000000E+00 -0.16305569808E+04  0.16305569808E+04  0.25500000920E-02 0.  1.
    10030    2    1    2    0    0  0.00000000000E+00  0.00000000000E+00  0.47473109426E+03  0.37358450558E+04  0.37055591574E+04 0.  0.
        4    1    3    3  502    0  0.16290202459E+04  0.60055105667E+02  0.11251745793E+04  0.19807405241E+04  0.12699999809E+01 0. -1.
       -4    1    3    3    0  502 -0.16290202459E+04 -0.60055105667E+02 -0.65044348501E+03  0.17551045317E+04  0.12699999809E+01 0.  1.
</event>
<event>
 5   0  0.7309833E-08  0.3686038E+04  0.7818609E-02  0.8071063E-01
       -2   -1    0    0    0  501  0.00000000000E+00  0.00000000000E+00  0.16900538853E+04  0.16900538853E+04  0.25500000920E-02 0.  1.
        2   -1    0    0  501    0  0.00000000000E+00  0.00000000000E+00 -0.20098290252E+04  0.20098290252E+04  0.25500000920E-02 0. -1.
    10030    2    1    2    0    0  0.00000000000E+00  0.00000000000E+00 -0.31977513990E+03  0.36998829105E+04  0.36860381728E+04 0.  0.
        2    1    3    3  502    0 -0.15169970419E+04 -0.10415381861E+04 -0.56361758079E+02  0.18409938799E+04  0.25500000920E-02 0. -1.
       -2    1    3    3    0  502  0.15169970419E+04  0.10415381861E+04 -0.26341338182E+03  0.18588890306E+04  0.25500000920E-02 0.  1.
</event>
<event>
 5   0  0.2282000E-08  0.3704033E+04  0.7818609E-02  0.8067069E-01
        1   -1    0    0  501    0  0.00000000000E+00  0.00000000000E+00  0.21382833534E+04  0.21382833534E+04  0.50400001928E-02 0.  1.
       -1   -1    0    0    0  501  0.00000000000E+00  0.00000000000E+00 -0.16040741560E+04  0.16040741560E+04  0.50400001928E-02 0. -1.
    10030    2    1    2    0    0  0.00000000000E+00  0.00000000000E+00  0.53420919741E+03  0.37423575093E+04  0.37040329725E+04 0.  0.
        1    1    3    3  502    0  0.10193496809E+04 -0.15282909440E+04  0.50452120626E+03  0.19050691927E+04  0.50400001928E-02 0.  1.
       -1    1    3    3    0  502 -0.10193496809E+04  0.15282909440E+04  0.29687991158E+02  0.18372883166E+04  0.50400001928E-02 0. -1.
</event>
<event>
 5   0  0.7309833E-08  0.3696092E+04  0.7818609E-02  0.8068828E-01
        2   -1    0    0  501    0  0.00000000000E+00  0.00000000000E+00  0.19397897710E+04  0.19397897710E+04  0.25500000920E-02 0.  1.
       -2   -1    0    0    0  501  0.00000000000E+00  0.00000000000E+00 -0.17606417276E+04  0.17606417276E+04  0.25500000920E-02 0. -1.
    10030    2    1    2    0    0  0.00000000000E+00  0.00000000000E+00  0.17914804346E+03  0.37004314986E+04  0.36960924305E+04 0.  0.
        2    1    3    3  502    0 -0.92590784609E+02  0.78156390159E+03  0.17636194038E+04  0.19312608801E+04  0.25500000920E-02 0.  1.
       -2    1    3    3    0  502  0.92590784609E+02 -0.78156390159E+03 -0.15844713603E+04  0.17691706185E+04  0.25500000920E-02 0. -1.
</event>
<event>
 5   0  0.2282000E-08  0.3699326E+04  0.7818609E-02  0.8068111E-01
        1   -1    0    0  501    0  0.00000000000E+00  0.00000000000E+00  0.25189698611E+04  0.25189698611E+04  0.50400001928E-02 0. -1.
       -1   -1    0    0    0  501  0.00000000000E+00  0.00000000000E+00 -0.13581957367E+04  0.13581957367E+04  0.50400001928E-02 0.  1.
    10030    2    1    2    0    0  0.00000000000E+00  0.00000000000E+00  0.11607741244E+04  0.38771655979E+04  0.36993264935E+04 0.  0.
        2    1    3    3  502    0 -0.24143827187E+02  0.14242443719E+04 -0.65625032745E+03  0.15683492748E+04  0.25500000920E-02 0.  1.
       -2    1    3    3    0  502  0.24143827187E+02 -0.14242443719E+04  0.18170244518E+04  0.23088163231E+04  0.25500000920E-02 0. -1.
</event>
<event>
 5   0  0.2282000E-08  0.3684015E+04  0.7818609E-02  0.8071514E-01
        1   -1    0    0  501    0  0.00000000000E+00  0.00000000000E+00  0.19656241092E+04  0.19656241092E+04  0.50400001928E-02 0.  1.
       -1   -1    0    0    0  501  0.00000000000E+00  0.00000000000E+00 -0.17261646591E+04  0.17261646591E+04  0.50400001928E-02 0. -1.
    10030    2    1    2    0    0  0.00000000000E+00  0.00000000000E+00  0.23945945014E+03  0.36917887683E+04  0.36840145876E+04 0.  0.
        1    1    3    3  502    0 -0.76196431422E+03 -0.10298746302E+04 -0.12066037894E+04  0.17598647888E+04  0.50400001928E-02 0. -1.
       -1    1    3    3    0  502  0.76196431422E+03  0.10298746302E+04  0.14460632395E+04  0.19319239796E+04  0.50400001928E-02 0.  1.
</event>
<event>
 5   0  0.7362817E-08  0.3697977E+04  0.7818609E-02  0.8068410E-01
       -2   -1    0    0    0  501  0.00000000000E+00  0.00000000000E+00  0.12951356013E+04  0.12951356013E+04  0.25500000920E-02 0.  1.
        2   -1    0    0  501    0  0.00000000000E+00  0.00000000000E+00 -0.26396918431E+04  0.26396918431E+04  0.25500000920E-02 0. -1.
    10030    2    1    2    0    0  0.00000000000E+00  0.00000000000E+00 -0.13445562417E+04  0.39348274444E+04  0.36979772214E+04 0.  0.
        1    1    3    3  502    0  0.95770086823E+03  0.92123410808E+03  0.69571583376E+03  0.14999612516E+04  0.50400001928E-02 0.  1.
       -1    1    3    3    0  502 -0.95770086823E+03 -0.92123410808E+03 -0.20402720755E+04  0.24348661928E+04  0.50400001928E-02 0. -1.
</event>
<event>
 5   0  0.7309833E-08  0.3691793E+04  0.7818609E-02  0.8069783E-01
        2   -1    0    0  501    0  0.00000000000E+00  0.00000000000E+00  0.16025177084E+04  0.16025177084E+04  0.25500000920E-02 0.  1.
       -2   -1    0    0    0  501  0.00000000000E+00  0.00000000000E+00 -0.21262381523E+04  0.21262381523E+04  0.25500000920E-02 0. -1.
    10030    2    1    2    0    0  0.00000000000E+00  0.00000000000E+00 -0.52372044390E+03  0.37287558607E+04  0.36917932182E+04 0.  0.
        2    1    3    3  502    0  0.11028315118E+04  0.39577736053E+02 -0.17563814427E+04  0.20742901226E+04  0.25500000920E-02 0. -1.
       -2    1    3    3    0  502 -0.11028315118E+04 -0.39577736053E+02  0.12326609988E+04  0.16544657381E+04  0.25500000920E-02 0.  1.
</event>
<event>
 5   0  0.2282000E-08  0.3700583E+04  0.7818609E-02  0.8067833E-01
        1   -1    0    0  501    0  0.00000000000E+00  0.00000000000E+00  0.28708423196E+04  0.28708423197E+04  0.50400001928E-02 0. -1.
       -1   -1    0    0    0  501  0.00000000000E+00  0.00000000000E+00 -0.11925348535E+04  0.11925348535E+04  0.50400001928E-02 0.  1.
    10030    2    1    2    0    0  0.00000000000E+00  0.00000000000E+00  0.16783074662E+04  0.40633771731E+04  0.37005834810E+04 0.  0.
        1    1    3    3  502    0  0.34140363998E+03 -0.18180051485E+04  0.88676803141E+03  0.20513548467E+04  0.50400001928E-02 0. -1.
       -1    1    3    3    0  502 -0.34140363998E+03  0.18180051485E+04  0.79153943477E+03  0.20120223265E+04  0.50400001928E-02 0.  1.
</event>
<event>
 5   0  0.2282000E-08  0.3702787E+04  0.7818609E-02  0.8067344E-01
       -1   -1    0    0    0  501  0.00000000000E+00  0.00000000000E+00  0.15766022582E+04  0.15766022582E+04  0.50400001928E-02 0. -1.
        1   -1    0    0  501    0  0.00000000000E+00  0.00000000000E+00 -0.21740792843E+04  0.21740792843E+04  0.50400001928E-02 0.  1.
    10030    2    1    2    0    0  0.00000000000E+00  0.00000000000E+00 -0.59747702606E+03  0.37506815425E+04  0.37027872254E+04 0.  0.
        2    1    3    3  502    0  0.14965388162E+02  0.93641500609E+03  0.13189664427E+04  0.16176431941E+04  0.25500000920E-02 0. -1.
       -2    1    3    3    0  502 -0.14965388162E+02 -0.93641500609E+03 -0.19164434688E+04  0.21330383484E+04  0.25500000920E-02 0.  1.
</event>
<event>
 5   0  0.7362817E-08  0.3692425E+04  0.7818609E-02  0.8069643E-01
        2   -1    0    0  501    0  0.00000000000E+00  0.00000000000E+00  0.35385036806E+04  0.35385036806E+04  0.25500000920E-02 0. -1.
       -2   -1    0    0    0  501  0.00000000000E+00  0.00000000000E+00 -0.96326038292E+03  0.96326038292E+03  0.25500000920E-02 0.  1.
    10030    2    1    2    0    0  0.00000000000E+00  0.00000000000E+00  0.25752432976E+04  0.45017640635E+04  0.36924248999E+04 0.  0.
        1    1    3    3  502    0 -0.15993407403E+04  0.25950923092E+03  0.20861207302E+03  0.16336324072E+04  0.50400001928E-02 0.  1.
       -1    1    3    3    0  502  0.15993407403E+04 -0.25950923092E+03  0.23666312246E+04  0.28681316563E+04  0.50400001928E-02 0. -1.
</event>
<event>
 5   0  0.2282000E-08  0.3688676E+04  0.7818609E-02  0.8070476E-01
       -1   -1    0    0    0  501  0.00000000000E+00  0.00000000000E+00  0.15303624412E+04  0.15303624412E+04  0.50400001928E-02 0. -1.
        1   -1    0    0  501    0  0.00000000000E+00  0.00000000000E+00 -0.22227300696E+04  0.22227300696E+04  0.50400001928E-02 0.  1.
    10030    2    1    2    0    0  0.00000000000E+00  0.00000000000E+00 -0.69236762832E+03  0.37530925108E+04  0.36886759768E+04 0.  0.
        2    1    3    3  502    0 -0.14778258905E+04 -0.26565923313E+03  0.74351817973E+03  0.16755188672E+04  0.25500000920E-02 0. -1.
       -2    1    3    3    0  502  0.14778258905E+04  0.26565923313E+03 -0.14358858080E+04  0.20775736436E+04  0.25500000920E-02 0.  1.
</event>
<event>
 5   0  0.2282000E-08  0.3649688E+04  0.7818609E-02  0.8079204E-01
       -1   -1    0    0    0  501  0.00000000000E+00  0.00000000000E+00  0.15320724010E+04  0.15320724010E+04  0.50400001928E-02 0. -1.
        1   -1    0    0  501    0  0.00000000000E+00  0.00000000000E+00 -0.21735625564E+04  0.21735625564E+04  0.50400001928E-02 0.  1.
    10030    2    1    2    0    0  0.00000000000E+00  0.00000000000E+00 -0.64149015544E+03  0.37056349575E+04  0.36496877700E+04 0.  0.
        3    1    3    3  502    0 -0.13301667509E+04  0.22481883411E+03 -0.15684720653E+04  0.20688140862E+04  0.10100000352E+00 0. -1.
       -3    1    3    3    0  502  0.13301667509E+04 -0.22481883411E+03  0.92698190986E+03  0.16368208713E+04  0.10100000352E+00 0.  1.
</event>
<event>
 5   0  0.7203049E-08  0.3705996E+04  0.7818609E-02  0.8066634E-01
        2   -1    0    0  501    0  0.00000000000E+00  0.00000000000E+00  0.21925990902E+04  0.21925990902E+04  0.25500000920E-02 0. -1.
       -2   -1    0    0    0  501  0.00000000000E+00  0.00000000000E+00 -0.15659963991E+04  0.15659963991E+04  0.25500000920E-02 0.  1.
    10030    2    1    2    0    0  0.00000000000E+00  0.00000000000E+00  0.62660269112E+03  0.37585954893E+04  0.37059963734E+04 0.  0.
        4    1    3    3  502    0 -0.10368730615E+04  0.74487382685E+03 -0.10487631824E+04  0.16522253446E+04  0.12699999809E+01 0.  1.
       -4    1    3    3    0  502  0.10368730615E+04 -0.74487382685E+03  0.16753658735E+04  0.21063701447E+04  0.12699999809E+01 0. -1.
</event>
<event>
 5   0  0.7203049E-08  0.3694319E+04  0.7818609E-02  0.8069222E-01
        2   -1    0    0  501    0  0.00000000000E+00  0.00000000000E+00  0.26950014293E+04  0.26950014293E+04  0.25500000920E-02 0. -1.
       -2   -1    0    0    0  501  0.00000000000E+00  0.00000000000E+00 -0.12660467966E+04  0.12660467966E+04  0.25500000920E-02 0.  1.
    10030    2    1    2    0    0  0.00000000000E+00  0.00000000000E+00  0.14289546327E+04  0.39610482259E+04  0.36943188419E+04 0.  0.
        4    1    3    3  502    0 -0.17621764751E+04 -0.36396209149E+03  0.26689071514E+03  0.18190565137E+04  0.12699999809E+01 0.  1.
       -4    1    3    3    0  502  0.17621764751E+04  0.36396209149E+03  0.11620639175E+04  0.21419917121E+04  0.12699999809E+01 0. -1.
</event>
<event>
 5   0  0.7203049E-08  0.3704475E+04  0.7818609E-02  0.8066971E-01
       -2   -1    0    0    0  501  0.00000000000E+00  0.00000000000E+00  0.14187712705E+04  0.14187712705E+04  0.25500000920E-02 0.  1.
        2   -1    0    0  501    0  0.00000000000E+00  0.00000000000E+00 -0.24181371992E+04  0.24181371992E+04  0.25500000920E-02 0. -1.
    10030    2    1    2    0    0  0.00000000000E+00  0.00000000000E+00 -0.99936592872E+03  0.38369084697E+04  0.37044749082E+04 0.  0.
        4    1    3    3  502    0  0.10657037090E+04  0.27934304529E+03  0.10425148414E+04  0.15167714857E+04  0.12699999809E+01 0.  1.
       -4    1    3    3    0  502 -0.10657037090E+04 -0.27934304529E+03 -0.20418807701E+04  0.23201369840E+04  0.12699999809E+01 0. -1.
</event>
<event>
 5   0  0.7254493E-08  0.3666798E+04  0.7818609E-02  0.8075360E-01
       -2   -1    0    0    0  501  0.00000000000E+00  0.00000000000E+00  0.19917552642E+04  0.19917552642E+04  0.25500000920E-02 0. -1.
        2   -1    0    0  501    0  0.00000000000E+00  0.00000000000E+00 -0.16876329084E+04  0.16876329084E+04  0.25500000920E-02 0.  1.
    10030    2    1    2    0    0  0.00000000000E+00  0.00000000000E+00  0.30412235583E+03  0.36793881726E+04  0.36667979106E+04 0.  0.
        3    1    3    3  502    0  0.97363283686E+02 -0.18034210121E+04  0.46865165066E+03  0.18658620892E+04  0.10100000352E+00 0. -1.
       -3    1    3    3    0  502 -0.97363283686E+02  0.18034210121E+04 -0.16452929482E+03  0.18135260834E+04  0.10100000352E+00 0.  1.
</event>
<event>
 5   0  0.2282000E-08  0.3698770E+04  0.7818609E-02  0.8068234E-01
       -1   -1    0    0    0  501  0.00000000000E+00  0.00000000000E+00  0.16934577230E+04  0.16934577231E+04  0.50400001928E-02 0. -1.
        1   -1    0    0  501    0  0.00000000000E+00  0.00000000000E+00 -0.20196694800E+04  0.20196694800E+04  0.50400001928E-02 0.  1.
    10030    2    1    2    0    0  0.00000000000E+00  0.00000000000E+00 -0.32621175694E+03  0.37131272030E+04  0.36987700004E+04 0.  0.
        1    1    3    3  502    0  0.15372068930E+04  0.48351288935E+03 -0.10740614518E+04  0.19365943685E+04  0.50400001928E-02 0.  1.
       -1    1    3    3    0  502 -0.15372068930E+04 -0.48351288935E+03  0.74784969487E+03  0.17765328345E+04  0.50400001928E-02 0. -1.
</event>
<event>
 5   0  0.7309833E-08  0.3695612E+04  0.7818609E-02  0.8068935E-01
        2   -1    0    0  501    0  0.00000000000E+00  0.00000000000E+00  0.19442491336E+04  0.19442491336E+04  0.25500000920E-02 0. -1.
       -2   -1    0    0    0  501  0.00000000000E+00  0.00000000000E+00 -0.17561466777E+04  0.17561466777E+04  0.25500000920E-02 0.  1.
    10030    2    1    2    0    0  0.00000000000E+00  0.00000000000E+00  0.18810245588E+03  0.37003958113E+04  0.36956118067E+04 0.  0.
        2    1    3    3  502    0 -0.72653277813E+03  0.12331112627E+04 -0.10762103721E+04  0.17907099232E+04  0.25500000920E-02 0.  1.
       -2    1    3    3    0  502  0.72653277813E+03 -0.12331112627E+04  0.12643128280E+04  0.19096858881E+04  0.25500000920E-02 0. -1.
</event>
<event>
 5   0  0.7362817E-08  0.3673065E+04  0.7818609E-02  0.8073957E-01
        2   -1    0    0  501    0  0.00000000000E+00  0.00000000000E+00  0.11405440737E+04  0.11405440737E+04  0.25500000920E-02 0.  1.
       -2   -1    0    0    0  501  0.00000000000E+00  0.00000000000E+00 -0.29572306682E+04  0.29572306682E+04  0.25500000920E-02 0. -1.
    10030    2    1    2    0    0  0.00000000000E+00  0.00000000000E+00 -0.18166865945E+04  0.40977747419E+04  0.36730651577E+04 0.  0.
        1    1    3    3  502    0 -0.32069427661E+03 -0.95590774584E+03  0.80415402002E+03  0.12896775277E+04  0.50400001928E-02 0.  1.
       -1    1    3    3    0  502  0.32069427661E+03  0.95590774584E+03 -0.26208406145E+04  0.28080972142E+04  0.50400001928E-02 0. -1.
</event>
<event>
 5   0  0.2282000E-08  0.3703534E+04  0.7818609E-02  0.8067179E-01
       -1   -1    0    0    0  501  0.00000000000E+00  0.00000000000E+00  0.16812272938E+04  0.16812272938E+04  0.50400001928E-02 0.  1.
        1   -1    0    0  501    0  0.00000000000E+00  0.00000000000E+00 -0.20396060340E+04  0.20396060340E+04  0.50400001928E-02 0. -1.
    10030    2    1    2    0    0  0.00000000000E+00  0.00000000000E+00 -0.35837874020E+03  0.37208333278E+04  0.37035341677E+04 0.  0.
        2    1    3    3  502    0 -0.42867566430E+03 -0.15073574731E+04  0.81190313245E+03  0.17649578107E+04  0.25500000920E-02 0.  1.
       -2    1    3    3    0  502  0.42867566430E+03  0.15073574731E+04 -0.11702818726E+04  0.19558755171E+04  0.25500000920E-02 0. -1.
</event>
<event>
 5   0  0.2282000E-08  0.3695351E+04  0.7818609E-02  0.8068993E-01
       -1   -1    0    0    0  501  0.00000000000E+00  0.00000000000E+00  0.14373406878E+04  0.14373406878E+04  0.50400001928E-02 0. -1.
        1   -1    0    0  501    0  0.00000000000E+00  0.00000000000E+00 -0.23751532924E+04  0.23751532924E+04  0.50400001928E-02 0.  1.
    10030    2    1    2    0    0  0.00000000000E+00  0.00000000000E+00 -0.93781260461E+03  0.38124939802E+04  0.36953508450E+04 0.  0.
        2    1    3    3  502    0 -0.92321155447E+03  0.15609968723E+04 -0.10432960618E+03  0.18165669479E+04  0.25500000920E-02 0.  1.
       -2    1    3    3    0  502  0.92321155447E+03 -0.15609968723E+04 -0.83348299843E+03  0.19959270323E+04  0.25500000920E-02 0. -1.
</event>
<event>
 5   0  0.7362817E-08  0.3703731E+04  0.7818609E-02  0.8067136E-01
        2   -1    0    0  501    0  0.00000000000E+00  0.00000000000E+00  0.14075044553E+04  0.14075044553E+04  0.25500000920E-02 0. -1.
       -2   -1    0    0    0  501  0.00000000000E+00  0.00000000000E+00 -0.24365146351E+04  0.24365146351E+04  0.25500000920E-02 0.  1.
    10030    2    1    2    0    0  0.00000000000E+00  0.00000000000E+00 -0.10290101798E+04  0.38440190903E+04  0.37037306620E+04 0.  0.
        1    1    3    3  502    0 -0.42400305767E+03 -0.31182102614E+03  0.13282448378E+04  0.14287215594E+04  0.50400001928E-02 0. -1.
       -1    1    3    3    0  502  0.42400305767E+03  0.31182102614E+03 -0.23572550175E+04  0.24152975309E+04  0.50400001928E-02 0.  1.
</event>
<event>
 5   0  0.7203049E-08  0.3697572E+04  0.7818609E-02  0.8068500E-01
       -2   -1    0    0    0  501  0.00000000000E+00  0.00000000000E+00  0.15796804763E+04  0.15796804763E+04  0.25500000920E-02 0. -1.
        2   -1    0    0  501    0  0.00000000000E+00  0.00000000000E+00 -0.21637345856E+04  0.21637345856E+04  0.25500000920E-02 0.  1.
    10030    2    1    2    0    0  0.00000000000E+00  0.00000000000E+00 -0.58405410929E+03  0.37434150620E+04  0.36975717875E+04 0.  0.
        4    1    3    3  502    0  0.61220743470E+03 -0.14071015648E+04  0.75190961312E+03  0.17088307218E+04  0.12699999809E+01 0. -1.
       -4    1    3    3    0  502 -0.61220743470E+03  0.14071015648E+04 -0.13359637224E+04  0.20345843401E+04  0.12699999809E+01 0.  1.
</event>
<event>
 5   0  0.7203049E-08  0.3711196E+04  0.7818609E-02  0.8065485E-01
       -2   -1    0    0    0  501  0.00000000000E+00  0.00000000000E+00  0.17403151236E+04  0.17403151236E+04  0.25500000920E-02 0.  1.
        2   -1    0    0  501    0  0.00000000000E+00  0.00000000000E+00 -0.19785175240E+04  0.19785175240E+04  0.25500000920E-02 0. -1.
    10030    2    1    2    0    0  0.00000000000E+00  0.00000000000E+00 -0.23820240042E+03  0.37188326477E+04  0.37111960172E+04 0.  0.
        4    1    3    3  502    0 -0.81247055613E+03  0.13742969664E+04  0.82859422695E+03  0.17987135854E+04  0.12699999809E+01 0.  1.
       -4    1    3    3    0  502  0.81247055613E+03 -0.13742969664E+04 -0.10667966274E+04  0.19201190623E+04  0.12699999809E+01 0. -1.
</event>
<event>
 5   0  0.2282000E-08  0.3690075E+04  0.7818609E-02  0.8070165E-01
       -1   -1    0    0    0  501  0.00000000000E+00  0.00000000000E+00  0.27568501543E+04  0.27568501543E+04  0.50400001928E-02 0. -1.
        1   -1    0    0  501    0  0.00000000000E+00  0.00000000000E+00 -0.12348015657E+04  0.12348015657E+04  0.50400001928E-02 0.  1.
    10030    2    1    2    0    0  0.00000000000E+00  0.00000000000E+00  0.15220485886E+04  0.39916517201E+04  0.36900747347E+04 0.  0.
        3    1    3    3  502    0  0.87796019990E+03  0.65306854279E+03 -0.84593142847E+03  0.13830808458E+04  0.10100000352E+00 0.  1.
       -3    1    3    3    0  502 -0.87796019990E+03 -0.65306854279E+03  0.23679800171E+04  0.26085708742E+04  0.10100000352E+00 0. -1.
</event>
<event>
 5   0  0.2282000E-08  0.3696856E+04  0.7818609E-02  0.8068659E-01
        1   -1    0    0  501    0  0.00000000000E+00  0.00000000000E+00  0.17123699808E+04  0.17123699808E+04  0.50400001928E-02 0. -1.
       -1   -1    0    0    0  501  0.00000000000E+00  0.00000000000E+00 -0.19952970983E+04  0.19952970983E+04  0.50400001928E-02 0.  1.
    10030    2    1    2    0    0  0.00000000000E+00  0.00000000000E+00 -0.28292711747E+03  0.37076670791E+04  0.36968564235E+04 0.  0.
        5    1    3    3  502    0 -0.16097352446E+03 -0.61966323277E+03 -0.18805382472E+04  0.19865400038E+04  0.46999998093E+01 0.  1.
       -5    1    3    3    0  502  0.16097352446E+03  0.61966323277E+03  0.15976111297E+04  0.17211270753E+04  0.46999998093E+01 0. -1.
</event>
<event>
 5   0  0.7309833E-08  0.3697563E+04  0.7818609E-02  0.8068502E-01
        2   -1    0    0  501    0  0.00000000000E+00  0.00000000000E+00  0.18808047044E+04  0.18808047044E+04  0.25500000920E-02 0. -1.
       -2   -1    0    0    0  501  0.00000000000E+00  0.00000000000E+00 -0.18173039151E+04  0.18173039151E+04  0.25500000920E-02 0.  1.
    10030    2    1    2    0    0  0.00000000000E+00  0.00000000000E+00  0.63500789320E+02  0.36981086196E+04  0.36975633885E+04 0.  0.
        2    1    3    3  502    0  0.12615006744E+04 -0.29216084405E+03 -0.12880092045E+04  0.18263925156E+04  0.25500000920E-02 0.  1.
       -2    1    3    3    0  502 -0.12615006744E+04  0.29216084405E+03  0.13515099938E+04  0.18717161039E+04  0.25500000920E-02 0. -1.
</event>
<event>
 5   0  0.2282000E-08  0.3699469E+04  0.7818609E-02  0.8068080E-01
        1   -1    0    0  501    0  0.00000000000E+00  0.00000000000E+00  0.18105662821E+04  0.18105662821E+04  0.50400001928E-02 0.  1.
       -1   -1    0    0    0  501  0.00000000000E+00  0.00000000000E+00 -0.18897496154E+04  0.18897496154E+04  0.50400001928E-02 0. -1.
    10030    2    1    2    0    0  0.00000000000E+00  0.00000000000E+00 -0.79183333329E+02  0.37003158975E+04  0.36994685755E+04 0.  0.
        2    1    3    3  502    0 -0.13820082735E+04  0.58403983386E+03  0.10425376076E+04  0.18270013844E+04  0.25500000920E-02 0.  1.
       -2    1    3    3    0  502  0.13820082735E+04 -0.58403983386E+03 -0.11217209409E+04  0.18733145130E+04  0.25500000920E-02 0. -1.
</event>
<event>
 5   0  0.2282000E-08  0.3714006E+04  0.7818609E-02  0.8064865E-01
       -1   -1    0    0    0  501  0.00000000000E+00  0.00000000000E+00  0.15672172044E+04  0.15672172044E+04  0.50400001928E-02 0.  1.
        1   -1    0    0  501    0  0.00000000000E+00  0.00000000000E+00 -0.22003716222E+04  0.22003716222E+04  0.50400001928E-02 0. -1.
    10030    2    1    2    0    0  0.00000000000E+00  0.00000000000E+00 -0.63315441777E+03  0.37675888266E+04  0.37140060648E+04 0.  0.
        2    1    3    3  502    0 -0.16427785777E+04  0.12521141130E+03  0.55255719289E+03  0.17377338129E+04  0.25500000920E-02 0.  1.
       -2    1    3    3    0  502  0.16427785777E+04 -0.12521141130E+03 -0.11857116107E+04  0.20298550137E+04  0.25500000920E-02 0. -1.
</event>
<event>
 5   0  0.2282000E-08  0.3699516E+04  0.7818609E-02  0.8068069E-01
        1   -1    0    0  501    0  0.00000000000E+00  0.00000000000E+00  0.16034497176E+04  0.16034497176E+04  0.50400001928E-02 0. -1.
       -1   -1    0    0    0  501  0.00000000000E+00  0.00000000000E+00 -0.21339019866E+04  0.21339019866E+04  0.50400001928E-02 0.  1.
    10030    2    1    2    0    0  0.00000000000E+00  0.00000000000E+00 -0.53045226898E+03  0.37373517042E+04  0.36995159347E+04 0.  0.
        1    1    3    3  502    0 -0.13853730961E+04  0.26911007127E+03  0.94279853014E+03  0.16972176980E+04  0.50400001928E-02 0.  1.
       -1    1    3    3    0  502  0.13853730961E+04 -0.26911007127E+03 -0.14732507991E+04  0.20401340062E+04  0.50400001928E-02 0. -1.
</event>
<event>
 5   0  0.7309833E-08  0.3698140E+04  0.7818609E-02  0.8068374E-01
       -2   -1    0    0    0  501  0.00000000000E+00  0.00000000000E+00  0.24755673784E+04  0.24755673784E+04  0.25500000920E-02 0. -1.
        2   -1    0    0  501    0  0.00000000000E+00  0.00000000000E+00 -0.13811213434E+04  0.13811213434E+04  0.25500000920E-02 0.  1.
    10030    2    1    2    0    0  0.00000000000E+00  0.00000000000E+00  0.10944460350E+04  0.38566887218E+04  0.36981395016E+04 0.  0.
        2    1    3    3  502    0  0.86437065791E+03 -0.94491575676E+03 -0.84377391169E+03  0.15336090883E+04  0.25500000920E-02 0.  1.
       -2    1    3    3    0  502 -0.86437065791E+03  0.94491575676E+03  0.19382199467E+04  0.23230796335E+04  0.25500000920E-02 0. -1.
</event>
<event>
 5   0  0.7203049E-08  0.3703288E+04  0.7818609E-02  0.8067233E-01
       -2   -1    0    0    0  501  0.00000000000E+00  0.00000000000E+00  0.10211044589E+04  0.10211044589E+04  0.25500000920E-02 0.  1.
        2   -1    0    0  501    0  0.00000000000E+00  0.00000000000E+00 -0.33577230630E+04  0.33577230630E+04  0.25500000920E-02 0. -1.
    10030    2    1    2    0    0  0.00000000000E+00  0.00000000000E+00 -0.23366186041E+04  0.43788275219E+04  0.37032882639E+04 0.  0.
        4    1    3    3  502    0 -0.11781423289E+04  0.99677657160E+03 -0.23781939657E+04  0.28350292824E+04  0.12699999809E+01 0. -1.
       -4    1    3    3    0  502  0.11781423289E+04 -0.99677657160E+03  0.41575361542E+02  0.15437982395E+04  0.12699999809E+01 0.  1.
</event>
<event>
 5   0  0.2282000E-08  0.3699367E+04  0.7818609E-02  0.8068102E-01
        1   -1    0    0  501    0  0.00000000000E+00  0.00000000000E+00  0.31710239479E+04  0.31710239479E+04  0.50400001928E-02 0.  1.
       -1   -1    0    0    0  501  0.00000000000E+00  0.00000000000E+00 -0.10789349709E+04  0.10789349709E+04  0.50400001928E-02 0. -1.
    10030    2    1    2    0    0  0.00000000000E+00  0.00000000000E+00  0.20920889770E+04  0.42499589188E+04  0.36993667734E+04 0.  0.
        3    1    3    3  502    0  0.74920387880E+03 -0.80630867031E+03  0.27538661636E+04  0.29656734448E+04  0.10100000352E+00 0.  1.
       -3    1    3    3    0  502 -0.74920387880E+03  0.80630867031E+03 -0.66177718667E+03  0.12842854740E+04  0.10100000352E+00 0. -1.
</event>
<event>
 5   0  0.7362817E-08  0.3690331E+04  0.7818609E-02  0.8070108E-01
        2   -1    0    0  501    0  0.00000000000E+00  0.00000000000E+00  0.23605370473E+04  0.23605370473E+04  0.25500000920E-02 0. -1.
       -2   -1    0    0    0  501  0.00000000000E+00  0.00000000000E+00 -0.14423141636E+04  0.14423141636E+04  0.25500000920E-02 0.  1.
    10030    2    1    2    0    0  0.00000000000E+00  0.00000000000E+00  0.91822288371E+03  0.38028512110E+04  0.36903311597E+04 0.  0.
        1    1    3    3  502    0 -0.29669690978E+03 -0.17324731195E+04 -0.11938196319E+03  0.17617446521E+04  0.50400001928E-02 0.  1.
       -1    1    3    3    0  502  0.29669690978E+03  0.17324731195E+04  0.10376048469E+04  0.20411065588E+04  0.50400001928E-02 0. -1.
</event>
<event>
 5   0  0.2282000E-08  0.3710615E+04  0.7818609E-02  0.8065613E-01
       -1   -1    0    0    0  501  0.00000000000E+00  0.00000000000E+00  0.28341796755E+04  0.28341796756E+04  0.50400001928E-02 0.  1.
        1   -1    0    0  501    0  0.00000000000E+00  0.00000000000E+00 -0.12145194191E+04  0.12145194191E+04  0.50400001928E-02 0. -1.
    10030    2    1    2    0    0  0.00000000000E+00  0.00000000000E+00  0.16196602564E+04  0.40486990947E+04  0.37106151798E+04 0.  0.
        2    1    3    3  502    0 -0.11097403949E+04 -0.11677959724E+04 -0.19428702821E+03  0.16226578896E+04  0.25500000920E-02 0. -1.
       -2    1    3    3    0  502  0.11097403949E+04  0.11677959724E+04  0.18139472847E+04  0.24260412051E+04  0.25500000920E-02 0.  1.
</event>
<event>
 5   0  0.2282000E-08  0.3696171E+04  0.7818609E-02  0.8068811E-01
       -1   -1    0    0    0  501  0.00000000000E+00  0.00000000000E+00  0.17637013920E+04  0.17637013920E+04  0.50400001928E-02 0.  1.
        1   -1    0    0  501    0  0.00000000000E+00  0.00000000000E+00 -0.19365071307E+04  0.19365071307E+04  0.50400001928E-02 0. -1.
    10030    2    1    2    0    0  0.00000000000E+00  0.00000000000E+00 -0.17280573874E+03  0.37002085228E+04  0.36961711660E+04 0.  0.
        1    1    3    3  502    0  0.12523072431E+04  0.44689020064E+03 -0.13713297233E+04  0.19101124293E+04  0.50400001928E-02 0. -1.
       -1    1    3    3    0  502 -0.12523072431E+04 -0.44689020064E+03  0.11985239845E+04  0.17900960935E+04  0.50400001928E-02 0.  1.
</event>
<event>
 5   0  0.2282000E-08  0.3702567E+04  0.7818609E-02  0.8067393E-01
        1   -1    0    0  501    0  0.00000000000E+00  0.00000000000E+00  0.18136365706E+04  0.18136365706E+04  0.50400001928E-02 0.  1.
       -1   -1    0    0    0  501  0.00000000000E+00  0.00000000000E+00 -0.18897114030E+04  0.18897114030E+04  0.50400001928E-02 0. -1.
    10030    2    1    2    0    0  0.00000000000E+00  0.00000000000E+00 -0.76074832341E+02  0.37033479736E+04  0.37025665198E+04 0.  0.
        3    1    3    3  502    0  0.90496448523E+03  0.15951565740E+04  0.21453218223E+03  0.18464856572E+04  0.10100000352E+00 0. -1.
       -3    1    3    3    0  502 -0.90496448523E+03 -0.15951565740E+04 -0.29060701457E+03  0.18568623164E+04  0.10100000352E+00 0.  1.
</event>
<event>
 5   0  0.2282000E-08  0.3686224E+04  0.7818609E-02  0.8071022E-01
        1   -1    0    0  501    0  0.00000000000E+00  0.00000000000E+00  0.20882526324E+04  0.20882526324E+04  0.50400001928E-02 0. -1.
       -1   -1    0    0    0  501  0.00000000000E+00  0.00000000000E+00 -0.16267480752E+04  0.16267480752E+04  0.50400001928E-02 0.  1.
    10030    2    1    2    0    0  0.00000000000E+00  0.00000000000E+00  0.46150455716E+03  0.37150007076E+04  0.36862235149E+04 0.  0.
        1    1    3    3  502    0 -0.18796675681E+03 -0.18070461404E+04  0.54351951918E+03  0.18963545878E+04  0.50400001928E-02 0. -1.
       -1    1    3    3    0  502  0.18796675681E+03  0.18070461404E+04 -0.82014962022E+02  0.18186461198E+04  0.50400001928E-02 0.  1.
</event>
<event>
 5   0  0.2282000E-08  0.3686663E+04  0.7818609E-02  0.8070924E-01
       -1   -1    0    0    0  501  0.00000000000E+00  0.00000000000E+00  0.15474318633E+04  0.15474318633E+04  0.50400001928E-02 0.  1.
        1   -1    0    0  501    0  0.00000000000E+00  0.00000000000E+00 -0.21958126791E+04  0.21958126791E+04  0.50400001928E-02 0. -1.
    10030    2    1    2    0    0  0.00000000000E+00  0.00000000000E+00 -0.64838081580E+03  0.37432445425E+04  0.36866627215E+04 0.  0.
        1    1    3    3  502    0  0.14846258706E+04 -0.20287869970E+02  0.78497876093E+03  0.16794991004E+04  0.50400001928E-02 0.  1.
       -1    1    3    3    0  502 -0.14846258706E+04  0.20287869970E+02 -0.14333595767E+04  0.20637454420E+04  0.50400001928E-02 0. -1.
</event>
<event>
 5   0  0.2282000E-08  0.3689572E+04  0.7818609E-02  0.8070277E-01
       -1   -1    0    0    0  501  0.00000000000E+00  0.00000000000E+00  0.15438955943E+04  0.15438955943E+04  0.50400001928E-02 0. -1.
        1   -1    0    0  501    0  0.00000000000E+00  0.00000000000E+00 -0.22043172108E+04  0.22043172108E+04  0.50400001928E-02 0.  1.
    10030    2    1    2    0    0  0.00000000000E+00  0.00000000000E+00 -0.66042161655E+03  0.37482128051E+04  0.36895721324E+04 0.  0.
        2    1    3    3  502    0 -0.18422943850E+04 -0.22003028925E+02 -0.23543879091E+03  0.18574079139E+04  0.25500000920E-02 0.  1.
       -2    1    3    3    0  502  0.18422943850E+04  0.22003028925E+02 -0.42498282564E+03  0.18908048912E+04  0.25500000920E-02 0. -1.
</event>
<event>
 5   0  0.2282000E-08  0.3708628E+04  0.7818609E-02  0.8066052E-01
       -1   -1    0    0    0  501  0.00000000000E+00  0.00000000000E+00  0.30367491028E+04  0.30367491028E+04  0.50400001928E-02 0. -1.
        1   -1    0    0  501    0  0.00000000000E+00  0.00000000000E+00 -0.11322898782E+04  0.11322898782E+04  0.50400001928E-02 0.  1.
    10030    2    1    2    0    0  0.00000000000E+00  0.00000000000E+00  0.19044592246E+04  0.41690389810E+04  0.37086279251E+04 0.  0.
        1    1    3    3  502    0 -0.70047111253E+03 -0.65566101061E+03  0.27360225615E+04  0.28993741734E+04  0.50400001928E-02 0. -1.
       -1    1    3    3    0  502  0.70047111253E+03  0.65566101061E+03 -0.83156333692E+03  0.12696648076E+04  0.50400001928E-02 0.  1.
</event>
<event>
 5   0  0.7309833E-08  0.3698036E+04  0.7818609E-02  0.8068397E-01
        2   -1    0    0  501    0  0.00000000000E+00  0.00000000000E+00  0.16499259061E+04  0.16499259061E+04  0.25500000920E-02 0. -1.
       -2   -1    0    0    0  501  0.00000000000E+00  0.00000000000E+00 -0.20721342522E+04  0.20721342522E+04  0.25500000920E-02 0.  1.
    10030    2    1    2    0    0  0.00000000000E+00  0.00000000000E+00 -0.42220834610E+03  0.37220601583E+04  0.36980362268E+04 0.  0.
        2    1    3    3  502    0 -0.17713169621E+04 -0.52052554659E+03 -0.10867191775E+03  0.18494107739E+04  0.25500000920E-02 0.  1.
       -2    1    3    3    0  502  0.17713169621E+04  0.52052554659E+03 -0.31353642835E+03  0.18726493844E+04  0.25500000920E-02 0. -1.
</event>
<event>
 5   0  0.2282000E-08  0.3693856E+04  0.7818609E-02  0.8069325E-01
        1   -1    0    0  501    0  0.00000000000E+00  0.00000000000E+00  0.17633342893E+04  0.17633342893E+04  0.50400001928E-02 0.  1.
       -1   -1    0    0    0  501  0.00000000000E+00  0.00000000000E+00 -0.19344842313E+04  0.19344842313E+04  0.50400001928E-02 0. -1.
    10030    2    1    2    0    0  0.00000000000E+00  0.00000000000E+00 -0.17114994191E+03  0.36978185206E+04  0.36938556426E+04 0.  0.
        2    1    3    3  502    0  0.67962483278E+02  0.15456133997E+04  0.92427021362E+03  0.18021695559E+04  0.25500000920E-02 0.  1.
       -2    1    3    3    0  502 -0.67962483278E+02 -0.15456133997E+04 -0.10954201555E+04  0.18956489647E+04  0.25500000920E-02 0. -1.
</event>
<event>
 5   0  0.2282000E-08  0.3694453E+04  0.7818609E-02  0.8069192E-01
        1   -1    0    0  501    0  0.00000000000E+00  0.00000000000E+00  0.25160567474E+04  0.25160567474E+04  0.50400001928E-02 0.  1.
       -1   -1    0    0    0  501  0.00000000000E+00  0.00000000000E+00 -0.13561882476E+04  0.13561882476E+04  0.50400001928E-02 0. -1.
    10030    2    1    2    0    0  0.00000000000E+00  0.00000000000E+00  0.11598684998E+04  0.38722449950E+04  0.36944534595E+04 0.  0.
        5    1    3    3  502    0 -0.92509034932E+03  0.45631291413E+03  0.21860660257E+04  0.24172133520E+04  0.46999998093E+01 0.  1.
       -5    1    3    3    0  502  0.92509034932E+03 -0.45631291413E+03 -0.10261975259E+04  0.14550316430E+04  0.46999998093E+01 0. -1.
</event>
<event>
 5   0  0.7362817E-08  0.3704969E+04  0.7818609E-02  0.8066862E-01
        2   -1    0    0  501    0  0.00000000000E+00  0.00000000000E+00  0.24757526021E+04  0.24757526021E+04  0.25500000920E-02 0.  1.
       -2   -1    0    0    0  501  0.00000000000E+00  0.00000000000E+00 -0.13861234840E+04  0.13861234840E+04  0.25500000920E-02 0. -1.
    10030    2    1    2    0    0  0.00000000000E+00  0.00000000000E+00  0.10896291180E+04  0.38618760861E+04  0.37049689998E+04 0.  0.
        1    1    3    3  502    0  0.12525300856E+04  0.55841147967E+03 -0.75333817077E+03  0.15646639880E+04  0.50400001928E-02 0. -1.
       -1    1    3    3    0  502 -0.12525300856E+04 -0.55841147967E+03  0.18429672888E+04  0.22972120981E+04  0.50400001928E-02 0.  1.
</event>
<event>
 5   0  0.7362817E-08  0.3700329E+04  0.7818609E-02  0.8067889E-01
       -2   -1    0    0    0  501  0.00000000000E+00  0.00000000000E+00  0.13827840408E+04  0.13827840408E+04  0.25500000920E-02 0. -1.
        2   -1    0    0  501    0  0.00000000000E+00  0.00000000000E+00 -0.24755198226E+04  0.24755198226E+04  0.25500000920E-02 0.  1.
    10030    2    1    2    0    0  0.00000000000E+00  0.00000000000E+00 -0.10927357817E+04  0.38583038634E+04  0.37003293385E+04 0.  0.
        1    1    3    3  502    0 -0.10688891645E+04  0.73642591524E+03  0.82835031091E+03  0.15398088882E+04  0.50400001928E-02 0. -1.
       -1    1    3    3    0  502  0.10688891645E+04 -0.73642591524E+03 -0.19210860927E+04  0.23184949752E+04  0.50400001928E-02 0.  1.
</event>
<event>
 5   0  0.7309833E-08  0.3695867E+04  0.7818609E-02  0.8068878E-01
        2   -1    0    0  501    0  0.00000000000E+00  0.00000000000E+00  0.26428624814E+04  0.26428624814E+04  0.25500000920E-02 0. -1.
       -2   -1    0    0    0  501  0.00000000000E+00  0.00000000000E+00 -0.12921060947E+04  0.12921060947E+04  0.25500000920E-02 0.  1.
    10030    2    1    2    0    0  0.00000000000E+00  0.00000000000E+00  0.13507563867E+04  0.39349685761E+04  0.36958672702E+04 0.  0.
        2    1    3    3  502    0  0.55699026459E+03 -0.13070754376E+04 -0.58266262498E+03  0.15356367047E+04  0.25500000920E-02 0.  1.
       -2    1    3    3    0  502 -0.55699026459E+03  0.13070754376E+04  0.19334190116E+04  0.23993318714E+04  0.25500000920E-02 0. -1.
</event>
<event>
 5   0  0.7191801E-08  0.3699382E+04  0.7818609E-02  0.8068099E-01
        2   -1    0    0  501    0  0.00000000000E+00  0.00000000000E+00  0.21993015111E+04  0.21993015111E+04  0.25500000920E-02 0.  1.
       -2   -1    0    0    0  501  0.00000000000E+00  0.00000000000E+00 -0.15556563020E+04  0.15556563020E+04  0.25500000920E-02 0. -1.
    10030    2    1    2    0    0  0.00000000000E+00  0.00000000000E+00  0.64364520916E+03  0.37549578131E+04  0.36993822488E+04 0.  0.
        5    1    3    3  502    0  0.16593750059E+04 -0.78664776368E+03  0.54649616230E+03  0.19159906732E+04  0.46999998093E+01 0. -1.
       -5    1    3    3    0  502 -0.16593750059E+04  0.78664776368E+03  0.97149046862E+02  0.18389671399E+04  0.46999998093E+01 0.  1.
</event>
<event>
 5   0  0.2282000E-08  0.3705176E+04  0.7818609E-02  0.8066816E-01
       -1   -1    0    0    0  501  0.00000000000E+00  0.00000000000E+00  0.26216429369E+04  0.26216429369E+04  0.50400001928E-02 0. -1.
        1   -1    0    0  501    0  0.00000000000E+00  0.00000000000E+00 -0.13091344240E+04  0.13091344240E+04  0.50400001928E-02 0.  1.
    10030    2    1    2    0    0  0.00000000000E+00  0.00000000000E+00  0.13125085129E+04  0.39307773610E+04  0.37051763878E+04 0.  0.
        4    1    3    3  502    0  0.62775337698E+03  0.12535198035E+03 -0.11880726901E+04  0.13495576131E+04  0.12699999809E+01 0.  1.
       -4    1    3    3    0  502 -0.62775337698E+03 -0.12535198035E+03  0.25005812030E+04  0.25812197479E+04  0.12699999809E+01 0. -1.
</event>
<event>
 5   0  0.7362817E-08  0.3701857E+04  0.7818609E-02  0.8067550E-01
        2   -1    0    0  501    0  0.00000000000E+00  0.00000000000E+00  0.21020353610E+04  0.21020353610E+04  0.25500000920E-02 0.  1.
       -2   -1    0    0    0  501  0.00000000000E+00  0.00000000000E+00 -0.16298183501E+04  0.16298183501E+04  0.25500000920E-02 0. -1.
    10030    2    1    2    0    0  0.00000000000E+00  0.00000000000E+00  0.47221701097E+03  0.37318537111E+04  0.37018567255E+04 0.  0.
        1    1    3    3  502    0 -0.43750246381E+03  0.29231293266E+03  0.20250530974E+04  0.20922942679E+04  0.50400001928E-02 0.  1.
       -1    1    3    3    0  502  0.43750246381E+03 -0.29231293266E+03 -0.15528360864E+04  0.16395594432E+04  0.50400001928E-02 0. -1.
</event>
<event>
 5   0  0.2282000E-08  0.3702900E+04  0.7818609E-02  0.8067319E-01
        1   -1    0    0  501    0  0.00000000000E+00  0.00000000000E+00  0.23239520926E+04  0.23239520926E+04  0.50400001928E-02 0.  1.
       -1   -1    0    0    0  501  0.00000000000E+00  0.00000000000E+00 -0.14750162606E+04  0.14750162606E+04  0.50400001928E-02 0. -1.
    10030    2    1    2    0    0  0.00000000000E+00  0.00000000000E+00  0.84893583206E+03  0.37989683532E+04  0.37029000124E+04 0.  0.
        1    1    3    3  502    0  0.36494551157E+03 -0.11320981552E+04 -0.10311568141E+04  0.15742032380E+04  0.50400001928E-02 0. -1.
       -1    1    3    3    0  502 -0.36494551157E+03  0.11320981552E+04  0.18800926462E+04  0.22247651151E+04  0.50400001928E-02 0.  1.
</event>
<event>
 5   0  0.2282000E-08  0.3746757E+04  0.7818609E-02  0.8057678E-01
       -1   -1    0    0    0  501  0.00000000000E+00  0.00000000000E+00  0.12759030747E+04  0.12759030747E+04  0.50400001928E-02 0.  1.
        1   -1    0    0  501    0  0.00000000000E+00  0.00000000000E+00 -0.27506376558E+04  0.27506376558E+04  0.50400001928E-02 0. -1.
    10030    2    1    2    0    0  0.00000000000E+00  0.00000000000E+00 -0.14747345811E+04  0.40265407304E+04  0.37467570203E+04 0.  0.
        2    1    3    3  502    0  0.56900661117E+03 -0.15777279027E+04  0.15955270811E+03  0.16847702886E+04  0.25500000920E-02 0.  1.
       -2    1    3    3    0  502 -0.56900661117E+03  0.15777279027E+04 -0.16342872892E+04  0.23417704419E+04  0.25500000920E-02 0. -1.
</event>
<event>
 5   0  0.2282000E-08  0.3701412E+04  0.7818609E-02  0.8067649E-01
        1   -1    0    0  501    0  0.00000000000E+00  0.00000000000E+00  0.20999718788E+04  0.20999718788E+04  0.50400001928E-02 0. -1.
       -1   -1    0    0    0  501  0.00000000000E+00  0.00000000000E+00 -0.16310282876E+04  0.16310282876E+04  0.50400001928E-02 0.  1.
    10030    2    1    2    0    0  0.00000000000E+00  0.00000000000E+00  0.46894359120E+03  0.37310001663E+04  0.37014124533E+04 0.  0.
        3    1    3    3  502    0  0.12613130753E+04 -0.12837549436E+04 -0.20045858861E+03  0.18108343616E+04  0.10100000352E+00 0.  1.
       -3    1    3    3    0  502 -0.12613130753E+04  0.12837549436E+04  0.66940217980E+03  0.19201658047E+04  0.10100000352E+00 0. -1.
</event>
<event>
 5   0  0.2282000E-08  0.3701753E+04  0.7818609E-02  0.8067573E-01
        1   -1    0    0  501    0  0.00000000000E+00  0.00000000000E+00  0.20418280549E+04  0.20418280549E+04  0.50400001928E-02 0.  1.
       -1   -1    0    0    0  501  0.00000000000E+00  0.00000000000E+00 -0.16777827409E+04  0.16777827409E+04  0.50400001928E-02 0. -1.
    10030    2    1    2    0    0  0.00000000000E+00  0.00000000000E+00  0.36404531398E+03  0.37196107958E+04  0.37017530282E+04 0.  0.
        5    1    3    3  502    0  0.83322359844E+03 -0.92754780102E+03  0.15565086971E+04  0.19943289353E+04  0.46999998093E+01 0.  1.
       -5    1    3    3    0  502 -0.83322359844E+03  0.92754780102E+03 -0.11924633831E+04  0.17252818605E+04  0.46999998093E+01 0. -1.
</event>
<event>
 5   0  0.2282000E-08  0.3689534E+04  0.7818609E-02  0.8070285E-01
        1   -1    0    0  501    0  0.00000000000E+00  0.00000000000E+00  0.23437844471E+04  0.23437844471E+04  0.50400001928E-02 0. -1.
       -1   -1    0    0    0  501  0.00000000000E+00  0.00000000000E+00 -0.14519956778E+04  0.14519956778E+04  0.50400001928E-02 0.  1.
    10030    2    1    2    0    0  0.00000000000E+00  0.00000000000E+00  0.89178876937E+03  0.37957801249E+04  0.36895337846E+04 0.  0.
        2    1    3    3  502    0 -0.35735519321E+02 -0.18344904427E+04  0.64253367270E+03  0.19440889209E+04  0.25500000920E-02 0. -1.
       -2    1    3    3    0  502  0.35735519321E+02  0.18344904427E+04  0.24925509667E+03  0.18516912040E+04  0.25500000920E-02 0.  1.
</event>
<event>
 5   0  0.7362817E-08  0.3699208E+04  0.7818609E-02  0.8068137E-01
        2   -1    0    0  501    0  0.00000000000E+00  0.00000000000E+00  0.22127817170E+04  0.22127817170E+04  0.25500000920E-02 0.  1.
       -2   -1    0    0    0  501  0.00000000000E+00  0.00000000000E+00 -0.15460340116E+04  0.15460340116E+04  0.25500000920E-02 0. -1.
    10030    2    1    2    0    0  0.00000000000E+00  0.00000000000E+00  0.66674770539E+03  0.37588157286E+04  0.36992084530E+04 0.  0.
        1    1    3    3  502    0  0.12702695036E+04  0.13343459726E+04  0.50025177092E+03  0.19090090677E+04  0.50400001928E-02 0.  1.
       -1    1    3    3    0  502 -0.12702695036E+04 -0.13343459726E+04  0.16649593446E+03  0.18498066609E+04  0.50400001928E-02 0. -1.
</event>
<event>
 5   0  0.7254493E-08  0.3700341E+04  0.7818609E-02  0.8067886E-01
        2   -1    0    0  501    0  0.00000000000E+00  0.00000000000E+00  0.15563969037E+04  0.15563969037E+04  0.25500000920E-02 0.  1.
       -2   -1    0    0    0  501  0.00000000000E+00  0.00000000000E+00 -0.21993943332E+04  0.21993943332E+04  0.25500000920E-02 0. -1.
    10030    2    1    2    0    0  0.00000000000E+00  0.00000000000E+00 -0.64299742955E+03  0.37557912369E+04  0.37003408114E+04 0.  0.
        3    1    3    3  502    0 -0.17503504237E+04  0.33047968720E+03 -0.82918118402E+03  0.19648116641E+04  0.10100000352E+00 0. -1.
       -3    1    3    3    0  502  0.17503504237E+04 -0.33047968720E+03  0.18618375447E+03  0.17909795728E+04  0.10100000352E+00 0.  1.
</event>
<event>
 5   0  0.2282000E-08  0.3687792E+04  0.7818609E-02  0.8070673E-01
       -1   -1    0    0    0  501  0.00000000000E+00  0.00000000000E+00  0.21690241234E+04  0.21690241234E+04  0.50400001928E-02 0.  1.
        1   -1    0    0  501    0  0.00000000000E+00  0.00000000000E+00 -0.15675036153E+04  0.15675036153E+04  0.50400001928E-02 0. -1.
    10030    2    1    2    0    0  0.00000000000E+00  0.00000000000E+00  0.60152050803E+03  0.37365277387E+04  0.36877923776E+04 0.  0.
        1    1    3    3  502    0  0.17010901762E+04  0.71001644184E+01 -0.42011589170E+03  0.17522144738E+04  0.50400001928E-02 0. -1.
       -1    1    3    3    0  502 -0.17010901762E+04 -0.71001644184E+01  0.10216363997E+04  0.19843132649E+04  0.50400001928E-02 0.  1.
</event>
<event>
 5   0  0.2282000E-08  0.3693634E+04  0.7818609E-02  0.8069374E-01
       -1   -1    0    0    0  501  0.00000000000E+00  0.00000000000E+00  0.13616449133E+04  0.13616449133E+04  0.50400001928E-02 0.  1.
        1   -1    0    0  501    0  0.00000000000E+00  0.00000000000E+00 -0.25048629164E+04  0.25048629164E+04  0.50400001928E-02 0. -1.
    10030    2    1    2    0    0  0.00000000000E+00  0.00000000000E+00 -0.11432180031E+04  0.38665078298E+04  0.36936344425E+04 0.  0.
        2    1    3    3  502    0  0.14886280228E+04 -0.80799361155E+03 -0.13421774933E+04  0.21610894220E+04  0.25500000920E-02 0. -1.
       -2    1    3    3    0  502 -0.14886280228E+04  0.80799361155E+03  0.19895949020E+03  0.17054184077E+04  0.25500000920E-02 0.  1.
</event>
<event>
 5   0  0.2282000E-08  0.3697880E+04  0.7818609E-02  0.8068432E-01
       -1   -1    0    0    0  501  0.00000000000E+00  0.00000000000E+00  0.19198537462E+04  0.19198537462E+04  0.50400001928E-02 0. -1.
        1   -1    0    0  501    0  0.00000000000E+00  0.00000000000E+00 -0.17806454375E+04  0.17806454375E+04  0.50400001928E-02 0.  1.
    10030    2    1    2    0    0  0.00000000000E+00  0.00000000000E+00  0.13920830867E+03  0.37004991838E+04  0.36978798325E+04 0.  0.
        1    1    3    3  502    0  0.49833303617E+03  0.13537501982E+03  0.18462255077E+04  0.19170839408E+04  0.50400001928E-02 0. -1.
       -1    1    3    3    0  502 -0.49833303617E+03 -0.13537501982E+03 -0.17070171990E+04  0.17834152429E+04  0.50400001928E-02 0.  1.
</event>
<event>
 5   0  0.2282000E-08  0.3734785E+04  0.7818609E-02  0.8060297E-01
       -1   -1    0    0    0  501  0.00000000000E+00  0.00000000000E+00  0.12028135324E+04  0.12028135325E+04  0.50400001928E-02 0. -1.
        1   -1    0    0  501    0  0.00000000000E+00  0.00000000000E+00 -0.28991646183E+04  0.28991646183E+04  0.50400001928E-02 0.  1.
    10030    2    1    2    0    0  0.00000000000E+00  0.00000000000E+00 -0.16963510858E+04  0.41019781507E+04  0.37347848322E+04 0.  0.
        4    1    3    3  502    0 -0.13601137221E+04 -0.10800547212E+04 -0.94626504614E+02  0.17393629081E+04  0.12699999809E+01 0. -1.
       -4    1    3    3    0  502  0.13601137221E+04  0.10800547212E+04 -0.16017245812E+04  0.23626152426E+04  0.12699999809E+01 0.  1.
</event>
<event>
 5   0  0.2282000E-08  0.3695374E+04  0.7818609E-02  0.8068988E-01
       -1   -1    0    0    0  501  0.00000000000E+00  0.00000000000E+00  0.20854243466E+04  0.20854243466E+04  0.50400001928E-02 0. -1.
        1   -1    0    0  501    0  0.00000000000E+00  0.00000000000E+00 -0.16370512969E+04  0.16370512969E+04  0.50400001928E-02 0.  1.
    10030    2    1    2    0    0  0.00000000000E+00  0.00000000000E+00  0.44837304970E+03  0.37224756435E+04  0.36953736651E+04 0.  0.
        3    1    3    3  502    0 -0.17726100116E+04  0.12839386285E+03 -0.28480669460E+03  0.17999294711E+04  0.10100000352E+00 0.  1.
       -3    1    3    3    0  502  0.17726100116E+04 -0.12839386285E+03  0.73317974430E+03  0.19225461724E+04  0.10100000352E+00 0. -1.
</event>
<event>
 5   0  0.7362817E-08  0.3698550E+04  0.7818609E-02  0.8068283E-01
       -2   -1    0    0    0  501  0.00000000000E+00  0.00000000000E+00  0.19599935868E+04  0.19599935868E+04  0.25500000920E-02 0. -1.
        2   -1    0    0  501    0  0.00000000000E+00  0.00000000000E+00 -0.17448104089E+04  0.17448104089E+04  0.25500000920E-02 0.  1.
    10030    2    1    2    0    0  0.00000000000E+00  0.00000000000E+00  0.21518317789E+03  0.37048039956E+04  0.36985495598E+04 0.  0.
        1    1    3    3  502    0  0.31729941652E+03 -0.87953573736E+03  0.17057692340E+04  0.19452276763E+04  0.50400001928E-02 0. -1.
       -1    1    3    3    0  502 -0.31729941652E+03  0.87953573736E+03 -0.14905860561E+04  0.17595763193E+04  0.50400001928E-02 0.  1.
</event>
<event>
 5   0  0.2282000E-08  0.3699879E+04  0.7818609E-02  0.8067989E-01
       -1   -1    0    0    0  501  0.00000000000E+00  0.00000000000E+00  0.22282903670E+04  0.22282903670E+04  0.50400001928E-02 0. -1.
        1   -1    0    0  501    0  0.00000000000E+00  0.00000000000E+00 -0.15358304737E+04  0.15358304737E+04  0.50400001928E-02 0.  1.
    10030    2    1    2    0    0  0.00000000000E+00  0.00000000000E+00  0.69245989324E+03  0.37641208407E+04  0.36998790520E+04 0.  0.
        5    1    3    3  502    0 -0.82864044203E+03  0.15878027173E+04  0.81740391074E+03  0.19687391128E+04  0.46999998093E+01 0. -1.
       -5    1    3    3    0  502  0.82864044203E+03 -0.15878027173E+04 -0.12494401750E+03  0.17953817278E+04  0.46999998093E+01 0.  1.
</event>
<event>
 5   0  0.7309833E-08  0.3700877E+04  0.7818609E-02  0.8067767E-01
       -2   -1    0    0    0  501  0.00000000000E+00  0.00000000000E+00  0.14539634825E+04  0.14539634825E+04  0.25500000920E-02 0.  1.
        2   -1    0    0  501    0  0.00000000000E+00  0.00000000000E+00 -0.23550266153E+04  0.23550266153E+04  0.25500000920E-02 0. -1.
    10030    2    1    2    0    0  0.00000000000E+00  0.00000000000E+00 -0.90106313278E+03  0.38089900978E+04  0.37008770306E+04 0.  0.
        2    1    3    3  502    0 -0.15884191925E+04 -0.94543811589E+03 -0.53782639181E+03  0.19251457061E+04  0.25500000920E-02 0. -1.
       -2    1    3    3    0  502  0.15884191925E+04  0.94543811589E+03 -0.36323674097E+03  0.18838443917E+04  0.25500000920E-02 0.  1.
</event>
<event>
 5   0  0.2282000E-08  0.3707393E+04  0.7818609E-02  0.8066325E-01
        1   -1    0    0  501    0  0.00000000000E+00  0.00000000000E+00  0.27727024991E+04  0.27727024991E+04  0.50400001928E-02 0. -1.
       -1   -1    0    0    0  501  0.00000000000E+00  0.00000000000E+00 -0.12392929597E+04  0.12392929597E+04  0.50400001928E-02 0.  1.
    10030    2    1    2    0    0  0.00000000000E+00  0.00000000000E+00  0.15334095394E+04  0.40119954588E+04  0.37073929851E+04 0.  0.
        4    1    3    3  502    0 -0.13709133282E+04 -0.38615274556E+03 -0.51722867162E+03  0.15152704075E+04  0.12699999809E+01 0. -1.
       -4    1    3    3    0  502  0.13709133282E+04  0.38615274556E+03  0.20506382110E+04  0.24967250513E+04  0.12699999809E+01 0.  1.
</event>
<event>
 5   0  0.7254493E-08  0.3710817E+04  0.7818609E-02  0.8065569E-01
       -2   -1    0    0    0  501  0.00000000000E+00  0.00000000000E+00  0.16544156128E+04  0.16544156128E+04  0.25500000920E-02 0.  1.
        2   -1    0    0  501    0  0.00000000000E+00  0.00000000000E+00 -0.20808192097E+04  0.20808192097E+04  0.25500000920E-02 0. -1.
    10030    2    1    2    0    0  0.00000000000E+00  0.00000000000E+00 -0.42640359687E+03  0.37352348225E+04  0.37108165075E+04 0.  0.
        3    1    3    3  502    0  0.16817800511E+04  0.71203035362E+03 -0.54272183689E+03  0.19052344652E+04  0.10100000352E+00 0.  1.
       -3    1    3    3    0  502 -0.16817800511E+04 -0.71203035362E+03  0.11631824002E+03  0.18300003574E+04  0.10100000352E+00 0. -1.
</event>
<event>
 5   0  0.2282000E-08  0.3703558E+04  0.7818609E-02  0.8067174E-01
       -1   -1    0    0    0  501  0.00000000000E+00  0.00000000000E+00  0.16063356524E+04  0.16063356524E+04  0.50400001928E-02 0. -1.
        1   -1    0    0  501    0  0.00000000000E+00  0.00000000000E+00 -0.21347254534E+04  0.21347254534E+04  0.50400001928E-02 0.  1.
    10030    2    1    2    0    0  0.00000000000E+00  0.00000000000E+00 -0.52838980105E+03  0.37410611058E+04  0.37035580751E+04 0.  0.
        1    1    3    3  502    0 -0.91987516338E+03 -0.75252818630E+03 -0.16986511716E+04  0.20731340502E+04  0.50400001928E-02 0.  1.
       -1    1    3    3    0  502  0.91987516338E+03  0.75252818630E+03  0.11702613705E+04  0.16679270556E+04  0.50400001928E-02 0. -1.
</event>
<event>
 5   0  0.7254493E-08  0.3696787E+04  0.7818609E-02  0.8068674E-01
        2   -1    0    0  501    0  0.00000000000E+00  0.00000000000E+00  0.25946192457E+04  0.25946192457E+04  0.25500000920E-02 0. -1.
       -2   -1    0    0    0  501  0.00000000000E+00  0.00000000000E+00 -0.13167859892E+04  0.13167859892E+04  0.25500000920E-02 0.  1.
    10030    2    1    2    0    0  0.00000000000E+00  0.00000000000E+00  0.12778332565E+04  0.39114052348E+04  0.36967868588E+04 0.  0.
        3    1    3    3  502    0  0.75518259373E+03 -0.16848749896E+04  0.73026412743E+03  0.19855453121E+04  0.10100000352E+00 0.  1.
       -3    1    3    3    0  502 -0.75518259373E+03  0.16848749896E+04  0.54756912909E+03  0.19258599227E+04  0.10100000352E+00 0. -1.
</event>
<event>
 5   0  0.2282000E-08  0.3692896E+04  0.7818609E-02  0.8069538E-01
        1   -1    0    0  501    0  0.00000000000E+00  0.00000000000E+00  0.17297928051E+04  0.17297928051E+04  0.50400001928E-02 0. -1.
       -1   -1    0    0    0  501  0.00000000000E+00  0.00000000000E+00 -0.19709704845E+04  0.19709704845E+04  0.50400001928E-02 0.  1.
    10030    2    1    2    0    0  0.00000000000E+00  0.00000000000E+00 -0.24117767940E+03  0.37007632897E+04  0.36928961877E+04 0.  0.
        5    1    3    3  502    0  0.13248093082E+04 -0.30385107687E+03  0.11318348637E+04  0.17687615522E+04  0.46999998093E+01 0. -1.
       -5    1    3    3    0  502 -0.13248093082E+04  0.30385107687E+03 -0.13730125431E+04  0.19320017374E+04  0.46999998093E+01 0.  1.
</event>
<event>
 5   0  0.2282000E-08  0.3704150E+04  0.7818609E-02  0.8067043E-01
       -1   -1    0    0    0  501  0.00000000000E+00  0.00000000000E+00  0.32990819425E+04  0.32990819425E+04  0.50400001928E-02 0.  1.
        1   -1    0    0  501    0  0.00000000000E+00  0.00000000000E+00 -0.10397384510E+04  0.10397384510E+04  0.50400001928E-02 0. -1.
    10030    2    1    2    0    0  0.00000000000E+00  0.00000000000E+00  0.22593434915E+04  0.43388203935E+04  0.37041502931E+04 0.  0.
        5    1    3    3  502    0 -0.14325458581E+04 -0.54901170686E+03  0.23450233667E+04  0.28022773186E+04  0.46999998093E+01 0.  1.
       -5    1    3    3    0  502  0.14325458581E+04  0.54901170686E+03 -0.85679875177E+02  0.15365430749E+04  0.46999998093E+01 0. -1.
</event>
<event>
 5   0  0.2282000E-08  0.3699586E+04  0.7818609E-02  0.8068054E-01
       -1   -1    0    0    0  501  0.00000000000E+00  0.00000000000E+00  0.24431438890E+04  0.24431438890E+04  0.50400001928E-02 0.  1.
        1   -1    0    0  501    0  0.00000000000E+00  0.00000000000E+00 -0.14005451361E+04  0.14005451361E+04  0.50400001928E-02 0. -1.
    10030    2    1    2    0    0  0.00000000000E+00  0.00000000000E+00  0.10425987529E+04  0.38436890251E+04  0.36995855392E+04 0.  0.
        3    1    3    3  502    0  0.72712802262E+03 -0.10459328824E+03  0.22850941970E+04  0.24002729880E+04  0.10100000352E+00 0.  1.
       -3    1    3    3    0  502 -0.72712802262E+03  0.10459328824E+03 -0.12424954442E+04  0.14434160371E+04  0.10100000352E+00 0. -1.
</event>
<event>
 5   0  0.7191801E-08  0.3700854E+04  0.7818609E-02  0.8067773E-01
       -2   -1    0    0    0  501  0.00000000000E+00  0.00000000000E+00  0.14881576115E+04  0.14881576115E+04  0.25500000920E-02 0. -1.
        2   -1    0    0  501    0  0.00000000000E+00  0.00000000000E+00 -0.23008858032E+04  0.23008858032E+04  0.25500000920E-02 0.  1.
    10030    2    1    2    0    0  0.00000000000E+00  0.00000000000E+00 -0.81272819173E+03  0.37890434148E+04  0.37008543453E+04 0.  0.
        5    1    3    3  502    0  0.15490655804E+04 -0.79645072813E+03 -0.10458442692E+04  0.20316865556E+04  0.46999998093E+01 0.  1.
       -5    1    3    3    0  502 -0.15490655804E+04  0.79645072813E+03  0.23311607747E+03  0.17573568591E+04  0.46999998093E+01 0. -1.
</event>
<event>
 5   0  0.7362817E-08  0.3696597E+04  0.7818609E-02  0.8068716E-01
        2   -1    0    0  501    0  0.00000000000E+00  0.00000000000E+00  0.21682051749E+04  0.21682051749E+04  0.25500000920E-02 0. -1.
       -2   -1    0    0    0  501  0.00000000000E+00  0.00000000000E+00 -0.15755921610E+04  0.15755921610E+04  0.25500000920E-02 0.  1.
    10030    2    1    2    0    0  0.00000000000E+00  0.00000000000E+00  0.59261301391E+03  0.37437973359E+04  0.36965968549E+04 0.  0.
        1    1    3    3  502    0  0.15037786605E+04 -0.23847190312E+03  0.13575353175E+04  0.20398826552E+04  0.50400001928E-02 0. -1.
       -1    1    3    3    0  502 -0.15037786605E+04  0.23847190312E+03 -0.76492230363E+03  0.17039146807E+04  0.50400001928E-02 0.  1.
</event>
<event>
 5   0  0.7362817E-08  0.3687421E+04  0.7818609E-02  0.8070755E-01
       -2   -1    0    0    0  501  0.00000000000E+00  0.00000000000E+00  0.25574295413E+04  0.25574295413E+04  0.25500000920E-02 0. -1.
        2   -1    0    0  501    0  0.00000000000E+00  0.00000000000E+00 -0.13291734670E+04  0.13291734670E+04  0.25500000920E-02 0.  1.
    10030    2    1    2    0    0  0.00000000000E+00  0.00000000000E+00  0.12282560743E+04  0.38866030083E+04  0.36874205022E+04 0.  0.
        1    1    3    3  502    0  0.15346810040E+04 -0.15060370426E+03 -0.45107583363E+03  0.16066725452E+04  0.50400001928E-02 0.  1.
       -1    1    3    3    0  502 -0.15346810040E+04  0.15060370426E+03  0.16793319080E+04  0.22799304631E+04  0.50400001928E-02 0. -1.
</event>
<event>
 5   0  0.2282000E-08  0.3657559E+04  0.7818609E-02  0.8077433E-01
        1   -1    0    0  501    0  0.00000000000E+00  0.00000000000E+00  0.25347056404E+04  0.25347056404E+04  0.50400001928E-02 0.  1.
       -1   -1    0    0    0  501  0.00000000000E+00  0.00000000000E+00 -0.13194570058E+04  0.13194570058E+04  0.50400001928E-02 0. -1.
    10030    2    1    2    0    0  0.00000000000E+00  0.00000000000E+00  0.12152486346E+04  0.38541626462E+04  0.36575593582E+04 0.  0.
        2    1    3    3  502    0  0.77251018458E+03 -0.12102768565E+04  0.18011558101E+04  0.23034114498E+04  0.25500000920E-02 0.  1.
       -2    1    3    3    0  502 -0.77251018458E+03  0.12102768565E+04 -0.58590717546E+03  0.15507511964E+04  0.25500000920E-02 0. -1.
</event>
<event>
 5   0  0.2282000E-08  0.3703059E+04  0.7818609E-02  0.8067284E-01
       -1   -1    0    0    0  501  0.00000000000E+00  0.00000000000E+00  0.14605033031E+04  0.14605033031E+04  0.50400001928E-02 0. -1.
        1   -1    0    0  501    0  0.00000000000E+00  0.00000000000E+00 -0.23472465254E+04  0.23472465254E+04  0.50400001928E-02 0.  1.
    10030    2    1    2    0    0  0.00000000000E+00  0.00000000000E+00 -0.88674322229E+03  0.38077498284E+04  0.37030588996E+04 0.  0.
        2    1    3    3  502    0  0.95857055228E+02  0.18480492874E+04 -0.38093800456E+03  0.18893354670E+04  0.25500000920E-02 0.  1.
       -2    1    3    3    0  502 -0.95857055228E+02 -0.18480492874E+04 -0.50580521773E+03  0.19184143614E+04  0.25500000920E-02 0. -1.
</event>
<event>
 5   0  0.7309833E-08  0.3696145E+04  0.7818609E-02  0.8068817E-01
       -2   -1    0    0    0  501  0.00000000000E+00  0.00000000000E+00  0.20588840919E+04  0.20588840919E+04  0.25500000920E-02 0.  1.
        2   -1    0    0  501    0  0.00000000000E+00  0.00000000000E+00 -0.16588464609E+04  0.16588464609E+04  0.25500000920E-02 0. -1.
    10030    2    1    2    0    0  0.00000000000E+00  0.00000000000E+00  0.40003763100E+03  0.37177305529E+04  0.36961453377E+04 0.  0.
        2    1    3    3  502    0 -0.86052467893E+03 -0.13856835757E+04 -0.67381870578E+03  0.17648380502E+04  0.25500000920E-02 0. -1.
       -2    1    3    3    0  502  0.86052467893E+03  0.13856835757E+04  0.10738563368E+04  0.19528925027E+04  0.25500000920E-02 0.  1.
</event>
<event>
 5   0  0.2282000E-08  0.3698276E+04  0.7818609E-02  0.8068344E-01
        1   -1    0    0  501    0  0.00000000000E+00  0.00000000000E+00  0.21456923952E+04  0.21456923952E+04  0.50400001928E-02 0. -1.
       -1   -1    0    0    0  501  0.00000000000E+00  0.00000000000E+00 -0.15935698888E+04  0.15935698888E+04  0.50400001928E-02 0.  1.
    10030    2    1    2    0    0  0.00000000000E+00  0.00000000000E+00  0.55212250633E+03  0.37392622840E+04  0.36982757018E+04 0.  0.
        5    1    3    3  502    0  0.79466319233E+02  0.17655975856E+04 -0.27369159265E+03  0.17884571307E+04  0.46999998093E+01 0. -1.
       -5    1    3    3    0  502 -0.79466319233E+02 -0.17655975856E+04  0.82581409898E+03  0.19508051534E+04  0.46999998093E+01 0.  1.
</event>
<event>
 5   0  0.2282000E-08  0.3706692E+04  0.7818609E-02  0.8066480E-01
        1   -1    0    0  501    0  0.00000000000E+00  0.00000000000E+00  0.25928766019E+04  0.25928766019E+04  0.50400001928E-02 0.  1.
       -1   -1    0    0    0  501  0.00000000000E+00  0.00000000000E+00 -0.13247418955E+04  0.13247418955E+04  0.50400001928E-02 0. -1.
    10030    2    1    2    0    0  0.00000000000E+00  0.00000000000E+00  0.12681347064E+04  0.39176184974E+04  0.37066924687E+04 0.  0.
        4    1    3    3  502    0  0.10559191645E+04 -0.14806054443E+04  0.25633259293E+03  0.18365363527E+04  0.12699999809E+01 0. -1.
       -4    1    3    3    0  502 -0.10559191645E+04  0.14806054443E+04  0.10118021135E+04  0.20810821448E+04  0.12699999809E+01 0.  1.
</event>
<event>
 5   0  0.2282000E-08  0.3699945E+04  0.7818609E-02  0.8067974E-01
        1   -1    0    0  501    0  0.00000000000E+00  0.00000000000E+00  0.13664292889E+04  0.13664292889E+04  0.50400001928E-02 0.  1.
       -1   -1    0    0    0  501  0.00000000000E+00  0.00000000000E+00 -0.25046285741E+04  0.25046285741E+04  0.50400001928E-02 0. -1.
    10030    2    1    2    0    0  0.00000000000E+00  0.00000000000E+00 -0.11381992853E+04  0.38710578630E+04  0.36999447787E+04 0.  0.
        3    1    3    3  502    0  0.61513266915E+03 -0.29168078555E+03  0.12306077862E+04  0.14063646096E+04  0.10100000352E+00 0.  1.
       -3    1    3    3    0  502 -0.61513266915E+03  0.29168078555E+03 -0.23688070715E+04  0.24646932534E+04  0.10100000352E+00 0. -1.
</event>
<event>
 5   0  0.2282000E-08  0.3697934E+04  0.7818609E-02  0.8068420E-01
        1   -1    0    0  501    0  0.00000000000E+00  0.00000000000E+00  0.24886883221E+04  0.24886883221E+04  0.50400001928E-02 0.  1.
       -1   -1    0    0    0  501  0.00000000000E+00  0.00000000000E+00 -0.13736873394E+04  0.13736873394E+04  0.50400001928E-02 0. -1.
    10030    2    1    2    0    0  0.00000000000E+00  0.00000000000E+00  0.11150009827E+04  0.38623756615E+04  0.36979343639E+04 0.  0.
        5    1    3    3  502    0 -0.17054899848E+03 -0.16872535702E+04  0.13269739079E+04  0.21533214839E+04  0.46999998093E+01 0.  1.
       -5    1    3    3    0  502  0.17054899848E+03  0.16872535702E+04 -0.21197292515E+03  0.17090541776E+04  0.46999998093E+01 0. -1.
</event>
<event>
 5   0  0.7309833E-08  0.3702921E+04  0.7818609E-02  0.8067315E-01
       -2   -1    0    0    0  501  0.00000000000E+00  0.00000000000E+00  0.16918564704E+04  0.16918564704E+04  0.25500000920E-02 0.  1.
        2   -1    0    0  501    0  0.00000000000E+00  0.00000000000E+00 -0.20261214180E+04  0.20261214180E+04  0.25500000920E-02 0. -1.
    10030    2    1    2    0    0  0.00000000000E+00  0.00000000000E+00 -0.33426494765E+03  0.37179778884E+04  0.37029213499E+04 0.  0.
        2    1    3    3  502    0  0.42095958781E+03  0.12680713145E+04 -0.14540204874E+04  0.19746866615E+04  0.25500000920E-02 0. -1.
       -2    1    3    3    0  502 -0.42095958781E+03 -0.12680713145E+04  0.11197555397E+04  0.17432912270E+04  0.25500000920E-02 0.  1.
</event>
<event>
 5   0  0.7309833E-08  0.3705534E+04  0.7818609E-02  0.8066737E-01
        2   -1    0    0  501    0  0.00000000000E+00  0.00000000000E+00  0.24665091988E+04  0.24665091988E+04  0.25500000920E-02 0. -1.
       -2   -1    0    0    0  501  0.00000000000E+00  0.00000000000E+00 -0.13917421641E+04  0.13917421641E+04  0.25500000920E-02 0.  1.
    10030    2    1    2    0    0  0.00000000000E+00  0.00000000000E+00  0.10747670348E+04  0.38582513629E+04  0.37055336188E+04 0.  0.
        2    1    3    3  502    0 -0.76275044881E+03 -0.24870891248E+02 -0.12204913015E+04  0.14394463607E+04  0.25500000920E-02 0.  1.
       -2    1    3    3    0  502  0.76275044881E+03  0.24870891248E+02  0.22952583363E+04  0.24188050022E+04  0.25500000920E-02 0. -1.
</event>
<event>
 5   0  0.2282000E-08  0.3706041E+04  0.7818609E-02  0.8066624E-01
        1   -1    0    0  501    0  0.00000000000E+00  0.00000000000E+00  0.17065812550E+04  0.17065812550E+04  0.50400001928E-02 0. -1.
       -1   -1    0    0    0  501  0.00000000000E+00  0.00000000000E+00 -0.20120250585E+04  0.20120250585E+04  0.50400001928E-02 0.  1.
    10030    2    1    2    0    0  0.00000000000E+00  0.00000000000E+00 -0.30544380353E+03  0.37186063135E+04  0.37060406093E+04 0.  0.
        4    1    3    3  502    0 -0.16709298931E+04  0.74466583197E+03 -0.44893247316E+03  0.18836336924E+04  0.12699999809E+01 0.  1.
       -4    1    3    3    0  502  0.16709298931E+04 -0.74466583197E+03  0.14348866963E+03  0.18349726211E+04  0.12699999809E+01 0. -1.
</event>
<event>
 5   0  0.2282000E-08  0.3705542E+04  0.7818609E-02  0.8066735E-01
       -1   -1    0    0    0  501  0.00000000000E+00  0.00000000000E+00  0.20172854211E+04  0.20172854211E+04  0.50400001928E-02 0.  1.
        1   -1    0    0  501    0  0.00000000000E+00  0.00000000000E+00 -0.17016729605E+04  0.17016729605E+04  0.50400001928E-02 0. -1.
    10030    2    1    2    0    0  0.00000000000E+00  0.00000000000E+00  0.31561246060E+03  0.37189583816E+04  0.37055418253E+04 0.  0.
        1    1    3    3  502    0  0.46329342564E+03  0.17829863617E+04 -0.40593332758E+02  0.18426418488E+04  0.50400001928E-02 0. -1.
       -1    1    3    3    0  502 -0.46329342564E+03 -0.17829863617E+04  0.35620579336E+03  0.18763165329E+04  0.50400001928E-02 0.  1.
</event>
<event>
 5   0  0.2282000E-08  0.3701610E+04  0.7818609E-02  0.8067605E-01
        1   -1    0    0  501    0  0.00000000000E+00  0.00000000000E+00  0.11500066274E+04  0.11500066275E+04  0.50400001928E-02 0. -1.
       -1   -1    0    0    0  501  0.00000000000E+00  0.00000000000E+00 -0.29786595897E+04  0.29786595897E+04  0.50400001928E-02 0.  1.
    10030    2    1    2    0    0  0.00000000000E+00  0.00000000000E+00 -0.18286529623E+04  0.41286662172E+04  0.37016095251E+04 0.  0.
        1    1    3    3  502    0  0.35252516877E+03 -0.66016017101E+03 -0.28023667551E+04  0.29005766454E+04  0.50400001928E-02 0.  1.
       -1    1    3    3    0  502 -0.35252516877E+03  0.66016017101E+03  0.97371379279E+03  0.12280895718E+04  0.50400001928E-02 0. -1.
</event>
<event>
 5   0  0.2282000E-08  0.3701747E+04  0.7818609E-02  0.8067575E-01
        1   -1    0    0  501    0  0.00000000000E+00  0.00000000000E+00  0.19302143260E+04  0.19302143260E+04  0.50400001928E-02 0.  1.
       -1   -1    0    0    0  501  0.00000000000E+00  0.00000000000E+00 -0.17747938306E+04  0.17747938306E+04  0.50400001928E-02 0. -1.
    10030    2    1    2    0    0  0.00000000000E+00  0.00000000000E+00  0.15542049542E+03  0.37050081565E+04  0.37017468727E+04 0.  0.
        5    1    3    3  502    0 -0.57321757527E+03 -0.25403146633E+03 -0.16652601713E+04  0.17793886317E+04  0.46999998093E+01 0. -1.
       -5    1    3    3    0  502  0.57321757527E+03  0.25403146633E+03  0.18206806667E+04  0.19256195249E+04  0.46999998093E+01 0.  1.
</event>
<event>
 5   0  0.7362817E-08  0.3694642E+04  0.7818609E-02  0.8069150E-01
        2   -1    0    0  501    0  0.00000000000E+00  0.00000000000E+00  0.12686878565E+04  0.12686878565E+04  0.25500000920E-02 0. -1.
       -2   -1    0    0    0  501  0.00000000000E+00  0.00000000000E+00 -0.26898616047E+04  0.26898616047E+04  0.25500000920E-02 0.  1.
    10030    2    1    2    0    0  0.00000000000E+00  0.00000000000E+00 -0.14211737482E+04  0.39585494611E+04  0.36946419331E+04 0.  0.
        1    1    3    3  502    0 -0.27234143285E+03  0.10789157607E+04  0.86931463100E+03  0.14120683420E+04  0.50400001928E-02 0. -1.
       -1    1    3    3    0  502  0.27234143285E+03 -0.10789157607E+04 -0.22904883792E+04  0.25464811191E+04  0.50400001928E-02 0.  1.
</event>
<event>
 5   0  0.7254493E-08  0.3700834E+04  0.7818609E-02  0.8067777E-01
       -2   -1    0    0    0  501  0.00000000000E+00  0.00000000000E+00  0.14371443096E+04  0.14371443096E+04  0.25500000920E-02 0.  1.
        2   -1    0    0  501    0  0.00000000000E+00  0.00000000000E+00 -0.23825321847E+04  0.23825321847E+04  0.25500000920E-02 0. -1.
    10030    2    1    2    0    0  0.00000000000E+00  0.00000000000E+00 -0.94538787512E+03  0.38196764944E+04  0.37008337287E+04 0.  0.
        3    1    3    3  502    0  0.11611765454E+04  0.91246358977E+03  0.67806365232E+03  0.16250203381E+04  0.10100000352E+00 0.  1.
       -3    1    3    3    0  502 -0.11611765454E+04 -0.91246358977E+03 -0.16234515274E+04  0.21946561563E+04  0.10100000352E+00 0. -1.
</event>
<event>
 5   0  0.7362817E-08  0.3701924E+04  0.7818609E-02  0.8067536E-01
        2   -1    0    0  501    0  0.00000000000E+00  0.00000000000E+00  0.19269054982E+04  0.19269054982E+04  0.25500000920E-02 0.  1.
       -2   -1    0    0    0  501  0.00000000000E+00  0.00000000000E+00 -0.17780114097E+04  0.17780114097E+04  0.25500000920E-02 0. -1.
    10030    2    1    2    0    0  0.00000000000E+00  0.00000000000E+00  0.14889408845E+03  0.37049169079E+04  0.37019238032E+04 0.  0.
        1    1    3    3  502    0  0.16210335457E+04 -0.29545020304E+03 -0.76945437398E+03  0.18185435415E+04  0.50400001928E-02 0.  1.
       -1    1    3    3    0  502 -0.16210335457E+04  0.29545020304E+03  0.91834846243E+03  0.18863733664E+04  0.50400001928E-02 0. -1.
</event>
<event>
 5   0  0.7254493E-08  0.3675068E+04  0.7818609E-02  0.8073510E-01
        2   -1    0    0  501    0  0.00000000000E+00  0.00000000000E+00  0.23558911321E+04  0.23558911321E+04  0.25500000920E-02 0.  1.
       -2   -1    0    0    0  501  0.00000000000E+00  0.00000000000E+00 -0.14332289583E+04  0.14332289583E+04  0.25500000920E-02 0. -1.
    10030    2    1    2    0    0  0.00000000000E+00  0.00000000000E+00  0.92266217375E+03  0.37891200904E+04  0.36750681045E+04 0.  0.
        3    1    3    3  502    0 -0.56458326915E+03  0.66038377507E+02  0.22629626017E+04  0.23332627546E+04  0.10100000352E+00 0.  1.
       -3    1    3    3    0  502  0.56458326915E+03 -0.66038377507E+02 -0.13403004279E+04  0.14558573359E+04  0.10100000352E+00 0. -1.
</event>
<event>
 5   0  0.7191801E-08  0.3696559E+04  0.7818609E-02  0.8068725E-01
        2   -1    0    0  501    0  0.00000000000E+00  0.00000000000E+00  0.17511542522E+04  0.17511542522E+04  0.25500000920E-02 0.  1.
       -2   -1    0    0    0  501  0.00000000000E+00  0.00000000000E+00 -0.19507915420E+04  0.19507915420E+04  0.25500000920E-02 0. -1.
    10030    2    1    2    0    0  0.00000000000E+00  0.00000000000E+00 -0.19963728977E+03  0.37019457942E+04  0.36965588885E+04 0.  0.
        5    1    3    3  502    0  0.48156509145E+03  0.16430135965E+04 -0.79704884929E+03  0.18885728935E+04  0.46999998093E+01 0. -1.
       -5    1    3    3    0  502 -0.48156509145E+03 -0.16430135965E+04  0.59741155952E+03  0.18133729008E+04  0.46999998093E+01 0.  1.
</event>
<event>
 5   0  0.2282000E-08  0.3700445E+04  0.7818609E-02  0.8067863E-01
       -1   -1    0    0    0  501  0.00000000000E+00  0.00000000000E+00  0.22726036031E+04  0.22726036031E+04  0.50400001928E-02 0. -1.
        1   -1    0    0  501    0  0.00000000000E+00  0.00000000000E+00 -0.15063440732E+04  0.15063440732E+04  0.50400001928E-02 0.  1.
    10030    2    1    2    0    0  0.00000000000E+00  0.00000000000E+00  0.76625952994E+03  0.37789476763E+04  0.37004448210E+04 0.  0.
        2    1    3    3  502    0 -0.49328427925E+03  0.33046472491E+03 -0.14064117102E+04  0.15266074195E+04  0.25500000920E-02 0.  1.
       -2    1    3    3    0  502  0.49328427925E+03 -0.33046472491E+03  0.21726712402E+04  0.22523402568E+04  0.25500000920E-02 0. -1.
</event>
<event>
 5   0  0.2282000E-08  0.3701672E+04  0.7818609E-02  0.8067591E-01
       -1   -1    0    0    0  501  0.00000000000E+00  0.00000000000E+00  0.18064801292E+04  0.18064801292E+04  0.50400001928E-02 0. -1.
        1   -1    0    0  501    0  0.00000000000E+00  0.00000000000E+00 -0.18962808781E+04  0.18962808781E+04  0.50400001928E-02 0.  1.
    10030    2    1    2    0    0  0.00000000000E+00  0.00000000000E+00 -0.89800748838E+02  0.37027610073E+04  0.37016719064E+04 0.  0.
        3    1    3    3  502    0 -0.14425356346E+04 -0.65462280067E+02 -0.12029971774E+04  0.18794671017E+04  0.10100000352E+00 0.  1.
       -3    1    3    3    0  502  0.14425356346E+04  0.65462280067E+02  0.11131964286E+04  0.18232939056E+04  0.10100000352E+00 0. -1.
</event>
<event>
 5   0  0.7362817E-08  0.3697004E+04  0.7818609E-02  0.8068626E-01
        2   -1    0    0  501    0  0.00000000000E+00  0.00000000000E+00  0.20696776058E+04  0.20696776058E+04  0.25500000920E-02 0. -1.
       -2   -1    0    0    0  501  0.00000000000E+00  0.00000000000E+00 -0.16509619844E+04  0.16509619844E+04  0.25500000920E-02 0.  1.
    10030    2    1    2    0    0  0.00000000000E+00  0.00000000000E+00  0.41871562141E+03  0.37206395902E+04  0.36970036771E+04 0.  0.
        1    1    3    3  502    0 -0.13377778781E+04 -0.11385444954E+04  0.78838460446E+03  0.19254826677E+04  0.50400001928E-02 0. -1.
       -1    1    3    3    0  502  0.13377778781E+04  0.11385444954E+04 -0.36966898306E+03  0.17951569225E+04  0.50400001928E-02 0.  1.
</event>
<event>
 5   0  0.2282000E-08  0.3702600E+04  0.7818609E-02  0.8067386E-01
       -1   -1    0    0    0  501  0.00000000000E+00  0.00000000000E+00  0.15447525289E+04  0.15447525289E+04  0.50400001928E-02 0.  1.
        1   -1    0    0  501    0  0.00000000000E+00  0.00000000000E+00 -0.22186803503E+04  0.22186803504E+04  0.50400001928E-02 0. -1.
    10030    2    1    2    0    0  0.00000000000E+00  0.00000000000E+00 -0.67392782142E+03  0.37634328793E+04  0.37026002118E+04 0.  0.
        3    1    3    3  502    0  0.12024816738E+04 -0.10465933343E+04  0.61977254813E+03  0.17103911263E+04  0.10100000352E+00 0.  1.
       -3    1    3    3    0  502 -0.12024816738E+04  0.10465933343E+04 -0.12937003696E+04  0.20530417530E+04  0.10100000352E+00 0. -1.
</event>
<event>
 5   0  0.2282000E-08  0.3624611E+04  0.7818609E-02  0.8084877E-01
        1   -1    0    0  501    0  0.00000000000E+00  0.00000000000E+00  0.22298200295E+04  0.22298200295E+04  0.50400001928E-02 0.  1.
       -1   -1    0    0    0  501  0.00000000000E+00  0.00000000000E+00 -0.14729671640E+04  0.14729671640E+04  0.50400001928E-02 0. -1.
    10030    2    1    2    0    0  0.00000000000E+00  0.00000000000E+00  0.75685286554E+03  0.37027871936E+04  0.36246112537E+04 0.  0.
        2    1    3    3  502    0  0.36239059713E+03  0.17089233189E+04  0.87122671829E+03  0.19521223961E+04  0.25500000920E-02 0.  1.
       -2    1    3    3    0  502 -0.36239059713E+03 -0.17089233189E+04 -0.11437385275E+03  0.17506647974E+04  0.25500000920E-02 0. -1.
</event>
<event>
 5   0  0.2282000E-08  0.3702467E+04  0.7818609E-02  0.8067415E-01
       -1   -1    0    0    0  501  0.00000000000E+00  0.00000000000E+00  0.23336994021E+04  0.23336994021E+04  0.50400001928E-02 0.  1.
        1   -1    0    0  501    0  0.00000000000E+00  0.00000000000E+00 -0.14685122588E+04  0.14685122588E+04  0.50400001928E-02 0. -1.
    10030    2    1    2    0    0  0.00000000000E+00  0.00000000000E+00  0.86518714325E+03  0.38022116609E+04  0.37024673829E+04 0.  0.
        4    1    3    3  502    0  0.14044018253E+04 -0.10327709180E+04  0.10723568107E+04  0.20466829257E+04  0.12699999809E+01 0.  1.
       -4    1    3    3    0  502 -0.14044018253E+04  0.10327709180E+04 -0.20716966746E+03  0.17555287352E+04  0.12699999809E+01 0. -1.
</event>
<event>
 5   0  0.7203049E-08  0.3703279E+04  0.7818609E-02  0.8067236E-01
        2   -1    0    0  501    0  0.00000000000E+00  0.00000000000E+00  0.15724747887E+04  0.15724747887E+04  0.25500000920E-02 0.  1.
       -2   -1    0    0    0  501  0.00000000000E+00  0.00000000000E+00 -0.21803650708E+04  0.21803650708E+04  0.25500000920E-02 0. -1.
    10030    2    1    2    0    0  0.00000000000E+00  0.00000000000E+00 -0.60789028214E+03  0.37528398595E+04  0.37032791436E+04 0.  0.
        4    1    3    3  502    0  0.92819113577E+03  0.14043478300E+04 -0.10855228443E+04  0.20030209861E+04  0.12699999809E+01 0. -1.
       -4    1    3    3    0  502 -0.92819113577E+03 -0.14043478300E+04  0.47763256216E+03  0.17498188734E+04  0.12699999809E+01 0.  1.
</event>
<event>
 5   0  0.2282000E-08  0.3707253E+04  0.7818609E-02  0.8066356E-01
       -3   -1    0    0    0  501  0.00000000000E+00  0.00000000000E+00  0.11596059901E+04  0.11596059945E+04  0.10100000352E+00 0. -1.
        3   -1    0    0  501    0  0.00000000000E+00  0.00000000000E+00 -0.29630163641E+04  0.29630163659E+04  0.10100000352E+00 0.  1.
    10030    2    1    2    0    0  0.00000000000E+00  0.00000000000E+00 -0.18034103741E+04  0.41226223603E+04  0.37072531811E+04 0.  0.
        4    1    3    3  502    0 -0.53939805008E+03 -0.66619847420E+02  0.10690086857E+04  0.11992371089E+04  0.12699999809E+01 0. -1.
       -4    1    3    3    0  502  0.53939805008E+03  0.66619847420E+02 -0.28724190597E+04  0.29233852514E+04  0.12699999809E+01 0.  1.
</event>
<event>
 5   0  0.2282000E-08  0.3702362E+04  0.7818609E-02  0.8067439E-01
       -1   -1    0    0    0  501  0.00000000000E+00  0.00000000000E+00  0.13978144476E+04  0.13978144476E+04  0.50400001928E-02 0. -1.
        1   -1    0    0  501    0  0.00000000000E+00  0.00000000000E+00 -0.24515925848E+04  0.24515925848E+04  0.50400001928E-02 0.  1.
    10030    2    1    2    0    0  0.00000000000E+00  0.00000000000E+00 -0.10537781372E+04  0.38494070324E+04  0.37023622376E+04 0.  0.
        5    1    3    3  502    0 -0.21720627781E+03 -0.86339895257E+03 -0.22143758612E+04  0.23866543242E+04  0.46999998093E+01 0.  1.
       -5    1    3    3    0  502  0.21720627781E+03  0.86339895257E+03  0.11605977240E+04  0.14627527082E+04  0.46999998093E+01 0. -1.
</event>
<event>
 5   0  0.2282000E-08  0.3723235E+04  0.7818609E-02  0.8062832E-01
       -1   -1    0    0    0  501  0.00000000000E+00  0.00000000000E+00  0.17305798668E+04  0.17305798668E+04  0.50400001928E-02 0. -1.
        1   -1    0    0  501    0  0.00000000000E+00  0.00000000000E+00 -0.20025768991E+04  0.20025768991E+04  0.50400001928E-02 0.  1.
    10030    2    1    2    0    0  0.00000000000E+00  0.00000000000E+00 -0.27199703231E+03  0.37331567659E+04  0.37232347566E+04 0.  0.
        5    1    3    3  502    0  0.55921866793E+03  0.98253916643E+03  0.13469589363E+04  0.17585304087E+04  0.46999998093E+01 0. -1.
       -5    1    3    3    0  502 -0.55921866793E+03 -0.98253916643E+03 -0.16189559686E+04  0.19746263572E+04  0.46999998093E+01 0.  1.
</event>
<event>
 5   0  0.7191801E-08  0.3704109E+04  0.7818609E-02  0.8067052E-01
       -2   -1    0    0    0  501  0.00000000000E+00  0.00000000000E+00  0.14324606278E+04  0.14324606278E+04  0.25500000920E-02 0.  1.
        2   -1    0    0  501    0  0.00000000000E+00  0.00000000000E+00 -0.23945556137E+04  0.23945556137E+04  0.25500000920E-02 0. -1.
    10030    2    1    2    0    0  0.00000000000E+00  0.00000000000E+00 -0.96209498590E+03  0.38270162415E+04  0.37041094140E+04 0.  0.
        5    1    3    3  502    0  0.17998880489E+03 -0.69316488358E+03  0.12836099881E+04  0.14698810214E+04  0.46999998093E+01 0.  1.
       -5    1    3    3    0  502 -0.17998880489E+03  0.69316488358E+03 -0.22457049739E+04  0.23571352201E+04  0.46999998093E+01 0. -1.
</event>
<event>
 5   0  0.7362817E-08  0.3740659E+04  0.7818609E-02  0.8059011E-01
       -2   -1    0    0    0  501  0.00000000000E+00  0.00000000000E+00  0.19916469202E+04  0.19916469202E+04  0.25500000920E-02 0. -1.
        2   -1    0    0  501    0  0.00000000000E+00  0.00000000000E+00 -0.17564016917E+04  0.17564016917E+04  0.25500000920E-02 0.  1.
    10030    2    1    2    0    0  0.00000000000E+00  0.00000000000E+00  0.23524522852E+03  0.37480486119E+04  0.37406587762E+04 0.  0.
        1    1    3    3  502    0 -0.18198981901E+03 -0.10294806830E+04 -0.14363058649E+04  0.17764924172E+04  0.50400001928E-02 0.  1.
       -1    1    3    3    0  502  0.18198981901E+03  0.10294806830E+04  0.16715510934E+04  0.19715561947E+04  0.50400001928E-02 0. -1.
</event>
<event>
 5   0  0.2282000E-08  0.3698403E+04  0.7818609E-02  0.8068316E-01
        1   -1    0    0  501    0  0.00000000000E+00  0.00000000000E+00  0.22126176530E+04  0.22126176530E+04  0.50400001928E-02 0. -1.
       -1   -1    0    0    0  501  0.00000000000E+00  0.00000000000E+00 -0.15454757304E+04  0.15454757305E+04  0.50400001928E-02 0.  1.
    10030    2    1    2    0    0  0.00000000000E+00  0.00000000000E+00  0.66714192252E+03  0.37580933834E+04  0.36984033763E+04 0.  0.
        2    1    3    3  502    0 -0.35201925664E+02  0.16935844348E+04  0.10872145500E+04  0.20128345414E+04  0.25500000920E-02 0. -1.
       -2    1    3    3    0  502  0.35201925664E+02 -0.16935844348E+04 -0.42007262745E+03  0.17452588420E+04  0.25500000920E-02 0.  1.
</event>
<event>
 5   0  0.2282000E-08  0.3700246E+04  0.7818609E-02  0.8067907E-01
        1   -1    0    0  501    0  0.00000000000E+00  0.00000000000E+00  0.23539621421E+04  0.23539621421E+04  0.50400001928E-02 0.  1.
       -1   -1    0    0    0  501  0.00000000000E+00  0.00000000000E+00 -0.14541250147E+04  0.14541250147E+04  0.50400001928E-02 0. -1.
    10030    2    1    2    0    0  0.00000000000E+00  0.00000000000E+00  0.89983712739E+03  0.38080871568E+04  0.37002460645E+04 0.  0.
        2    1    3    3  502    0  0.17221195896E+04 -0.15753125050E+03  0.11266881599E+04  0.20639617694E+04  0.25500000920E-02 0.  1.
       -2    1    3    3    0  502 -0.17221195896E+04  0.15753125050E+03 -0.22685103252E+03  0.17441253874E+04  0.25500000920E-02 0. -1.
</event>
<event>
 5   0  0.7362817E-08  0.3694418E+04  0.7818609E-02  0.8069200E-01
       -2   -1    0    0    0  501  0.00000000000E+00  0.00000000000E+00  0.14395635556E+04  0.14395635556E+04  0.25500000920E-02 0.  1.
        2   -1    0    0  501    0  0.00000000000E+00  0.00000000000E+00 -0.23702880277E+04  0.23702880277E+04  0.25500000920E-02 0. -1.
    10030    2    1    2    0    0  0.00000000000E+00  0.00000000000E+00 -0.93072447217E+03  0.38098515833E+04  0.36944175514E+04 0.  0.
        1    1    3    3  502    0 -0.40330604879E+03 -0.14818947808E+04  0.59311590688E+03  0.16463457684E+04  0.50400001928E-02 0.  1.
       -1    1    3    3    0  502  0.40330604879E+03  0.14818947808E+04 -0.15238403791E+04  0.21635058149E+04  0.50400001928E-02 0. -1.
</event>
<event>
 5   0  0.7362817E-08  0.3701129E+04  0.7818609E-02  0.8067712E-01
       -2   -1    0    0    0  501  0.00000000000E+00  0.00000000000E+00  0.28895071722E+04  0.28895071722E+04  0.25500000920E-02 0. -1.
        2   -1    0    0  501    0  0.00000000000E+00  0.00000000000E+00 -0.11851807146E+04  0.11851807146E+04  0.25500000920E-02 0.  1.
    10030    2    1    2    0    0  0.00000000000E+00  0.00000000000E+00  0.17043264576E+04  0.40746878868E+04  0.37011285713E+04 0.  0.
        1    1    3    3  502    0  0.84308639147E+03  0.52904399365E+03  0.25697238471E+04  0.27557508707E+04  0.50400001928E-02 0. -1.
       -1    1    3    3    0  502 -0.84308639147E+03 -0.52904399365E+03 -0.86539738955E+03  0.13189370161E+04  0.50400001928E-02 0.  1.
</event>
<event>
 5   0  0.7254493E-08  0.3699972E+04  0.7818609E-02  0.8067968E-01
        2   -1    0    0  501    0  0.00000000000E+00  0.00000000000E+00  0.23531507577E+04  0.23531507577E+04  0.25500000920E-02 0. -1.
       -2   -1    0    0    0  501  0.00000000000E+00  0.00000000000E+00 -0.14544105859E+04  0.14544105859E+04  0.25500000920E-02 0.  1.
    10030    2    1    2    0    0  0.00000000000E+00  0.00000000000E+00  0.89874017178E+03  0.38075613436E+04  0.36999715524E+04 0.  0.
        3    1    3    3  502    0  0.89610518062E+01 -0.13590864556E+03  0.23479839987E+04  0.23519311913E+04  0.10100000352E+00 0. -1.
       -3    1    3    3    0  502 -0.89610518062E+01  0.13590864556E+03 -0.14492438269E+04  0.14556301523E+04  0.10100000352E+00 0.  1.
</event>
<event>
 5   0  0.2282000E-08  0.3699669E+04  0.7818609E-02  0.8068035E-01
        1   -1    0    0  501    0  0.00000000000E+00  0.00000000000E+00  0.18968946316E+04  0.18968946316E+04  0.50400001928E-02 0.  1.
       -1   -1    0    0    0  501  0.00000000000E+00  0.00000000000E+00 -0.18039418887E+04  0.18039418887E+04  0.50400001928E-02 0. -1.
    10030    2    1    2    0    0  0.00000000000E+00  0.00000000000E+00  0.92952742877E+02  0.37008365203E+04  0.36996690038E+04 0.  0.
        4    1    3    3  502    0  0.13888784014E+04 -0.85089399339E+03  0.92361240623E+03  0.18724490091E+04  0.12699999809E+01 0.  1.
       -4    1    3    3    0  502 -0.13888784014E+04  0.85089399339E+03 -0.83065966336E+03  0.18283875112E+04  0.12699999809E+01 0. -1.
</event>
<event>
 5   0  0.2282000E-08  0.3695235E+04  0.7818609E-02  0.8069019E-01
       -1   -1    0    0    0  501  0.00000000000E+00  0.00000000000E+00  0.15578431421E+04  0.15578431421E+04  0.50400001928E-02 0. -1.
        1   -1    0    0  501    0  0.00000000000E+00  0.00000000000E+00 -0.21912931810E+04  0.21912931810E+04  0.50400001928E-02 0.  1.
    10030    2    1    2    0    0  0.00000000000E+00  0.00000000000E+00 -0.63345003893E+03  0.37491363231E+04  0.36952353399E+04 0.  0.
        4    1    3    3  502    0  0.80466087187E+03 -0.13752434224E+04  0.63228822198E+03  0.17142239055E+04  0.12699999809E+01 0. -1.
       -4    1    3    3    0  502 -0.80466087187E+03  0.13752434224E+04 -0.12657382609E+04  0.20349124177E+04  0.12699999809E+01 0.  1.
</event>
<event>
 5   0  0.2282000E-08  0.3698226E+04  0.7818609E-02  0.8068355E-01
        1   -1    0    0  501    0  0.00000000000E+00  0.00000000000E+00  0.30621113655E+04  0.30621113655E+04  0.50400001928E-02 0.  1.
       -1   -1    0    0    0  501  0.00000000000E+00  0.00000000000E+00 -0.11166213752E+04  0.11166213752E+04  0.50400001928E-02 0. -1.
    10030    2    1    2    0    0  0.00000000000E+00  0.00000000000E+00  0.19454899903E+04  0.41787327407E+04  0.36982260634E+04 0.  0.
        1    1    3    3  502    0  0.18143639905E+04  0.26720929341E+03  0.12398997452E+04  0.22137454404E+04  0.50400001928E-02 0. -1.
       -1    1    3    3    0  502 -0.18143639905E+04 -0.26720929341E+03  0.70559024501E+03  0.19649873003E+04  0.50400001928E-02 0.  1.
</event>
<event>
 5   0  0.7191801E-08  0.3681036E+04  0.7818609E-02  0.8072177E-01
       -2   -1    0    0    0  501  0.00000000000E+00  0.00000000000E+00  0.14707607109E+04  0.14707607109E+04  0.25500000920E-02 0. -1.
        2   -1    0    0  501    0  0.00000000000E+00  0.00000000000E+00 -0.23032347529E+04  0.23032347529E+04  0.25500000920E-02 0.  1.
    10030    2    1    2    0    0  0.00000000000E+00  0.00000000000E+00 -0.83247404202E+03  0.37739954639E+04  0.36810363664E+04 0.  0.
        5    1    3    3  502    0  0.87077397364E+03  0.10097990766E+04  0.88447944820E+03  0.16000835830E+04  0.46999998093E+01 0. -1.
       -5    1    3    3    0  502 -0.87077397364E+03 -0.10097990766E+04 -0.17169534902E+04  0.21739118809E+04  0.46999998093E+01 0.  1.
</event>
<event>
 5   0  0.2282000E-08  0.3697350E+04  0.7818609E-02  0.8068549E-01
       -1   -1    0    0    0  501  0.00000000000E+00  0.00000000000E+00  0.17410705159E+04  0.17410705159E+04  0.50400001928E-02 0.  1.
        1   -1    0    0  501    0  0.00000000000E+00  0.00000000000E+00 -0.19629293037E+04  0.19629293038E+04  0.50400001928E-02 0. -1.
    10030    2    1    2    0    0  0.00000000000E+00  0.00000000000E+00 -0.22185878787E+03  0.37039998196E+04  0.36973495023E+04 0.  0.
        3    1    3    3  502    0 -0.11231714332E+04 -0.19330606689E+03 -0.15691288412E+04  0.19393418044E+04  0.10100000352E+00 0. -1.
       -3    1    3    3    0  502  0.11231714332E+04  0.19330606689E+03  0.13472700534E+04  0.17646580152E+04  0.10100000352E+00 0.  1.
</event>
<event>
 5   0  0.7191801E-08  0.3762157E+04  0.7818609E-02  0.8054325E-01
        2   -1    0    0  501    0  0.00000000000E+00  0.00000000000E+00  0.25482990517E+04  0.25482990517E+04  0.25500000920E-02 0.  1.
       -2   -1    0    0    0  501  0.00000000000E+00  0.00000000000E+00 -0.13885562454E+04  0.13885562454E+04  0.25500000920E-02 0. -1.
    10030    2    1    2    0    0  0.00000000000E+00  0.00000000000E+00  0.11597428063E+04  0.39368552971E+04  0.37621571277E+04 0.  0.
        5    1    3    3  502    0 -0.99241713124E+03  0.18304585767E+03  0.22410486514E+04  0.24577873578E+04  0.46999998093E+01 0.  1.
       -5    1    3    3    0  502  0.99241713124E+03 -0.18304585767E+03 -0.10813058451E+04  0.14790679393E+04  0.46999998093E+01 0. -1.
</event>
<event>
 5   0  0.7362817E-08  0.3700180E+04  0.7818609E-02  0.8067922E-01
        2   -1    0    0  501    0  0.00000000000E+00  0.00000000000E+00  0.21082429246E+04  0.21082429246E+04  0.25500000920E-02 0. -1.
       -2   -1    0    0    0  501  0.00000000000E+00  0.00000000000E+00 -0.16235479690E+04  0.16235479690E+04  0.25500000920E-02 0.  1.
    10030    2    1    2    0    0  0.00000000000E+00  0.00000000000E+00  0.48469495556E+03  0.37317908936E+04  0.37001802758E+04 0.  0.
        1    1    3    3  502    0  0.17886554228E+04 -0.28988536844E+03  0.61905113898E+03  0.19148227231E+04  0.50400001928E-02 0. -1.
       -1    1    3    3    0  502 -0.17886554228E+04  0.28988536844E+03 -0.13435618342E+03  0.18169681704E+04  0.50400001928E-02 0.  1.
</event>
<event>
 5   0  0.7203049E-08  0.3696619E+04  0.7818609E-02  0.8068712E-01
        2   -1    0    0  501    0  0.00000000000E+00  0.00000000000E+00  0.23694183485E+04  0.23694183485E+04  0.25500000920E-02 0. -1.
       -2   -1    0    0    0  501  0.00000000000E+00  0.00000000000E+00 -0.14418084696E+04  0.14418084696E+04  0.25500000920E-02 0.  1.
    10030    2    1    2    0    0  0.00000000000E+00  0.00000000000E+00  0.92760987884E+03  0.38112268181E+04  0.36966186944E+04 0.  0.
        4    1    3    3  502    0  0.48272165801E+03 -0.50425960312E+03 -0.13006719007E+04  0.14761595282E+04  0.12699999809E+01 0.  1.
       -4    1    3    3    0  502 -0.48272165801E+03  0.50425960312E+03  0.22282817796E+04  0.23350672899E+04  0.12699999809E+01 0. -1.
</event>
<event>
 5   0  0.7191801E-08  0.3705706E+04  0.7818609E-02  0.8066698E-01
       -2   -1    0    0    0  501  0.00000000000E+00  0.00000000000E+00  0.18096976728E+04  0.18096976728E+04  0.25500000920E-02 0.  1.
        2   -1    0    0  501    0  0.00000000000E+00  0.00000000000E+00 -0.18970375223E+04  0.18970375223E+04  0.25500000920E-02 0. -1.
    10030    2    1    2    0    0  0.00000000000E+00  0.00000000000E+00 -0.87339849570E+02  0.37067351951E+04  0.37057060808E+04 0.  0.
        5    1    3    3  502    0  0.14954480528E+04 -0.52540515110E+03 -0.10034294024E+04  0.18759819048E+04  0.46999998093E+01 0. -1.
       -5    1    3    3    0  502 -0.14954480528E+04  0.52540515110E+03  0.91608955287E+03  0.18307532904E+04  0.46999998093E+01 0.  1.
</event>
<event>
 5   0  0.2282000E-08  0.3696534E+04  0.7818609E-02  0.8068730E-01
       -1   -1    0    0    0  501  0.00000000000E+00  0.00000000000E+00  0.15823115799E+04  0.15823115800E+04  0.50400001928E-02 0.  1.
        1   -1    0    0  501    0  0.00000000000E+00  0.00000000000E+00 -0.21589246296E+04  0.21589246296E+04  0.50400001928E-02 0. -1.
    10030    2    1    2    0    0  0.00000000000E+00  0.00000000000E+00 -0.57661304968E+03  0.37412362096E+04  0.36965342913E+04 0.  0.
        4    1    3    3  502    0  0.17380296675E+04 -0.55038480949E+03 -0.59598820977E+03  0.19180391348E+04  0.12699999809E+01 0.  1.
       -4    1    3    3    0  502 -0.17380296675E+04  0.55038480949E+03  0.19375160086E+02  0.18231970748E+04  0.12699999809E+01 0. -1.
</event>
<event>
 5   0  0.7362817E-08  0.3712485E+04  0.7818609E-02  0.8065201E-01
        2   -1    0    0  501    0  0.00000000000E+00  0.00000000000E+00  0.22679103131E+04  0.22679103131E+04  0.25500000920E-02 0.  1.
       -2   -1    0    0    0  501  0.00000000000E+00  0.00000000000E+00 -0.15193001849E+04  0.15193001849E+04  0.25500000920E-02 0. -1.
    10030    2    1    2    0    0  0.00000000000E+00  0.00000000000E+00  0.74861012817E+03  0.37872104980E+04  0.37124851828E+04 0.  0.
        1    1    3    3  502    0 -0.11616040001E+04  0.63265957931E+03  0.17028450344E+04  0.21562150189E+04  0.50400001928E-02 0.  1.
       -1    1    3    3    0  502  0.11616040001E+04 -0.63265957931E+03 -0.95423490628E+03  0.16309954791E+04  0.50400001928E-02 0. -1.
</event>
<event>
 5   0  0.2282000E-08  0.3686593E+04  0.7818609E-02  0.8070939E-01
        1   -1    0    0  501    0  0.00000000000E+00  0.00000000000E+00  0.19561574597E+04  0.19561574597E+04  0.50400001928E-02 0.  1.
       -1   -1    0    0    0  501  0.00000000000E+00  0.00000000000E+00 -0.17369475375E+04  0.17369475375E+04  0.50400001928E-02 0. -1.
    10030    2    1    2    0    0  0.00000000000E+00  0.00000000000E+00  0.21920992218E+03  0.36931049972E+04  0.36865934859E+04 0.  0.
        1    1    3    3  502    0  0.14380078723E+03 -0.17707347373E+04  0.60196335566E+03  0.18757771877E+04  0.50400001928E-02 0.  1.
       -1    1    3    3    0  502 -0.14380078723E+03  0.17707347373E+04 -0.38275343348E+03  0.18173278095E+04  0.50400001928E-02 0. -1.
</event>
<event>
 5   0  0.2282000E-08  0.3702628E+04  0.7818609E-02  0.8067380E-01
        1   -1    0    0  501    0  0.00000000000E+00  0.00000000000E+00  0.18995728559E+04  0.18995728559E+04  0.50400001928E-02 0.  1.
       -1   -1    0    0    0  501  0.00000000000E+00  0.00000000000E+00 -0.18042815808E+04  0.18042815808E+04  0.50400001928E-02 0. -1.
    10030    2    1    2    0    0  0.00000000000E+00  0.00000000000E+00  0.95291275057E+02  0.37038544367E+04  0.37026284260E+04 0.  0.
        2    1    3    3  502    0  0.18410740112E+04  0.54629650783E+02 -0.13903448726E+03  0.18471243873E+04  0.25500000920E-02 0.  1.
       -2    1    3    3    0  502 -0.18410740112E+04 -0.54629650783E+02  0.23432576231E+03  0.18567300494E+04  0.25500000920E-02 0. -1.
</event>
<event>
 5   0  0.2282000E-08  0.3698710E+04  0.7818609E-02  0.8068248E-01
       -1   -1    0    0    0  501  0.00000000000E+00  0.00000000000E+00  0.16230490499E+04  0.16230490499E+04  0.50400001928E-02 0. -1.
        1   -1    0    0  501    0  0.00000000000E+00  0.00000000000E+00 -0.21072152546E+04  0.21072152546E+04  0.50400001928E-02 0.  1.
    10030    2    1    2    0    0  0.00000000000E+00  0.00000000000E+00 -0.48416620471E+03  0.37302643045E+04  0.36987098924E+04 0.  0.
        2    1    3    3  502    0  0.61158325450E+03  0.16474836851E+04 -0.82308561385E+03  0.19405428358E+04  0.25500000920E-02 0.  1.
       -2    1    3    3    0  502 -0.61158325450E+03 -0.16474836851E+04  0.33891940914E+03  0.17897214687E+04  0.25500000920E-02 0. -1.
</event>
<event>
 5   0  0.2282000E-08  0.3702497E+04  0.7818609E-02  0.8067409E-01
       -1   -1    0    0    0  501  0.00000000000E+00  0.00000000000E+00  0.18696404350E+04  0.18696404350E+04  0.50400001928E-02 0. -1.
        1   -1    0    0  501    0  0.00000000000E+00  0.00000000000E+00 -0.18330372864E+04  0.18330372864E+04  0.50400001928E-02 0.  1.
    10030    2    1    2    0    0  0.00000000000E+00  0.00000000000E+00  0.36603148635E+02  0.37026777214E+04  0.37024967952E+04 0.  0.
        1    1    3    3  502    0 -0.81870136888E+03  0.16318581196E+04  0.32472766950E+03  0.18543680630E+04  0.50400001928E-02 0. -1.
       -1    1    3    3    0  502  0.81870136888E+03 -0.16318581196E+04 -0.28812452087E+03  0.18483096584E+04  0.50400001928E-02 0.  1.
</event>
<event>
 5   0  0.2282000E-08  0.3706691E+04  0.7818609E-02  0.8066481E-01
       -1   -1    0    0    0  501  0.00000000000E+00  0.00000000000E+00  0.11046147230E+04  0.11046147230E+04  0.50400001928E-02 0.  1.
        1   -1    0    0  501    0  0.00000000000E+00  0.00000000000E+00 -0.31095815791E+04  0.31095815791E+04  0.50400001928E-02 0. -1.
    10030    2    1    2    0    0  0.00000000000E+00  0.00000000000E+00 -0.20049668561E+04  0.42141963021E+04  0.37066910282E+04 0.  0.
        4    1    3    3  502    0  0.55662510591E+03 -0.59125112057E+03 -0.28965590535E+04  0.30082329297E+04  0.12699999809E+01 0. -1.
       -4    1    3    3    0  502 -0.55662510591E+03  0.59125112057E+03  0.89159219744E+03  0.12059633724E+04  0.12699999809E+01 0.  1.
</event>
<event>
 5   0  0.7203049E-08  0.3693893E+04  0.7818609E-02  0.8069317E-01
        2   -1    0    0  501    0  0.00000000000E+00  0.00000000000E+00  0.25214073388E+04  0.25214073388E+04  0.25500000920E-02 0. -1.
       -2   -1    0    0    0  501  0.00000000000E+00  0.00000000000E+00 -0.13528998164E+04  0.13528998164E+04  0.25500000920E-02 0.  1.
    10030    2    1    2    0    0  0.00000000000E+00  0.00000000000E+00  0.11685075224E+04  0.38743071552E+04  0.36938930822E+04 0.  0.
        4    1    3    3  502    0  0.69124381457E+03  0.54334280305E+03 -0.11193208445E+04  0.14233482281E+04  0.12699999809E+01 0.  1.
       -4    1    3    3    0  502 -0.69124381457E+03 -0.54334280305E+03  0.22878283669E+04  0.24509589271E+04  0.12699999809E+01 0. -1.
</event>
<event>
 5   0  0.7203049E-08  0.3702457E+04  0.7818609E-02  0.8067418E-01
       -2   -1    0    0    0  501  0.00000000000E+00  0.00000000000E+00  0.21031160854E+04  0.21031160854E+04  0.25500000920E-02 0.  1.
        2   -1    0    0  501    0  0.00000000000E+00  0.00000000000E+00 -0.16295092860E+04  0.16295092860E+04  0.25500000920E-02 0. -1.
    10030    2    1    2    0    0  0.00000000000E+00  0.00000000000E+00  0.47360679943E+03  0.37326253714E+04  0.37024571251E+04 0.  0.
        4    1    3    3  502    0 -0.14337560750E+04 -0.96120830172E+02  0.14134249926E+04  0.20156059931E+04  0.12699999809E+01 0. -1.
       -4    1    3    3    0  502  0.14337560750E+04  0.96120830172E+02 -0.93981819322E+03  0.17170193784E+04  0.12699999809E+01 0.  1.
</event>
<event>
 5   0  0.2282000E-08  0.3699426E+04  0.7818609E-02  0.8068089E-01
       -1   -1    0    0    0  501  0.00000000000E+00  0.00000000000E+00  0.16328328311E+04  0.16328328311E+04  0.50400001928E-02 0. -1.
        1   -1    0    0  501    0  0.00000000000E+00  0.00000000000E+00 -0.20954003322E+04  0.20954003322E+04  0.50400001928E-02 0.  1.
    10030    2    1    2    0    0  0.00000000000E+00  0.00000000000E+00 -0.46256750110E+03  0.37282331634E+04  0.36994261484E+04 0.  0.
        5    1    3    3  502    0 -0.13994858858E+04  0.65800463209E+03 -0.12540188969E+04  0.19910088709E+04  0.46999998093E+01 0.  1.
       -5    1    3    3    0  502  0.13994858858E+04 -0.65800463209E+03  0.79145139580E+03  0.17372242924E+04  0.46999998093E+01 0. -1.
</event>
<event>
 5   0  0.7309833E-08  0.3701017E+04  0.7818609E-02  0.8067736E-01
        2   -1    0    0  501    0  0.00000000000E+00  0.00000000000E+00  0.19409539592E+04  0.19409539592E+04  0.25500000920E-02 0.  1.
       -2   -1    0    0    0  501  0.00000000000E+00  0.00000000000E+00 -0.17642777587E+04  0.17642777587E+04  0.25500000920E-02 0. -1.
    10030    2    1    2    0    0  0.00000000000E+00  0.00000000000E+00  0.17667620053E+03  0.37052317179E+04  0.37010171039E+04 0.  0.
        2    1    3    3  502    0  0.14382356023E+04  0.24036443793E+03 -0.10522947588E+04  0.17982271742E+04  0.25500000920E-02 0. -1.
       -2    1    3    3    0  502 -0.14382356023E+04 -0.24036443793E+03  0.12289709593E+04  0.19070045437E+04  0.25500000920E-02 0.  1.
</event>
<event>
 5   0  0.2282000E-08  0.3701756E+04  0.7818609E-02  0.8067573E-01
       -3   -1    0    0    0  501  0.00000000000E+00  0.00000000000E+00  0.19442004926E+04  0.19442004952E+04  0.10100000352E+00 0.  1.
        3   -1    0    0  501    0  0.00000000000E+00  0.00000000000E+00 -0.17620353920E+04  0.17620353949E+04  0.10100000352E+00 0. -1.
    10030    2    1    2    0    0  0.00000000000E+00  0.00000000000E+00  0.18216510066E+03  0.37062358901E+04  0.37017563871E+04 0.  0.
        2    1    3    3  502    0  0.52061329818E+03  0.34094707181E+03  0.18363118003E+04  0.19388976610E+04  0.25500000920E-02 0.  1.
       -2    1    3    3    0  502 -0.52061329818E+03 -0.34094707181E+03 -0.16541466996E+04  0.17673382291E+04  0.25500000920E-02 0. -1.
</event>
<event>
 5   0  0.7362817E-08  0.3699004E+04  0.7818609E-02  0.8068183E-01
        2   -1    0    0  501    0  0.00000000000E+00  0.00000000000E+00  0.13724822013E+04  0.13724822013E+04  0.25500000920E-02 0.  1.
       -2   -1    0    0    0  501  0.00000000000E+00  0.00000000000E+00 -0.24923150591E+04  0.24923150591E+04  0.25500000920E-02 0. -1.
    10030    2    1    2    0    0  0.00000000000E+00  0.00000000000E+00 -0.11198328578E+04  0.38647972604E+04  0.36990042221E+04 0.  0.
        1    1    3    3  502    0 -0.52696609380E+03 -0.46741286409E+03  0.12268466124E+04  0.14146804091E+04  0.50400001928E-02 0.  1.
       -1    1    3    3    0  502  0.52696609380E+03  0.46741286409E+03 -0.23466794702E+04  0.24501168513E+04  0.50400001928E-02 0. -1.
</event>
<event>
 5   0  0.7203049E-08  0.3706049E+04  0.7818609E-02  0.8066623E-01
       -2   -1    0    0    0  501  0.00000000000E+00  0.00000000000E+00  0.23987841115E+04  0.23987841115E+04  0.25500000920E-02 0. -1.
        2   -1    0    0  501    0  0.00000000000E+00  0.00000000000E+00 -0.14314335819E+04  0.14314335819E+04  0.25500000920E-02 0.  1.
    10030    2    1    2    0    0  0.00000000000E+00  0.00000000000E+00  0.96735052958E+03  0.38302176934E+04  0.37060491809E+04 0.  0.
        4    1    3    3  502    0 -0.99244424878E+02 -0.14591024499E+04 -0.69237318620E+03  0.16180888904E+04  0.12699999809E+01 0.  1.
       -4    1    3    3    0  502  0.99244424878E+02  0.14591024499E+04  0.16597237158E+04  0.22121288030E+04  0.12699999809E+01 0. -1.
</event>
<event>
 5   0  0.2282000E-08  0.3748883E+04  0.7818609E-02  0.8057214E-01
        1   -1    0    0  501    0  0.00000000000E+00  0.00000000000E+00  0.23262883513E+04  0.23262883513E+04  0.50400001928E-02 0.  1.
       -1   -1    0    0    0  501  0.00000000000E+00  0.00000000000E+00 -0.15103592134E+04  0.15103592134E+04  0.50400001928E-02 0. -1.
    10030    2    1    2    0    0  0.00000000000E+00  0.00000000000E+00  0.81592913792E+03  0.38366475647E+04  0.37488830573E+04 0.  0.
        5    1    3    3  502    0  0.93541132618E+03 -0.95660002059E+03  0.17514933192E+04  0.22040482948E+04  0.46999998093E+01 0.  1.
       -5    1    3    3    0  502 -0.93541132618E+03  0.95660002059E+03 -0.93556418132E+03  0.16325992699E+04  0.46999998093E+01 0. -1.
</event>
<event>
 5   0  0.7203049E-08  0.3682204E+04  0.7818609E-02  0.8071917E-01
        2   -1    0    0  501    0  0.00000000000E+00  0.00000000000E+00  0.22985331379E+04  0.22985331379E+04  0.25500000920E-02 0. -1.
       -2   -1    0    0    0  501  0.00000000000E+00  0.00000000000E+00 -0.14747042744E+04  0.14747042744E+04  0.25500000920E-02 0.  1.
    10030    2    1    2    0    0  0.00000000000E+00  0.00000000000E+00  0.82382886347E+03  0.37732374124E+04  0.36822040375E+04 0.  0.
        4    1    3    3  502    0 -0.60151498200E+03  0.12519548175E+04 -0.82645071466E+03  0.16162405562E+04  0.12699999809E+01 0.  1.
       -4    1    3    3    0  502  0.60151498200E+03 -0.12519548175E+04  0.16502795781E+04  0.21569968562E+04  0.12699999809E+01 0. -1.
</event>
<event>
 5   0  0.7191801E-08  0.3700456E+04  0.7818609E-02  0.8067861E-01
        2   -1    0    0  501    0  0.00000000000E+00  0.00000000000E+00  0.28799780248E+04  0.28799780248E+04  0.25500000920E-02 0.  1.
       -2   -1    0    0    0  501  0.00000000000E+00  0.00000000000E+00 -0.11886701981E+04  0.11886701981E+04  0.25500000920E-02 0. -1.
    10030    2    1    2    0    0  0.00000000000E+00  0.00000000000E+00  0.16913078267E+04  0.40686482229E+04  0.37004562147E+04 0.  0.
        5    1    3    3  502    0  0.16285542611E+04  0.44652597602E+03  0.14278798004E+02  0.16887274507E+04  0.46999998093E+01 0. -1.
       -5    1    3    3    0  502 -0.16285542611E+04 -0.44652597602E+03  0.16770290287E+04  0.23799207722E+04  0.46999998093E+01 0.  1.
</event>
<event>
 5   0  0.7362817E-08  0.3759499E+04  0.7818609E-02  0.8054903E-01
        2   -1    0    0  501    0  0.00000000000E+00  0.00000000000E+00  0.18928306832E+04  0.18928306832E+04  0.25500000920E-02 0. -1.
       -2   -1    0    0    0  501  0.00000000000E+00  0.00000000000E+00 -0.18667586162E+04  0.18667586162E+04  0.25500000920E-02 0.  1.
    10030    2    1    2    0    0  0.00000000000E+00  0.00000000000E+00  0.26072067028E+02  0.37595892994E+04  0.37594988958E+04 0.  0.
        1    1    3    3  502    0  0.18351778477E+04  0.40182987721E+03 -0.51098215745E+02  0.18793498904E+04  0.50400001928E-02 0. -1.
       -1    1    3    3    0  502 -0.18351778477E+04 -0.40182987721E+03  0.77170282772E+02  0.18802394091E+04  0.50400001928E-02 0.  1.
</event>
<event>
 5   0  0.2282000E-08  0.3700716E+04  0.7818609E-02  0.8067803E-01
       -1   -1    0    0    0  501  0.00000000000E+00  0.00000000000E+00  0.24784715605E+04  0.24784715605E+04  0.50400001928E-02 0.  1.
        1   -1    0    0  501    0  0.00000000000E+00  0.00000000000E+00 -0.13814257980E+04  0.13814257980E+04  0.50400001928E-02 0. -1.
    10030    2    1    2    0    0  0.00000000000E+00  0.00000000000E+00  0.10970457626E+04  0.38598973585E+04  0.37007159055E+04 0.  0.
        4    1    3    3  502    0  0.17604545383E+04 -0.51826187831E+03  0.79540531165E+03  0.20001166912E+04  0.12699999809E+01 0.  1.
       -4    1    3    3    0  502 -0.17604545383E+04  0.51826187831E+03  0.30164045092E+03  0.18597806673E+04  0.12699999809E+01 0. -1.
</event>
<event>
 5   0  0.7362817E-08  0.3699618E+04  0.7818609E-02  0.8068046E-01
        2   -1    0    0  501    0  0.00000000000E+00  0.00000000000E+00  0.19651513980E+04  0.19651513980E+04  0.25500000920E-02 0.  1.
       -2   -1    0    0    0  501  0.00000000000E+00  0.00000000000E+00 -0.17412365955E+04  0.17412365955E+04  0.25500000920E-02 0. -1.
    10030    2    1    2    0    0  0.00000000000E+00  0.00000000000E+00  0.22391480245E+03  0.37063879935E+04  0.36996181045E+04 0.  0.
        1    1    3    3  502    0  0.17828089727E+04  0.24335484509E+03  0.54188615403E+03  0.18791673735E+04  0.50400001928E-02 0.  1.
       -1    1    3    3    0  502 -0.17828089727E+04 -0.24335484509E+03 -0.31797135159E+03  0.18272206200E+04  0.50400001928E-02 0. -1.
</event>
<event>
 5   0  0.2282000E-08  0.3702232E+04  0.7818609E-02  0.8067467E-01
       -1   -1    0    0    0  501  0.00000000000E+00  0.00000000000E+00  0.20328897719E+04  0.20328897719E+04  0.50400001928E-02 0.  1.
        1   -1    0    0  501    0  0.00000000000E+00  0.00000000000E+00 -0.16855960722E+04  0.16855960722E+04  0.50400001928E-02 0. -1.
    10030    2    1    2    0    0  0.00000000000E+00  0.00000000000E+00  0.34729369963E+03  0.37184858441E+04  0.37022323075E+04 0.  0.
        2    1    3    3  502    0  0.47554227437E+03 -0.54653140135E+03  0.18845906894E+04  0.20190391512E+04  0.25500000920E-02 0.  1.
       -2    1    3    3    0  502 -0.47554227437E+03  0.54653140135E+03 -0.15372969898E+04  0.16994466929E+04  0.25500000920E-02 0. -1.
</event>
<event>
 5   0  0.7254493E-08  0.3699798E+04  0.7818609E-02  0.8068007E-01
        2   -1    0    0  501    0  0.00000000000E+00  0.00000000000E+00  0.18621652584E+04  0.18621652584E+04  0.25500000920E-02 0. -1.
       -2   -1    0    0    0  501  0.00000000000E+00  0.00000000000E+00 -0.18377137712E+04  0.18377137712E+04  0.25500000920E-02 0.  1.
    10030    2    1    2    0    0  0.00000000000E+00  0.00000000000E+00  0.24451487130E+02  0.36998790296E+04  0.36997982321E+04 0.  0.
        3    1    3    3  502    0  0.33131385611E+03  0.12035072905E+04 -0.13530615781E+04  0.18409167048E+04  0.10100000352E+00 0.  1.
       -3    1    3    3    0  502 -0.33131385611E+03 -0.12035072905E+04  0.13775130653E+04  0.18589623248E+04  0.10100000352E+00 0. -1.
</event>
<event>
 5   0  0.2282000E-08  0.3703452E+04  0.7818609E-02  0.8067197E-01
        1   -1    0    0  501    0  0.00000000000E+00  0.00000000000E+00  0.16498585978E+04  0.16498585978E+04  0.50400001928E-02 0. -1.
       -1   -1    0    0    0  501  0.00000000000E+00  0.00000000000E+00 -0.20782930265E+04  0.20782930265E+04  0.50400001928E-02 0.  1.
    10030    2    1    2    0    0  0.00000000000E+00  0.00000000000E+00 -0.42843442864E+03  0.37281516243E+04  0.37034522373E+04 0.  0.
        4    1    3    3  502    0 -0.53413694634E+02  0.18044114992E+03 -0.20686419355E+04  0.20771839354E+04  0.12699999809E+01 0.  1.
       -4    1    3    3    0  502  0.53413694634E+02 -0.18044114992E+03  0.16402075068E+04  0.16509676889E+04  0.12699999809E+01 0. -1.
</event>
<event>
 5   0  0.2282000E-08  0.3704947E+04  0.7818609E-02  0.8066866E-01
       -1   -1    0    0    0  501  0.00000000000E+00  0.00000000000E+00  0.23516990901E+04  0.23516990901E+04  0.50400001928E-02 0.  1.
        1   -1    0    0  501    0  0.00000000000E+00  0.00000000000E+00 -0.14592248936E+04  0.14592248936E+04  0.50400001928E-02 0. -1.
    10030    2    1    2    0    0  0.00000000000E+00  0.00000000000E+00  0.89247419651E+03  0.38109239838E+04  0.37049468847E+04 0.  0.
        1    1    3    3  502    0  0.83156290720E+02  0.72633074253E+03  0.21970370628E+04  0.23154790372E+04  0.50400001928E-02 0.  1.
       -1    1    3    3    0  502 -0.83156290720E+02 -0.72633074253E+03 -0.13045628663E+04  0.14954449466E+04  0.50400001928E-02 0. -1.
</event>
<event>
 5   0  0.7362817E-08  0.3697251E+04  0.7818609E-02  0.8068571E-01
        2   -1    0    0  501    0  0.00000000000E+00  0.00000000000E+00  0.18420608485E+04  0.18420608485E+04  0.25500000920E-02 0.  1.
       -2   -1    0    0    0  501  0.00000000000E+00  0.00000000000E+00 -0.18552132026E+04  0.18552132026E+04  0.25500000920E-02 0. -1.
    10030    2    1    2    0    0  0.00000000000E+00  0.00000000000E+00 -0.13152354110E+02  0.36972740510E+04  0.36972506574E+04 0.  0.
        1    1    3    3  502    0 -0.13358893808E+04 -0.89785992827E+03 -0.91579187125E+03  0.18518713886E+04  0.50400001928E-02 0. -1.
       -1    1    3    3    0  502  0.13358893808E+04  0.89785992827E+03  0.90263951714E+03  0.18454026624E+04  0.50400001928E-02 0.  1.
</event>
<event>
 5   0  0.7203049E-08  0.3699249E+04  0.7818609E-02  0.8068128E-01
       -2   -1    0    0    0  501  0.00000000000E+00  0.00000000000E+00  0.18256848262E+04  0.18256848262E+04  0.25500000920E-02 0.  1.
        2   -1    0    0  501    0  0.00000000000E+00  0.00000000000E+00 -0.18738780320E+04  0.18738780320E+04  0.25500000920E-02 0. -1.
    10030    2    1    2    0    0  0.00000000000E+00  0.00000000000E+00 -0.48193205745E+02  0.36995628582E+04  0.36992489449E+04 0.  0.
        4    1    3    3  502    0  0.88467579838E+03 -0.37698782274E+03 -0.16042110542E+04  0.18703651531E+04  0.12699999809E+01 0. -1.
       -4    1    3    3    0  502 -0.88467579838E+03  0.37698782274E+03  0.15560178484E+04  0.18291977051E+04  0.12699999809E+01 0.  1.
</event>
<event>
 5   0  0.2282000E-08  0.3719894E+04  0.7818609E-02  0.8063567E-01
       -3   -1    0    0    0  501  0.00000000000E+00  0.00000000000E+00  0.19772296596E+04  0.19772296622E+04  0.10100000352E+00 0. -1.
        3   -1    0    0  501    0  0.00000000000E+00  0.00000000000E+00 -0.17496214017E+04  0.17496214046E+04  0.10100000352E+00 0.  1.
    10030    2    1    2    0    0  0.00000000000E+00  0.00000000000E+00  0.22760825792E+03  0.37268510667E+04  0.37198942666E+04 0.  0.
        4    1    3    3  502    0 -0.37162563351E+03  0.44090068060E+03 -0.16578079227E+04  0.17552286869E+04  0.12699999809E+01 0.  1.
       -4    1    3    3    0  502  0.37162563351E+03 -0.44090068060E+03  0.18854161806E+04  0.19716223799E+04  0.12699999809E+01 0. -1.
</event>
<event>
 5   0  0.7362817E-08  0.3751178E+04  0.7818609E-02  0.8056714E-01
       -2   -1    0    0    0  501  0.00000000000E+00  0.00000000000E+00  0.15243390093E+04  0.15243390093E+04  0.25500000920E-02 0.  1.
        2   -1    0    0  501    0  0.00000000000E+00  0.00000000000E+00 -0.23077765688E+04  0.23077765688E+04  0.25500000920E-02 0. -1.
    10030    2    1    2    0    0  0.00000000000E+00  0.00000000000E+00 -0.78343755952E+03  0.38321155780E+04  0.37511778675E+04 0.  0.
        1    1    3    3  502    0  0.11023774973E+04 -0.54305932035E+03 -0.18392190405E+04  0.22119846859E+04  0.50400001928E-02 0. -1.
       -1    1    3    3    0  502 -0.11023774973E+04  0.54305932035E+03  0.10557814810E+04  0.16201308921E+04  0.50400001928E-02 0.  1.
</event>
<event>
 5   0  0.7254493E-08  0.3721899E+04  0.7818609E-02  0.8063126E-01
       -2   -1    0    0    0  501  0.00000000000E+00  0.00000000000E+00  0.22314021804E+04  0.22314021804E+04  0.25500000920E-02 0. -1.
        2   -1    0    0  501    0  0.00000000000E+00  0.00000000000E+00 -0.15519989003E+04  0.15519989003E+04  0.25500000920E-02 0.  1.
    10030    2    1    2    0    0  0.00000000000E+00  0.00000000000E+00  0.67940328011E+03  0.37834010807E+04  0.37218993700E+04 0.  0.
        3    1    3    3  502    0  0.12003497936E+04 -0.14094883451E+04  0.14780539194E+03  0.18572408207E+04  0.10100000352E+00 0. -1.
       -3    1    3    3    0  502 -0.12003497936E+04  0.14094883451E+04  0.53159788817E+03  0.19261602599E+04  0.10100000352E+00 0.  1.
</event>
<event>
 5   0  0.2282000E-08  0.3701564E+04  0.7818609E-02  0.8067615E-01
       -1   -1    0    0    0  501  0.00000000000E+00  0.00000000000E+00  0.23414235798E+04  0.23414235798E+04  0.50400001928E-02 0.  1.
        1   -1    0    0  501    0  0.00000000000E+00  0.00000000000E+00 -0.14629534199E+04  0.14629534199E+04  0.50400001928E-02 0. -1.
    10030    2    1    2    0    0  0.00000000000E+00  0.00000000000E+00  0.87847015992E+03  0.38043769998E+04  0.37015637958E+04 0.  0.
        1    1    3    3  502    0  0.17663083851E+04 -0.51101609738E+03  0.65582734935E+03  0.19522019043E+04  0.50400001928E-02 0.  1.
       -1    1    3    3    0  502 -0.17663083851E+04  0.51101609738E+03  0.22264281057E+03  0.18521750954E+04  0.50400001928E-02 0. -1.
</event>
<event>
 5   0  0.2282000E-08  0.3700535E+04  0.7818609E-02  0.8067843E-01
        1   -1    0    0  501    0  0.00000000000E+00  0.00000000000E+00  0.21583666356E+04  0.21583666356E+04  0.50400001928E-02 0. -1.
       -1   -1    0    0    0  501  0.00000000000E+00  0.00000000000E+00 -0.15861484367E+04  0.15861484367E+04  0.50400001928E-02 0.  1.
    10030    2    1    2    0    0  0.00000000000E+00  0.00000000000E+00  0.57221819898E+03  0.37445150723E+04  0.37005350234E+04 0.  0.
        1    1    3    3  502    0 -0.22933141642E+03 -0.53515268347E+02  0.21431404623E+04  0.21560398475E+04  0.50400001928E-02 0. -1.
       -1    1    3    3    0  502  0.22933141642E+03  0.53515268347E+02 -0.15709222633E+04  0.15884752249E+04  0.50400001928E-02 0.  1.
</event>
<event>
 5   0  0.2282000E-08  0.3702700E+04  0.7818609E-02  0.8067364E-01
        1   -1    0    0  501    0  0.00000000000E+00  0.00000000000E+00  0.21192522861E+04  0.21192522861E+04  0.50400001928E-02 0.  1.
       -1   -1    0    0    0  501  0.00000000000E+00  0.00000000000E+00 -0.16173140671E+04  0.16173140671E+04  0.50400001928E-02 0. -1.
    10030    2    1    2    0    0  0.00000000000E+00  0.00000000000E+00  0.50193821898E+03  0.37365663532E+04  0.37026998442E+04 0.  0.
        3    1    3    3  502    0 -0.55937286762E+03  0.99149316286E+00  0.20319331832E+04  0.21075225880E+04  0.10100000352E+00 0.  1.
       -3    1    3    3    0  502  0.55937286762E+03 -0.99149316286E+00 -0.15299949642E+04  0.16290437651E+04  0.10100000352E+00 0. -1.
</event>
<event>
 5   0  0.2282000E-08  0.3692016E+04  0.7818609E-02  0.8069734E-01
       -1   -1    0    0    0  501  0.00000000000E+00  0.00000000000E+00  0.13808636357E+04  0.13808636357E+04  0.50400001928E-02 0. -1.
        1   -1    0    0  501    0  0.00000000000E+00  0.00000000000E+00 -0.24678358286E+04  0.24678358286E+04  0.50400001928E-02 0.  1.
    10030    2    1    2    0    0  0.00000000000E+00  0.00000000000E+00 -0.10869721929E+04  0.38486994642E+04  0.36920155766E+04 0.  0.
        5    1    3    3  502    0 -0.36803842378E+02  0.72254931628E+02 -0.24659721572E+04  0.24673094796E+04  0.46999998093E+01 0.  1.
       -5    1    3    3    0  502  0.36803842378E+02 -0.72254931628E+02  0.13789999643E+04  0.13813899846E+04  0.46999998093E+01 0. -1.
</event>
<event>
 5   0  0.2282000E-08  0.3704707E+04  0.7818609E-02  0.8066920E-01
        1   -1    0    0  501    0  0.00000000000E+00  0.00000000000E+00  0.10777053955E+04  0.10777053955E+04  0.50400001928E-02 0.  1.
       -1   -1    0    0    0  501  0.00000000000E+00  0.00000000000E+00 -0.31838138088E+04  0.31838138088E+04  0.50400001928E-02 0. -1.
    10030    2    1    2    0    0  0.00000000000E+00  0.00000000000E+00 -0.21061084133E+04  0.42615192043E+04  0.37047069088E+04 0.  0.
        5    1    3    3  502    0  0.70830655470E+03  0.70186349754E+03  0.74262075716E+03  0.12433093837E+04  0.46999998093E+01 0.  1.
       -5    1    3    3    0  502 -0.70830655470E+03 -0.70186349754E+03 -0.28487291705E+04  0.30182098206E+04  0.46999998093E+01 0. -1.
</event>
<event>
 5   0  0.7203049E-08  0.3701939E+04  0.7818609E-02  0.8067532E-01
        2   -1    0    0  501    0  0.00000000000E+00  0.00000000000E+00  0.20069828443E+04  0.20069828443E+04  0.25500000920E-02 0.  1.
       -2   -1    0    0    0  501  0.00000000000E+00  0.00000000000E+00 -0.17070841395E+04  0.17070841395E+04  0.25500000920E-02 0. -1.
    10030    2    1    2    0    0  0.00000000000E+00  0.00000000000E+00  0.29989870483E+03  0.37140669839E+04  0.37019392658E+04 0.  0.
        4    1    3    3  502    0  0.60900828429E+03  0.14586601817E+02 -0.16036276829E+04  0.17154379084E+04  0.12699999809E+01 0. -1.
       -4    1    3    3    0  502 -0.60900828429E+03 -0.14586601817E+02  0.19035263878E+04  0.19986290754E+04  0.12699999809E+01 0.  1.
</event>
<event>
 5   0  0.7362817E-08  0.3708141E+04  0.7818609E-02  0.8066160E-01
        2   -1    0    0  501    0  0.00000000000E+00  0.00000000000E+00  0.16801910119E+04  0.16801910119E+04  0.25500000920E-02 0. -1.
       -2   -1    0    0    0  501  0.00000000000E+00  0.00000000000E+00 -0.20459448179E+04  0.20459448179E+04  0.25500000920E-02 0.  1.
    10030    2    1    2    0    0  0.00000000000E+00  0.00000000000E+00 -0.36575380607E+03  0.37261358298E+04  0.37081413640E+04 0.  0.
        1    1    3    3  502    0  0.13095556309E+04 -0.42973112788E+03  0.10632916803E+04  0.17407452399E+04  0.50400001928E-02 0. -1.
       -1    1    3    3    0  502 -0.13095556309E+04  0.42973112788E+03 -0.14290454863E+04  0.19853905900E+04  0.50400001928E-02 0.  1.
</event>
<event>
 5   0  0.2282000E-08  0.3698388E+04  0.7818609E-02  0.8068319E-01
       -1   -1    0    0    0  501  0.00000000000E+00  0.00000000000E+00  0.14701509360E+04  0.14701509360E+04  0.50400001928E-02 0.  1.
        1   -1    0    0  501    0  0.00000000000E+00  0.00000000000E+00 -0.23259642131E+04  0.23259642131E+04  0.50400001928E-02 0. -1.
    10030    2    1    2    0    0  0.00000000000E+00  0.00000000000E+00 -0.85581327707E+03  0.37961151492E+04  0.36983880084E+04 0.  0.
        2    1    3    3  502    0 -0.77133406347E+03 -0.16646888485E+04 -0.66503788951E+03  0.19515175106E+04  0.25500000920E-02 0. -1.
       -2    1    3    3    0  502  0.77133406347E+03  0.16646888485E+04 -0.19077538756E+03  0.18445976386E+04  0.25500000920E-02 0.  1.
</event>
<event>
 5   0  0.7191801E-08  0.3676232E+04  0.7818609E-02  0.8073250E-01
        2   -1    0    0  501    0  0.00000000000E+00  0.00000000000E+00  0.17901743691E+04  0.17901743691E+04  0.25500000920E-02 0.  1.
       -2   -1    0    0    0  501  0.00000000000E+00  0.00000000000E+00 -0.18873414536E+04  0.18873414536E+04  0.25500000920E-02 0. -1.
    10030    2    1    2    0    0  0.00000000000E+00  0.00000000000E+00 -0.97167084450E+02  0.36775158227E+04  0.36762319274E+04 0.  0.
        5    1    3    3  502    0  0.13338358074E+03 -0.14610051049E+04 -0.11563641277E+04  0.18680276181E+04  0.46999998093E+01 0. -1.
       -5    1    3    3    0  502 -0.13338358074E+03  0.14610051049E+04  0.10591970433E+04  0.18094882046E+04  0.46999998093E+01 0.  1.
</event>
<event>
 5   0  0.2282000E-08  0.3630336E+04  0.7818609E-02  0.8083578E-01
        1   -1    0    0  501    0  0.00000000000E+00  0.00000000000E+00  0.26115315026E+04  0.26115315026E+04  0.50400001928E-02 0.  1.
       -1   -1    0    0    0  501  0.00000000000E+00  0.00000000000E+00 -0.12616486948E+04  0.12616486948E+04  0.50400001928E-02 0. -1.
    10030    2    1    2    0    0  0.00000000000E+00  0.00000000000E+00  0.13498828078E+04  0.38731801974E+04  0.36303362444E+04 0.  0.
        2    1    3    3  502    0 -0.13527457743E+04 -0.11123281633E+04  0.11839737353E+04  0.21139983157E+04  0.25500000920E-02 0.  1.
       -2    1    3    3    0  502  0.13527457743E+04  0.11123281633E+04  0.16590907254E+03  0.17591818818E+04  0.25500000920E-02 0. -1.
</event>
<event>
 5   0  0.7309833E-08  0.3709966E+04  0.7818609E-02  0.8065757E-01
        2   -1    0    0  501    0  0.00000000000E+00  0.00000000000E+00  0.20370279656E+04  0.20370279656E+04  0.25500000920E-02 0.  1.
       -2   -1    0    0    0  501  0.00000000000E+00  0.00000000000E+00 -0.16892066057E+04  0.16892066057E+04  0.25500000920E-02 0. -1.
    10030    2    1    2    0    0  0.00000000000E+00  0.00000000000E+00  0.34782135991E+03  0.37262345713E+04  0.37099655500E+04 0.  0.
        2    1    3    3  502    0  0.97902042810E+03 -0.15734287293E+04  0.91073976930E+02  0.18553849827E+04  0.25500000920E-02 0. -1.
       -2    1    3    3    0  502 -0.97902042810E+03  0.15734287293E+04  0.25674738298E+03  0.18708495887E+04  0.25500000920E-02 0.  1.
</event>
<event>
 5   0  0.7254493E-08  0.3747678E+04  0.7818609E-02  0.8057477E-01
        2   -1    0    0  501    0  0.00000000000E+00  0.00000000000E+00  0.18364250058E+04  0.18364250058E+04  0.25500000920E-02 0. -1.
       -2   -1    0    0    0  501  0.00000000000E+00  0.00000000000E+00 -0.19120151343E+04  0.19120151343E+04  0.25500000920E-02 0.  1.
    10030    2    1    2    0    0  0.00000000000E+00  0.00000000000E+00 -0.75590128503E+02  0.37484401401E+04  0.37476778966E+04 0.  0.
        3    1    3    3  502    0  0.86872130254E+03  0.74885378977E+02 -0.16967426337E+04  0.19076740016E+04  0.10100000352E+00 0.  1.
       -3    1    3    3    0  502 -0.86872130254E+03 -0.74885378977E+02  0.16211525051E+04  0.18407661385E+04  0.10100000352E+00 0. -1.
</event>
<event>
 5   0  0.7362817E-08  0.3703154E+04  0.7818609E-02  0.8067263E-01
        2   -1    0    0  501    0  0.00000000000E+00  0.00000000000E+00  0.17281712574E+04  0.17281712574E+04  0.25500000920E-02 0.  1.
       -2   -1    0    0    0  501  0.00000000000E+00  0.00000000000E+00 -0.19837949298E+04  0.19837949298E+04  0.25500000920E-02 0. -1.
    10030    2    1    2    0    0  0.00000000000E+00  0.00000000000E+00 -0.25562367242E+03  0.37119661871E+04  0.37031539953E+04 0.  0.
        1    1    3    3  502    0 -0.11426097122E+02 -0.10978998080E+04 -0.16222731036E+04  0.19588988148E+04  0.50400001928E-02 0. -1.
       -1    1    3    3    0  502  0.11426097122E+02  0.10978998080E+04  0.13666494312E+04  0.17530673723E+04  0.50400001928E-02 0.  1.
</event>
<event>
 5   0  0.7203049E-08  0.3700886E+04  0.7818609E-02  0.8067766E-01
        2   -1    0    0  501    0  0.00000000000E+00  0.00000000000E+00  0.23083309589E+04  0.23083309589E+04  0.25500000920E-02 0.  1.
       -2   -1    0    0    0  501  0.00000000000E+00  0.00000000000E+00 -0.14833831534E+04  0.14833831534E+04  0.25500000920E-02 0. -1.
    10030    2    1    2    0    0  0.00000000000E+00  0.00000000000E+00  0.82494780557E+03  0.37917141123E+04  0.37008859787E+04 0.  0.
        4    1    3    3  502    0 -0.14677663419E+04  0.10993583756E+04  0.15899383957E+03  0.18407084306E+04  0.12699999809E+01 0. -1.
       -4    1    3    3    0  502  0.14677663419E+04 -0.10993583756E+04  0.66595396600E+03  0.19510056817E+04  0.12699999809E+01 0.  1.
</event>
<event>
 5   0  0.2282000E-08  0.3681081E+04  0.7818609E-02  0.8072167E-01
       -1   -1    0    0    0  501  0.00000000000E+00  0.00000000000E+00  0.16510139348E+04  0.16510139348E+04  0.50400001928E-02 0.  1.
        1   -1    0    0  501    0  0.00000000000E+00  0.00000000000E+00 -0.20518239427E+04  0.20518239427E+04  0.50400001928E-02 0. -1.
    10030    2    1    2    0    0  0.00000000000E+00  0.00000000000E+00 -0.40081000784E+03  0.37028378775E+04  0.36810813201E+04 0.  0.
        5    1    3    3  502    0 -0.90383488493E+03  0.78097387470E+03  0.12081317967E+04  0.16989532720E+04  0.46999998093E+01 0.  1.
       -5    1    3    3    0  502  0.90383488493E+03 -0.78097387470E+03 -0.16089418045E+04  0.20038846056E+04  0.46999998093E+01 0. -1.
</event>
<event>
 5   0  0.2282000E-08  0.3697791E+04  0.7818609E-02  0.8068452E-01
        1   -1    0    0  501    0  0.00000000000E+00  0.00000000000E+00  0.21049653832E+04  0.21049653832E+04  0.50400001928E-02 0. -1.
       -1   -1    0    0    0  501  0.00000000000E+00  0.00000000000E+00 -0.16239762560E+04  0.16239762560E+04  0.50400001928E-02 0.  1.
    10030    2    1    2    0    0  0.00000000000E+00  0.00000000000E+00  0.48098912717E+03  0.37289416392E+04  0.36977905846E+04 0.  0.
        4    1    3    3  502    0  0.65317898023E+03  0.16621424271E+04  0.72312008182E+03  0.19267237721E+04  0.12699999809E+01 0. -1.
       -4    1    3    3    0  502 -0.65317898023E+03 -0.16621424271E+04 -0.24213095464E+03  0.18022178671E+04  0.12699999809E+01 0.  1.
</event>
<event>
 5   0  0.2282000E-08  0.3690998E+04  0.7818609E-02  0.8069960E-01
        3   -1    0    0  501    0  0.00000000000E+00  0.00000000000E+00  0.20880049646E+04  0.20880049670E+04  0.10100000352E+00 0. -1.
       -3   -1    0    0    0  501  0.00000000000E+00  0.00000000000E+00 -0.16311578557E+04  0.16311578588E+04  0.10100000352E+00 0.  1.
    10030    2    1    2    0    0  0.00000000000E+00  0.00000000000E+00  0.45684710890E+03  0.37191628258E+04  0.36909975405E+04 0.  0.
        1    1    3    3  502    0 -0.12213864770E+02  0.14357513577E+04  0.13967255543E+04  0.20030909649E+04  0.50400001928E-02 0. -1.
       -1    1    3    3    0  502  0.12213864770E+02 -0.14357513577E+04 -0.93987844543E+03  0.17160718609E+04  0.50400001928E-02 0.  1.
</event>
<event>
 5   0  0.7254493E-08  0.3685246E+04  0.7818609E-02  0.8071239E-01
       -2   -1    0    0    0  501  0.00000000000E+00  0.00000000000E+00  0.28048058352E+04  0.28048058352E+04  0.25500000920E-02 0.  1.
        2   -1    0    0  501    0  0.00000000000E+00  0.00000000000E+00 -0.12105148587E+04  0.12105148588E+04  0.25500000920E-02 0. -1.
    10030    2    1    2    0    0  0.00000000000E+00  0.00000000000E+00  0.15942909765E+04  0.40153206940E+04  0.36852457934E+04 0.  0.
        3    1    3    3  502    0  0.16524223410E+04  0.76555810454E+03  0.49152191432E+03  0.18863119060E+04  0.10100000352E+00 0. -1.
       -3    1    3    3    0  502 -0.16524223410E+04 -0.76555810454E+03  0.11027690622E+04  0.21290087879E+04  0.10100000352E+00 0.  1.
</event>
<event>
 5   0  0.7309833E-08  0.3702523E+04  0.7818609E-02  0.8067403E-01
        2   -1    0    0  501    0  0.00000000000E+00  0.00000000000E+00  0.10810924610E+04  0.10810924610E+04  0.25500000920E-02 0. -1.
       -2   -1    0    0    0  501  0.00000000000E+00  0.00000000000E+00 -0.31700977262E+04  0.31700977262E+04  0.25500000920E-02 0.  1.
    10030    2    1    2    0    0  0.00000000000E+00  0.00000000000E+00 -0.20890052653E+04  0.42511901872E+04  0.37025227899E+04 0.  0.
        2    1    3    3  502    0 -0.38367309702E+03 -0.18070088209E+04 -0.90537363622E+03  0.20572280732E+04  0.25500000920E-02 0.  1.
       -2    1    3    3    0  502  0.38367309702E+03  0.18070088209E+04 -0.11836316291E+04  0.21939621140E+04  0.25500000920E-02 0. -1.
</event>
<event>
 5   0  0.7191801E-08  0.3695459E+04  0.7818609E-02  0.8068969E-01
        2   -1    0    0  501    0  0.00000000000E+00  0.00000000000E+00  0.24204156721E+04  0.24204156721E+04  0.25500000920E-02 0.  1.
       -2   -1    0    0    0  501  0.00000000000E+00  0.00000000000E+00 -0.14105444461E+04  0.14105444461E+04  0.25500000920E-02 0. -1.
    10030    2    1    2    0    0  0.00000000000E+00  0.00000000000E+00  0.10098712260E+04  0.38309601182E+04  0.36954587718E+04 0.  0.
        5    1    3    3  502    0  0.72696187150E+03 -0.11262259418E+04  0.18232660293E+04  0.22630023284E+04  0.46999998093E+01 0.  1.
       -5    1    3    3    0  502 -0.72696187150E+03  0.11262259418E+04 -0.81339480336E+03  0.15679577898E+04  0.46999998093E+01 0. -1.
</event>
<event>
 5   0  0.2282000E-08  0.3696733E+04  0.7818609E-02  0.8068686E-01
        1   -1    0    0  501    0  0.00000000000E+00  0.00000000000E+00  0.22306876307E+04  0.22306876307E+04  0.50400001928E-02 0.  1.
       -1   -1    0    0    0  501  0.00000000000E+00  0.00000000000E+00 -0.15315720627E+04  0.15315720627E+04  0.50400001928E-02 0. -1.
    10030    2    1    2    0    0  0.00000000000E+00  0.00000000000E+00  0.69911556798E+03  0.37622596934E+04  0.36967330744E+04 0.  0.
        4    1    3    3  502    0  0.50131265949E+03  0.17788873285E+04  0.37653677765E+03  0.18861431727E+04  0.12699999809E+01 0.  1.
       -4    1    3    3    0  502 -0.50131265949E+03 -0.17788873285E+04  0.32257879032E+03  0.18761165207E+04  0.12699999809E+01 0. -1.
</event>
<event>
 5   0  0.2282000E-08  0.3702905E+04  0.7818609E-02  0.8067318E-01
        1   -1    0    0  501    0  0.00000000000E+00  0.00000000000E+00  0.11059729260E+04  0.11059729260E+04  0.50400001928E-02 0. -1.
       -1   -1    0    0    0  501  0.00000000000E+00  0.00000000000E+00 -0.30994217738E+04  0.30994217738E+04  0.50400001928E-02 0.  1.
    10030    2    1    2    0    0  0.00000000000E+00  0.00000000000E+00 -0.19934488478E+04  0.42053946998E+04  0.37029051125E+04 0.  0.
        1    1    3    3  502    0 -0.14879253655E+04  0.99603937447E+03 -0.15316630009E+04  0.23562699075E+04  0.50400001928E-02 0. -1.
       -1    1    3    3    0  502  0.14879253655E+04 -0.99603937447E+03 -0.46178584688E+03  0.18491247922E+04  0.50400001928E-02 0.  1.
</event>
<event>
 5   0  0.7309833E-08  0.3701299E+04  0.7818609E-02  0.8067674E-01
       -2   -1    0    0    0  501  0.00000000000E+00  0.00000000000E+00  0.17540138566E+04  0.17540138566E+04  0.25500000920E-02 0. -1.
        2   -1    0    0  501    0  0.00000000000E+00  0.00000000000E+00 -0.19526088390E+04  0.19526088390E+04  0.25500000920E-02 0.  1.
    10030    2    1    2    0    0  0.00000000000E+00  0.00000000000E+00 -0.19859498243E+03  0.37066226956E+04  0.37012986694E+04 0.  0.
        2    1    3    3  502    0  0.62198547609E+03 -0.13387775643E+04 -0.12170174715E+04  0.19131970168E+04  0.25500000920E-02 0.  1.
       -2    1    3    3    0  502 -0.62198547609E+03  0.13387775643E+04  0.10184224891E+04  0.17934256788E+04  0.25500000920E-02 0. -1.
</event>
<event>
 5   0  0.2282000E-08  0.3702153E+04  0.7818609E-02  0.8067485E-01
       -1   -1    0    0    0  501  0.00000000000E+00  0.00000000000E+00  0.15829921946E+04  0.15829921946E+04  0.50400001928E-02 0.  1.
        1   -1    0    0  501    0  0.00000000000E+00  0.00000000000E+00 -0.21645613457E+04  0.21645613457E+04  0.50400001928E-02 0. -1.
    10030    2    1    2    0    0  0.00000000000E+00  0.00000000000E+00 -0.58156915113E+03  0.37475535403E+04  0.37021527332E+04 0.  0.
        4    1    3    3  502    0 -0.10905199238E+04 -0.14188428555E+04 -0.77001761856E+03  0.19481471963E+04  0.12699999809E+01 0. -1.
       -4    1    3    3    0  502  0.10905199238E+04  0.14188428555E+04  0.18844846743E+03  0.17994063439E+04  0.12699999809E+01 0.  1.
</event>
<event>
 5   0  0.7203049E-08  0.3678691E+04  0.7818609E-02  0.8072701E-01
       -2   -1    0    0    0  501  0.00000000000E+00  0.00000000000E+00  0.15989472537E+04  0.15989472537E+04  0.25500000920E-02 0.  1.
        2   -1    0    0  501    0  0.00000000000E+00  0.00000000000E+00 -0.21158865515E+04  0.21158865515E+04  0.25500000920E-02 0. -1.
    10030    2    1    2    0    0  0.00000000000E+00  0.00000000000E+00 -0.51693929779E+03  0.37148338052E+04  0.36786905229E+04 0.  0.
        4    1    3    3  502    0  0.82608972826E+03 -0.10292526013E+04 -0.15522302116E+04  0.20374507108E+04  0.12699999809E+01 0. -1.
       -4    1    3    3    0  502 -0.82608972826E+03  0.10292526013E+04  0.10352909138E+04  0.16773830944E+04  0.12699999809E+01 0.  1.
</event>
<event>
 5   0  0.2282000E-08  0.3699209E+04  0.7818609E-02  0.8068137E-01
        1   -1    0    0  501    0  0.00000000000E+00  0.00000000000E+00  0.17615830114E+04  0.17615830114E+04  0.50400001928E-02 0.  1.
       -1   -1    0    0    0  501  0.00000000000E+00  0.00000000000E+00 -0.19420244706E+04  0.19420244706E+04  0.50400001928E-02 0. -1.
    10030    2    1    2    0    0  0.00000000000E+00  0.00000000000E+00 -0.18044145921E+03  0.37036074820E+04  0.36992092750E+04 0.  0.
        5    1    3    3  502    0 -0.49221815409E+03  0.14835134660E+04  0.89985558845E+03  0.18035667676E+04  0.46999998093E+01 0.  1.
       -5    1    3    3    0  502  0.49221815409E+03 -0.14835134660E+04 -0.10802970477E+04  0.19000407144E+04  0.46999998093E+01 0. -1.
</event>
<event>
 5   0  0.7191801E-08  0.3698380E+04  0.7818609E-02  0.8068321E-01
        2   -1    0    0  501    0  0.00000000000E+00  0.00000000000E+00  0.19162136488E+04  0.19162136488E+04  0.25500000920E-02 0.  1.
       -2   -1    0    0    0  501  0.00000000000E+00  0.00000000000E+00 -0.17845107571E+04  0.17845107571E+04  0.25500000920E-02 0. -1.
    10030    2    1    2    0    0  0.00000000000E+00  0.00000000000E+00  0.13170289176E+03  0.37007244059E+04  0.36983801152E+04 0.  0.
        5    1    3    3  502    0 -0.14334328498E+04  0.19970917954E+03  0.12176102781E+04  0.18913514667E+04  0.46999998093E+01 0.  1.
       -5    1    3    3    0  502  0.14334328498E+04 -0.19970917954E+03 -0.10859073864E+04  0.18093729392E+04  0.46999998093E+01 0. -1.
</event>
<event>
 5   0  0.7362817E-08  0.3721472E+04  0.7818609E-02  0.8063220E-01
        2   -1    0    0  501    0  0.00000000000E+00  0.00000000000E+00  0.24290469755E+04  0.24290469755E+04  0.25500000920E-02 0. -1.
       -2   -1    0    0    0  501  0.00000000000E+00  0.00000000000E+00 -0.14253897476E+04  0.14253897476E+04  0.25500000920E-02 0.  1.
    10030    2    1    2    0    0  0.00000000000E+00  0.00000000000E+00  0.10036572279E+04  0.38544367231E+04  0.37214721040E+04 0.  0.
        1    1    3    3  502    0 -0.27340603447E+03 -0.94291470878E+03  0.21389685351E+04  0.23535134166E+04  0.50400001928E-02 0. -1.
       -1    1    3    3    0  502  0.27340603447E+03  0.94291470878E+03 -0.11353113072E+04  0.15009233065E+04  0.50400001928E-02 0.  1.
</event>
<event>
 5   0  0.2282000E-08  0.3698464E+04  0.7818609E-02  0.8068302E-01
        1   -1    0    0  501    0  0.00000000000E+00  0.00000000000E+00  0.18229234975E+04  0.18229234975E+04  0.50400001928E-02 0. -1.
       -1   -1    0    0    0  501  0.00000000000E+00  0.00000000000E+00 -0.18759204380E+04  0.18759204380E+04  0.50400001928E-02 0.  1.
    10030    2    1    2    0    0  0.00000000000E+00  0.00000000000E+00 -0.52996940456E+02  0.36988439355E+04  0.36984642466E+04 0.  0.
        3    1    3    3  502    0 -0.15007472230E+04 -0.10621254878E+04  0.17178094691E+03  0.18465810254E+04  0.10100000352E+00 0.  1.
       -3    1    3    3    0  502  0.15007472230E+04  0.10621254878E+04 -0.22477788736E+03  0.18522629101E+04  0.10100000352E+00 0. -1.
</event>
<event>
 5   0  0.2282000E-08  0.3695625E+04  0.7818609E-02  0.8068932E-01
       -1   -1    0    0    0  501  0.00000000000E+00  0.00000000000E+00  0.15717996017E+04  0.15717996017E+04  0.50400001928E-02 0. -1.
        1   -1    0    0  501    0  0.00000000000E+00  0.00000000000E+00 -0.21722939176E+04  0.21722939176E+04  0.50400001928E-02 0.  1.
    10030    2    1    2    0    0  0.00000000000E+00  0.00000000000E+00 -0.60049431591E+03  0.37440935192E+04  0.36956248264E+04 0.  0.
        4    1    3    3  502    0 -0.81591394104E+03 -0.16297573744E+04 -0.60851471498E+03  0.19214880769E+04  0.12699999809E+01 0.  1.
       -4    1    3    3    0  502  0.81591394104E+03  0.16297573744E+04  0.80203990621E+01  0.18226054423E+04  0.12699999809E+01 0. -1.
</event>
<event>
 5   0  0.2282000E-08  0.3702719E+04  0.7818609E-02  0.8067360E-01
        1   -1    0    0  501    0  0.00000000000E+00  0.00000000000E+00  0.19623252870E+04  0.19623252870E+04  0.50400001928E-02 0.  1.
       -1   -1    0    0    0  501  0.00000000000E+00  0.00000000000E+00 -0.17466686004E+04  0.17466686005E+04  0.50400001928E-02 0. -1.
    10030    2    1    2    0    0  0.00000000000E+00  0.00000000000E+00  0.21565668652E+03  0.37089938874E+04  0.37027189808E+04 0.  0.
        4    1    3    3  502    0 -0.97381157192E+03  0.12137791690E+04 -0.89684769722E+03  0.17960808038E+04  0.12699999809E+01 0. -1.
       -4    1    3    3    0  502  0.97381157192E+03 -0.12137791690E+04  0.11125043837E+04  0.19129130836E+04  0.12699999809E+01 0.  1.
</event>
<event>
 5   0  0.2282000E-08  0.3676463E+04  0.7818609E-02  0.8073198E-01
        1   -1    0    0  501    0  0.00000000000E+00  0.00000000000E+00  0.14240827226E+04  0.14240827226E+04  0.50400001928E-02 0. -1.
       -1   -1    0    0    0  501  0.00000000000E+00  0.00000000000E+00 -0.23728216521E+04  0.23728216521E+04  0.50400001928E-02 0.  1.
    10030    2    1    2    0    0  0.00000000000E+00  0.00000000000E+00 -0.94873892956E+03  0.37969043747E+04  0.36764626034E+04 0.  0.
        4    1    3    3  502    0 -0.11915173071E+04 -0.21314812099E+03  0.95440760222E+03  0.15414412407E+04  0.12699999809E+01 0. -1.
       -4    1    3    3    0  502  0.11915173071E+04  0.21314812099E+03 -0.19031465318E+04  0.22554631340E+04  0.12699999809E+01 0.  1.
</event>
<event>
 5   0  0.2282000E-08  0.3701739E+04  0.7818609E-02  0.8067577E-01
        1   -1    0    0  501    0  0.00000000000E+00  0.00000000000E+00  0.21013166485E+04  0.21013166485E+04  0.50400001928E-02 0.  1.
       -1   -1    0    0    0  501  0.00000000000E+00  0.00000000000E+00 -0.16302721288E+04  0.16302721288E+04  0.50400001928E-02 0. -1.
    10030    2    1    2    0    0  0.00000000000E+00  0.00000000000E+00  0.47104451977E+03  0.37315887773E+04  0.37017390323E+04 0.  0.
        3    1    3    3  502    0  0.95951704706E+03  0.14876602532E+04  0.78016776876E+03  0.19345458770E+04  0.10100000352E+00 0.  1.
       -3    1    3    3    0  502 -0.95951704706E+03 -0.14876602532E+04 -0.30912324899E+03  0.17970429004E+04  0.10100000352E+00 0. -1.
</event>
<event>
 5   0  0.7191801E-08  0.3703070E+04  0.7818609E-02  0.8067282E-01
       -2   -1    0    0    0  501  0.00000000000E+00  0.00000000000E+00  0.25193049206E+04  0.25193049207E+04  0.25500000920E-02 0. -1.
        2   -1    0    0  501    0  0.00000000000E+00  0.00000000000E+00 -0.13607647807E+04  0.13607647807E+04  0.25500000920E-02 0.  1.
    10030    2    1    2    0    0  0.00000000000E+00  0.00000000000E+00  0.11585401399E+04  0.38800697014E+04  0.37030697579E+04 0.  0.
        5    1    3    3  502    0  0.96094742294E+03 -0.15533905560E+04  0.89659406017E+03  0.20347838135E+04  0.46999998093E+01 0. -1.
       -5    1    3    3    0  502 -0.96094742294E+03  0.15533905560E+04  0.26194607976E+03  0.18452858878E+04  0.46999998093E+01 0.  1.
</event>
<event>
 5   0  0.7309833E-08  0.3689328E+04  0.7818609E-02  0.8070331E-01
        2   -1    0    0  501    0  0.00000000000E+00  0.00000000000E+00  0.30572912665E+04  0.30572912665E+04  0.25500000920E-02 0. -1.
       -2   -1    0    0    0  501  0.00000000000E+00  0.00000000000E+00 -0.11130062982E+04  0.11130062982E+04  0.25500000920E-02 0.  1.
    10030    2    1    2    0    0  0.00000000000E+00  0.00000000000E+00  0.19442849683E+04  0.41702975647E+04  0.36893275458E+04 0.  0.
        2    1    3    3  502    0  0.34898039601E+03  0.11421726971E+04 -0.61699509893E+03  0.13442576907E+04  0.25500000920E-02 0.  1.
       -2    1    3    3    0  502 -0.34898039601E+03 -0.11421726971E+04  0.25612800672E+04  0.28260398740E+04  0.25500000920E-02 0. -1.
</event>
<event>
 5   0  0.2282000E-08  0.3698576E+04  0.7818609E-02  0.8068278E-01
       -1   -1    0    0    0  501  0.00000000000E+00  0.00000000000E+00  0.21163907488E+04  0.21163907488E+04  0.50400001928E-02 0. -1.
        1   -1    0    0  501    0  0.00000000000E+00  0.00000000000E+00 -0.16158953103E+04  0.16158953103E+04  0.50400001928E-02 0.  1.
    10030    2    1    2    0    0  0.00000000000E+00  0.00000000000E+00  0.50049543859E+03  0.37322860591E+04  0.36985758804E+04 0.  0.
        2    1    3    3  502    0  0.15368884661E+04  0.46879854814E+03 -0.67355647112E+03  0.17422619079E+04  0.25500000920E-02 0.  1.
       -2    1    3    3    0  502 -0.15368884661E+04 -0.46879854814E+03  0.11740519097E+04  0.19900241512E+04  0.25500000920E-02 0. -1.
</event>
<event>
 5   0  0.2282000E-08  0.3671483E+04  0.7818609E-02  0.8074311E-01
        1   -1    0    0  501    0  0.00000000000E+00  0.00000000000E+00  0.10326394113E+04  0.10326394113E+04  0.50400001928E-02 0.  1.
       -1   -1    0    0    0  501  0.00000000000E+00  0.00000000000E+00 -0.32634301127E+04  0.32634301127E+04  0.50400001928E-02 0. -1.
    10030    2    1    2    0    0  0.00000000000E+00  0.00000000000E+00 -0.22307907013E+04  0.42960695240E+04  0.36714828342E+04 0.  0.
        1    1    3    3  502    0 -0.14303671501E+04 -0.10565835024E+04 -0.16485735860E+04  0.24248945854E+04  0.50400001928E-02 0.  1.
       -1    1    3    3    0  502  0.14303671501E+04  0.10565835024E+04 -0.58221711534E+03  0.18711749386E+04  0.50400001928E-02 0. -1.
</event>
<event>
 5   0  0.2282000E-08  0.3698526E+04  0.7818609E-02  0.8068289E-01
       -1   -1    0    0    0  501  0.00000000000E+00  0.00000000000E+00  0.20382329413E+04  0.20382329414E+04  0.50400001928E-02 0. -1.
        1   -1    0    0  501    0  0.00000000000E+00  0.00000000000E+00 -0.16778130893E+04  0.16778130893E+04  0.50400001928E-02 0.  1.
    10030    2    1    2    0    0  0.00000000000E+00  0.00000000000E+00  0.36041985209E+03  0.37160460306E+04  0.36985261432E+04 0.  0.
        3    1    3    3  502    0 -0.10078017975E+04 -0.10515374417E+04  0.13250716616E+04  0.19690633237E+04  0.10100000352E+00 0. -1.
       -3    1    3    3    0  502  0.10078017975E+04  0.10515374417E+04 -0.96465180949E+03  0.17469827069E+04  0.10100000352E+00 0.  1.
</event>
<event>
 5   0  0.2282000E-08  0.3701343E+04  0.7818609E-02  0.8067664E-01
       -1   -1    0    0    0  501  0.00000000000E+00  0.00000000000E+00  0.16098418772E+04  0.16098418772E+04  0.50400001928E-02 0. -1.
        1   -1    0    0  501    0  0.00000000000E+00  0.00000000000E+00 -0.21275290318E+04  0.21275290318E+04  0.50400001928E-02 0.  1.
    10030    2    1    2    0    0  0.00000000000E+00  0.00000000000E+00 -0.51768715464E+03  0.37373709090E+04  0.37013431780E+04 0.  0.
        1    1    3    3  502    0  0.15950121948E+04  0.22556450420E+03 -0.11787780704E+04  0.19961114665E+04  0.50400001928E-02 0.  1.
       -1    1    3    3    0  502 -0.15950121948E+04 -0.22556450420E+03  0.66109091580E+03  0.17412594425E+04  0.50400001928E-02 0. -1.
</event>
<event>
 5   0  0.2282000E-08  0.3696574E+04  0.7818609E-02  0.8068722E-01
        1   -1    0    0  501    0  0.00000000000E+00  0.00000000000E+00  0.15111002172E+04  0.15111002173E+04  0.50400001928E-02 0. -1.
       -1   -1    0    0    0  501  0.00000000000E+00  0.00000000000E+00 -0.22607130107E+04  0.22607130107E+04  0.50400001928E-02 0.  1.
    10030    2    1    2    0    0  0.00000000000E+00  0.00000000000E+00 -0.74961279344E+03  0.37718132279E+04  0.36965735062E+04 0.  0.
        4    1    3    3  502    0 -0.69473848795E+03  0.13086637732E+04  0.75262689956E+03  0.16618397338E+04  0.12699999809E+01 0. -1.
       -4    1    3    3    0  502  0.69473848795E+03 -0.13086637732E+04 -0.15022396930E+04  0.21099734942E+04  0.12699999809E+01 0.  1.
</event>
<event>
 5   0  0.2282000E-08  0.3696758E+04  0.7818609E-02  0.8068681E-01
        1   -1    0    0  501    0  0.00000000000E+00  0.00000000000E+00  0.17063187223E+04  0.17063187223E+04  0.50400001928E-02 0.  1.
       -1   -1    0    0    0  501  0.00000000000E+00  0.00000000000E+00 -0.20022666031E+04  0.20022666032E+04  0.50400001928E-02 0. -1.
    10030    2    1    2    0    0  0.00000000000E+00  0.00000000000E+00 -0.29594788084E+03  0.37085853255E+04  0.36967580348E+04 0.  0.
        4    1    3    3  502    0  0.90204257336E+03 -0.24339616182E+03  0.14519893791E+04  0.17266143940E+04  0.12699999809E+01 0.  1.
       -4    1    3    3    0  502 -0.90204257336E+03  0.24339616182E+03 -0.17479372599E+04  0.19819709315E+04  0.12699999809E+01 0. -1.
</event>
<event>
 5   0  0.2282000E-08  0.3700133E+04  0.7818609E-02  0.8067932E-01
       -1   -1    0    0    0  501  0.00000000000E+00  0.00000000000E+00  0.18740443188E+04  0.18740443189E+04  0.50400001928E-02 0.  1.
        1   -1    0    0  501    0  0.00000000000E+00  0.00000000000E+00 -0.18263952390E+04  0.18263952390E+04  0.50400001928E-02 0. -1.
    10030    2    1    2    0    0  0.00000000000E+00  0.00000000000E+00  0.47649079892E+02  0.37004395578E+04  0.37001327660E+04 0.  0.
        3    1    3    3  502    0 -0.14907086951E+04 -0.27660384293E+03 -0.10364631160E+04  0.18365668789E+04  0.10100000352E+00 0. -1.
       -3    1    3    3    0  502  0.14907086951E+04  0.27660384293E+03  0.10841121959E+04  0.18638726789E+04  0.10100000352E+00 0.  1.
</event>
<event>
 5   0  0.7309833E-08  0.3700067E+04  0.7818609E-02  0.8067947E-01
       -2   -1    0    0    0  501  0.00000000000E+00  0.00000000000E+00  0.19482768927E+04  0.19482768927E+04  0.25500000920E-02 0. -1.
        2   -1    0    0  501    0  0.00000000000E+00  0.00000000000E+00 -0.17567436536E+04  0.17567436536E+04  0.25500000920E-02 0.  1.
    10030    2    1    2    0    0  0.00000000000E+00  0.00000000000E+00  0.19153323907E+03  0.37050205463E+04  0.37000665219E+04 0.  0.
        2    1    3    3  502    0  0.11098701502E+04  0.13197900054E+04  0.76671274567E+03  0.18871952319E+04  0.25500000920E-02 0.  1.
       -2    1    3    3    0  502 -0.11098701502E+04 -0.13197900054E+04 -0.57517950660E+03  0.18178253144E+04  0.25500000920E-02 0. -1.
</event>
<event>
 5   0  0.2282000E-08  0.3701862E+04  0.7818609E-02  0.8067549E-01
       -3   -1    0    0    0  501  0.00000000000E+00  0.00000000000E+00  0.14661842090E+04  0.14661842124E+04  0.10100000352E+00 0.  1.
        3   -1    0    0  501    0  0.00000000000E+00  0.00000000000E+00 -0.23366402543E+04  0.23366402565E+04  0.10100000352E+00 0. -1.
    10030    2    1    2    0    0  0.00000000000E+00  0.00000000000E+00 -0.87045604533E+03  0.38028244689E+04  0.37018617228E+04 0.  0.
        1    1    3    3  502    0  0.18091260936E+03  0.13763403013E+04 -0.16929158568E+04  0.21892935151E+04  0.50400001928E-02 0. -1.
       -1    1    3    3    0  502 -0.18091260936E+03 -0.13763403013E+04  0.82245981147E+03  0.16135309538E+04  0.50400001928E-02 0.  1.
</event>
<event>
 5   0  0.7362817E-08  0.3708442E+04  0.7818609E-02  0.8066093E-01
       -2   -1    0    0    0  501  0.00000000000E+00  0.00000000000E+00  0.17157367651E+04  0.17157367651E+04  0.25500000920E-02 0.  1.
        2   -1    0    0  501    0  0.00000000000E+00  0.00000000000E+00 -0.20038832200E+04  0.20038832200E+04  0.25500000920E-02 0. -1.
    10030    2    1    2    0    0  0.00000000000E+00  0.00000000000E+00 -0.28814645496E+03  0.37196199851E+04  0.37084423218E+04 0.  0.
        1    1    3    3  502    0  0.76593328917E+03  0.29251622318E+03  0.15240440544E+04  0.17305865549E+04  0.50400001928E-02 0.  1.
       -1    1    3    3    0  502 -0.76593328917E+03 -0.29251622318E+03 -0.18121905093E+04  0.19890334302E+04  0.50400001928E-02 0. -1.
</event>
<event>
 5   0  0.2282000E-08  0.3697314E+04  0.7818609E-02  0.8068557E-01
       -1   -1    0    0    0  501  0.00000000000E+00  0.00000000000E+00  0.21863007454E+04  0.21863007454E+04  0.50400001928E-02 0.  1.
        1   -1    0    0  501    0  0.00000000000E+00  0.00000000000E+00 -0.15631572650E+04  0.15631572651E+04  0.50400001928E-02 0. -1.
    10030    2    1    2    0    0  0.00000000000E+00  0.00000000000E+00  0.62314348039E+03  0.37494580105E+04  0.36973135619E+04 0.  0.
        3    1    3    3  502    0  0.15670868314E+04 -0.66181772387E+03  0.10454967895E+04  0.19967041303E+04  0.10100000352E+00 0.  1.
       -3    1    3    3    0  502 -0.15670868314E+04  0.66181772387E+03 -0.42235330916E+03  0.17527538802E+04  0.10100000352E+00 0. -1.
</event>
<event>
 5   0  0.7362817E-08  0.3708788E+04  0.7818609E-02  0.8066017E-01
       -2   -1    0    0    0  501  0.00000000000E+00  0.00000000000E+00  0.17545645132E+04  0.17545645132E+04  0.25500000920E-02 0. -1.
        2   -1    0    0  501    0  0.00000000000E+00  0.00000000000E+00 -0.19599034446E+04  0.19599034446E+04  0.25500000920E-02 0.  1.
    10030    2    1    2    0    0  0.00000000000E+00  0.00000000000E+00 -0.20533893146E+03  0.37144679578E+04  0.37087879601E+04 0.  0.
        1    1    3    3  502    0  0.11833632790E+04  0.11512734045E+04 -0.94835469797E+03  0.19039841741E+04  0.50400001928E-02 0.  1.
       -1    1    3    3    0  502 -0.11833632790E+04 -0.11512734045E+04  0.74301576652E+03  0.18104837837E+04  0.50400001928E-02 0. -1.
</event>
<event>
 5   0  0.2282000E-08  0.3695306E+04  0.7818609E-02  0.8069003E-01
        1   -1    0    0  501    0  0.00000000000E+00  0.00000000000E+00  0.16233776408E+04  0.16233776408E+04  0.50400001928E-02 0.  1.
       -1   -1    0    0    0  501  0.00000000000E+00  0.00000000000E+00 -0.21029128897E+04  0.21029128897E+04  0.50400001928E-02 0. -1.
    10030    2    1    2    0    0  0.00000000000E+00  0.00000000000E+00 -0.47953524894E+03  0.37262905305E+04  0.36953060851E+04 0.  0.
        1    1    3    3  502    0  0.11577777823E+04 -0.54947247878E+03  0.11023514084E+04  0.16904283557E+04  0.50400001928E-02 0.  1.
       -1    1    3    3    0  502 -0.11577777823E+04  0.54947247878E+03 -0.15818866573E+04  0.20358621748E+04  0.50400001928E-02 0. -1.
</event>
<event>
 5   0  0.7191801E-08  0.3699850E+04  0.7818609E-02  0.8067995E-01
       -2   -1    0    0    0  501  0.00000000000E+00  0.00000000000E+00  0.19085102718E+04  0.19085102718E+04  0.25500000920E-02 0. -1.
        2   -1    0    0  501    0  0.00000000000E+00  0.00000000000E+00 -0.17931378244E+04  0.17931378244E+04  0.25500000920E-02 0.  1.
    10030    2    1    2    0    0  0.00000000000E+00  0.00000000000E+00  0.11537244745E+03  0.37016480962E+04  0.36998497033E+04 0.  0.
        5    1    3    3  502    0  0.10983232390E+04 -0.13000491826E+03 -0.14259319547E+04  0.18045828453E+04  0.46999998093E+01 0.  1.
       -5    1    3    3    0  502 -0.10983232390E+04  0.13000491826E+03  0.15413044022E+04  0.18970652509E+04  0.46999998093E+01 0. -1.
</event>
<event>
 5   0  0.2282000E-08  0.3687787E+04  0.7818609E-02  0.8070674E-01
       -1   -1    0    0    0  501  0.00000000000E+00  0.00000000000E+00  0.25372908141E+04  0.25372908141E+04  0.50400001928E-02 0. -1.
        1   -1    0    0  501    0  0.00000000000E+00  0.00000000000E+00 -0.13399895507E+04  0.13399895508E+04  0.50400001928E-02 0.  1.
    10030    2    1    2    0    0  0.00000000000E+00  0.00000000000E+00  0.11973012633E+04  0.38772803649E+04  0.36877869668E+04 0.  0.
        2    1    3    3  502    0  0.22900912399E+03 -0.62197839669E+02  0.25211687888E+04  0.25323123448E+04  0.25500000920E-02 0. -1.
       -2    1    3    3    0  502 -0.22900912399E+03  0.62197839669E+02 -0.13238675254E+04  0.13449680201E+04  0.25500000920E-02 0.  1.
</event>
<event>
 5   0  0.7254493E-08  0.3700682E+04  0.7818609E-02  0.8067811E-01
        2   -1    0    0  501    0  0.00000000000E+00  0.00000000000E+00  0.23834504941E+04  0.23834504941E+04  0.25500000920E-02 0. -1.
       -2   -1    0    0    0  501  0.00000000000E+00  0.00000000000E+00 -0.14364731089E+04  0.14364731089E+04  0.25500000920E-02 0.  1.
    10030    2    1    2    0    0  0.00000000000E+00  0.00000000000E+00  0.94697738522E+03  0.38199236030E+04  0.37006823917E+04 0.  0.
        3    1    3    3  502    0 -0.11143652223E+04 -0.14731536507E+04  0.58547878707E+03  0.19377246831E+04  0.10100000352E+00 0. -1.
       -3    1    3    3    0  502  0.11143652223E+04  0.14731536507E+04  0.36149859814E+03  0.18821989199E+04  0.10100000352E+00 0.  1.
</event>
<event>
 5   0  0.7309833E-08  0.3691257E+04  0.7818609E-02  0.8069902E-01
        2   -1    0    0  501    0  0.00000000000E+00  0.00000000000E+00  0.22062525324E+04  0.22062525324E+04  0.25500000920E-02 0. -1.
       -2   -1    0    0    0  501  0.00000000000E+00  0.00000000000E+00 -0.15439507526E+04  0.15439507526E+04  0.25500000920E-02 0.  1.
    10030    2    1    2    0    0  0.00000000000E+00  0.00000000000E+00  0.66230177976E+03  0.37502032850E+04  0.36912573781E+04 0.  0.
        2    1    3    3  502    0 -0.74168877507E+03  0.52390153410E+02 -0.13850546132E+04  0.15720124837E+04  0.25500000920E-02 0.  1.
       -2    1    3    3    0  502  0.74168877507E+03 -0.52390153410E+02  0.20473563930E+04  0.21781908013E+04  0.25500000920E-02 0. -1.
</event>
<event>
 5   0  0.2282000E-08  0.3702544E+04  0.7818609E-02  0.8067398E-01
        1   -1    0    0  501    0  0.00000000000E+00  0.00000000000E+00  0.18212119994E+04  0.18212119994E+04  0.50400001928E-02 0.  1.
       -1   -1    0    0    0  501  0.00000000000E+00  0.00000000000E+00 -0.18818282955E+04  0.18818282955E+04  0.50400001928E-02 0. -1.
    10030    2    1    2    0    0  0.00000000000E+00  0.00000000000E+00 -0.60616296103E+02  0.37030402948E+04  0.37025441375E+04 0.  0.
        2    1    3    3  502    0 -0.12223958199E+04 -0.88830538800E+03 -0.10999701777E+04  0.18690298003E+04  0.25500000920E-02 0. -1.
       -2    1    3    3    0  502  0.12223958199E+04  0.88830538800E+03  0.10393538816E+04  0.18340104945E+04  0.25500000920E-02 0.  1.
</event>
<event>
 5   0  0.7191801E-08  0.3702762E+04  0.7818609E-02  0.8067350E-01
       -2   -1    0    0    0  501  0.00000000000E+00  0.00000000000E+00  0.12017094684E+04  0.12017094684E+04  0.25500000920E-02 0.  1.
        2   -1    0    0  501    0  0.00000000000E+00  0.00000000000E+00 -0.28522793128E+04  0.28522793128E+04  0.25500000920E-02 0. -1.
    10030    2    1    2    0    0  0.00000000000E+00  0.00000000000E+00 -0.16505698444E+04  0.40539887812E+04  0.37027617027E+04 0.  0.
        5    1    3    3  502    0  0.68374185585E+03 -0.17204070663E+04 -0.84378660515E+03  0.20345272975E+04  0.46999998093E+01 0.  1.
       -5    1    3    3    0  502 -0.68374185585E+03  0.17204070663E+04 -0.80678323921E+03  0.20194614837E+04  0.46999998093E+01 0. -1.
</event>
<event>
 5   0  0.7191801E-08  0.3699340E+04  0.7818609E-02  0.8068108E-01
       -2   -1    0    0    0  501  0.00000000000E+00  0.00000000000E+00  0.17897184065E+04  0.17897184065E+04  0.25500000920E-02 0. -1.
        2   -1    0    0  501    0  0.00000000000E+00  0.00000000000E+00 -0.19116295163E+04  0.19116295163E+04  0.25500000920E-02 0.  1.
    10030    2    1    2    0    0  0.00000000000E+00  0.00000000000E+00 -0.12191110977E+03  0.37013479228E+04  0.36993396880E+04 0.  0.
        5    1    3    3  502    0 -0.17181557267E+04 -0.32792579862E+03  0.54075432828E+03  0.18308554733E+04  0.46999998093E+01 0. -1.
       -5    1    3    3    0  502  0.17181557267E+04  0.32792579862E+03 -0.66266543805E+03  0.18704924495E+04  0.46999998093E+01 0.  1.
</event>
<event>
 5   0  0.7254493E-08  0.3702180E+04  0.7818609E-02  0.8067479E-01
        2   -1    0    0  501    0  0.00000000000E+00  0.00000000000E+00  0.16374392810E+04  0.16374392810E+04  0.25500000920E-02 0.  1.
       -2   -1    0    0    0  501  0.00000000000E+00  0.00000000000E+00 -0.20926180780E+04  0.20926180780E+04  0.25500000920E-02 0. -1.
    10030    2    1    2    0    0  0.00000000000E+00  0.00000000000E+00 -0.45517879696E+03  0.37300573590E+04  0.37021804608E+04 0.  0.
        3    1    3    3  502    0 -0.11688561712E+04  0.13963033104E+04 -0.56273106816E+03  0.19059260082E+04  0.10100000352E+00 0.  1.
       -3    1    3    3    0  502  0.11688561712E+04 -0.13963033104E+04  0.10755227120E+03  0.18241313508E+04  0.10100000352E+00 0. -1.
</event>
<event>
 5   0  0.7362817E-08  0.3696231E+04  0.7818609E-02  0.8068798E-01
        2   -1    0    0  501    0  0.00000000000E+00  0.00000000000E+00  0.21085155257E+04  0.21085155257E+04  0.25500000920E-02 0.  1.
       -2   -1    0    0    0  501  0.00000000000E+00  0.00000000000E+00 -0.16198750022E+04  0.16198750022E+04  0.25500000920E-02 0. -1.
    10030    2    1    2    0    0  0.00000000000E+00  0.00000000000E+00  0.48864052345E+03  0.37283905279E+04  0.36962313736E+04 0.  0.
        1    1    3    3  502    0  0.13575310254E+04 -0.48929319652E+03 -0.92038307334E+03  0.17115499756E+04  0.50400001928E-02 0. -1.
       -1    1    3    3    0  502 -0.13575310254E+04  0.48929319652E+03  0.14090235968E+04  0.20168405523E+04  0.50400001928E-02 0.  1.
</event>
<event>
 5   0  0.2282000E-08  0.3698808E+04  0.7818609E-02  0.8068226E-01
       -1   -1    0    0    0  501  0.00000000000E+00  0.00000000000E+00  0.17852571237E+04  0.17852571237E+04  0.50400001928E-02 0. -1.
        1   -1    0    0  501    0  0.00000000000E+00  0.00000000000E+00 -0.19158552824E+04  0.19158552824E+04  0.50400001928E-02 0.  1.
    10030    2    1    2    0    0  0.00000000000E+00  0.00000000000E+00 -0.13059815869E+03  0.37011124061E+04  0.36988075326E+04 0.  0.
        5    1    3    3  502    0 -0.10824707024E+04  0.78737022810E+03  0.12116534640E+04  0.18054974119E+04  0.46999998093E+01 0. -1.
       -5    1    3    3    0  502  0.10824707024E+04 -0.78737022810E+03 -0.13422516226E+04  0.18956149942E+04  0.46999998093E+01 0.  1.
</event>
<event>
 5   0  0.2282000E-08  0.3697531E+04  0.7818609E-02  0.8068509E-01
        1   -1    0    0  501    0  0.00000000000E+00  0.00000000000E+00  0.28657711962E+04  0.28657711962E+04  0.50400001928E-02 0. -1.
       -1   -1    0    0    0  501  0.00000000000E+00  0.00000000000E+00 -0.11926751617E+04  0.11926751617E+04  0.50400001928E-02 0.  1.
    10030    2    1    2    0    0  0.00000000000E+00  0.00000000000E+00  0.16730960345E+04  0.40584463578E+04  0.36975311356E+04 0.  0.
        1    1    3    3  502    0 -0.63431479813E+03 -0.17211905400E+04  0.10894321345E+04  0.21334747512E+04  0.50400001928E-02 0. -1.
       -1    1    3    3    0  502  0.63431479813E+03  0.17211905400E+04  0.58366390001E+03  0.19249716067E+04  0.50400001928E-02 0.  1.
</event>
<event>
 5   0  0.7309833E-08  0.3707682E+04  0.7818609E-02  0.8066261E-01
        2   -1    0    0  501    0  0.00000000000E+00  0.00000000000E+00  0.15573370368E+04  0.15573370368E+04  0.25500000920E-02 0. -1.
       -2   -1    0    0    0  501  0.00000000000E+00  0.00000000000E+00 -0.22067971556E+04  0.22067971556E+04  0.25500000920E-02 0.  1.
    10030    2    1    2    0    0  0.00000000000E+00  0.00000000000E+00 -0.64946011875E+03  0.37641341924E+04  0.37076822643E+04 0.  0.
        2    1    3    3  502    0  0.23259593913E+03  0.93143470268E+03  0.12853088511E+04  0.16042725202E+04  0.25500000920E-02 0. -1.
       -2    1    3    3    0  502 -0.23259593913E+03 -0.93143470268E+03 -0.19347689699E+04  0.21598616722E+04  0.25500000920E-02 0.  1.
</event>
<event>
 5   0  0.2282000E-08  0.3704093E+04  0.7818609E-02  0.8067055E-01
       -1   -1    0    0    0  501  0.00000000000E+00  0.00000000000E+00  0.14425334274E+04  0.14425334274E+04  0.50400001928E-02 0. -1.
        1   -1    0    0  501    0  0.00000000000E+00  0.00000000000E+00 -0.23778138050E+04  0.23778138050E+04  0.50400001928E-02 0.  1.
    10030    2    1    2    0    0  0.00000000000E+00  0.00000000000E+00 -0.93528037760E+03  0.38203472324E+04  0.37040928163E+04 0.  0.
        2    1    3    3  502    0  0.46150065344E+02 -0.10027347837E+04  0.11376372182E+04  0.15171767581E+04  0.25500000920E-02 0. -1.
       -2    1    3    3    0  502 -0.46150065344E+02  0.10027347837E+04 -0.20729175958E+04  0.23031704744E+04  0.25500000920E-02 0.  1.
</event>
<event>
 5   0  0.7362817E-08  0.3698757E+04  0.7818609E-02  0.8068237E-01
       -2   -1    0    0    0  501  0.00000000000E+00  0.00000000000E+00  0.13112723761E+04  0.13112723761E+04  0.25500000920E-02 0.  1.
        2   -1    0    0  501    0  0.00000000000E+00  0.00000000000E+00 -0.26083070986E+04  0.26083070986E+04  0.25500000920E-02 0. -1.
    10030    2    1    2    0    0  0.00000000000E+00  0.00000000000E+00 -0.12970347225E+04  0.39195794747E+04  0.36987571138E+04 0.  0.
        1    1    3    3  502    0 -0.63583729799E+03 -0.17147120010E+03  0.11828084614E+04  0.13537825890E+04  0.50400001928E-02 0.  1.
       -1    1    3    3    0  502  0.63583729799E+03  0.17147120010E+03 -0.24798431839E+04  0.25657968857E+04  0.50400001928E-02 0. -1.
</event>
<event>
 5   0  0.7191801E-08  0.3698085E+04  0.7818609E-02  0.8068386E-01
        2   -1    0    0  501    0  0.00000000000E+00  0.00000000000E+00  0.22031676404E+04  0.22031676404E+04  0.25500000920E-02 0. -1.
       -2   -1    0    0    0  501  0.00000000000E+00  0.00000000000E+00 -0.15518375012E+04  0.15518375012E+04  0.25500000920E-02 0.  1.
    10030    2    1    2    0    0  0.00000000000E+00  0.00000000000E+00  0.65133013917E+03  0.37550051416E+04  0.36980849994E+04 0.  0.
        5    1    3    3  502    0 -0.14148037540E+04  0.11700952065E+04  0.54845882970E+03  0.19161476020E+04  0.46999998093E+01 0. -1.
       -5    1    3    3    0  502  0.14148037540E+04 -0.11700952065E+04  0.10287130947E+03  0.18388575396E+04  0.46999998093E+01 0.  1.
</event>
<event>
 5   0  0.2282000E-08  0.3702409E+04  0.7818609E-02  0.8067428E-01
        1   -1    0    0  501    0  0.00000000000E+00  0.00000000000E+00  0.20470493312E+04  0.20470493312E+04  0.50400001928E-02 0. -1.
       -1   -1    0    0    0  501  0.00000000000E+00  0.00000000000E+00 -0.16740963820E+04  0.16740963820E+04  0.50400001928E-02 0.  1.
    10030    2    1    2    0    0  0.00000000000E+00  0.00000000000E+00  0.37295294914E+03  0.37211457132E+04  0.37024088803E+04 0.  0.
        5    1    3    3  502    0 -0.16447660501E+04  0.69569644653E+03  0.67647514993E+03  0.19096831213E+04  0.46999998093E+01 0.  1.
       -5    1    3    3    0  502  0.16447660501E+04 -0.69569644653E+03 -0.30352220079E+03  0.18114625919E+04  0.46999998093E+01 0. -1.
</event>
<event>
 5   0  0.2282000E-08  0.3705233E+04  0.7818609E-02  0.8066803E-01
        1   -1    0    0  501    0  0.00000000000E+00  0.00000000000E+00  0.25836474637E+04  0.25836474637E+04  0.50400001928E-02 0.  1.
       -1   -1    0    0    0  501  0.00000000000E+00  0.00000000000E+00 -0.13284270252E+04  0.13284270253E+04  0.50400001928E-02 0. -1.
    10030    2    1    2    0    0  0.00000000000E+00  0.00000000000E+00  0.12552204385E+04  0.39120744890E+04  0.37052325781E+04 0.  0.
        5    1    3    3  502    0  0.84459663358E+02 -0.14115265893E+04  0.18913504019E+04  0.23615184056E+04  0.46999998093E+01 0.  1.
       -5    1    3    3    0  502 -0.84459663358E+02  0.14115265893E+04 -0.63612996348E+03  0.15505560833E+04  0.46999998093E+01 0. -1.
</event>
<event>
 5   0  0.7362817E-08  0.3699667E+04  0.7818609E-02  0.8068036E-01
       -2   -1    0    0    0  501  0.00000000000E+00  0.00000000000E+00  0.13690426509E+04  0.13690426509E+04  0.25500000920E-02 0. -1.
        2   -1    0    0  501    0  0.00000000000E+00  0.00000000000E+00 -0.24994716439E+04  0.24994716439E+04  0.25500000920E-02 0.  1.
    10030    2    1    2    0    0  0.00000000000E+00  0.00000000000E+00 -0.11304289930E+04  0.38685142948E+04  0.36996666257E+04 0.  0.
        1    1    3    3  502    0 -0.11753615327E+03 -0.17505602085E+04 -0.11781473889E+04  0.21133639206E+04  0.50400001928E-02 0.  1.
       -1    1    3    3    0  502  0.11753615327E+03  0.17505602085E+04  0.47718395976E+02  0.17551503742E+04  0.50400001928E-02 0. -1.
</event>
<event>
 5   0  0.7203049E-08  0.3697597E+04  0.7818609E-02  0.8068495E-01
       -2   -1    0    0    0  501  0.00000000000E+00  0.00000000000E+00  0.15125520156E+04  0.15125520156E+04  0.25500000920E-02 0. -1.
        2   -1    0    0  501    0  0.00000000000E+00  0.00000000000E+00 -0.22597939048E+04  0.22597939048E+04  0.25500000920E-02 0.  1.
    10030    2    1    2    0    0  0.00000000000E+00  0.00000000000E+00 -0.74724188917E+03  0.37723459204E+04  0.36975969632E+04 0.  0.
        4    1    3    3  502    0  0.14928629273E+04  0.98354879923E+02  0.73449509301E+03  0.16666727503E+04  0.12699999809E+01 0. -1.
       -4    1    3    3    0  502 -0.14928629273E+04 -0.98354879923E+02 -0.14817369822E+04  0.21056731701E+04  0.12699999809E+01 0.  1.
</event>
<event>
 5   0  0.2282000E-08  0.3701967E+04  0.7818609E-02  0.8067526E-01
        1   -1    0    0  501    0  0.00000000000E+00  0.00000000000E+00  0.20484160558E+04  0.20484160558E+04  0.50400001928E-02 0. -1.
       -1   -1    0    0    0  501  0.00000000000E+00  0.00000000000E+00 -0.16725801971E+04  0.16725801971E+04  0.50400001928E-02 0.  1.
    10030    2    1    2    0    0  0.00000000000E+00  0.00000000000E+00  0.37583585874E+03  0.37209962529E+04  0.37019671152E+04 0.  0.
        2    1    3    3  502    0 -0.57180265499E+03 -0.86101637989E+02  0.19552988018E+04  0.20390108319E+04  0.25500000920E-02 0. -1.
       -2    1    3    3    0  502  0.57180265499E+03  0.86101637989E+02 -0.15794629430E+04  0.16819854211E+04  0.25500000920E-02 0.  1.
</event>
<event>
 5   0  0.2282000E-08  0.3690667E+04  0.7818609E-02  0.8070033E-01
       -1   -1    0    0    0  501  0.00000000000E+00  0.00000000000E+00  0.12981821943E+04  0.12981821943E+04  0.50400001928E-02 0.  1.
        1   -1    0    0  501    0  0.00000000000E+00  0.00000000000E+00 -0.26230952106E+04  0.26230952106E+04  0.50400001928E-02 0. -1.
    10030    2    1    2    0    0  0.00000000000E+00  0.00000000000E+00 -0.13249130163E+04  0.39212774049E+04  0.36906668754E+04 0.  0.
        4    1    3    3  502    0 -0.71735305200E+03  0.42269162124E+03  0.10872563523E+04  0.13694493771E+04  0.12699999809E+01 0.  1.
       -4    1    3    3    0  502  0.71735305200E+03 -0.42269162124E+03 -0.24121693686E+04  0.25518280278E+04  0.12699999809E+01 0. -1.
</event>
<event>
 5   0  0.7254493E-08  0.3695110E+04  0.7818609E-02  0.8069046E-01
        2   -1    0    0  501    0  0.00000000000E+00  0.00000000000E+00  0.22337872162E+04  0.22337872162E+04  0.25500000920E-02 0.  1.
       -2   -1    0    0    0  501  0.00000000000E+00  0.00000000000E+00 -0.15281044525E+04  0.15281044525E+04  0.25500000920E-02 0. -1.
    10030    2    1    2    0    0  0.00000000000E+00  0.00000000000E+00  0.70568276373E+03  0.37618916688E+04  0.36951103860E+04 0.  0.
        3    1    3    3  502    0  0.14873163635E+04  0.10912705479E+04  0.45705747498E+03  0.19004954406E+04  0.10100000352E+00 0. -1.
       -3    1    3    3    0  502 -0.14873163635E+04 -0.10912705479E+04  0.24862528874E+03  0.18613962282E+04  0.10100000352E+00 0.  1.
</event>
<event>
 5   0  0.2282000E-08  0.3699390E+04  0.7818609E-02  0.8068097E-01
        1   -1    0    0  501    0  0.00000000000E+00  0.00000000000E+00  0.23210481798E+04  0.23210481798E+04  0.50400001928E-02 0. -1.
       -1   -1    0    0    0  501  0.00000000000E+00  0.00000000000E+00 -0.14740630958E+04  0.14740630958E+04  0.50400001928E-02 0.  1.
    10030    2    1    2    0    0  0.00000000000E+00  0.00000000000E+00  0.84698508403E+03  0.37951112756E+04  0.36993899310E+04 0.  0.
        1    1    3    3  502    0 -0.11190616691E+04 -0.40158182892E+03  0.18771266801E+04  0.22219746978E+04  0.50400001928E-02 0. -1.
       -1    1    3    3    0  502  0.11190616691E+04  0.40158182892E+03 -0.10301415960E+04  0.15731365778E+04  0.50400001928E-02 0.  1.
</event>
<event>
 5   0  0.7191801E-08  0.3698139E+04  0.7818609E-02  0.8068374E-01
       -2   -1    0    0    0  501  0.00000000000E+00  0.00000000000E+00  0.19110653955E+04  0.19110653955E+04  0.25500000920E-02 0.  1.
        2   -1    0    0  501    0  0.00000000000E+00  0.00000000000E+00 -0.17890850708E+04  0.17890850708E+04  0.25500000920E-02 0. -1.
    10030    2    1    2    0    0  0.00000000000E+00  0.00000000000E+00  0.12198032469E+03  0.37001504663E+04  0.36981392989E+04 0.  0.
        5    1    3    3  502    0 -0.27647424976E+03 -0.61670221352E+03  0.17830527881E+04  0.19068452916E+04  0.46999998093E+01 0.  1.
       -5    1    3    3    0  502  0.27647424976E+03  0.61670221352E+03 -0.16610724634E+04  0.17933051747E+04  0.46999998093E+01 0. -1.
</event>
<event>
 5   0  0.2282000E-08  0.3644767E+04  0.7818609E-02  0.8080313E-01
        1   -1    0    0  501    0  0.00000000000E+00  0.00000000000E+00  0.16208779710E+04  0.16208779710E+04  0.50400001928E-02 0. -1.
       -1   -1    0    0    0  501  0.00000000000E+00  0.00000000000E+00 -0.20489404724E+04  0.20489404724E+04  0.50400001928E-02 0.  1.
    10030    2    1    2    0    0  0.00000000000E+00  0.00000000000E+00 -0.42806250140E+03  0.36698184434E+04  0.36447674690E+04 0.  0.
        2    1    3    3  502    0  0.76437657153E+03 -0.15795601756E+04  0.28108071890E+03  0.17771573543E+04  0.25500000920E-02 0. -1.
       -2    1    3    3    0  502 -0.76437657153E+03  0.15795601756E+04 -0.70914322031E+03  0.18926610891E+04  0.25500000920E-02 0.  1.
</event>
<event>
 5   0  0.7362817E-08  0.3697740E+04  0.7818609E-02  0.8068463E-01
        2   -1    0    0  501    0  0.00000000000E+00  0.00000000000E+00  0.20567243030E+04  0.20567243030E+04  0.25500000920E-02 0. -1.
       -2   -1    0    0    0  501  0.00000000000E+00  0.00000000000E+00 -0.16620219631E+04  0.16620219631E+04  0.25500000920E-02 0.  1.
    10030    2    1    2    0    0  0.00000000000E+00  0.00000000000E+00  0.39470233988E+03  0.37187462660E+04  0.36977403714E+04 0.  0.
        1    1    3    3  502    0 -0.44442133084E+02 -0.10363409881E+04 -0.13418146050E+04  0.16960083081E+04  0.50400001928E-02 0.  1.
       -1    1    3    3    0  502  0.44442133084E+02  0.10363409881E+04  0.17365169448E+04  0.20227379580E+04  0.50400001928E-02 0. -1.
</event>
<event>
 5   0  0.7309833E-08  0.3698164E+04  0.7818609E-02  0.8068369E-01
        2   -1    0    0  501    0  0.00000000000E+00  0.00000000000E+00  0.19113861631E+04  0.19113861631E+04  0.25500000920E-02 0. -1.
       -2   -1    0    0    0  501  0.00000000000E+00  0.00000000000E+00 -0.17888086343E+04  0.17888086343E+04  0.25500000920E-02 0.  1.
    10030    2    1    2    0    0  0.00000000000E+00  0.00000000000E+00  0.12257752882E+03  0.37001947974E+04  0.36981639077E+04 0.  0.
        2    1    3    3  502    0  0.87959978953E+03  0.66946755969E+03  0.15444055470E+04  0.18992290796E+04  0.25500000920E-02 0. -1.
       -2    1    3    3    0  502 -0.87959978953E+03 -0.66946755969E+03 -0.14218280182E+04  0.18009657178E+04  0.25500000920E-02 0.  1.
</event>
<event>
 5   0  0.2282000E-08  0.3698201E+04  0.7818609E-02  0.8068361E-01
       -1   -1    0    0    0  501  0.00000000000E+00  0.00000000000E+00  0.16345400838E+04  0.16345400838E+04  0.50400001928E-02 0. -1.
        1   -1    0    0  501    0  0.00000000000E+00  0.00000000000E+00 -0.20918257570E+04  0.20918257570E+04  0.50400001928E-02 0.  1.
    10030    2    1    2    0    0  0.00000000000E+00  0.00000000000E+00 -0.45728567322E+03  0.37263658408E+04  0.36982012104E+04 0.  0.
        4    1    3    3  502    0 -0.59396859520E+03  0.12181447392E+04  0.10389106174E+04  0.17076335033E+04  0.12699999809E+01 0. -1.
       -4    1    3    3    0  502  0.59396859520E+03 -0.12181447392E+04 -0.14961962906E+04  0.20187323375E+04  0.12699999809E+01 0.  1.
</event>
<event>
 5   0  0.7203049E-08  0.3694509E+04  0.7818609E-02  0.8069180E-01
       -2   -1    0    0    0  501  0.00000000000E+00  0.00000000000E+00  0.12581633993E+04  0.12581633993E+04  0.25500000920E-02 0. -1.
        2   -1    0    0  501    0  0.00000000000E+00  0.00000000000E+00 -0.27121673882E+04  0.27121673882E+04  0.25500000920E-02 0.  1.
    10030    2    1    2    0    0  0.00000000000E+00  0.00000000000E+00 -0.14540039889E+04  0.39703307875E+04  0.36945092992E+04 0.  0.
        4    1    3    3  502    0  0.93403009708E+03  0.10682682663E+04  0.54397661379E+03  0.15197109857E+04  0.12699999809E+01 0. -1.
       -4    1    3    3    0  502 -0.93403009708E+03 -0.10682682663E+04 -0.19979806027E+04  0.24506198017E+04  0.12699999809E+01 0.  1.
</event>
<event>
 5   0  0.7191801E-08  0.3699146E+04  0.7818609E-02  0.8068151E-01
        2   -1    0    0  501    0  0.00000000000E+00  0.00000000000E+00  0.25152972706E+04  0.25152972706E+04  0.25500000920E-02 0.  1.
       -2   -1    0    0    0  501  0.00000000000E+00  0.00000000000E+00 -0.13600460810E+04  0.13600460810E+04  0.25500000920E-02 0. -1.
    10030    2    1    2    0    0  0.00000000000E+00  0.00000000000E+00  0.11552511897E+04  0.38753433516E+04  0.36991459530E+04 0.  0.
        5    1    3    3  502    0 -0.76944169530E+03  0.15127590849E+04  0.13477722529E+04  0.21672546475E+04  0.46999998093E+01 0.  1.
       -5    1    3    3    0  502  0.76944169530E+03 -0.15127590849E+04 -0.19252106327E+03  0.17080887041E+04  0.46999998093E+01 0. -1.
</event>
<event>
 5   0  0.2282000E-08  0.3693533E+04  0.7818609E-02  0.8069397E-01
        1   -1    0    0  501    0  0.00000000000E+00  0.00000000000E+00  0.21296679848E+04  0.21296679848E+04  0.50400001928E-02 0.  1.
       -1   -1    0    0    0  501  0.00000000000E+00  0.00000000000E+00 -0.16014450979E+04  0.16014450979E+04  0.50400001928E-02 0. -1.
    10030    2    1    2    0    0  0.00000000000E+00  0.00000000000E+00  0.52822288693E+03  0.37311130827E+04  0.36935329182E+04 0.  0.
        1    1    3    3  502    0 -0.18461370323E+04 -0.47429457050E+02  0.27285157651E+03  0.18667939036E+04  0.50400001928E-02 0. -1.
       -1    1    3    3    0  502  0.18461370323E+04  0.47429457050E+02  0.25537131042E+03  0.18643191791E+04  0.50400001928E-02 0.  1.
</event>
<event>
 5   0  0.7203049E-08  0.3708817E+04  0.7818609E-02  0.8066011E-01
        2   -1    0    0  501    0  0.00000000000E+00  0.00000000000E+00  0.14025360032E+04  0.14025360032E+04  0.25500000920E-02 0.  1.
       -2   -1    0    0    0  501  0.00000000000E+00  0.00000000000E+00 -0.24518657796E+04  0.24518657796E+04  0.25500000920E-02 0. -1.
    10030    2    1    2    0    0  0.00000000000E+00  0.00000000000E+00 -0.10493297764E+04  0.38544017828E+04  0.37088165395E+04 0.  0.
        4    1    3    3  502    0 -0.13210706587E+04  0.32554804577E+03  0.78480285323E+03  0.15707088676E+04  0.12699999809E+01 0. -1.
       -4    1    3    3    0  502  0.13210706587E+04 -0.32554804577E+03 -0.18341326296E+04  0.22836929153E+04  0.12699999809E+01 0.  1.
</event>
<event>
 5   0  0.2282000E-08  0.3687639E+04  0.7818609E-02  0.8070707E-01
       -1   -1    0    0    0  501  0.00000000000E+00  0.00000000000E+00  0.19003999012E+04  0.19003999012E+04  0.50400001928E-02 0. -1.
        1   -1    0    0  501    0  0.00000000000E+00  0.00000000000E+00 -0.17889240714E+04  0.17889240714E+04  0.50400001928E-02 0.  1.
    10030    2    1    2    0    0  0.00000000000E+00  0.00000000000E+00  0.11147582981E+03  0.36893239726E+04  0.36876394230E+04 0.  0.
        3    1    3    3  502    0 -0.17488618415E+04 -0.23211413703E+03 -0.48048864769E+03  0.18284594783E+04  0.10100000352E+00 0.  1.
       -3    1    3    3    0  502  0.17488618415E+04  0.23211413703E+03  0.59196447750E+03  0.18608644942E+04  0.10100000352E+00 0. -1.
</event>
<event>
 5   0  0.2282000E-08  0.3713699E+04  0.7818609E-02  0.8064933E-01
       -1   -1    0    0    0  501  0.00000000000E+00  0.00000000000E+00  0.17375257622E+04  0.17375257622E+04  0.50400001928E-02 0.  1.
        1   -1    0    0  501    0  0.00000000000E+00  0.00000000000E+00 -0.19843674389E+04  0.19843674389E+04  0.50400001928E-02 0. -1.
    10030    2    1    2    0    0  0.00000000000E+00  0.00000000000E+00 -0.24684167667E+03  0.37218932011E+04  0.37136987206E+04 0.  0.
        2    1    3    3  502    0 -0.57736189042E+03  0.16045996604E+04  0.61291302700E+03  0.18121118071E+04  0.25500000920E-02 0.  1.
       -2    1    3    3    0  502  0.57736189042E+03 -0.16045996604E+04 -0.85975470367E+03  0.19097813941E+04  0.25500000920E-02 0. -1.
</event>
<event>
 5   0  0.2282000E-08  0.3697197E+04  0.7818609E-02  0.8068583E-01
       -1   -1    0    0    0  501  0.00000000000E+00  0.00000000000E+00  0.25623427218E+04  0.25623427218E+04  0.50400001928E-02 0.  1.
        1   -1    0    0  501    0  0.00000000000E+00  0.00000000000E+00 -0.13336690767E+04  0.13336690767E+04  0.50400001928E-02 0. -1.
    10030    2    1    2    0    0  0.00000000000E+00  0.00000000000E+00  0.12286736451E+04  0.38960117986E+04  0.36971974532E+04 0.  0.
        2    1    3    3  502    0 -0.87885894304E+03  0.15875425908E+04  0.24231905944E+03  0.18306837646E+04  0.25500000920E-02 0.  1.
       -2    1    3    3    0  502  0.87885894304E+03 -0.15875425908E+04  0.98635458570E+03  0.20653280340E+04  0.25500000920E-02 0. -1.
</event>
<event>
 5   0  0.2282000E-08  0.3706601E+04  0.7818609E-02  0.8066501E-01
        1   -1    0    0  501    0  0.00000000000E+00  0.00000000000E+00  0.33150574681E+04  0.33150574681E+04  0.50400001928E-02 0. -1.
       -1   -1    0    0    0  501  0.00000000000E+00  0.00000000000E+00 -0.10360973431E+04  0.10360973431E+04  0.50400001928E-02 0.  1.
    10030    2    1    2    0    0  0.00000000000E+00  0.00000000000E+00  0.22789601250E+04  0.43511548113E+04  0.37066007257E+04 0.  0.
        1    1    3    3  502    0 -0.74548576609E+03 -0.10668367667E+04 -0.40936232179E+03  0.13643559743E+04  0.50400001928E-02 0.  1.
       -1    1    3    3    0  502  0.74548576609E+03  0.10668367667E+04  0.26883224468E+04  0.29867988369E+04  0.50400001928E-02 0. -1.
</event>
<event>
 5   0  0.2282000E-08  0.3700712E+04  0.7818609E-02  0.8067804E-01
       -1   -1    0    0    0  501  0.00000000000E+00  0.00000000000E+00  0.12335892499E+04  0.12335892500E+04  0.50400001928E-02 0.  1.
        1   -1    0    0  501    0  0.00000000000E+00  0.00000000000E+00 -0.27754924164E+04  0.27754924164E+04  0.50400001928E-02 0. -1.
    10030    2    1    2    0    0  0.00000000000E+00  0.00000000000E+00 -0.15419031665E+04  0.40090816664E+04  0.37007121521E+04 0.  0.
        5    1    3    3  502    0 -0.10066812635E+04 -0.39748732348E+03 -0.23968058019E+04  0.26298485661E+04  0.46999998093E+01 0. -1.
       -5    1    3    3    0  502  0.10066812635E+04  0.39748732348E+03  0.85490263546E+03  0.13792331002E+04  0.46999998093E+01 0.  1.
</event>
<event>
 5   0  0.2282000E-08  0.3706698E+04  0.7818609E-02  0.8066479E-01
       -1   -1    0    0    0  501  0.00000000000E+00  0.00000000000E+00  0.15492761511E+04  0.15492761511E+04  0.50400001928E-02 0.  1.
        1   -1    0    0  501    0  0.00000000000E+00  0.00000000000E+00 -0.22171019483E+04  0.22171019483E+04  0.50400001928E-02 0. -1.
    10030    2    1    2    0    0  0.00000000000E+00  0.00000000000E+00 -0.66782579721E+03  0.37663780994E+04  0.37066983546E+04 0.  0.
        2    1    3    3  502    0  0.10971874289E+04  0.25815212243E+03 -0.18288037583E+04  0.21482518378E+04  0.25500000920E-02 0. -1.
       -2    1    3    3    0  502 -0.10971874289E+04 -0.25815212243E+03  0.11609779611E+04  0.16181262616E+04  0.25500000920E-02 0.  1.
</event>
<event>
 5   0  0.7203049E-08  0.3703803E+04  0.7818609E-02  0.8067120E-01
       -2   -1    0    0    0  501  0.00000000000E+00  0.00000000000E+00  0.23139441225E+04  0.23139441225E+04  0.25500000920E-02 0. -1.
        2   -1    0    0  501    0  0.00000000000E+00  0.00000000000E+00 -0.14821183246E+04  0.14821183246E+04  0.25500000920E-02 0.  1.
    10030    2    1    2    0    0  0.00000000000E+00  0.00000000000E+00  0.83182579799E+03  0.37960624471E+04  0.37038029030E+04 0.  0.
        4    1    3    3  502    0 -0.36770935394E+03  0.68386399647E+03 -0.13072330164E+04  0.15204406949E+04  0.12699999809E+01 0.  1.
       -4    1    3    3    0  502  0.36770935394E+03 -0.68386399647E+03  0.21390588144E+04  0.22756217522E+04  0.12699999809E+01 0. -1.
</event>
<event>
 5   0  0.7203049E-08  0.3682525E+04  0.7818609E-02  0.8071846E-01
       -2   -1    0    0    0  501  0.00000000000E+00  0.00000000000E+00  0.16926783149E+04  0.16926783149E+04  0.25500000920E-02 0.  1.
        2   -1    0    0  501    0  0.00000000000E+00  0.00000000000E+00 -0.20028892373E+04  0.20028892373E+04  0.25500000920E-02 0. -1.
    10030    2    1    2    0    0  0.00000000000E+00  0.00000000000E+00 -0.31021092244E+03  0.36955675522E+04  0.36825247748E+04 0.  0.
        4    1    3    3  502    0  0.97985490811E+03 -0.14735792383E+04  0.35531582220E+03  0.18049383255E+04  0.12699999809E+01 0.  1.
       -4    1    3    3    0  502 -0.97985490811E+03  0.14735792383E+04 -0.66552674464E+03  0.18906292268E+04  0.12699999809E+01 0. -1.
</event>
<event>
 5   0  0.7362817E-08  0.3691846E+04  0.7818609E-02  0.8069771E-01
       -2   -1    0    0    0  501  0.00000000000E+00  0.00000000000E+00  0.12867416175E+04  0.12867416175E+04  0.25500000920E-02 0. -1.
        2   -1    0    0  501    0  0.00000000000E+00  0.00000000000E+00 -0.26481087531E+04  0.26481087531E+04  0.25500000920E-02 0.  1.
    10030    2    1    2    0    0  0.00000000000E+00  0.00000000000E+00 -0.13613671356E+04  0.39348503706E+04  0.36918460100E+04 0.  0.
        1    1    3    3  502    0  0.14099416849E+03  0.25345386677E+03  0.12623052520E+04  0.12951960343E+04  0.50400001928E-02 0. -1.
       -1    1    3    3    0  502 -0.14099416849E+03 -0.25345386677E+03 -0.26236723875E+04  0.26396543363E+04  0.50400001928E-02 0.  1.
</event>
<event>
 5   0  0.2282000E-08  0.3705586E+04  0.7818609E-02  0.8066725E-01
       -1   -1    0    0    0  501  0.00000000000E+00  0.00000000000E+00  0.15770495539E+04  0.15770495539E+04  0.50400001928E-02 0. -1.
        1   -1    0    0  501    0  0.00000000000E+00  0.00000000000E+00 -0.21767496563E+04  0.21767496563E+04  0.50400001928E-02 0.  1.
    10030    2    1    2    0    0  0.00000000000E+00  0.00000000000E+00 -0.59970010240E+03  0.37537992103E+04  0.37055860937E+04 0.  0.
        4    1    3    3  502    0  0.17028384971E+04  0.71442355439E+03 -0.45274591995E+03  0.19013259697E+04  0.12699999809E+01 0.  1.
       -4    1    3    3    0  502 -0.17028384971E+04 -0.71442355439E+03 -0.14695418244E+03  0.18524732405E+04  0.12699999809E+01 0. -1.
</event>
<event>
 5   0  0.2282000E-08  0.3699383E+04  0.7818609E-02  0.8068099E-01
        1   -1    0    0  501    0  0.00000000000E+00  0.00000000000E+00  0.12004301911E+04  0.12004301911E+04  0.50400001928E-02 0. -1.
       -1   -1    0    0    0  501  0.00000000000E+00  0.00000000000E+00 -0.28501100910E+04  0.28501100910E+04  0.50400001928E-02 0.  1.
    10030    2    1    2    0    0  0.00000000000E+00  0.00000000000E+00 -0.16496798999E+04  0.40505402821E+04  0.36993827600E+04 0.  0.
        4    1    3    3  502    0  0.27748206712E+03 -0.80740061018E+03  0.97179020142E+03  0.12935493231E+04  0.12699999809E+01 0. -1.
       -4    1    3    3    0  502 -0.27748206712E+03  0.80740061018E+03 -0.26214701013E+04  0.27569909590E+04  0.12699999809E+01 0.  1.
</event>
<event>
 5   0  0.7191801E-08  0.3697453E+04  0.7818609E-02  0.8068526E-01
       -2   -1    0    0    0  501  0.00000000000E+00  0.00000000000E+00  0.14333967067E+04  0.14333967067E+04  0.25500000920E-02 0.  1.
        2   -1    0    0  501    0  0.00000000000E+00  0.00000000000E+00 -0.23843995595E+04  0.23843995595E+04  0.25500000920E-02 0. -1.
    10030    2    1    2    0    0  0.00000000000E+00  0.00000000000E+00 -0.95100285280E+03  0.38177962662E+04  0.36974534350E+04 0.  0.
        5    1    3    3  502    0 -0.47659080538E+01  0.17613590272E+04 -0.10553483711E+04  0.20533364583E+04  0.46999998093E+01 0. -1.
       -5    1    3    3    0  502  0.47659080538E+01 -0.17613590272E+04  0.10434551831E+03  0.17644598079E+04  0.46999998093E+01 0.  1.
</event>
<event>
 5   0  0.2282000E-08  0.3692010E+04  0.7818609E-02  0.8069735E-01
       -1   -1    0    0    0  501  0.00000000000E+00  0.00000000000E+00  0.31013725365E+04  0.31013725365E+04  0.50400001928E-02 0. -1.
        1   -1    0    0  501    0  0.00000000000E+00  0.00000000000E+00 -0.10987828553E+04  0.10987828553E+04  0.50400001928E-02 0.  1.
    10030    2    1    2    0    0  0.00000000000E+00  0.00000000000E+00  0.20025896812E+04  0.42001553919E+04  0.36920102769E+04 0.  0.
        5    1    3    3  502    0 -0.73419025216E+03  0.36820226019E+03 -0.87945306767E+03  0.12033569790E+04  0.46999998093E+01 0.  1.
       -5    1    3    3    0  502  0.73419025216E+03 -0.36820226019E+03  0.28820427489E+04  0.29967984128E+04  0.46999998093E+01 0. -1.
</event>
<event>
 5   0  0.2282000E-08  0.3700283E+04  0.7818609E-02  0.8067899E-01
        3   -1    0    0  501    0  0.00000000000E+00  0.00000000000E+00  0.17748257972E+04  0.17748258001E+04  0.10100000352E+00 0. -1.
       -3   -1    0    0    0  501  0.00000000000E+00  0.00000000000E+00 -0.19286531065E+04  0.19286531091E+04  0.10100000352E+00 0.  1.
    10030    2    1    2    0    0  0.00000000000E+00  0.00000000000E+00 -0.15382730931E+03  0.37034789092E+04  0.37002828527E+04 0.  0.
        1    1    3    3  502    0  0.35412870556E+03 -0.13549070095E+04  0.11331977154E+04  0.18014763964E+04  0.50400001928E-02 0. -1.
       -1    1    3    3    0  502 -0.35412870556E+03  0.13549070095E+04 -0.12870250247E+04  0.19020025128E+04  0.50400001928E-02 0.  1.
</event>
<event>
 5   0  0.7309833E-08  0.3705956E+04  0.7818609E-02  0.8066643E-01
       -2   -1    0    0    0  501  0.00000000000E+00  0.00000000000E+00  0.12400313789E+04  0.12400313789E+04  0.25500000920E-02 0.  1.
        2   -1    0    0  501    0  0.00000000000E+00  0.00000000000E+00 -0.27689040587E+04  0.27689040587E+04  0.25500000920E-02 0. -1.
    10030    2    1    2    0    0  0.00000000000E+00  0.00000000000E+00 -0.15288726798E+04  0.40089354377E+04  0.37059562427E+04 0.  0.
        2    1    3    3  502    0 -0.17027105070E+03 -0.13866219333E+04  0.55238183630E+03  0.15022777073E+04  0.25500000920E-02 0. -1.
       -2    1    3    3    0  502  0.17027105070E+03  0.13866219333E+04 -0.20812545161E+04  0.25066577304E+04  0.25500000920E-02 0.  1.
</event>
<event>
 5   0  0.2282000E-08  0.3650821E+04  0.7818609E-02  0.8078949E-01
        1   -1    0    0  501    0  0.00000000000E+00  0.00000000000E+00  0.16722048120E+04  0.16722048120E+04  0.50400001928E-02 0. -1.
       -1   -1    0    0    0  501  0.00000000000E+00  0.00000000000E+00 -0.19926523189E+04  0.19926523189E+04  0.50400001928E-02 0.  1.
    10030    2    1    2    0    0  0.00000000000E+00  0.00000000000E+00 -0.32044750689E+03  0.36648571308E+04  0.36508206180E+04 0.  0.
        3    1    3    3  502    0  0.23966241588E+03 -0.95727104620E+03 -0.17018093077E+04  0.19672216092E+04  0.10100000352E+00 0.  1.
       -3    1    3    3    0  502 -0.23966241588E+03  0.95727104620E+03  0.13813618008E+04  0.16976355217E+04  0.10100000352E+00 0. -1.
</event>
<event>
 5   0  0.7254493E-08  0.3701193E+04  0.7818609E-02  0.8067698E-01
       -2   -1    0    0    0  501  0.00000000000E+00  0.00000000000E+00  0.25439944993E+04  0.25439944993E+04  0.25500000920E-02 0.  1.
        2   -1    0    0  501    0  0.00000000000E+00  0.00000000000E+00 -0.13461927405E+04  0.13461927405E+04  0.25500000920E-02 0. -1.
    10030    2    1    2    0    0  0.00000000000E+00  0.00000000000E+00  0.11978017588E+04  0.38901872398E+04  0.37011927412E+04 0.  0.
        3    1    3    3  502    0 -0.40075369002E+03  0.16440192106E+04 -0.18855813966E+03  0.17026323347E+04  0.10100000352E+00 0.  1.
       -3    1    3    3    0  502  0.40075369002E+03 -0.16440192106E+04  0.13863598985E+04  0.21875549052E+04  0.10100000352E+00 0. -1.
</event>
<event>
 5   0  0.7203049E-08  0.3698886E+04  0.7818609E-02  0.8068209E-01
        2   -1    0    0  501    0  0.00000000000E+00  0.00000000000E+00  0.20904374095E+04  0.20904374095E+04  0.25500000920E-02 0. -1.
       -2   -1    0    0    0  501  0.00000000000E+00  0.00000000000E+00 -0.16362309985E+04  0.16362309985E+04  0.25500000920E-02 0.  1.
    10030    2    1    2    0    0  0.00000000000E+00  0.00000000000E+00  0.45420641096E+03  0.37266684080E+04  0.36988855023E+04 0.  0.
        4    1    3    3  502    0 -0.18276463016E+04 -0.24301533432E+03  0.80790451228E+02  0.18455016029E+04  0.12699999809E+01 0. -1.
       -4    1    3    3    0  502  0.18276463016E+04  0.24301533432E+03  0.37341595973E+03  0.18811668050E+04  0.12699999809E+01 0.  1.
</event>
<event>
 5   0  0.7203049E-08  0.3688121E+04  0.7818609E-02  0.8070599E-01
       -2   -1    0    0    0  501  0.00000000000E+00  0.00000000000E+00  0.17916138376E+04  0.17916138376E+04  0.25500000920E-02 0.  1.
        2   -1    0    0  501    0  0.00000000000E+00  0.00000000000E+00 -0.18980428207E+04  0.18980428207E+04  0.25500000920E-02 0. -1.
    10030    2    1    2    0    0  0.00000000000E+00  0.00000000000E+00 -0.10642898315E+03  0.36896566583E+04  0.36881213548E+04 0.  0.
        4    1    3    3  502    0  0.19432693115E+03  0.14404084619E+04  0.10821670568E+04  0.18120779909E+04  0.12699999809E+01 0.  1.
       -4    1    3    3    0  502 -0.19432693115E+03 -0.14404084619E+04 -0.11885960399E+04  0.18775786674E+04  0.12699999809E+01 0. -1.
</event>
<event>
 5   0  0.2282000E-08  0.3710970E+04  0.7818609E-02  0.8065535E-01
        1   -1    0    0  501    0  0.00000000000E+00  0.00000000000E+00  0.18900083886E+04  0.18900083886E+04  0.50400001928E-02 0. -1.
       -1   -1    0    0    0  501  0.00000000000E+00  0.00000000000E+00 -0.18215925441E+04  0.18215925441E+04  0.50400001928E-02 0.  1.
    10030    2    1    2    0    0  0.00000000000E+00  0.00000000000E+00  0.68415844538E+02  0.37116009327E+04  0.37109703254E+04 0.  0.
        2    1    3    3  502    0 -0.15266828193E+04  0.11181790490E+03 -0.10145700544E+04  0.18364683689E+04  0.25500000920E-02 0.  1.
       -2    1    3    3    0  502  0.15266828193E+04 -0.11181790490E+03  0.10829858989E+04  0.18751325638E+04  0.25500000920E-02 0. -1.
</event>
<event>
 5   0  0.7362817E-08  0.3697578E+04  0.7818609E-02  0.8068499E-01
        2   -1    0    0  501    0  0.00000000000E+00  0.00000000000E+00  0.31246479186E+04  0.31246479186E+04  0.25500000920E-02 0.  1.
       -2   -1    0    0    0  501  0.00000000000E+00  0.00000000000E+00 -0.10938897472E+04  0.10938897472E+04  0.25500000920E-02 0. -1.
    10030    2    1    2    0    0  0.00000000000E+00  0.00000000000E+00  0.20307581714E+04  0.42185376658E+04  0.36975777595E+04 0.  0.
        1    1    3    3  502    0  0.17549924499E+04 -0.31095584148E+03  0.15758443874E+04  0.23790707362E+04  0.50400001928E-02 0.  1.
       -1    1    3    3    0  502 -0.17549924499E+04  0.31095584148E+03  0.45491378400E+03  0.18394669297E+04  0.50400001928E-02 0. -1.
</event>
<event>
 5   0  0.2282000E-08  0.3684936E+04  0.7818609E-02  0.8071308E-01
        1   -1    0    0  501    0  0.00000000000E+00  0.00000000000E+00  0.20745137041E+04  0.20745137041E+04  0.50400001928E-02 0. -1.
       -1   -1    0    0    0  501  0.00000000000E+00  0.00000000000E+00 -0.16363782632E+04  0.16363782633E+04  0.50400001928E-02 0.  1.
    10030    2    1    2    0    0  0.00000000000E+00  0.00000000000E+00  0.43813544084E+03  0.37108919673E+04  0.36849364348E+04 0.  0.
        1    1    3    3  502    0  0.50059743260E+03 -0.75071751145E+03  0.18367806906E+04  0.20464451805E+04  0.50400001928E-02 0. -1.
       -1    1    3    3    0  502 -0.50059743260E+03  0.75071751145E+03 -0.13986452497E+04  0.16644467868E+04  0.50400001928E-02 0.  1.
</event>
<event>
 5   0  0.2282000E-08  0.3698686E+04  0.7818609E-02  0.8068253E-01
       -1   -1    0    0    0  501  0.00000000000E+00  0.00000000000E+00  0.29952123410E+04  0.29952123410E+04  0.50400001928E-02 0.  1.
        1   -1    0    0  501    0  0.00000000000E+00  0.00000000000E+00 -0.11418451390E+04  0.11418451390E+04  0.50400001928E-02 0. -1.
    10030    2    1    2    0    0  0.00000000000E+00  0.00000000000E+00  0.18533672020E+04  0.41370574800E+04  0.36986855243E+04 0.  0.
        5    1    3    3  502    0  0.13142247442E+04 -0.22876838747E+03  0.23593186169E+04  0.27103372630E+04  0.46999998093E+01 0.  1.
       -5    1    3    3    0  502 -0.13142247442E+04  0.22876838747E+03 -0.50595141491E+03  0.14267202170E+04  0.46999998093E+01 0. -1.
</event>
<event>
 5   0  0.7362817E-08  0.3702578E+04  0.7818609E-02  0.8067391E-01
       -2   -1    0    0    0  501  0.00000000000E+00  0.00000000000E+00  0.14148900415E+04  0.14148900415E+04  0.25500000920E-02 0.  1.
        2   -1    0    0  501    0  0.00000000000E+00  0.00000000000E+00 -0.24222877069E+04  0.24222877069E+04  0.25500000920E-02 0. -1.
    10030    2    1    2    0    0  0.00000000000E+00  0.00000000000E+00 -0.10073976654E+04  0.38371777484E+04  0.37025778880E+04 0.  0.
        1    1    3    3  502    0 -0.94498754055E+03 -0.17968866830E+03  0.11355683423E+04  0.14882220699E+04  0.50400001928E-02 0.  1.
       -1    1    3    3    0  502  0.94498754055E+03  0.17968866830E+03 -0.21429660077E+04  0.23489556784E+04  0.50400001928E-02 0. -1.
</event>
<event>
 5   0  0.2282000E-08  0.3687179E+04  0.7818609E-02  0.8070809E-01
        1   -1    0    0  501    0  0.00000000000E+00  0.00000000000E+00  0.16705816445E+04  0.16705816445E+04  0.50400001928E-02 0. -1.
       -1   -1    0    0    0  501  0.00000000000E+00  0.00000000000E+00 -0.20345147892E+04  0.20345147892E+04  0.50400001928E-02 0.  1.
    10030    2    1    2    0    0  0.00000000000E+00  0.00000000000E+00 -0.36393314470E+03  0.37050964337E+04  0.36871794436E+04 0.  0.
        5    1    3    3  502    0 -0.33716693356E+03  0.16236946193E+04  0.62738828694E+03  0.17730493254E+04  0.46999998093E+01 0. -1.
       -5    1    3    3    0  502  0.33716693356E+03 -0.16236946193E+04 -0.99132143164E+03  0.19320471083E+04  0.46999998093E+01 0.  1.
</event>
<event>
 5   0  0.2282000E-08  0.3699927E+04  0.7818609E-02  0.8067978E-01
        1   -1    0    0  501    0  0.00000000000E+00  0.00000000000E+00  0.21333916594E+04  0.21333916594E+04  0.50400001928E-02 0.  1.
       -1   -1    0    0    0  501  0.00000000000E+00  0.00000000000E+00 -0.16041899282E+04  0.16041899282E+04  0.50400001928E-02 0. -1.
    10030    2    1    2    0    0  0.00000000000E+00  0.00000000000E+00  0.52920173118E+03  0.37375815876E+04  0.36999272495E+04 0.  0.
        5    1    3    3  502    0 -0.23048844254E+03 -0.14173481350E+04 -0.91360629139E+03  0.17019692135E+04  0.46999998093E+01 0. -1.
       -5    1    3    3    0  502  0.23048844254E+03  0.14173481350E+04  0.14428080226E+04  0.20356123742E+04  0.46999998093E+01 0.  1.
</event>
<event>
 5   0  0.2282000E-08  0.3701403E+04  0.7818609E-02  0.8067651E-01
        1   -1    0    0  501    0  0.00000000000E+00  0.00000000000E+00  0.11765996564E+04  0.11765996564E+04  0.50400001928E-02 0. -1.
       -1   -1    0    0    0  501  0.00000000000E+00  0.00000000000E+00 -0.29110120967E+04  0.29110120967E+04  0.50400001928E-02 0.  1.
    10030    2    1    2    0    0  0.00000000000E+00  0.00000000000E+00 -0.17344124402E+04  0.40876117531E+04  0.37014028869E+04 0.  0.
        4    1    3    3  502    0  0.91724743489E+03  0.36751421503E+03  0.86089712378E+03  0.13105552357E+04  0.12699999809E+01 0. -1.
       -4    1    3    3    0  502 -0.91724743489E+03 -0.36751421503E+03 -0.25953095640E+04  0.27770565174E+04  0.12699999809E+01 0.  1.
</event>
<event>
 5   0  0.7191801E-08  0.3694693E+04  0.7818609E-02  0.8069139E-01
       -2   -1    0    0    0  501  0.00000000000E+00  0.00000000000E+00  0.12241395031E+04  0.12241395031E+04  0.25500000920E-02 0. -1.
        2   -1    0    0  501    0  0.00000000000E+00  0.00000000000E+00 -0.27878275739E+04  0.27878275739E+04  0.25500000920E-02 0.  1.
    10030    2    1    2    0    0  0.00000000000E+00  0.00000000000E+00 -0.15636880708E+04  0.40119670769E+04  0.36946934167E+04 0.  0.
        5    1    3    3  502    0 -0.43658460433E+03 -0.17195074159E+04 -0.13412065107E+04  0.22239983958E+04  0.46999998093E+01 0.  1.
       -5    1    3    3    0  502  0.43658460433E+03  0.17195074159E+04 -0.22248156004E+03  0.17879686811E+04  0.46999998093E+01 0. -1.
</event>
<event>
 5   0  0.7362817E-08  0.3683282E+04  0.7818609E-02  0.8071677E-01
        2   -1    0    0  501    0  0.00000000000E+00  0.00000000000E+00  0.16347910802E+04  0.16347910802E+04  0.25500000920E-02 0.  1.
       -2   -1    0    0    0  501  0.00000000000E+00  0.00000000000E+00 -0.20746633935E+04  0.20746633935E+04  0.25500000920E-02 0. -1.
    10030    2    1    2    0    0  0.00000000000E+00  0.00000000000E+00 -0.43987231327E+03  0.37094544737E+04  0.36832818031E+04 0.  0.
        1    1    3    3  502    0 -0.59287714554E+03  0.50961057782E+03  0.14593761401E+04  0.16555920298E+04  0.50400001928E-02 0.  1.
       -1    1    3    3    0  502  0.59287714554E+03 -0.50961057782E+03 -0.18992484534E+04  0.20538624439E+04  0.50400001928E-02 0. -1.
</event>
<event>
 5   0  0.2282000E-08  0.3688565E+04  0.7818609E-02  0.8070501E-01
       -1   -1    0    0    0  501  0.00000000000E+00  0.00000000000E+00  0.13301360585E+04  0.13301360585E+04  0.50400001928E-02 0.  1.
        1   -1    0    0  501    0  0.00000000000E+00  0.00000000000E+00 -0.25571660536E+04  0.25571660536E+04  0.50400001928E-02 0. -1.
    10030    2    1    2    0    0  0.00000000000E+00  0.00000000000E+00 -0.12270299950E+04  0.38873021121E+04  0.36885654531E+04 0.  0.
        2    1    3    3  502    0  0.17970115355E+04 -0.93559981201E+02 -0.18754069894E+03  0.18091919308E+04  0.25500000920E-02 0.  1.
       -2    1    3    3    0  502 -0.17970115355E+04  0.93559981201E+02 -0.10394892961E+04  0.20781101813E+04  0.25500000920E-02 0. -1.
</event>
<event>
 5   0  0.2282000E-08  0.3698571E+04  0.7818609E-02  0.8068279E-01
        1   -1    0    0  501    0  0.00000000000E+00  0.00000000000E+00  0.18656703560E+04  0.18656703560E+04  0.50400001928E-02 0.  1.
       -1   -1    0    0    0  501  0.00000000000E+00  0.00000000000E+00 -0.18330441128E+04  0.18330441128E+04  0.50400001928E-02 0. -1.
    10030    2    1    2    0    0  0.00000000000E+00  0.00000000000E+00  0.32626243209E+02  0.36987144689E+04  0.36985705686E+04 0.  0.
        5    1    3    3  502    0 -0.17195813557E+03  0.40652624457E+03  0.18122117100E+04  0.18651987990E+04  0.46999998093E+01 0.  1.
       -5    1    3    3    0  502  0.17195813557E+03 -0.40652624457E+03 -0.17795854668E+04  0.18335156699E+04  0.46999998093E+01 0. -1.
</event>
<event>
 5   0  0.7254493E-08  0.3700274E+04  0.7818609E-02  0.8067901E-01
       -2   -1    0    0    0  501  0.00000000000E+00  0.00000000000E+00  0.12846104630E+04  0.12846104630E+04  0.25500000920E-02 0.  1.
        2   -1    0    0  501    0  0.00000000000E+00  0.00000000000E+00 -0.26646264841E+04  0.26646264841E+04  0.25500000920E-02 0. -1.
    10030    2    1    2    0    0  0.00000000000E+00  0.00000000000E+00 -0.13800160211E+04  0.39492369471E+04  0.37002740771E+04 0.  0.
        3    1    3    3  502    0  0.13844021162E+04  0.62287333848E+03  0.43872393061E+03  0.15801959096E+04  0.10100000352E+00 0.  1.
       -3    1    3    3    0  502 -0.13844021162E+04 -0.62287333848E+03 -0.18187399517E+04  0.23690410375E+04  0.10100000352E+00 0. -1.
</event>
<event>
 5   0  0.7362817E-08  0.3694683E+04  0.7818609E-02  0.8069141E-01
        2   -1    0    0  501    0  0.00000000000E+00  0.00000000000E+00  0.28646828317E+04  0.28646828317E+04  0.25500000920E-02 0.  1.
       -2   -1    0    0    0  501  0.00000000000E+00  0.00000000000E+00 -0.11912907202E+04  0.11912907202E+04  0.25500000920E-02 0. -1.
    10030    2    1    2    0    0  0.00000000000E+00  0.00000000000E+00  0.16733921115E+04  0.40559735519E+04  0.36946827056E+04 0.  0.
        1    1    3    3  502    0  0.13584335365E+03  0.57915336870E+03 -0.10832691917E+04  0.12358576710E+04  0.50400001928E-02 0. -1.
       -1    1    3    3    0  502 -0.13584335365E+03 -0.57915336870E+03  0.27566613032E+04  0.28201158809E+04  0.50400001928E-02 0.  1.
</event>
<event>
 5   0  0.2282000E-08  0.3700611E+04  0.7818609E-02  0.8067826E-01
        3   -1    0    0  501    0  0.00000000000E+00  0.00000000000E+00  0.26023902624E+04  0.26023902644E+04  0.10100000352E+00 0.  1.
       -3   -1    0    0    0  501  0.00000000000E+00  0.00000000000E+00 -0.13155714136E+04  0.13155714175E+04  0.10100000352E+00 0. -1.
    10030    2    1    2    0    0  0.00000000000E+00  0.00000000000E+00  0.12868188488E+04  0.39179616819E+04  0.37006108943E+04 0.  0.
        5    1    3    3  502    0  0.10451228454E+04 -0.14925042068E+04  0.98444265231E+03  0.20709901002E+04  0.46999998093E+01 0. -1.
       -5    1    3    3    0  502 -0.10451228454E+04  0.14925042068E+04  0.30237619651E+03  0.18469715817E+04  0.46999998093E+01 0.  1.
</event>
<event>
 5   0  0.2282000E-08  0.3684646E+04  0.7818609E-02  0.8071373E-01
        1   -1    0    0  501    0  0.00000000000E+00  0.00000000000E+00  0.15073591782E+04  0.15073591782E+04  0.50400001928E-02 0.  1.
       -1   -1    0    0    0  501  0.00000000000E+00  0.00000000000E+00 -0.22517225710E+04  0.22517225710E+04  0.50400001928E-02 0. -1.
    10030    2    1    2    0    0  0.00000000000E+00  0.00000000000E+00 -0.74436339288E+03  0.37590817492E+04  0.36846463516E+04 0.  0.
        2    1    3    3  502    0  0.13572022018E+04  0.48804172280E+03 -0.15416246425E+04  0.21111108635E+04  0.25500000920E-02 0. -1.
       -2    1    3    3    0  502 -0.13572022018E+04 -0.48804172280E+03  0.79726124959E+03  0.16479708857E+04  0.25500000920E-02 0.  1.
</event>
<event>
 5   0  0.2282000E-08  0.3704244E+04  0.7818609E-02  0.8067022E-01
       -1   -1    0    0    0  501  0.00000000000E+00  0.00000000000E+00  0.14143735517E+04  0.14143735517E+04  0.50400001928E-02 0.  1.
        1   -1    0    0  501    0  0.00000000000E+00  0.00000000000E+00 -0.24253529086E+04  0.24253529086E+04  0.50400001928E-02 0. -1.
    10030    2    1    2    0    0  0.00000000000E+00  0.00000000000E+00 -0.10109793569E+04  0.38397264604E+04  0.37042435166E+04 0.  0.
        5    1    3    3  502    0  0.17922121745E+04 -0.44508303990E+03 -0.35812994419E+03  0.18810642035E+04  0.46999998093E+01 0. -1.
       -5    1    3    3    0  502 -0.17922121745E+04  0.44508303990E+03 -0.65284941275E+03  0.19586622569E+04  0.46999998093E+01 0.  1.
</event>
<event>
 5   0  0.2282000E-08  0.3695908E+04  0.7818609E-02  0.8068869E-01
       -1   -1    0    0    0  501  0.00000000000E+00  0.00000000000E+00  0.14124770392E+04  0.14124770393E+04  0.50400001928E-02 0.  1.
        1   -1    0    0  501    0  0.00000000000E+00  0.00000000000E+00 -0.24176922566E+04  0.24176922566E+04  0.50400001928E-02 0. -1.
    10030    2    1    2    0    0  0.00000000000E+00  0.00000000000E+00 -0.10052152174E+04  0.38301692959E+04  0.36959084407E+04 0.  0.
        2    1    3    3  502    0 -0.77139022261E+02  0.16100000434E+04  0.43404171357E+03  0.16692641425E+04  0.25500000920E-02 0.  1.
       -2    1    3    3    0  502  0.77139022261E+02 -0.16100000434E+04 -0.14392569309E+04  0.21609051533E+04  0.25500000920E-02 0. -1.
</event>
<event>
 5   0  0.2282000E-08  0.3698676E+04  0.7818609E-02  0.8068255E-01
       -1   -1    0    0    0  501  0.00000000000E+00  0.00000000000E+00  0.13551363054E+04  0.13551363054E+04  0.50400001928E-02 0.  1.
        1   -1    0    0  501    0  0.00000000000E+00  0.00000000000E+00 -0.25237693898E+04  0.25237693898E+04  0.50400001928E-02 0. -1.
    10030    2    1    2    0    0  0.00000000000E+00  0.00000000000E+00 -0.11686330844E+04  0.38789056951E+04  0.36986762640E+04 0.  0.
        5    1    3    3  502    0  0.11492109978E+03  0.70301315574E+02 -0.25186102323E+04  0.25222150436E+04  0.46999998093E+01 0. -1.
       -5    1    3    3    0  502 -0.11492109978E+03 -0.70301315574E+02  0.13499771479E+04  0.13566906515E+04  0.46999998093E+01 0.  1.
</event>
<event>
 5   0  0.2282000E-08  0.3702351E+04  0.7818609E-02  0.8067441E-01
        1   -1    0    0  501    0  0.00000000000E+00  0.00000000000E+00  0.20977868147E+04  0.20977868147E+04  0.50400001928E-02 0.  1.
       -1   -1    0    0    0  501  0.00000000000E+00  0.00000000000E+00 -0.16335555736E+04  0.16335555737E+04  0.50400001928E-02 0. -1.
    10030    2    1    2    0    0  0.00000000000E+00  0.00000000000E+00  0.46423124102E+03  0.37313423883E+04  0.37023513304E+04 0.  0.
        2    1    3    3  502    0 -0.15463797453E+04  0.22825919768E+03  0.12315759280E+04  0.19900180513E+04  0.25500000920E-02 0.  1.
       -2    1    3    3    0  502  0.15463797453E+04 -0.22825919768E+03 -0.76734468696E+03  0.17413243370E+04  0.25500000920E-02 0. -1.
</event>
<event>
 5   0  0.7254493E-08  0.3706479E+04  0.7818609E-02  0.8066527E-01
       -2   -1    0    0    0  501  0.00000000000E+00  0.00000000000E+00  0.11086790509E+04  0.11086790509E+04  0.25500000920E-02 0.  1.
        2   -1    0    0  501    0  0.00000000000E+00  0.00000000000E+00 -0.30978281796E+04  0.30978281796E+04  0.25500000920E-02 0. -1.
    10030    2    1    2    0    0  0.00000000000E+00  0.00000000000E+00 -0.19891491287E+04  0.42065072305E+04  0.37064793031E+04 0.  0.
        3    1    3    3  502    0 -0.33721564200E+03  0.18097189252E+04 -0.75195869858E+03  0.19885268095E+04  0.10100000352E+00 0.  1.
       -3    1    3    3    0  502  0.33721564200E+03 -0.18097189252E+04 -0.12371904301E+04  0.22179804210E+04  0.10100000352E+00 0. -1.
</event>
<event>
 5   0  0.7309833E-08  0.3694191E+04  0.7818609E-02  0.8069250E-01
        2   -1    0    0  501    0  0.00000000000E+00  0.00000000000E+00  0.13471944085E+04  0.13471944085E+04  0.25500000920E-02 0.  1.
       -2   -1    0    0    0  501  0.00000000000E+00  0.00000000000E+00 -0.25324933427E+04  0.25324933427E+04  0.25500000920E-02 0. -1.
    10030    2    1    2    0    0  0.00000000000E+00  0.00000000000E+00 -0.11852989342E+04  0.38796877512E+04  0.36941905045E+04 0.  0.
        2    1    3    3  502    0  0.16854174019E+04 -0.73669608803E+03 -0.76965924257E+03  0.19939228406E+04  0.25500000920E-02 0.  1.
       -2    1    3    3    0  502 -0.16854174019E+04  0.73669608803E+03 -0.41563969166E+03  0.18857649106E+04  0.25500000920E-02 0. -1.
</event>
<event>
 5   0  0.7362817E-08  0.3698956E+04  0.7818609E-02  0.8068193E-01
       -2   -1    0    0    0  501  0.00000000000E+00  0.00000000000E+00  0.18001100738E+04  0.18001100738E+04  0.25500000920E-02 0. -1.
        2   -1    0    0  501    0  0.00000000000E+00  0.00000000000E+00 -0.19002001143E+04  0.19002001143E+04  0.25500000920E-02 0.  1.
    10030    2    1    2    0    0  0.00000000000E+00  0.00000000000E+00 -0.10009004046E+03  0.37003101881E+04  0.36989562679E+04 0.  0.
        1    1    3    3  502    0  0.91625150339E+03 -0.10360967976E+03  0.15537628060E+04  0.18067735444E+04  0.50400001928E-02 0. -1.
       -1    1    3    3    0  502 -0.91625150339E+03  0.10360967976E+03 -0.16538528465E+04  0.18935366437E+04  0.50400001928E-02 0.  1.
</event>
<event>
 5   0  0.2282000E-08  0.3698817E+04  0.7818609E-02  0.8068224E-01
       -1   -1    0    0    0  501  0.00000000000E+00  0.00000000000E+00  0.22835675911E+04  0.22835675911E+04  0.50400001928E-02 0. -1.
        1   -1    0    0  501    0  0.00000000000E+00  0.00000000000E+00 -0.14977931965E+04  0.14977931965E+04  0.50400001928E-02 0.  1.
    10030    2    1    2    0    0  0.00000000000E+00  0.00000000000E+00  0.78577439460E+03  0.37813607875E+04  0.36988171091E+04 0.  0.
        2    1    3    3  502    0  0.15143974403E+04  0.39655938065E+03 -0.61379744421E+03  0.16814892959E+04  0.25500000920E-02 0.  1.
       -2    1    3    3    0  502 -0.15143974403E+04 -0.39655938065E+03  0.13995718388E+04  0.20998714917E+04  0.25500000920E-02 0. -1.
</event>
<event>
 5   0  0.7203049E-08  0.3701257E+04  0.7818609E-02  0.8067683E-01
        2   -1    0    0  501    0  0.00000000000E+00  0.00000000000E+00  0.22943771835E+04  0.22943771835E+04  0.25500000920E-02 0.  1.
       -2   -1    0    0    0  501  0.00000000000E+00  0.00000000000E+00 -0.14927042144E+04  0.14927042145E+04  0.25500000920E-02 0. -1.
    10030    2    1    2    0    0  0.00000000000E+00  0.00000000000E+00  0.80167296907E+03  0.37870813980E+04  0.37012573493E+04 0.  0.
        4    1    3    3  502    0 -0.92968111496E+02  0.36193645846E+03  0.22553721671E+04  0.22861203588E+04  0.12699999809E+01 0.  1.
       -4    1    3    3    0  502  0.92968111496E+02 -0.36193645846E+03 -0.14536991981E+04  0.15009610392E+04  0.12699999809E+01 0. -1.
</event>
<event>
 5   0  0.2282000E-08  0.3691494E+04  0.7818609E-02  0.8069849E-01
        1   -1    0    0  501    0  0.00000000000E+00  0.00000000000E+00  0.16238093759E+04  0.16238093759E+04  0.50400001928E-02 0. -1.
       -1   -1    0    0    0  501  0.00000000000E+00  0.00000000000E+00 -0.20980183304E+04  0.20980183304E+04  0.50400001928E-02 0.  1.
    10030    2    1    2    0    0  0.00000000000E+00  0.00000000000E+00 -0.47420895452E+03  0.37218277063E+04  0.36914939175E+04 0.  0.
        1    1    3    3  502    0 -0.88650420561E+03 -0.71034371501E+03 -0.17038106752E+04  0.20477911800E+04  0.50400001928E-02 0.  1.
       -1    1    3    3    0  502  0.88650420561E+03  0.71034371501E+03  0.12296017207E+04  0.16740365263E+04  0.50400001928E-02 0. -1.
</event>
<event>
 5   0  0.2282000E-08  0.3700284E+04  0.7818609E-02  0.8067899E-01
       -1   -1    0    0    0  501  0.00000000000E+00  0.00000000000E+00  0.18220744128E+04  0.18220744128E+04  0.50400001928E-02 0. -1.
        1   -1    0    0  501    0  0.00000000000E+00  0.00000000000E+00 -0.18786414417E+04  0.18786414418E+04  0.50400001928E-02 0.  1.
    10030    2    1    2    0    0  0.00000000000E+00  0.00000000000E+00 -0.56567028902E+02  0.37007158546E+04  0.37002835037E+04 0.  0.
        4    1    3    3  502    0 -0.32208657911E+03  0.13228067646E+04 -0.12812129501E+04  0.18695094910E+04  0.12699999809E+01 0.  1.
       -4    1    3    3    0  502  0.32208657911E+03 -0.13228067646E+04  0.12246459212E+04  0.18312063636E+04  0.12699999809E+01 0. -1.
</event>
<event>
 5   0  0.7254493E-08  0.3697698E+04  0.7818609E-02  0.8068472E-01
       -2   -1    0    0    0  501  0.00000000000E+00  0.00000000000E+00  0.21617510703E+04  0.21617510703E+04  0.25500000920E-02 0.  1.
        2   -1    0    0  501    0  0.00000000000E+00  0.00000000000E+00 -0.15812375889E+04  0.15812375889E+04  0.25500000920E-02 0. -1.
    10030    2    1    2    0    0  0.00000000000E+00  0.00000000000E+00  0.58051348133E+03  0.37429886592E+04  0.36976976892E+04 0.  0.
        3    1    3    3  502    0 -0.26489015902E+02 -0.65157498390E+03 -0.14609594839E+04  0.15998919499E+04  0.10100000352E+00 0. -1.
       -3    1    3    3    0  502  0.26489015902E+02  0.65157498390E+03  0.20414729652E+04  0.21430967093E+04  0.10100000352E+00 0.  1.
</event>
<event>
 5   0  0.2282000E-08  0.3697320E+04  0.7818609E-02  0.8068556E-01
        1   -1    0    0  501    0  0.00000000000E+00  0.00000000000E+00  0.12755039640E+04  0.12755039640E+04  0.50400001928E-02 0.  1.
       -1   -1    0    0    0  501  0.00000000000E+00  0.00000000000E+00 -0.26793667228E+04  0.26793667228E+04  0.50400001928E-02 0. -1.
    10030    2    1    2    0    0  0.00000000000E+00  0.00000000000E+00 -0.14038627587E+04  0.39548706868E+04  0.36973195025E+04 0.  0.
        5    1    3    3  502    0  0.15708959897E+04  0.96130178508E+03 -0.87342893746E+03  0.20383119318E+04  0.46999998093E+01 0. -1.
       -5    1    3    3    0  502 -0.15708959897E+04 -0.96130178508E+03 -0.53043382129E+03  0.19165587550E+04  0.46999998093E+01 0.  1.
</event>
<event>
 5   0  0.7254493E-08  0.3696413E+04  0.7818609E-02  0.8068757E-01
        2   -1    0    0  501    0  0.00000000000E+00  0.00000000000E+00  0.27197386706E+04  0.27197386706E+04  0.25500000920E-02 0.  1.
       -2   -1    0    0    0  501  0.00000000000E+00  0.00000000000E+00 -0.12559543762E+04  0.12559543762E+04  0.25500000920E-02 0. -1.
    10030    2    1    2    0    0  0.00000000000E+00  0.00000000000E+00  0.14637842943E+04  0.39756930468E+04  0.36964132266E+04 0.  0.
        3    1    3    3  502    0 -0.32909814030E+03  0.14881518579E+04 -0.39254629282E+03  0.15738469241E+04  0.10100000352E+00 0. -1.
       -3    1    3    3    0  502  0.32909814030E+03 -0.14881518579E+04  0.18563305871E+04  0.24018461227E+04  0.10100000352E+00 0.  1.
</event>
<event>
 5   0  0.2282000E-08  0.3697809E+04  0.7818609E-02  0.8068448E-01
       -1   -1    0    0    0  501  0.00000000000E+00  0.00000000000E+00  0.15413387510E+04  0.15413387511E+04  0.50400001928E-02 0. -1.
        1   -1    0    0  501    0  0.00000000000E+00  0.00000000000E+00 -0.22178429091E+04  0.22178429091E+04  0.50400001928E-02 0.  1.
    10030    2    1    2    0    0  0.00000000000E+00  0.00000000000E+00 -0.67650415807E+03  0.37591816602E+04  0.36978086590E+04 0.  0.
        4    1    3    3  502    0 -0.16541551605E+04 -0.55758236213E+03 -0.95772454633E+03  0.19910713963E+04  0.12699999809E+01 0.  1.
       -4    1    3    3    0  502  0.16541551605E+04  0.55758236213E+03  0.28122038826E+03  0.17681102639E+04  0.12699999809E+01 0. -1.
</event>
<event>
 5   0  0.2282000E-08  0.3709092E+04  0.7818609E-02  0.8065950E-01
        1   -1    0    0  501    0  0.00000000000E+00  0.00000000000E+00  0.18328143689E+04  0.18328143689E+04  0.50400001928E-02 0.  1.
       -1   -1    0    0    0  501  0.00000000000E+00  0.00000000000E+00 -0.18765357616E+04  0.18765357616E+04  0.50400001928E-02 0. -1.
    10030    2    1    2    0    0  0.00000000000E+00  0.00000000000E+00 -0.43721392767E+02  0.37093501305E+04  0.37090924538E+04 0.  0.
        5    1    3    3  502    0 -0.87582441944E+02  0.14891655344E+04 -0.11237697819E+04  0.18676630546E+04  0.46999998093E+01 0. -1.
       -5    1    3    3    0  502  0.87582441944E+02 -0.14891655344E+04  0.10800483891E+04  0.18416870759E+04  0.46999998093E+01 0.  1.
</event>
<event>
 5   0  0.7191801E-08  0.3699348E+04  0.7818609E-02  0.8068106E-01
        2   -1    0    0  501    0  0.00000000000E+00  0.00000000000E+00  0.17736353493E+04  0.17736353493E+04  0.25500000920E-02 0.  1.
       -2   -1    0    0    0  501  0.00000000000E+00  0.00000000000E+00 -0.19289721813E+04  0.19289721813E+04  0.25500000920E-02 0. -1.
    10030    2    1    2    0    0  0.00000000000E+00  0.00000000000E+00 -0.15533683194E+03  0.37026075306E+04  0.36993476444E+04 0.  0.
        5    1    3    3  502    0 -0.15060324544E+04 -0.39576885014E+03  0.92146192914E+03  0.18093868888E+04  0.46999998093E+01 0.  1.
       -5    1    3    3    0  502  0.15060324544E+04  0.39576885014E+03 -0.10767987611E+04  0.18932206418E+04  0.46999998093E+01 0. -1.
</event>
<event>
 5   0  0.2282000E-08  0.3693732E+04  0.7818609E-02  0.8069352E-01
       -1   -1    0    0    0  501  0.00000000000E+00  0.00000000000E+00  0.16956417139E+04  0.16956417139E+04  0.50400001928E-02 0. -1.
        1   -1    0    0  501    0  0.00000000000E+00  0.00000000000E+00 -0.20115771952E+04  0.20115771952E+04  0.50400001928E-02 0.  1.
    10030    2    1    2    0    0  0.00000000000E+00  0.00000000000E+00 -0.31593548130E+03  0.37072189090E+04  0.36937320979E+04 0.  0.
        1    1    3    3  502    0  0.16043803916E+04 -0.84326760555E+03 -0.51391391506E+03  0.18839437910E+04  0.50400001928E-02 0. -1.
       -1    1    3    3    0  502 -0.16043803916E+04  0.84326760555E+03  0.19797843376E+03  0.18232751180E+04  0.50400001928E-02 0.  1.
</event>
<event>
 5   0  0.7191801E-08  0.3700179E+04  0.7818609E-02  0.8067922E-01
        2   -1    0    0  501    0  0.00000000000E+00  0.00000000000E+00  0.11714344734E+04  0.11714344734E+04  0.25500000920E-02 0.  1.
       -2   -1    0    0    0  501  0.00000000000E+00  0.00000000000E+00 -0.29219136504E+04  0.29219136504E+04  0.25500000920E-02 0. -1.
    10030    2    1    2    0    0  0.00000000000E+00  0.00000000000E+00 -0.17504791771E+04  0.40933481238E+04  0.37001785785E+04 0.  0.
        5    1    3    3  502    0  0.16170374583E+04  0.89864530098E+03 -0.85217288116E+03  0.20368098164E+04  0.46999998093E+01 0. -1.
       -5    1    3    3    0  502 -0.16170374583E+04 -0.89864530098E+03 -0.89830629593E+03  0.20565383074E+04  0.46999998093E+01 0.  1.
</event>
<event>
 5   0  0.2282000E-08  0.3702061E+04  0.7818609E-02  0.8067505E-01
        1   -1    0    0  501    0  0.00000000000E+00  0.00000000000E+00  0.21583611452E+04  0.21583611452E+04  0.50400001928E-02 0.  1.
       -1   -1    0    0    0  501  0.00000000000E+00  0.00000000000E+00 -0.15874606596E+04  0.15874606596E+04  0.50400001928E-02 0. -1.
    10030    2    1    2    0    0  0.00000000000E+00  0.00000000000E+00  0.57090048563E+03  0.37458218048E+04  0.37020607273E+04 0.  0.
        2    1    3    3  502    0  0.22594614661E+03 -0.94056052883E+03  0.18822712326E+04  0.21162822975E+04  0.25500000920E-02 0.  1.
       -2    1    3    3    0  502 -0.22594614661E+03  0.94056052883E+03 -0.13113707470E+04  0.16295395072E+04  0.25500000920E-02 0. -1.
</event>
<event>
 5   0  0.2282000E-08  0.3695400E+04  0.7818609E-02  0.8068982E-01
        1   -1    0    0  501    0  0.00000000000E+00  0.00000000000E+00  0.10990838260E+04  0.10990838260E+04  0.50400001928E-02 0.  1.
       -1   -1    0    0    0  501  0.00000000000E+00  0.00000000000E+00 -0.31062184029E+04  0.31062184029E+04  0.50400001928E-02 0. -1.
    10030    2    1    2    0    0  0.00000000000E+00  0.00000000000E+00 -0.20071345769E+04  0.42053022288E+04  0.36953995218E+04 0.  0.
        3    1    3    3  502    0  0.10861631735E+04 -0.14818427557E+04 -0.78060969528E+03  0.19962364336E+04  0.10100000352E+00 0. -1.
       -3    1    3    3    0  502 -0.10861631735E+04  0.14818427557E+04 -0.12265248816E+04  0.22090657952E+04  0.10100000352E+00 0.  1.
</event>
<event>
 5   0  0.2282000E-08  0.3722547E+04  0.7818609E-02  0.8062983E-01
        1   -1    0    0  501    0  0.00000000000E+00  0.00000000000E+00  0.21820138669E+04  0.21820138669E+04  0.50400001928E-02 0.  1.
       -1   -1    0    0    0  501  0.00000000000E+00  0.00000000000E+00 -0.15876796359E+04  0.15876796359E+04  0.50400001928E-02 0. -1.
    10030    2    1    2    0    0  0.00000000000E+00  0.00000000000E+00  0.59433423108E+03  0.37696935028E+04  0.37225469677E+04 0.  0.
        5    1    3    3  502    0 -0.85549729978E+03 -0.14784241932E+04  0.10459254159E+04  0.20028968497E+04  0.46999998093E+01 0. -1.
       -5    1    3    3    0  502  0.85549729978E+03  0.14784241932E+04 -0.45159118484E+03  0.17667966531E+04  0.46999998093E+01 0.  1.
</event>
<event>
 5   0  0.7309833E-08  0.3664127E+04  0.7818609E-02  0.8075958E-01
        2   -1    0    0  501    0  0.00000000000E+00  0.00000000000E+00  0.22575332648E+04  0.22575332648E+04  0.25500000920E-02 0.  1.
       -2   -1    0    0    0  501  0.00000000000E+00  0.00000000000E+00 -0.14867808916E+04  0.14867808916E+04  0.25500000920E-02 0. -1.
    10030    2    1    2    0    0  0.00000000000E+00  0.00000000000E+00  0.77075237315E+03  0.37443141564E+04  0.36641273560E+04 0.  0.
        2    1    3    3  502    0  0.17699673547E+04 -0.42117080317E+03  0.60523106537E+03  0.19174133421E+04  0.25500000920E-02 0. -1.
       -2    1    3    3    0  502 -0.17699673547E+04  0.42117080317E+03  0.16552130778E+03  0.18269008143E+04  0.25500000920E-02 0.  1.
</event>
<event>
 5   0  0.7362817E-08  0.3698212E+04  0.7818609E-02  0.8068358E-01
       -2   -1    0    0    0  501  0.00000000000E+00  0.00000000000E+00  0.16786771703E+04  0.16786771703E+04  0.25500000920E-02 0.  1.
        2   -1    0    0  501    0  0.00000000000E+00  0.00000000000E+00 -0.20368376937E+04  0.20368376937E+04  0.25500000920E-02 0. -1.
    10030    2    1    2    0    0  0.00000000000E+00  0.00000000000E+00 -0.35816052339E+03  0.37155148640E+04  0.36982119658E+04 0.  0.
        1    1    3    3  502    0  0.13932654671E+04 -0.91741575366E+02  0.10388571369E+04  0.17403532197E+04  0.50400001928E-02 0.  1.
       -1    1    3    3    0  502 -0.13932654671E+04  0.91741575366E+02 -0.13970176602E+04  0.19751616444E+04  0.50400001928E-02 0. -1.
</event>
<event>
 5   0  0.2282000E-08  0.3701470E+04  0.7818609E-02  0.8067636E-01
       -1   -1    0    0    0  501  0.00000000000E+00  0.00000000000E+00  0.24650818880E+04  0.24650818880E+04  0.50400001928E-02 0.  1.
        1   -1    0    0  501    0  0.00000000000E+00  0.00000000000E+00 -0.13894953137E+04  0.13894953137E+04  0.50400001928E-02 0. -1.
    10030    2    1    2    0    0  0.00000000000E+00  0.00000000000E+00  0.10755865743E+04  0.38545772017E+04  0.37014698330E+04 0.  0.
        1    1    3    3  502    0  0.13055681159E+03  0.59623196556E+03  0.23572566869E+04  0.24349941942E+04  0.50400001928E-02 0.  1.
       -1    1    3    3    0  502 -0.13055681159E+03 -0.59623196556E+03 -0.12816701125E+04  0.14195830075E+04  0.50400001928E-02 0. -1.
</event>
<event>
 5   0  0.2282000E-08  0.3694758E+04  0.7818609E-02  0.8069125E-01
       -1   -1    0    0    0  501  0.00000000000E+00  0.00000000000E+00  0.15816292243E+04  0.15816292243E+04  0.50400001928E-02 0. -1.
        1   -1    0    0  501    0  0.00000000000E+00  0.00000000000E+00 -0.21577804523E+04  0.21577804523E+04  0.50400001928E-02 0.  1.
    10030    2    1    2    0    0  0.00000000000E+00  0.00000000000E+00 -0.57615122796E+03  0.37394096766E+04  0.36947577041E+04 0.  0.
        3    1    3    3  502    0  0.77637482515E+03  0.12038136987E+04  0.89259167247E+03  0.16877929951E+04  0.10100000352E+00 0. -1.
       -3    1    3    3    0  502 -0.77637482515E+03 -0.12038136987E+04 -0.14687429004E+04  0.20516166816E+04  0.10100000352E+00 0.  1.
</event>
<event>
 5   0  0.2282000E-08  0.3700768E+04  0.7818609E-02  0.8067792E-01
        1   -1    0    0  501    0  0.00000000000E+00  0.00000000000E+00  0.28079444479E+04  0.28079444479E+04  0.50400001928E-02 0.  1.
       -1   -1    0    0    0  501  0.00000000000E+00  0.00000000000E+00 -0.12193689961E+04  0.12193689961E+04  0.50400001928E-02 0. -1.
    10030    2    1    2    0    0  0.00000000000E+00  0.00000000000E+00  0.15885754518E+04  0.40273134440E+04  0.37007677055E+04 0.  0.
        3    1    3    3  502    0 -0.52076580558E+03 -0.10363379940E+04  0.23632855001E+04  0.26325485422E+04  0.10100000352E+00 0.  1.
       -3    1    3    3    0  502  0.52076580558E+03  0.10363379940E+04 -0.77471004829E+03  0.13947649018E+04  0.10100000352E+00 0. -1.
</event>
<event>
 5   0  0.2282000E-08  0.3697426E+04  0.7818609E-02  0.8068532E-01
       -1   -1    0    0    0  501  0.00000000000E+00  0.00000000000E+00  0.24794670852E+04  0.24794670852E+04  0.50400001928E-02 0.  1.
        1   -1    0    0  501    0  0.00000000000E+00  0.00000000000E+00 -0.13784172383E+04  0.13784172383E+04  0.50400001928E-02 0. -1.
    10030    2    1    2    0    0  0.00000000000E+00  0.00000000000E+00  0.11010498469E+04  0.38578843235E+04  0.36974262248E+04 0.  0.
        4    1    3    3  502    0 -0.57795203322E+03 -0.17030493792E+04  0.99728030390E+03  0.20564472661E+04  0.12699999809E+01 0.  1.
       -4    1    3    3    0  502  0.57795203322E+03  0.17030493792E+04  0.10376954301E+03  0.18014370574E+04  0.12699999809E+01 0. -1.
</event>
<event>
 5   0  0.7362817E-08  0.3700544E+04  0.7818609E-02  0.8067841E-01
       -2   -1    0    0    0  501  0.00000000000E+00  0.00000000000E+00  0.20595885087E+04  0.20595885087E+04  0.25500000920E-02 0. -1.
        2   -1    0    0  501    0  0.00000000000E+00  0.00000000000E+00 -0.16622280317E+04  0.16622280318E+04  0.25500000920E-02 0.  1.
    10030    2    1    2    0    0  0.00000000000E+00  0.00000000000E+00  0.39736047696E+03  0.37218165405E+04  0.37005436104E+04 0.  0.
        1    1    3    3  502    0 -0.14620648479E+04  0.10552983865E+04 -0.21869627870E+03  0.18163469841E+04  0.50400001928E-02 0.  1.
       -1    1    3    3    0  502  0.14620648479E+04 -0.10552983865E+04  0.61605675567E+03  0.19054695564E+04  0.50400001928E-02 0. -1.
</event>
<event>
 5   0  0.7254493E-08  0.3705322E+04  0.7818609E-02  0.8066783E-01
        2   -1    0    0  501    0  0.00000000000E+00  0.00000000000E+00  0.12832486718E+04  0.12832486718E+04  0.25500000920E-02 0. -1.
       -2   -1    0    0    0  501  0.00000000000E+00  0.00000000000E+00 -0.26747377003E+04  0.26747377003E+04  0.25500000920E-02 0.  1.
    10030    2    1    2    0    0  0.00000000000E+00  0.00000000000E+00 -0.13914890285E+04  0.39579863721E+04  0.37053224428E+04 0.  0.
        3    1    3    3  502    0  0.15165613470E+04  0.10639115144E+04 -0.71933098170E+03  0.19872853598E+04  0.10100000352E+00 0. -1.
       -3    1    3    3    0  502 -0.15165613470E+04 -0.10639115144E+04 -0.67215804685E+03  0.19707010123E+04  0.10100000352E+00 0.  1.
</event>
<event>
 5   0  0.2282000E-08  0.3692120E+04  0.7818609E-02  0.8069710E-01
        1   -1    0    0  501    0  0.00000000000E+00  0.00000000000E+00  0.17770065730E+04  0.17770065731E+04  0.50400001928E-02 0. -1.
       -1   -1    0    0    0  501  0.00000000000E+00  0.00000000000E+00 -0.19177964562E+04  0.19177964562E+04  0.50400001928E-02 0.  1.
    10030    2    1    2    0    0  0.00000000000E+00  0.00000000000E+00 -0.14078988312E+03  0.36948030292E+04  0.36921196667E+04 0.  0.
        3    1    3    3  502    0  0.15398211588E+04  0.90056588568E+03 -0.54599689285E+03  0.18655242515E+04  0.10100000352E+00 0. -1.
       -3    1    3    3    0  502 -0.15398211588E+04 -0.90056588568E+03  0.40520700974E+03  0.18292787777E+04  0.10100000352E+00 0.  1.
</event>
<event>
 5   0  0.7203049E-08  0.3692921E+04  0.7818609E-02  0.8069532E-01
       -2   -1    0    0    0  501  0.00000000000E+00  0.00000000000E+00  0.13914422029E+04  0.13914422029E+04  0.25500000920E-02 0. -1.
        2   -1    0    0  501    0  0.00000000000E+00  0.00000000000E+00 -0.24502757035E+04  0.24502757035E+04  0.25500000920E-02 0.  1.
    10030    2    1    2    0    0  0.00000000000E+00  0.00000000000E+00 -0.10588335006E+04  0.38417179065E+04  0.36929213491E+04 0.  0.
        4    1    3    3  502    0 -0.12722432357E+04 -0.10508425685E+04  0.33254722035E+03  0.16832891080E+04  0.12699999809E+01 0.  1.
       -4    1    3    3    0  502  0.12722432357E+04  0.10508425685E+04 -0.13913807209E+04  0.21584287984E+04  0.12699999809E+01 0. -1.
</event>
<event>
 5   0  0.2282000E-08  0.3700279E+04  0.7818609E-02  0.8067900E-01
        1   -1    0    0  501    0  0.00000000000E+00  0.00000000000E+00  0.17311362220E+04  0.17311362220E+04  0.50400001928E-02 0.  1.
       -1   -1    0    0    0  501  0.00000000000E+00  0.00000000000E+00 -0.19773237825E+04  0.19773237825E+04  0.50400001928E-02 0. -1.
    10030    2    1    2    0    0  0.00000000000E+00  0.00000000000E+00 -0.24618756050E+03  0.37084600046E+04  0.37002793530E+04 0.  0.
        3    1    3    3  502    0  0.17232512697E+04 -0.57239117107E+03 -0.47854706118E+03  0.18778269067E+04  0.10100000352E+00 0. -1.
       -3    1    3    3    0  502 -0.17232512697E+04  0.57239117107E+03  0.23235950068E+03  0.18306330979E+04  0.10100000352E+00 0.  1.
</event>
<event>
 5   0  0.2282000E-08  0.3702890E+04  0.7818609E-02  0.8067322E-01
       -1   -1    0    0    0  501  0.00000000000E+00  0.00000000000E+00  0.17101150167E+04  0.17101150167E+04  0.50400001928E-02 0.  1.
        1   -1    0    0  501    0  0.00000000000E+00  0.00000000000E+00 -0.20044551125E+04  0.20044551125E+04  0.50400001928E-02 0. -1.
    10030    2    1    2    0    0  0.00000000000E+00  0.00000000000E+00 -0.29434009585E+03  0.37145701292E+04  0.37028901081E+04 0.  0.
        3    1    3    3  502    0 -0.55765290838E+03 -0.16701602692E+04 -0.72119584078E+03  0.19027704912E+04  0.10100000352E+00 0. -1.
       -3    1    3    3    0  502  0.55765290838E+03  0.16701602692E+04  0.42685574493E+03  0.18117996380E+04  0.10100000352E+00 0.  1.
</event>
<event>
 5   0  0.7191801E-08  0.3693580E+04  0.7818609E-02  0.8069386E-01
        2   -1    0    0  501    0  0.00000000000E+00  0.00000000000E+00  0.22433716203E+04  0.22433716203E+04  0.25500000920E-02 0. -1.
       -2   -1    0    0    0  501  0.00000000000E+00  0.00000000000E+00 -0.15203154311E+04  0.15203154311E+04  0.25500000920E-02 0.  1.
    10030    2    1    2    0    0  0.00000000000E+00  0.00000000000E+00  0.72305618921E+03  0.37636870514E+04  0.36935795603E+04 0.  0.
        5    1    3    3  502    0 -0.29277297389E+03  0.32810777939E+01 -0.14965085330E+04  0.15248890645E+04  0.46999998093E+01 0.  1.
       -5    1    3    3    0  502  0.29277297389E+03 -0.32810777939E+01  0.22195647222E+04  0.22387979869E+04  0.46999998093E+01 0. -1.
</event>
<event>
 5   0  0.2282000E-08  0.3702749E+04  0.7818609E-02  0.8067353E-01
        1   -1    0    0  501    0  0.00000000000E+00  0.00000000000E+00  0.23709986023E+04  0.23709986023E+04  0.50400001928E-02 0. -1.
       -1   -1    0    0    0  501  0.00000000000E+00  0.00000000000E+00 -0.14456307190E+04  0.14456307190E+04  0.50400001928E-02 0.  1.
    10030    2    1    2    0    0  0.00000000000E+00  0.00000000000E+00  0.92536788333E+03  0.38166293213E+04  0.37027494726E+04 0.  0.
        4    1    3    3  502    0  0.16650243227E+04 -0.59223010168E+03 -0.10614397269E+03  0.17703984422E+04  0.12699999809E+01 0.  1.
       -4    1    3    3    0  502 -0.16650243227E+04  0.59223010168E+03  0.10315118560E+04  0.20462308791E+04  0.12699999809E+01 0. -1.
</event>
<event>
 5   0  0.2282000E-08  0.3667347E+04  0.7818609E-02  0.8075237E-01
       -1   -1    0    0    0  501  0.00000000000E+00  0.00000000000E+00  0.15290246594E+04  0.15290246594E+04  0.50400001928E-02 0.  1.
        1   -1    0    0  501    0  0.00000000000E+00  0.00000000000E+00 -0.21990219519E+04  0.21990219519E+04  0.50400001928E-02 0. -1.
    10030    2    1    2    0    0  0.00000000000E+00  0.00000000000E+00 -0.66999729251E+03  0.37280466114E+04  0.36673471562E+04 0.  0.
        3    1    3    3  502    0 -0.12999983515E+04  0.12857822610E+04 -0.47558826187E+03  0.18892897982E+04  0.10100000352E+00 0.  1.
       -3    1    3    3    0  502  0.12999983515E+04 -0.12857822610E+04 -0.19440903064E+03  0.18387568132E+04  0.10100000352E+00 0. -1.
</event>
<event>
 5   0  0.7309833E-08  0.3701582E+04  0.7818609E-02  0.8067611E-01
       -2   -1    0    0    0  501  0.00000000000E+00  0.00000000000E+00  0.10490072906E+04  0.10490072906E+04  0.25500000920E-02 0.  1.
        2   -1    0    0  501    0  0.00000000000E+00  0.00000000000E+00 -0.32653987752E+04  0.32653987752E+04  0.25500000920E-02 0. -1.
    10030    2    1    2    0    0  0.00000000000E+00  0.00000000000E+00 -0.22163914846E+04  0.43144060659E+04  0.37015818900E+04 0.  0.
        2    1    3    3  502    0 -0.17665258943E+03 -0.17507809592E+04 -0.43966245484E+03  0.18137649182E+04  0.25500000920E-02 0.  1.
       -2    1    3    3    0  502  0.17665258943E+03  0.17507809592E+04 -0.17767290297E+04  0.25006411477E+04  0.25500000920E-02 0. -1.
</event>
<event>
 5   0  0.2282000E-08  0.3700666E+04  0.7818609E-02  0.8067814E-01
       -1   -1    0    0    0  501  0.00000000000E+00  0.00000000000E+00  0.19772209315E+04  0.19772209315E+04  0.50400001928E-02 0. -1.
        1   -1    0    0  501    0  0.00000000000E+00  0.00000000000E+00 -0.17315876961E+04  0.17315876962E+04  0.50400001928E-02 0.  1.
    10030    2    1    2    0    0  0.00000000000E+00  0.00000000000E+00  0.24563323537E+03  0.37088086277E+04  0.37006655821E+04 0.  0.
        1    1    3    3  502    0 -0.18717923809E+03  0.61671091865E+03  0.18610964995E+04  0.19695300467E+04  0.50400001928E-02 0. -1.
       -1    1    3    3    0  502  0.18717923809E+03 -0.61671091865E+03 -0.16154632641E+04  0.17392785810E+04  0.50400001928E-02 0.  1.
</event>
<event>
 5   0  0.7362817E-08  0.3698926E+04  0.7818609E-02  0.8068200E-01
        2   -1    0    0  501    0  0.00000000000E+00  0.00000000000E+00  0.21043997364E+04  0.21043997364E+04  0.25500000920E-02 0.  1.
       -2   -1    0    0    0  501  0.00000000000E+00  0.00000000000E+00 -0.16254103438E+04  0.16254103438E+04  0.25500000920E-02 0. -1.
    10030    2    1    2    0    0  0.00000000000E+00  0.00000000000E+00  0.47898939259E+03  0.37298100802E+04  0.36989258436E+04 0.  0.
        1    1    3    3  502    0  0.95133939523E+03 -0.63269987455E+03 -0.12270065329E+04  0.16765741284E+04  0.50400001928E-02 0. -1.
       -1    1    3    3    0  502 -0.95133939523E+03  0.63269987455E+03  0.17059959255E+04  0.20532359518E+04  0.50400001928E-02 0.  1.
</event>
<event>
 5   0  0.2282000E-08  0.3704460E+04  0.7818609E-02  0.8066974E-01
       -1   -1    0    0    0  501  0.00000000000E+00  0.00000000000E+00  0.13676073251E+04  0.13676073251E+04  0.50400001928E-02 0.  1.
        1   -1    0    0  501    0  0.00000000000E+00  0.00000000000E+00 -0.25085832121E+04  0.25085832121E+04  0.50400001928E-02 0. -1.
    10030    2    1    2    0    0  0.00000000000E+00  0.00000000000E+00 -0.11409758870E+04  0.38761905372E+04  0.37044604338E+04 0.  0.
        2    1    3    3  502    0 -0.12453601517E+04  0.12329805540E+04  0.56972377909E+02  0.17533992146E+04  0.25500000920E-02 0. -1.
       -2    1    3    3    0  502  0.12453601517E+04 -0.12329805540E+04 -0.11979482649E+04  0.21227913226E+04  0.25500000920E-02 0.  1.
</event>
<event>
 5   0  0.2282000E-08  0.3726618E+04  0.7818609E-02  0.8062089E-01
       -1   -1    0    0    0  501  0.00000000000E+00  0.00000000000E+00  0.16867064279E+04  0.16867064280E+04  0.50400001928E-02 0. -1.
        1   -1    0    0  501    0  0.00000000000E+00  0.00000000000E+00 -0.20584018603E+04  0.20584018603E+04  0.50400001928E-02 0.  1.
    10030    2    1    2    0    0  0.00000000000E+00  0.00000000000E+00 -0.37169543237E+03  0.37451082883E+04  0.37266175812E+04 0.  0.
        4    1    3    3  502    0  0.88673616191E+02 -0.18582268257E+04 -0.29147914626E+03  0.18830378784E+04  0.12699999809E+01 0.  1.
       -4    1    3    3    0  502 -0.88673616191E+02  0.18582268257E+04 -0.80216286114E+02  0.18620704099E+04  0.12699999809E+01 0. -1.
</event>
<event>
 5   0  0.7254493E-08  0.3702778E+04  0.7818609E-02  0.8067346E-01
       -2   -1    0    0    0  501  0.00000000000E+00  0.00000000000E+00  0.13971285651E+04  0.13971285651E+04  0.25500000920E-02 0. -1.
        2   -1    0    0  501    0  0.00000000000E+00  0.00000000000E+00 -0.24533474940E+04  0.24533474940E+04  0.25500000920E-02 0.  1.
    10030    2    1    2    0    0  0.00000000000E+00  0.00000000000E+00 -0.10562189290E+04  0.38504760591E+04  0.37027783428E+04 0.  0.
        3    1    3    3  502    0 -0.13089314488E+04 -0.81869082880E+03  0.53445374450E+03  0.16337677393E+04  0.10100000352E+00 0. -1.
       -3    1    3    3    0  502  0.13089314488E+04  0.81869082880E+03 -0.15906726735E+04  0.22167083198E+04  0.10100000352E+00 0.  1.
</event>
<event>
 5   0  0.2282000E-08  0.3713995E+04  0.7818609E-02  0.8064867E-01
        1   -1    0    0  501    0  0.00000000000E+00  0.00000000000E+00  0.19454570714E+04  0.19454570714E+04  0.50400001928E-02 0.  1.
       -1   -1    0    0    0  501  0.00000000000E+00  0.00000000000E+00 -0.17725603030E+04  0.17725603030E+04  0.50400001928E-02 0. -1.
    10030    2    1    2    0    0  0.00000000000E+00  0.00000000000E+00  0.17289676844E+03  0.37180173745E+04  0.37139951406E+04 0.  0.
        3    1    3    3  502    0 -0.11082654778E+04  0.14510066090E+04 -0.25269190642E+03  0.18432378464E+04  0.10100000352E+00 0. -1.
       -3    1    3    3    0  502  0.11082654778E+04 -0.14510066090E+04  0.42558867486E+03  0.18747795281E+04  0.10100000352E+00 0.  1.
</event>
<event>
 5   0  0.7309833E-08  0.3698068E+04  0.7818609E-02  0.8068390E-01
        2   -1    0    0  501    0  0.00000000000E+00  0.00000000000E+00  0.26471760029E+04  0.26471760029E+04  0.25500000920E-02 0. -1.
       -2   -1    0    0    0  501  0.00000000000E+00  0.00000000000E+00 -0.12915370630E+04  0.12915370630E+04  0.25500000920E-02 0.  1.
    10030    2    1    2    0    0  0.00000000000E+00  0.00000000000E+00  0.13556389398E+04  0.39387130659E+04  0.36980675603E+04 0.  0.
        2    1    3    3  502    0  0.17542868916E+04 -0.32079893826E+02  0.12992003488E+04  0.21832254038E+04  0.25500000920E-02 0.  1.
       -2    1    3    3    0  502 -0.17542868916E+04  0.32079893826E+02  0.56438591084E+02  0.17554876622E+04  0.25500000920E-02 0. -1.
</event>
<event>
 5   0  0.7254493E-08  0.3693997E+04  0.7818609E-02  0.8069294E-01
       -2   -1    0    0    0  501  0.00000000000E+00  0.00000000000E+00  0.14206005779E+04  0.14206005779E+04  0.25500000920E-02 0. -1.
        2   -1    0    0  501    0  0.00000000000E+00  0.00000000000E+00 -0.24013809018E+04  0.24013809018E+04  0.25500000920E-02 0.  1.
    10030    2    1    2    0    0  0.00000000000E+00  0.00000000000E+00 -0.98078032389E+03  0.38219814797E+04  0.36939968039E+04 0.  0.
        3    1    3    3  502    0  0.12426136564E+04  0.13315905004E+04 -0.80791229542E+03  0.19924718937E+04  0.10100000352E+00 0.  1.
       -3    1    3    3    0  502 -0.12426136564E+04 -0.13315905004E+04 -0.17286802847E+03  0.18295095860E+04  0.10100000352E+00 0. -1.
</event>
<event>
 5   0  0.7309833E-08  0.3699492E+04  0.7818609E-02  0.8068074E-01
       -2   -1    0    0    0  501  0.00000000000E+00  0.00000000000E+00  0.13615990469E+04  0.13615990469E+04  0.25500000920E-02 0. -1.
        2   -1    0    0  501    0  0.00000000000E+00  0.00000000000E+00 -0.25128986769E+04  0.25128986769E+04  0.25500000920E-02 0.  1.
    10030    2    1    2    0    0  0.00000000000E+00  0.00000000000E+00 -0.11512996300E+04  0.38744977237E+04  0.36994920966E+04 0.  0.
        2    1    3    3  502    0 -0.13066520347E+04 -0.56449964864E+03  0.66157244772E+03  0.15696106195E+04  0.25500000920E-02 0. -1.
       -2    1    3    3    0  502  0.13066520347E+04  0.56449964864E+03 -0.18128720777E+04  0.23048871043E+04  0.25500000920E-02 0.  1.
</event>
<event>
 5   0  0.7309833E-08  0.3700946E+04  0.7818609E-02  0.8067752E-01
       -2   -1    0    0    0  501  0.00000000000E+00  0.00000000000E+00  0.15594838995E+04  0.15594838995E+04  0.25500000920E-02 0. -1.
        2   -1    0    0  501    0  0.00000000000E+00  0.00000000000E+00 -0.21957581479E+04  0.21957581479E+04  0.25500000920E-02 0.  1.
    10030    2    1    2    0    0  0.00000000000E+00  0.00000000000E+00 -0.63627424843E+03  0.37552420473E+04  0.37009455434E+04 0.  0.
        2    1    3    3  502    0 -0.68056638568E+03 -0.12945485591E+04  0.83217174432E+03  0.16827169665E+04  0.25500000920E-02 0. -1.
       -2    1    3    3    0  502  0.68056638568E+03  0.12945485591E+04 -0.14684459928E+04  0.20725250809E+04  0.25500000920E-02 0.  1.
</event>
<event>
 5   0  0.2282000E-08  0.3696331E+04  0.7818609E-02  0.8068776E-01
        1   -1    0    0  501    0  0.00000000000E+00  0.00000000000E+00  0.19949022324E+04  0.19949022324E+04  0.50400001928E-02 0.  1.
       -1   -1    0    0    0  501  0.00000000000E+00  0.00000000000E+00 -0.17122216802E+04  0.17122216802E+04  0.50400001928E-02 0. -1.
    10030    2    1    2    0    0  0.00000000000E+00  0.00000000000E+00  0.28268055222E+03  0.37071239125E+04  0.36963305329E+04 0.  0.
        5    1    3    3  502    0 -0.17427235700E+04  0.13354113687E+02  0.75830239781E+03  0.19006073741E+04  0.46999998093E+01 0.  1.
       -5    1    3    3    0  502  0.17427235700E+04 -0.13354113687E+02 -0.47562184559E+03  0.18065165385E+04  0.46999998093E+01 0. -1.
</event>
<event>
 5   0  0.2282000E-08  0.3698503E+04  0.7818609E-02  0.8068294E-01
        1   -1    0    0  501    0  0.00000000000E+00  0.00000000000E+00  0.16992974876E+04  0.16992974876E+04  0.50400001928E-02 0.  1.
       -1   -1    0    0    0  501  0.00000000000E+00  0.00000000000E+00 -0.20124386574E+04  0.20124386574E+04  0.50400001928E-02 0. -1.
    10030    2    1    2    0    0  0.00000000000E+00  0.00000000000E+00 -0.31314116978E+03  0.37117361450E+04  0.36985034565E+04 0.  0.
        1    1    3    3  502    0  0.49391777038E+03 -0.17278421527E+04  0.28126857340E+03  0.18189297070E+04  0.50400001928E-02 0.  1.
       -1    1    3    3    0  502 -0.49391777038E+03  0.17278421527E+04 -0.59440974318E+03  0.18928064379E+04  0.50400001928E-02 0. -1.
</event>
<event>
 5   0  0.7309833E-08  0.3698730E+04  0.7818609E-02  0.8068243E-01
        2   -1    0    0  501    0  0.00000000000E+00  0.00000000000E+00  0.15421769992E+04  0.15421769992E+04  0.25500000920E-02 0. -1.
       -2   -1    0    0    0  501  0.00000000000E+00  0.00000000000E+00 -0.22177426869E+04  0.22177426869E+04  0.25500000920E-02 0.  1.
    10030    2    1    2    0    0  0.00000000000E+00  0.00000000000E+00 -0.67556568770E+03  0.37599196861E+04  0.36987304643E+04 0.  0.
        2    1    3    3  502    0  0.44790442448E+03  0.17775436471E+04 -0.58651828031E+03  0.19246515227E+04  0.25500000920E-02 0.  1.
       -2    1    3    3    0  502 -0.44790442448E+03 -0.17775436471E+04 -0.89047407393E+02  0.18352681634E+04  0.25500000920E-02 0. -1.
</event>
<event>
 5   0  0.7309833E-08  0.3699158E+04  0.7818609E-02  0.8068148E-01
       -2   -1    0    0    0  501  0.00000000000E+00  0.00000000000E+00  0.14664762797E+04  0.14664762797E+04  0.25500000920E-02 0. -1.
        2   -1    0    0  501    0  0.00000000000E+00  0.00000000000E+00 -0.23327641101E+04  0.23327641101E+04  0.25500000920E-02 0.  1.
    10030    2    1    2    0    0  0.00000000000E+00  0.00000000000E+00 -0.86628783035E+03  0.37992403898E+04  0.36991584090E+04 0.  0.
        2    1    3    3  502    0 -0.50078432492E+03 -0.29848388806E+03 -0.22359305140E+04  0.23106844949E+04  0.25500000920E-02 0.  1.
       -2    1    3    3    0  502  0.50078432492E+03  0.29848388806E+03  0.13696426836E+04  0.14885558949E+04  0.25500000920E-02 0. -1.
</event>
<event>
 5   0  0.7254493E-08  0.3694522E+04  0.7818609E-02  0.8069177E-01
        2   -1    0    0  501    0  0.00000000000E+00  0.00000000000E+00  0.22995485646E+04  0.22995485646E+04  0.25500000920E-02 0. -1.
       -2   -1    0    0    0  501  0.00000000000E+00  0.00000000000E+00 -0.14839321182E+04  0.14839321182E+04  0.25500000920E-02 0.  1.
    10030    2    1    2    0    0  0.00000000000E+00  0.00000000000E+00  0.81561644645E+03  0.37834806829E+04  0.36945224170E+04 0.  0.
        3    1    3    3  502    0 -0.25570291458E+03  0.39260633855E+03 -0.14220712670E+04  0.14972676502E+04  0.10100000352E+00 0.  1.
       -3    1    3    3    0  502  0.25570291458E+03 -0.39260633855E+03  0.22376877135E+04  0.22862130327E+04  0.10100000352E+00 0. -1.
</event>
<event>
 5   0  0.2282000E-08  0.3699185E+04  0.7818609E-02  0.8068142E-01
        1   -1    0    0  501    0  0.00000000000E+00  0.00000000000E+00  0.16892257081E+04  0.16892257081E+04  0.50400001928E-02 0.  1.
       -1   -1    0    0    0  501  0.00000000000E+00  0.00000000000E+00 -0.20251839674E+04  0.20251839674E+04  0.50400001928E-02 0. -1.
    10030    2    1    2    0    0  0.00000000000E+00  0.00000000000E+00 -0.33595825931E+03  0.37144096755E+04  0.36991852191E+04 0.  0.
        2    1    3    3  502    0  0.50284733449E+03  0.17764674491E+04 -0.56613780561E+02  0.18471321446E+04  0.25500000920E-02 0. -1.
       -2    1    3    3    0  502 -0.50284733449E+03 -0.17764674491E+04 -0.27934447875E+03  0.18672775309E+04  0.25500000920E-02 0.  1.
</event>
<event>
 5   0  0.2282000E-08  0.3699341E+04  0.7818609E-02  0.8068108E-01
       -1   -1    0    0    0  501  0.00000000000E+00  0.00000000000E+00  0.18147904386E+04  0.18147904386E+04  0.50400001928E-02 0.  1.
        1   -1    0    0  501    0  0.00000000000E+00  0.00000000000E+00 -0.18852204823E+04  0.18852204823E+04  0.50400001928E-02 0. -1.
    10030    2    1    2    0    0  0.00000000000E+00  0.00000000000E+00 -0.70430043654E+02  0.37000109209E+04  0.36993405390E+04 0.  0.
        1    1    3    3  502    0 -0.18020233834E+04 -0.40671927791E+03 -0.12781290087E+03  0.18517680695E+04  0.50400001928E-02 0.  1.
       -1    1    3    3    0  502  0.18020233834E+04  0.40671927791E+03  0.57382857219E+02  0.18482428514E+04  0.50400001928E-02 0. -1.
</event>
<event>
 5   0  0.7309833E-08  0.3702343E+04  0.7818609E-02  0.8067443E-01
       -2   -1    0    0    0  501  0.00000000000E+00  0.00000000000E+00  0.16930196412E+04  0.16930196412E+04  0.25500000920E-02 0. -1.
        2   -1    0    0  501    0  0.00000000000E+00  0.00000000000E+00 -0.20240968422E+04  0.20240968422E+04  0.25500000920E-02 0.  1.
    10030    2    1    2    0    0  0.00000000000E+00  0.00000000000E+00 -0.33107720104E+03  0.37171164834E+04  0.37023428850E+04 0.  0.
        2    1    3    3  502    0 -0.10018505599E+04 -0.94541180228E+03 -0.14071331835E+04  0.19691449455E+04  0.25500000920E-02 0.  1.
       -2    1    3    3    0  502  0.10018505599E+04  0.94541180228E+03  0.10760559824E+04  0.17479715380E+04  0.25500000920E-02 0. -1.
</event>
<event>
 5   0  0.7191801E-08  0.3705108E+04  0.7818609E-02  0.8066831E-01
        2   -1    0    0  501    0  0.00000000000E+00  0.00000000000E+00  0.23426111996E+04  0.23426111996E+04  0.25500000920E-02 0.  1.
       -2   -1    0    0    0  501  0.00000000000E+00  0.00000000000E+00 -0.14650133515E+04  0.14650133515E+04  0.25500000920E-02 0. -1.
    10030    2    1    2    0    0  0.00000000000E+00  0.00000000000E+00  0.87759784806E+03  0.38076245511E+04  0.37051081954E+04 0.  0.
        5    1    3    3  502    0 -0.52609208224E+02 -0.10242289349E+04  0.20242499414E+04  0.22692339137E+04  0.46999998093E+01 0.  1.
       -5    1    3    3    0  502  0.52609208224E+02  0.10242289349E+04 -0.11466520934E+04  0.15383906374E+04  0.46999998093E+01 0. -1.
</event>
<event>
 5   0  0.2282000E-08  0.3701859E+04  0.7818609E-02  0.8067550E-01
        1   -1    0    0  501    0  0.00000000000E+00  0.00000000000E+00  0.31138215663E+04  0.31138215663E+04  0.50400001928E-02 0. -1.
       -1   -1    0    0    0  501  0.00000000000E+00  0.00000000000E+00 -0.11002362272E+04  0.11002362272E+04  0.50400001928E-02 0.  1.
    10030    2    1    2    0    0  0.00000000000E+00  0.00000000000E+00  0.20135853391E+04  0.42140577936E+04  0.37018586102E+04 0.  0.
        2    1    3    3  502    0  0.25960611782E+03 -0.18173860163E+04  0.73824515271E+03  0.19787099773E+04  0.25500000920E-02 0.  1.
       -2    1    3    3    0  502 -0.25960611782E+03  0.18173860163E+04  0.12753401864E+04  0.22353478163E+04  0.25500000920E-02 0. -1.
</event>
<event>
 5   0  0.2282000E-08  0.3710539E+04  0.7818609E-02  0.8065630E-01
       -1   -1    0    0    0  501  0.00000000000E+00  0.00000000000E+00  0.15938370146E+04  0.15938370146E+04  0.50400001928E-02 0.  1.
        1   -1    0    0  501    0  0.00000000000E+00  0.00000000000E+00 -0.21595841237E+04  0.21595841237E+04  0.50400001928E-02 0. -1.
    10030    2    1    2    0    0  0.00000000000E+00  0.00000000000E+00 -0.56574710911E+03  0.37534211383E+04  0.37105391050E+04 0.  0.
        5    1    3    3  502    0  0.93371479547E+03 -0.54164743121E+02  0.13379062465E+04  0.16324130461E+04  0.46999998093E+01 0.  1.
       -5    1    3    3    0  502 -0.93371479547E+03  0.54164743121E+02 -0.19036533556E+04  0.21210080922E+04  0.46999998093E+01 0. -1.
</event>
<event>
 5   0  0.7203049E-08  0.3711937E+04  0.7818609E-02  0.8065322E-01
       -2   -1    0    0    0  501  0.00000000000E+00  0.00000000000E+00  0.23597146678E+04  0.23597146678E+04  0.25500000920E-02 0.  1.
        2   -1    0    0  501    0  0.00000000000E+00  0.00000000000E+00 -0.14597607282E+04  0.14597607282E+04  0.25500000920E-02 0. -1.
    10030    2    1    2    0    0  0.00000000000E+00  0.00000000000E+00  0.89995393961E+03  0.38194753961E+04  0.37119368540E+04 0.  0.
        4    1    3    3  502    0 -0.61830593015E+03  0.49828039613E+03 -0.12761296702E+04  0.15030283179E+04  0.12699999809E+01 0. -1.
       -4    1    3    3    0  502  0.61830593015E+03 -0.49828039613E+03  0.21760836098E+04  0.23164470782E+04  0.12699999809E+01 0.  1.
</event>
<event>
 5   0  0.2282000E-08  0.3678353E+04  0.7818609E-02  0.8072776E-01
        1   -1    0    0  501    0  0.00000000000E+00  0.00000000000E+00  0.21738751554E+04  0.21738751554E+04  0.50400001928E-02 0.  1.
       -1   -1    0    0    0  501  0.00000000000E+00  0.00000000000E+00 -0.15560091550E+04  0.15560091550E+04  0.50400001928E-02 0. -1.
    10030    2    1    2    0    0  0.00000000000E+00  0.00000000000E+00  0.61786600040E+03  0.37298843103E+04  0.36783526984E+04 0.  0.
        3    1    3    3  502    0 -0.18311579023E+04  0.36245815291E+00  0.48288878895E+03  0.18937584289E+04  0.10100000352E+00 0. -1.
       -3    1    3    3    0  502  0.18311579023E+04 -0.36245815291E+00  0.13497721144E+03  0.18361258814E+04  0.10100000352E+00 0.  1.
</event>
<event>
 5   0  0.2282000E-08  0.3683119E+04  0.7818609E-02  0.8071713E-01
        1   -1    0    0  501    0  0.00000000000E+00  0.00000000000E+00  0.17577131662E+04  0.17577131662E+04  0.50400001928E-02 0.  1.
       -1   -1    0    0    0  501  0.00000000000E+00  0.00000000000E+00 -0.19294049965E+04  0.19294049965E+04  0.50400001928E-02 0. -1.
    10030    2    1    2    0    0  0.00000000000E+00  0.00000000000E+00 -0.17169183034E+03  0.36871181627E+04  0.36831185511E+04 0.  0.
        2    1    3    3  502    0  0.46744722771E+03 -0.24076055799E+03 -0.18526613394E+04  0.19258314037E+04  0.25500000920E-02 0. -1.
       -2    1    3    3    0  502 -0.46744722771E+03  0.24076055799E+03  0.16809695091E+04  0.17612867590E+04  0.25500000920E-02 0.  1.
</event>
<event>
 5   0  0.7309833E-08  0.3684716E+04  0.7818609E-02  0.8071357E-01
        2   -1    0    0  501    0  0.00000000000E+00  0.00000000000E+00  0.26763157491E+04  0.26763157491E+04  0.25500000920E-02 0.  1.
       -2   -1    0    0    0  501  0.00000000000E+00  0.00000000000E+00 -0.12682672371E+04  0.12682672371E+04  0.25500000920E-02 0. -1.
    10030    2    1    2    0    0  0.00000000000E+00  0.00000000000E+00  0.14080485119E+04  0.39445829862E+04  0.36847163151E+04 0.  0.
        2    1    3    3  502    0  0.11844062696E+04  0.14040957339E+04  0.55270275418E+03  0.19182761469E+04  0.25500000920E-02 0.  1.
       -2    1    3    3    0  502 -0.11844062696E+04 -0.14040957339E+04  0.85534575774E+03  0.20263068392E+04  0.25500000920E-02 0. -1.
</event>
<event>
 5   0  0.7191801E-08  0.3698779E+04  0.7818609E-02  0.8068232E-01
        2   -1    0    0  501    0  0.00000000000E+00  0.00000000000E+00  0.13157685214E+04  0.13157685214E+04  0.25500000920E-02 0. -1.
       -2   -1    0    0    0  501  0.00000000000E+00  0.00000000000E+00 -0.25994248371E+04  0.25994248371E+04  0.25500000920E-02 0.  1.
    10030    2    1    2    0    0  0.00000000000E+00  0.00000000000E+00 -0.12836563157E+04  0.39151933585E+04  0.36987789198E+04 0.  0.
        5    1    3    3  502    0 -0.13323664647E+04 -0.29053806845E+03 -0.19641633304E+04  0.23911445887E+04  0.46999998093E+01 0.  1.
       -5    1    3    3    0  502  0.13323664647E+04  0.29053806845E+03  0.68050701479E+03  0.15240487698E+04  0.46999998093E+01 0. -1.
</event>
<event>
 5   0  0.2282000E-08  0.3699489E+04  0.7818609E-02  0.8068075E-01
        1   -1    0    0  501    0  0.00000000000E+00  0.00000000000E+00  0.17602784045E+04  0.17602784045E+04  0.50400001928E-02 0.  1.
       -1   -1    0    0    0  501  0.00000000000E+00  0.00000000000E+00 -0.19437576570E+04  0.19437576570E+04  0.50400001928E-02 0. -1.
    10030    2    1    2    0    0  0.00000000000E+00  0.00000000000E+00 -0.18347925243E+03  0.37040360615E+04  0.36994889524E+04 0.  0.
        4    1    3    3  502    0 -0.16805127258E+04  0.31939007689E+03 -0.79646551580E+03  0.18869265946E+04  0.12699999809E+01 0. -1.
       -4    1    3    3    0  502  0.16805127258E+04 -0.31939007689E+03  0.61298626338E+03  0.18171094669E+04  0.12699999809E+01 0.  1.
</event>
<event>
 5   0  0.7191801E-08  0.3698268E+04  0.7818609E-02  0.8068346E-01
        2   -1    0    0  501    0  0.00000000000E+00  0.00000000000E+00  0.23388646922E+04  0.23388646922E+04  0.25500000920E-02 0.  1.
       -2   -1    0    0    0  501  0.00000000000E+00  0.00000000000E+00 -0.14619470784E+04  0.14619470784E+04  0.25500000920E-02 0. -1.
    10030    2    1    2    0    0  0.00000000000E+00  0.00000000000E+00  0.87691761383E+03  0.38008117706E+04  0.36982679208E+04 0.  0.
        5    1    3    3  502    0 -0.72142356917E+03 -0.44304133464E+02  0.21876678236E+04  0.23039807765E+04  0.46999998093E+01 0.  1.
       -5    1    3    3    0  502  0.72142356917E+03  0.44304133464E+02 -0.13107502097E+04  0.14968309940E+04  0.46999998093E+01 0. -1.
</event>
<event>
 5   0  0.2282000E-08  0.3704098E+04  0.7818609E-02  0.8067054E-01
        1   -1    0    0  501    0  0.00000000000E+00  0.00000000000E+00  0.12229988132E+04  0.12229988132E+04  0.50400001928E-02 0.  1.
       -1   -1    0    0    0  501  0.00000000000E+00  0.00000000000E+00 -0.28046510992E+04  0.28046510993E+04  0.50400001928E-02 0. -1.
    10030    2    1    2    0    0  0.00000000000E+00  0.00000000000E+00 -0.15816522861E+04  0.40276499124E+04  0.37040977124E+04 0.  0.
        3    1    3    3  502    0  0.78160720373E+03 -0.55428429840E+02 -0.26155348046E+04  0.27303854043E+04  0.10100000352E+00 0. -1.
       -3    1    3    3    0  502 -0.78160720373E+03  0.55428429840E+02  0.10338825185E+04  0.12972645081E+04  0.10100000352E+00 0.  1.
</event>
<event>
 5   0  0.7309833E-08  0.3701058E+04  0.7818609E-02  0.8067727E-01
        2   -1    0    0  501    0  0.00000000000E+00  0.00000000000E+00  0.24940057534E+04  0.24940057534E+04  0.25500000920E-02 0. -1.
       -2   -1    0    0    0  501  0.00000000000E+00  0.00000000000E+00 -0.13730755927E+04  0.13730755927E+04  0.25500000920E-02 0.  1.
    10030    2    1    2    0    0  0.00000000000E+00  0.00000000000E+00  0.11209301607E+04  0.38670813461E+04  0.37010584584E+04 0.  0.
        2    1    3    3  502    0  0.17558799834E+04 -0.56639673489E+03  0.41072318784E+03  0.18901357926E+04  0.25500000920E-02 0. -1.
       -2    1    3    3    0  502 -0.17558799834E+04  0.56639673489E+03  0.71020697282E+03  0.19769455535E+04  0.25500000920E-02 0.  1.
</event>
<event>
 5   0  0.7254493E-08  0.3702014E+04  0.7818609E-02  0.8067516E-01
        2   -1    0    0  501    0  0.00000000000E+00  0.00000000000E+00  0.20260407944E+04  0.20260407944E+04  0.25500000920E-02 0. -1.
       -2   -1    0    0    0  501  0.00000000000E+00  0.00000000000E+00 -0.16910948269E+04  0.16910948269E+04  0.25500000920E-02 0.  1.
    10030    2    1    2    0    0  0.00000000000E+00  0.00000000000E+00  0.33494596751E+03  0.37171356213E+04  0.37020141040E+04 0.  0.
        3    1    3    3  502    0  0.11076943095E+02  0.13738868913E+04 -0.10779722124E+04  0.17463424606E+04  0.10100000352E+00 0.  1.
       -3    1    3    3    0  502 -0.11076943095E+02 -0.13738868913E+04  0.14129181799E+04  0.19707931607E+04  0.10100000352E+00 0. -1.
</event>
<event>
 5   0  0.7362817E-08  0.3689553E+04  0.7818609E-02  0.8070281E-01
       -2   -1    0    0    0  501  0.00000000000E+00  0.00000000000E+00  0.11901372794E+04  0.11901372794E+04  0.25500000920E-02 0. -1.
        2   -1    0    0  501    0  0.00000000000E+00  0.00000000000E+00 -0.28595020297E+04  0.28595020297E+04  0.25500000920E-02 0.  1.
    10030    2    1    2    0    0  0.00000000000E+00  0.00000000000E+00 -0.16693647504E+04  0.40496393091E+04  0.36895528000E+04 0.  0.
        1    1    3    3  502    0 -0.51207483726E+03  0.17672026688E+03  0.11008716651E+04  0.12269348454E+04  0.50400001928E-02 0. -1.
       -1    1    3    3    0  502  0.51207483726E+03 -0.17672026688E+03 -0.27702364155E+04  0.28227044637E+04  0.50400001928E-02 0.  1.
</event>
<event>
 5   0  0.2282000E-08  0.3718358E+04  0.7818609E-02  0.8063906E-01
        1   -1    0    0  501    0  0.00000000000E+00  0.00000000000E+00  0.13032268994E+04  0.13032268994E+04  0.50400001928E-02 0. -1.
       -1   -1    0    0    0  501  0.00000000000E+00  0.00000000000E+00 -0.26522979542E+04  0.26522979542E+04  0.50400001928E-02 0.  1.
    10030    2    1    2    0    0  0.00000000000E+00  0.00000000000E+00 -0.13490710548E+04  0.39555248536E+04  0.37183577230E+04 0.  0.
        1    1    3    3  502    0 -0.24162988325E+02 -0.65115705024E+02  0.13018463494E+04  0.13036977497E+04  0.50400001928E-02 0. -1.
       -1    1    3    3    0  502  0.24162988325E+02  0.65115705024E+02 -0.26509174042E+04  0.26518271039E+04  0.50400001928E-02 0.  1.
</event>
<event>
 5   0  0.7254493E-08  0.3699040E+04  0.7818609E-02  0.8068175E-01
       -2   -1    0    0    0  501  0.00000000000E+00  0.00000000000E+00  0.19086365550E+04  0.19086365550E+04  0.25500000920E-02 0. -1.
        2   -1    0    0  501    0  0.00000000000E+00  0.00000000000E+00 -0.17922345411E+04  0.17922345412E+04  0.25500000920E-02 0.  1.
    10030    2    1    2    0    0  0.00000000000E+00  0.00000000000E+00  0.11640201386E+03  0.37008710962E+04  0.36990400703E+04 0.  0.
        3    1    3    3  502    0  0.14787518644E+04  0.42728727390E+03 -0.96770544388E+03  0.18181681241E+04  0.10100000352E+00 0.  1.
       -3    1    3    3    0  502 -0.14787518644E+04 -0.42728727390E+03  0.10841074577E+04  0.18827029721E+04  0.10100000352E+00 0. -1.
</event>
<event>
 5   0  0.2282000E-08  0.3674094E+04  0.7818609E-02  0.8073727E-01
        1   -1    0    0  501    0  0.00000000000E+00  0.00000000000E+00  0.24398446024E+04  0.24398446024E+04  0.50400001928E-02 0.  1.
       -1   -1    0    0    0  501  0.00000000000E+00  0.00000000000E+00 -0.13831792107E+04  0.13831792107E+04  0.50400001928E-02 0. -1.
    10030    2    1    2    0    0  0.00000000000E+00  0.00000000000E+00  0.10566653917E+04  0.38230238131E+04  0.36740943545E+04 0.  0.
        4    1    3    3  502    0  0.38351681816E+03  0.10221578650E+04 -0.10090023648E+04  0.14865998910E+04  0.12699999809E+01 0.  1.
       -4    1    3    3    0  502 -0.38351681816E+03 -0.10221578650E+04  0.20656677565E+04  0.23364239221E+04  0.12699999809E+01 0. -1.
</event>
<event>
 5   0  0.7191801E-08  0.3685499E+04  0.7818609E-02  0.8071183E-01
       -2   -1    0    0    0  501  0.00000000000E+00  0.00000000000E+00  0.19848349551E+04  0.19848349551E+04  0.25500000920E-02 0.  1.
        2   -1    0    0  501    0  0.00000000000E+00  0.00000000000E+00 -0.17108352765E+04  0.17108352765E+04  0.25500000920E-02 0. -1.
    10030    2    1    2    0    0  0.00000000000E+00  0.00000000000E+00  0.27399967859E+03  0.36956702315E+04  0.36854989671E+04 0.  0.
        5    1    3    3  502    0 -0.72802614180E+03 -0.29722564885E+03  0.18081340072E+04  0.19717342183E+04  0.46999998093E+01 0.  1.
       -5    1    3    3    0  502  0.72802614180E+03  0.29722564885E+03 -0.15341343286E+04  0.17239360132E+04  0.46999998093E+01 0. -1.
</event>
<event>
 5   0  0.2282000E-08  0.3698764E+04  0.7818609E-02  0.8068236E-01
       -1   -1    0    0    0  501  0.00000000000E+00  0.00000000000E+00  0.11420994644E+04  0.11420994644E+04  0.50400001928E-02 0.  1.
        1   -1    0    0  501    0  0.00000000000E+00  0.00000000000E+00 -0.29946723765E+04  0.29946723765E+04  0.50400001928E-02 0. -1.
    10030    2    1    2    0    0  0.00000000000E+00  0.00000000000E+00 -0.18525729121E+04  0.41367718409E+04  0.36987639651E+04 0.  0.
        4    1    3    3  502    0  0.36591696778E+03  0.64064483651E+02  0.10999415140E+04  0.11609790836E+04  0.12699999809E+01 0.  1.
       -4    1    3    3    0  502 -0.36591696778E+03 -0.64064483651E+02 -0.29525144261E+04  0.29757927574E+04  0.12699999809E+01 0. -1.
</event>
<event>
 5   0  0.2282000E-08  0.3702699E+04  0.7818609E-02  0.8067364E-01
       -1   -1    0    0    0  501  0.00000000000E+00  0.00000000000E+00  0.20148156902E+04  0.20148156902E+04  0.50400001928E-02 0. -1.
        1   -1    0    0  501    0  0.00000000000E+00  0.00000000000E+00 -0.17011454344E+04  0.17011454344E+04  0.50400001928E-02 0.  1.
    10030    2    1    2    0    0  0.00000000000E+00  0.00000000000E+00  0.31367025574E+03  0.37159611246E+04  0.37026987523E+04 0.  0.
        5    1    3    3  502    0  0.16656849241E+04  0.79396301754E+03  0.30766944468E+03  0.18707127296E+04  0.46999998093E+01 0. -1.
       -5    1    3    3    0  502 -0.16656849241E+04 -0.79396301754E+03  0.60008110537E+01  0.18452483950E+04  0.46999998093E+01 0.  1.
</event>
<event>
 5   0  0.7362817E-08  0.3711521E+04  0.7818609E-02  0.8065413E-01
        2   -1    0    0  501    0  0.00000000000E+00  0.00000000000E+00  0.23082085077E+04  0.23082085077E+04  0.25500000920E-02 0.  1.
       -2   -1    0    0    0  501  0.00000000000E+00  0.00000000000E+00 -0.14919997218E+04  0.14919997218E+04  0.25500000920E-02 0. -1.
    10030    2    1    2    0    0  0.00000000000E+00  0.00000000000E+00  0.81620878586E+03  0.38002082295E+04  0.37115206864E+04 0.  0.
        1    1    3    3  502    0  0.70841504099E+03  0.14205158357E+04  0.13923917085E+04  0.21115093605E+04  0.50400001928E-02 0.  1.
       -1    1    3    3    0  502 -0.70841504099E+03 -0.14205158357E+04 -0.57618292264E+03  0.16886988690E+04  0.50400001928E-02 0. -1.
</event>
<event>
 5   0  0.7203049E-08  0.3697788E+04  0.7818609E-02  0.8068452E-01
       -2   -1    0    0    0  501  0.00000000000E+00  0.00000000000E+00  0.13131555181E+04  0.13131555181E+04  0.25500000920E-02 0.  1.
        2   -1    0    0  501    0  0.00000000000E+00  0.00000000000E+00 -0.26032015324E+04  0.26032015324E+04  0.25500000920E-02 0. -1.
    10030    2    1    2    0    0  0.00000000000E+00  0.00000000000E+00 -0.12900460143E+04  0.39163570505E+04  0.36977876938E+04 0.  0.
        4    1    3    3  502    0 -0.17190825886E+04 -0.34772026951E+02  0.74822187760E+02  0.17210618853E+04  0.12699999809E+01 0.  1.
       -4    1    3    3    0  502  0.17190825886E+04  0.34772026951E+02 -0.13648682021E+04  0.21952951652E+04  0.12699999809E+01 0. -1.
</event>
<event>
 5   0  0.7254493E-08  0.3701240E+04  0.7818609E-02  0.8067687E-01
       -2   -1    0    0    0  501  0.00000000000E+00  0.00000000000E+00  0.21340134359E+04  0.21340134359E+04  0.25500000920E-02 0. -1.
        2   -1    0    0  501    0  0.00000000000E+00  0.00000000000E+00 -0.16048605073E+04  0.16048605073E+04  0.25500000920E-02 0.  1.
    10030    2    1    2    0    0  0.00000000000E+00  0.00000000000E+00  0.52915292862E+03  0.37388739432E+04  0.37012397303E+04 0.  0.
        3    1    3    3  502    0  0.33088164231E+03  0.10220188545E+04 -0.12576594620E+04  0.16539989518E+04  0.10100000352E+00 0.  1.
       -3    1    3    3    0  502 -0.33088164231E+03 -0.10220188545E+04  0.17868123906E+04  0.20848749914E+04  0.10100000352E+00 0. -1.
</event>
<event>
 5   0  0.2282000E-08  0.3712421E+04  0.7818609E-02  0.8065215E-01
       -1   -1    0    0    0  501  0.00000000000E+00  0.00000000000E+00  0.20221145290E+04  0.20221145290E+04  0.50400001928E-02 0. -1.
        1   -1    0    0  501    0  0.00000000000E+00  0.00000000000E+00 -0.17039181759E+04  0.17039181759E+04  0.50400001928E-02 0.  1.
    10030    2    1    2    0    0  0.00000000000E+00  0.00000000000E+00  0.31819635312E+03  0.37260327049E+04  0.37124211506E+04 0.  0.
        4    1    3    3  502    0 -0.39878621523E+03  0.18112409196E+04  0.23613879850E+03  0.18695954802E+04  0.12699999809E+01 0.  1.
       -4    1    3    3    0  502  0.39878621523E+03 -0.18112409196E+04  0.82057554621E+02  0.18564372248E+04  0.12699999809E+01 0. -1.
</event>
<event>
 5   0  0.2282000E-08  0.3699611E+04  0.7818609E-02  0.8068048E-01
       -1   -1    0    0    0  501  0.00000000000E+00  0.00000000000E+00  0.16299794716E+04  0.16299794716E+04  0.50400001928E-02 0. -1.
        1   -1    0    0  501    0  0.00000000000E+00  0.00000000000E+00 -0.20992779827E+04  0.20992779827E+04  0.50400001928E-02 0.  1.
    10030    2    1    2    0    0  0.00000000000E+00  0.00000000000E+00 -0.46929851110E+03  0.37292574543E+04  0.36996107995E+04 0.  0.
        2    1    3    3  502    0 -0.29788350557E+03  0.97905518180E+02 -0.20722939809E+04  0.20958822526E+04  0.25500000920E-02 0.  1.
       -2    1    3    3    0  502  0.29788350557E+03 -0.97905518180E+02  0.16029954698E+04  0.16333752017E+04  0.25500000920E-02 0. -1.
</event>
<event>
 5   0  0.7191801E-08  0.3695552E+04  0.7818609E-02  0.8068948E-01
       -2   -1    0    0    0  501  0.00000000000E+00  0.00000000000E+00  0.19246134687E+04  0.19246134687E+04  0.25500000920E-02 0. -1.
        2   -1    0    0  501    0  0.00000000000E+00  0.00000000000E+00 -0.17740065244E+04  0.17740065244E+04  0.25500000920E-02 0.  1.
    10030    2    1    2    0    0  0.00000000000E+00  0.00000000000E+00  0.15060694428E+03  0.36986199931E+04  0.36955523812E+04 0.  0.
        5    1    3    3  502    0  0.28677095422E+03 -0.31199327105E+03  0.18753172787E+04  0.19226061393E+04  0.46999998093E+01 0. -1.
       -5    1    3    3    0  502 -0.28677095422E+03  0.31199327105E+03 -0.17247103344E+04  0.17760138538E+04  0.46999998093E+01 0.  1.
</event>
<event>
 5   0  0.2282000E-08  0.3674196E+04  0.7818609E-02  0.8073704E-01
        1   -1    0    0  501    0  0.00000000000E+00  0.00000000000E+00  0.20354493597E+04  0.20354493597E+04  0.50400001928E-02 0.  1.
       -1   -1    0    0    0  501  0.00000000000E+00  0.00000000000E+00 -0.16580757614E+04  0.16580757614E+04  0.50400001928E-02 0. -1.
    10030    2    1    2    0    0  0.00000000000E+00  0.00000000000E+00  0.37737359827E+03  0.36935251211E+04  0.36741961009E+04 0.  0.
        1    1    3    3  502    0 -0.10074597259E+04 -0.12813602159E+04  0.10405349018E+04  0.19337972965E+04  0.50400001928E-02 0.  1.
       -1    1    3    3    0  502  0.10074597259E+04  0.12813602159E+04 -0.66316130351E+03  0.17597278246E+04  0.50400001928E-02 0. -1.
</event>
<event>
 5   0  0.7254493E-08  0.3703651E+04  0.7818609E-02  0.8067153E-01
       -2   -1    0    0    0  501  0.00000000000E+00  0.00000000000E+00  0.17544927412E+04  0.17544927412E+04  0.25500000920E-02 0.  1.
        2   -1    0    0  501    0  0.00000000000E+00  0.00000000000E+00 -0.19545580850E+04  0.19545580850E+04  0.25500000920E-02 0. -1.
    10030    2    1    2    0    0  0.00000000000E+00  0.00000000000E+00 -0.20006534371E+03  0.37090508262E+04  0.37036511566E+04 0.  0.
        3    1    3    3  502    0 -0.18420775443E+04  0.18715855221E+03 -0.68682732191E+02  0.18528344046E+04  0.10100000352E+00 0. -1.
       -3    1    3    3    0  502  0.18420775443E+04 -0.18715855221E+03 -0.13138261152E+03  0.18562164216E+04  0.10100000352E+00 0.  1.
</event>
<event>
 5   0  0.2282000E-08  0.3587499E+04  0.7818609E-02  0.8093361E-01
       -1   -1    0    0    0  501  0.00000000000E+00  0.00000000000E+00  0.33123568014E+04  0.33123568014E+04  0.50400001928E-02 0.  1.
        1   -1    0    0  501    0  0.00000000000E+00  0.00000000000E+00 -0.97137382572E+03  0.97137382574E+03  0.50400001928E-02 0. -1.
    10030    2    1    2    0    0  0.00000000000E+00  0.00000000000E+00  0.23409829757E+04  0.42837306271E+04  0.35874986820E+04 0.  0.
        2    1    3    3  502    0  0.10404856856E+04 -0.14581598406E+04  0.12818422150E+04  0.22027165153E+04  0.25500000920E-02 0.  1.
       -2    1    3    3    0  502 -0.10404856856E+04  0.14581598406E+04  0.10591407606E+04  0.20810141118E+04  0.25500000920E-02 0. -1.
</event>
<event>
 5   0  0.2282000E-08  0.3690086E+04  0.7818609E-02  0.8070162E-01
        1   -1    0    0  501    0  0.00000000000E+00  0.00000000000E+00  0.16772974559E+04  0.16772974559E+04  0.50400001928E-02 0.  1.
       -1   -1    0    0    0  501  0.00000000000E+00  0.00000000000E+00 -0.20295651420E+04  0.20295651420E+04  0.50400001928E-02 0. -1.
    10030    2    1    2    0    0  0.00000000000E+00  0.00000000000E+00 -0.35226768617E+03  0.37068625979E+04  0.36900864214E+04 0.  0.
        4    1    3    3  502    0 -0.46214521547E+03  0.17463767761E+04 -0.55303659932E+03  0.18892488288E+04  0.12699999809E+01 0. -1.
       -4    1    3    3    0  502  0.46214521547E+03 -0.17463767761E+04  0.20076891315E+03  0.18176137691E+04  0.12699999809E+01 0.  1.
</event>
<event>
 5   0  0.7203049E-08  0.3705454E+04  0.7818609E-02  0.8066754E-01
        2   -1    0    0  501    0  0.00000000000E+00  0.00000000000E+00  0.23472431349E+04  0.23472431349E+04  0.25500000920E-02 0. -1.
       -2   -1    0    0    0  501  0.00000000000E+00  0.00000000000E+00 -0.14623954710E+04  0.14623954710E+04  0.25500000920E-02 0.  1.
    10030    2    1    2    0    0  0.00000000000E+00  0.00000000000E+00  0.88484766398E+03  0.38096386059E+04  0.37054542122E+04 0.  0.
        4    1    3    3  502    0 -0.66005860841E+03 -0.10304556535E+03  0.22191032506E+04  0.23174806590E+04  0.12699999809E+01 0. -1.
       -4    1    3    3    0  502  0.66005860841E+03  0.10304556535E+03 -0.13342555866E+04  0.14921579469E+04  0.12699999809E+01 0.  1.
</event>
<event>
 5   0  0.2282000E-08  0.3656021E+04  0.7818609E-02  0.8077779E-01
        1   -1    0    0  501    0  0.00000000000E+00  0.00000000000E+00  0.16123486573E+04  0.16123486573E+04  0.50400001928E-02 0.  1.
       -1   -1    0    0    0  501  0.00000000000E+00  0.00000000000E+00 -0.20725180904E+04  0.20725180904E+04  0.50400001928E-02 0. -1.
    10030    2    1    2    0    0  0.00000000000E+00  0.00000000000E+00 -0.46016943309E+03  0.36848667477E+04  0.36560206565E+04 0.  0.
        5    1    3    3  502    0 -0.10426567442E+04  0.14416864288E+04 -0.65292650493E+03  0.18952382320E+04  0.46999998093E+01 0. -1.
       -5    1    3    3    0  502  0.10426567442E+04 -0.14416864288E+04  0.19275707183E+03  0.17896285156E+04  0.46999998093E+01 0.  1.
</event>
<event>
 5   0  0.7309833E-08  0.3701354E+04  0.7818609E-02  0.8067662E-01
       -2   -1    0    0    0  501  0.00000000000E+00  0.00000000000E+00  0.12488716066E+04  0.12488716066E+04  0.25500000920E-02 0. -1.
        2   -1    0    0  501    0  0.00000000000E+00  0.00000000000E+00 -0.27424796051E+04  0.27424796051E+04  0.25500000920E-02 0.  1.
    10030    2    1    2    0    0  0.00000000000E+00  0.00000000000E+00 -0.14936079986E+04  0.39913512117E+04  0.37013537580E+04 0.  0.
        2    1    3    3  502    0 -0.12368296458E+04  0.16196894981E+03  0.72743100381E+03  0.14440004774E+04  0.25500000920E-02 0. -1.
       -2    1    3    3    0  502  0.12368296458E+04 -0.16196894981E+03 -0.22210390024E+04  0.25473507343E+04  0.25500000920E-02 0.  1.
</event>
<event>
 5   0  0.2282000E-08  0.3699556E+04  0.7818609E-02  0.8068060E-01
        1   -1    0    0  501    0  0.00000000000E+00  0.00000000000E+00  0.17150077390E+04  0.17150077391E+04  0.50400001928E-02 0. -1.
       -1   -1    0    0    0  501  0.00000000000E+00  0.00000000000E+00 -0.19951390471E+04  0.19951390471E+04  0.50400001928E-02 0.  1.
    10030    2    1    2    0    0  0.00000000000E+00  0.00000000000E+00 -0.28013130803E+03  0.37101467861E+04  0.36995561389E+04 0.  0.
        4    1    3    3  502    0  0.15153381883E+04 -0.10422208165E+04 -0.33863053501E+03  0.18700658565E+04  0.12699999809E+01 0.  1.
       -4    1    3    3    0  502 -0.15153381883E+04  0.10422208165E+04  0.58499226987E+02  0.18400809297E+04  0.12699999809E+01 0. -1.
</event>
<event>
 5   0  0.2282000E-08  0.3702440E+04  0.7818609E-02  0.8067421E-01
       -1   -1    0    0    0  501  0.00000000000E+00  0.00000000000E+00  0.22192576135E+04  0.22192576135E+04  0.50400001928E-02 0. -1.
        1   -1    0    0  501    0  0.00000000000E+00  0.00000000000E+00 -0.15442171273E+04  0.15442171273E+04  0.50400001928E-02 0.  1.
    10030    2    1    2    0    0  0.00000000000E+00  0.00000000000E+00  0.67504048622E+03  0.37634747408E+04  0.37024400693E+04 0.  0.
        1    1    3    3  502    0  0.45796226946E+03  0.11740817451E+04 -0.10408642186E+04  0.16345016690E+04  0.50400001928E-02 0.  1.
       -1    1    3    3    0  502 -0.45796226946E+03 -0.11740817451E+04  0.17159047048E+04  0.21289730718E+04  0.50400001928E-02 0. -1.
</event>
<event>
 5   0  0.7309833E-08  0.3704045E+04  0.7818609E-02  0.8067066E-01
       -2   -1    0    0    0  501  0.00000000000E+00  0.00000000000E+00  0.30222805568E+04  0.30222805568E+04  0.25500000920E-02 0.  1.
        2   -1    0    0  501    0  0.00000000000E+00  0.00000000000E+00 -0.11349000946E+04  0.11349000946E+04  0.25500000920E-02 0. -1.
    10030    2    1    2    0    0  0.00000000000E+00  0.00000000000E+00  0.18873804622E+04  0.41571806514E+04  0.37040445406E+04 0.  0.
        2    1    3    3  502    0 -0.79665959183E+03  0.51928386294E+03 -0.83996333213E+03  0.12688028353E+04  0.25500000920E-02 0. -1.
       -2    1    3    3    0  502  0.79665959183E+03 -0.51928386294E+03  0.27273437944E+04  0.28883778160E+04  0.25500000920E-02 0.  1.
</event>
<event>
 5   0  0.7362817E-08  0.3708582E+04  0.7818609E-02  0.8066063E-01
       -2   -1    0    0    0  501  0.00000000000E+00  0.00000000000E+00  0.15166473956E+04  0.15166473956E+04  0.25500000920E-02 0.  1.
        2   -1    0    0  501    0  0.00000000000E+00  0.00000000000E+00 -0.22671030049E+04  0.22671030049E+04  0.25500000920E-02 0. -1.
    10030    2    1    2    0    0  0.00000000000E+00  0.00000000000E+00 -0.75045560930E+03  0.37837504005E+04  0.37085824073E+04 0.  0.
        1    1    3    3  502    0  0.38243934506E+02  0.14351341111E+04  0.82215357900E+03  0.16543908314E+04  0.50400001928E-02 0.  1.
       -1    1    3    3    0  502 -0.38243934506E+02 -0.14351341111E+04 -0.15726091883E+04  0.21293595691E+04  0.50400001928E-02 0. -1.
</event>
<event>
 5   0  0.2282000E-08  0.3699278E+04  0.7818609E-02  0.8068122E-01
        1   -1    0    0  501    0  0.00000000000E+00  0.00000000000E+00  0.24122821465E+04  0.24122821465E+04  0.50400001928E-02 0. -1.
       -1   -1    0    0    0  501  0.00000000000E+00  0.00000000000E+00 -0.14182273933E+04  0.14182273934E+04  0.50400001928E-02 0.  1.
    10030    2    1    2    0    0  0.00000000000E+00  0.00000000000E+00  0.99405475316E+03  0.38305095399E+04  0.36992781029E+04 0.  0.
        2    1    3    3  502    0  0.23414895314E+03 -0.60766574272E+02  0.23958314797E+04  0.24080130373E+04  0.25500000920E-02 0. -1.
       -2    1    3    3    0  502 -0.23414895314E+03  0.60766574272E+02 -0.14017767265E+04  0.14224965026E+04  0.25500000920E-02 0.  1.
</event>
<event>
 5   0  0.2282000E-08  0.3704900E+04  0.7818609E-02  0.8066877E-01
       -1   -1    0    0    0  501  0.00000000000E+00  0.00000000000E+00  0.18504877837E+04  0.18504877837E+04  0.50400001928E-02 0. -1.
        1   -1    0    0  501    0  0.00000000000E+00  0.00000000000E+00 -0.18544138099E+04  0.18544138099E+04  0.50400001928E-02 0.  1.
    10030    2    1    2    0    0  0.00000000000E+00  0.00000000000E+00 -0.39260261873E+01  0.37049015937E+04  0.37048995135E+04 0.  0.
        1    1    3    3  502    0 -0.84574714187E+03  0.82192994678E+03 -0.14304990915E+04  0.18539645941E+04  0.50400001928E-02 0.  1.
       -1    1    3    3    0  502  0.84574714187E+03 -0.82192994678E+03  0.14265730654E+04  0.18509369995E+04  0.50400001928E-02 0. -1.
</event>
<event>
 5   0  0.2282000E-08  0.3699036E+04  0.7818609E-02  0.8068176E-01
       -1   -1    0    0    0  501  0.00000000000E+00  0.00000000000E+00  0.12667924659E+04  0.12667924659E+04  0.50400001928E-02 0. -1.
        1   -1    0    0  501    0  0.00000000000E+00  0.00000000000E+00 -0.27002972212E+04  0.27002972212E+04  0.50400001928E-02 0.  1.
    10030    2    1    2    0    0  0.00000000000E+00  0.00000000000E+00 -0.14335047553E+04  0.39670896872E+04  0.36990356449E+04 0.  0.
        1    1    3    3  502    0  0.13458348433E+04  0.48936884824E+03  0.53851979901E+03  0.15299532245E+04  0.50400001928E-02 0. -1.
       -1    1    3    3    0  502 -0.13458348433E+04 -0.48936884824E+03 -0.19720245543E+04  0.24371364627E+04  0.50400001928E-02 0.  1.
</event>
<event>
 5   0  0.7203049E-08  0.3702278E+04  0.7818609E-02  0.8067457E-01
        2   -1    0    0  501    0  0.00000000000E+00  0.00000000000E+00  0.23380658044E+04  0.23380658044E+04  0.25500000920E-02 0.  1.
       -2   -1    0    0    0  501  0.00000000000E+00  0.00000000000E+00 -0.14656200058E+04  0.14656200058E+04  0.25500000920E-02 0. -1.
    10030    2    1    2    0    0  0.00000000000E+00  0.00000000000E+00  0.87244579860E+03  0.38036858102E+04  0.37022782272E+04 0.  0.
        4    1    3    3  502    0 -0.27602905030E+03  0.20293207451E+03 -0.14327643543E+04  0.14731560581E+04  0.12699999809E+01 0. -1.
       -4    1    3    3    0  502  0.27602905030E+03 -0.20293207451E+03  0.23052101529E+04  0.23305297521E+04  0.12699999809E+01 0.  1.
</event>
<event>
 5   0  0.2282000E-08  0.3732442E+04  0.7818609E-02  0.8060810E-01
        1   -1    0    0  501    0  0.00000000000E+00  0.00000000000E+00  0.17667557956E+04  0.17667557956E+04  0.50400001928E-02 0. -1.
       -1   -1    0    0    0  501  0.00000000000E+00  0.00000000000E+00 -0.19712855807E+04  0.19712855808E+04  0.50400001928E-02 0.  1.
    10030    2    1    2    0    0  0.00000000000E+00  0.00000000000E+00 -0.20452978515E+03  0.37380413764E+04  0.37324416805E+04 0.  0.
        3    1    3    3  502    0 -0.35952249225E+03 -0.52654399519E+02 -0.19355169095E+04  0.19693284706E+04  0.10100000352E+00 0.  1.
       -3    1    3    3    0  502  0.35952249225E+03  0.52654399519E+02  0.17309871243E+04  0.17687129057E+04  0.10100000352E+00 0. -1.
</event>
<event>
 5   0  0.2282000E-08  0.3700657E+04  0.7818609E-02  0.8067816E-01
       -1   -1    0    0    0  501  0.00000000000E+00  0.00000000000E+00  0.14525626179E+04  0.14525626179E+04  0.50400001928E-02 0. -1.
        1   -1    0    0  501    0  0.00000000000E+00  0.00000000000E+00 -0.23570175869E+04  0.23570175869E+04  0.50400001928E-02 0.  1.
    10030    2    1    2    0    0  0.00000000000E+00  0.00000000000E+00 -0.90445496901E+03  0.38095802047E+04  0.37006570424E+04 0.  0.
        1    1    3    3  502    0  0.12043953733E+04  0.13792674116E+04 -0.17837336043E+03  0.18397727750E+04  0.50400001928E-02 0. -1.
       -1    1    3    3    0  502 -0.12043953733E+04 -0.13792674116E+04 -0.72608160858E+03  0.19698074297E+04  0.50400001928E-02 0.  1.
</event>
<event>
 5   0  0.2282000E-08  0.3696933E+04  0.7818609E-02  0.8068642E-01
       -1   -1    0    0    0  501  0.00000000000E+00  0.00000000000E+00  0.23782326432E+04  0.23782326432E+04  0.50400001928E-02 0. -1.
        1   -1    0    0  501    0  0.00000000000E+00  0.00000000000E+00 -0.14367091595E+04  0.14367091595E+04  0.50400001928E-02 0.  1.
    10030    2    1    2    0    0  0.00000000000E+00  0.00000000000E+00  0.94152348363E+03  0.38149418027E+04  0.36969331192E+04 0.  0.
        1    1    3    3  502    0 -0.17210406610E+04  0.44072159994E+03 -0.56035680692E+02  0.17774578710E+04  0.50400001928E-02 0.  1.
       -1    1    3    3    0  502  0.17210406610E+04 -0.44072159994E+03  0.99755916432E+03  0.20374839317E+04  0.50400001928E-02 0. -1.
</event>
<event>
 5   0  0.7203049E-08  0.3706099E+04  0.7818609E-02  0.8066612E-01
       -2   -1    0    0    0  501  0.00000000000E+00  0.00000000000E+00  0.16660566219E+04  0.16660566219E+04  0.25500000920E-02 0.  1.
        2   -1    0    0  501    0  0.00000000000E+00  0.00000000000E+00 -0.20610296982E+04  0.20610296982E+04  0.25500000920E-02 0. -1.
    10030    2    1    2    0    0  0.00000000000E+00  0.00000000000E+00 -0.39497307632E+03  0.37270863201E+04  0.37060988528E+04 0.  0.
        4    1    3    3  502    0 -0.16576486853E+03 -0.18289383951E+04  0.51497654320E+02  0.18371573874E+04  0.12699999809E+01 0.  1.
       -4    1    3    3    0  502  0.16576486853E+03  0.18289383951E+04 -0.44647073064E+03  0.18899289327E+04  0.12699999809E+01 0. -1.
</event>
<event>
 5   0  0.7254493E-08  0.3701409E+04  0.7818609E-02  0.8067650E-01
       -2   -1    0    0    0  501  0.00000000000E+00  0.00000000000E+00  0.24089424052E+04  0.24089424052E+04  0.25500000920E-02 0.  1.
        2   -1    0    0  501    0  0.00000000000E+00  0.00000000000E+00 -0.14218299249E+04  0.14218299249E+04  0.25500000920E-02 0. -1.
    10030    2    1    2    0    0  0.00000000000E+00  0.00000000000E+00  0.98711248024E+03  0.38307723301E+04  0.37014085962E+04 0.  0.
        3    1    3    3  502    0 -0.69172450068E+03 -0.75112635492E+03 -0.11039024736E+04  0.15037533931E+04  0.10100000352E+00 0. -1.
       -3    1    3    3    0  502  0.69172450068E+03  0.75112635492E+03  0.20910149538E+04  0.23270189370E+04  0.10100000352E+00 0.  1.
</event>
<event>
 5   0  0.7191801E-08  0.3709909E+04  0.7818609E-02  0.8065769E-01
        2   -1    0    0  501    0  0.00000000000E+00  0.00000000000E+00  0.11750851034E+04  0.11750851034E+04  0.25500000920E-02 0. -1.
       -2   -1    0    0    0  501  0.00000000000E+00  0.00000000000E+00 -0.29281758407E+04  0.29281758407E+04  0.25500000920E-02 0.  1.
    10030    2    1    2    0    0  0.00000000000E+00  0.00000000000E+00 -0.17530907373E+04  0.41032609441E+04  0.37099087917E+04 0.  0.
        5    1    3    3  502    0 -0.14767182759E+04  0.43483235895E+03  0.26810362951E+03  0.15625868593E+04  0.46999998093E+01 0. -1.
       -5    1    3    3    0  502  0.14767182759E+04 -0.43483235895E+03 -0.20211943668E+04  0.25406740848E+04  0.46999998093E+01 0.  1.
</event>
<event>
 5   0  0.7254493E-08  0.3699685E+04  0.7818609E-02  0.8068032E-01
        2   -1    0    0  501    0  0.00000000000E+00  0.00000000000E+00  0.14712380865E+04  0.14712380865E+04  0.25500000920E-02 0.  1.
       -2   -1    0    0    0  501  0.00000000000E+00  0.00000000000E+00 -0.23258765313E+04  0.23258765313E+04  0.25500000920E-02 0. -1.
    10030    2    1    2    0    0  0.00000000000E+00  0.00000000000E+00 -0.85463844477E+03  0.37971146178E+04  0.36996854663E+04 0.  0.
        3    1    3    3  502    0 -0.15054986134E+04 -0.58362187842E+03  0.49910186434E+03  0.16900423820E+04  0.10100000352E+00 0.  1.
       -3    1    3    3    0  502  0.15054986134E+04  0.58362187842E+03 -0.13537403091E+04  0.21070722357E+04  0.10100000352E+00 0. -1.
</event>
<event>
 5   0  0.2282000E-08  0.3689407E+04  0.7818609E-02  0.8070313E-01
        1   -1    0    0  501    0  0.00000000000E+00  0.00000000000E+00  0.32793179237E+04  0.32793179237E+04  0.50400001928E-02 0. -1.
       -1   -1    0    0    0  501  0.00000000000E+00  0.00000000000E+00 -0.10376949898E+04  0.10376949898E+04  0.50400001928E-02 0.  1.
    10030    2    1    2    0    0  0.00000000000E+00  0.00000000000E+00  0.22416229339E+04  0.43170129135E+04  0.36894074209E+04 0.  0.
        5    1    3    3  502    0  0.15612935175E+04 -0.86248507498E+03  0.57024794352E+03  0.18726245645E+04  0.46999998093E+01 0.  1.
       -5    1    3    3    0  502 -0.15612935175E+04  0.86248507498E+03  0.16713749904E+04  0.24443883490E+04  0.46999998093E+01 0. -1.
</event>
<event>
 5   0  0.7191801E-08  0.3704693E+04  0.7818609E-02  0.8066923E-01
       -2   -1    0    0    0  501  0.00000000000E+00  0.00000000000E+00  0.11283529625E+04  0.11283529625E+04  0.25500000920E-02 0.  1.
        2   -1    0    0  501    0  0.00000000000E+00  0.00000000000E+00 -0.30408818630E+04  0.30408818630E+04  0.25500000920E-02 0. -1.
    10030    2    1    2    0    0  0.00000000000E+00  0.00000000000E+00 -0.19125289006E+04  0.41692348255E+04  0.37046932713E+04 0.  0.
        5    1    3    3  502    0 -0.56145858054E+02 -0.14634075930E+03  0.11208696870E+04  0.11317857220E+04  0.46999998093E+01 0.  1.
       -5    1    3    3    0  502  0.56145858054E+02  0.14634075930E+03 -0.30333985876E+04  0.30374491035E+04  0.46999998093E+01 0. -1.
</event>
<event>
 5   0  0.7309833E-08  0.3700113E+04  0.7818609E-02  0.8067937E-01
        2   -1    0    0  501    0  0.00000000000E+00  0.00000000000E+00  0.12019507401E+04  0.12019507401E+04  0.25500000920E-02 0.  1.
       -2   -1    0    0    0  501  0.00000000000E+00  0.00000000000E+00 -0.28476286975E+04  0.28476286975E+04  0.25500000920E-02 0. -1.
    10030    2    1    2    0    0  0.00000000000E+00  0.00000000000E+00 -0.16456779574E+04  0.40495794376E+04  0.37001131985E+04 0.  0.
        2    1    3    3  502    0 -0.59856928702E+02  0.18211634343E+04 -0.11732165710E+04  0.21671770183E+04  0.25500000920E-02 0. -1.
       -2    1    3    3    0  502  0.59856928702E+02 -0.18211634343E+04 -0.47246138634E+03  0.18824024192E+04  0.25500000920E-02 0.  1.
</event>
<event>
 5   0  0.7191801E-08  0.3694911E+04  0.7818609E-02  0.8069091E-01
        2   -1    0    0  501    0  0.00000000000E+00  0.00000000000E+00  0.22152568439E+04  0.22152568439E+04  0.25500000920E-02 0.  1.
       -2   -1    0    0    0  501  0.00000000000E+00  0.00000000000E+00 -0.15407202066E+04  0.15407202066E+04  0.25500000920E-02 0. -1.
    10030    2    1    2    0    0  0.00000000000E+00  0.00000000000E+00  0.67453663731E+03  0.37559770505E+04  0.36949105441E+04 0.  0.
        5    1    3    3  502    0  0.57955119644E+03  0.13149176398E+02  0.21204020160E+04  0.21982218472E+04  0.46999998093E+01 0.  1.
       -5    1    3    3    0  502 -0.57955119644E+03 -0.13149176398E+02 -0.14458653787E+04  0.15577552033E+04  0.46999998093E+01 0. -1.
</event>
<event>
 5   0  0.2282000E-08  0.3701762E+04  0.7818609E-02  0.8067572E-01
       -1   -1    0    0    0  501  0.00000000000E+00  0.00000000000E+00  0.13124634807E+04  0.13124634807E+04  0.50400001928E-02 0.  1.
        1   -1    0    0  501    0  0.00000000000E+00  0.00000000000E+00 -0.26101751845E+04  0.26101751845E+04  0.50400001928E-02 0. -1.
    10030    2    1    2    0    0  0.00000000000E+00  0.00000000000E+00 -0.12977117038E+04  0.39226386652E+04  0.37017615308E+04 0.  0.
        1    1    3    3  502    0 -0.41895246078E+03  0.17994728404E+04 -0.76559232722E+03  0.19999388189E+04  0.50400001928E-02 0.  1.
       -1    1    3    3    0  502  0.41895246078E+03 -0.17994728404E+04 -0.53211937663E+03  0.19226998463E+04  0.50400001928E-02 0. -1.
</event>
<event>
 5   0  0.7309833E-08  0.3660684E+04  0.7818609E-02  0.8076731E-01
        2   -1    0    0  501    0  0.00000000000E+00  0.00000000000E+00  0.20662504250E+04  0.20662504250E+04  0.25500000920E-02 0.  1.
       -2   -1    0    0    0  501  0.00000000000E+00  0.00000000000E+00 -0.16213673444E+04  0.16213673444E+04  0.25500000920E-02 0. -1.
    10030    2    1    2    0    0  0.00000000000E+00  0.00000000000E+00  0.44488308053E+03  0.36876177694E+04  0.36606835233E+04 0.  0.
        2    1    3    3  502    0  0.12775468545E+04  0.11886649937E+04  0.77886469830E+03  0.19109371133E+04  0.25500000920E-02 0. -1.
       -2    1    3    3    0  502 -0.12775468545E+04 -0.11886649937E+04 -0.33398161778E+03  0.17766806561E+04  0.25500000920E-02 0.  1.
</event>
<event>
 5   0  0.2282000E-08  0.3697595E+04  0.7818609E-02  0.8068495E-01
        1   -1    0    0  501    0  0.00000000000E+00  0.00000000000E+00  0.18228239346E+04  0.18228239346E+04  0.50400001928E-02 0.  1.
       -1   -1    0    0    0  501  0.00000000000E+00  0.00000000000E+00 -0.18751413272E+04  0.18751413272E+04  0.50400001928E-02 0. -1.
    10030    2    1    2    0    0  0.00000000000E+00  0.00000000000E+00 -0.52317392643E+02  0.36979652618E+04  0.36975951601E+04 0.  0.
        5    1    3    3  502    0 -0.47387378006E+03 -0.98969064164E+03 -0.15142546965E+04  0.18700356417E+04  0.46999998093E+01 0. -1.
       -5    1    3    3    0  502  0.47387378006E+03  0.98969064164E+03  0.14619373038E+04  0.18279296201E+04  0.46999998093E+01 0.  1.
</event>
<event>
 5   0  0.2282000E-08  0.3693197E+04  0.7818609E-02  0.8069471E-01
       -1   -1    0    0    0  501  0.00000000000E+00  0.00000000000E+00  0.15049504854E+04  0.15049504854E+04  0.50400001928E-02 0.  1.
        1   -1    0    0  501    0  0.00000000000E+00  0.00000000000E+00 -0.22658064120E+04  0.22658064120E+04  0.50400001928E-02 0. -1.
    10030    2    1    2    0    0  0.00000000000E+00  0.00000000000E+00 -0.76085592665E+03  0.37707568974E+04  0.36931972379E+04 0.  0.
        3    1    3    3  502    0  0.46623713315E+02 -0.75912079315E+02  0.15027551476E+04  0.15053934563E+04  0.10100000352E+00 0.  1.
       -3    1    3    3    0  502 -0.46623713315E+02  0.75912079315E+02 -0.22636110743E+04  0.22653634411E+04  0.10100000352E+00 0. -1.
</event>
<event>
 5   0  0.7203049E-08  0.3701022E+04  0.7818609E-02  0.8067735E-01
       -2   -1    0    0    0  501  0.00000000000E+00  0.00000000000E+00  0.10835823499E+04  0.10835823499E+04  0.25500000920E-02 0.  1.
        2   -1    0    0  501    0  0.00000000000E+00  0.00000000000E+00 -0.31602491617E+04  0.31602491617E+04  0.25500000920E-02 0. -1.
    10030    2    1    2    0    0  0.00000000000E+00  0.00000000000E+00 -0.20766668117E+04  0.42438315116E+04  0.37010215957E+04 0.  0.
        4    1    3    3  502    0  0.43974074731E+02 -0.16035289355E+04 -0.20962209978E+04  0.26395800520E+04  0.12699999809E+01 0. -1.
       -4    1    3    3    0  502 -0.43974074731E+02  0.16035289355E+04  0.19554186091E+02  0.16042514596E+04  0.12699999809E+01 0.  1.
</event>
<event>
 5   0  0.2282000E-08  0.3701100E+04  0.7818609E-02  0.8067718E-01
        1   -1    0    0  501    0  0.00000000000E+00  0.00000000000E+00  0.18594047167E+04  0.18594047167E+04  0.50400001928E-02 0.  1.
       -1   -1    0    0    0  501  0.00000000000E+00  0.00000000000E+00 -0.18417376624E+04  0.18417376624E+04  0.50400001928E-02 0. -1.
    10030    2    1    2    0    0  0.00000000000E+00  0.00000000000E+00  0.17667054384E+02  0.37011423791E+04  0.37011002129E+04 0.  0.
        5    1    3    3  502    0  0.13971311943E+04 -0.85006313772E+03 -0.85716172799E+03  0.18464374428E+04  0.46999998093E+01 0. -1.
       -5    1    3    3    0  502 -0.13971311943E+04  0.85006313772E+03  0.87482878238E+03  0.18547049363E+04  0.46999998093E+01 0.  1.
</event>
<event>
 5   0  0.2282000E-08  0.3707244E+04  0.7818609E-02  0.8066358E-01
       -1   -1    0    0    0  501  0.00000000000E+00  0.00000000000E+00  0.19883735135E+04  0.19883735135E+04  0.50400001928E-02 0. -1.
        1   -1    0    0  501    0  0.00000000000E+00  0.00000000000E+00 -0.17280026203E+04  0.17280026203E+04  0.50400001928E-02 0.  1.
    10030    2    1    2    0    0  0.00000000000E+00  0.00000000000E+00  0.26037089316E+03  0.37163761338E+04  0.37072440662E+04 0.  0.
        1    1    3    3  502    0 -0.96437952819E+03  0.15677865626E+04 -0.89287774212E+02  0.18428116797E+04  0.50400001928E-02 0.  1.
       -1    1    3    3    0  502  0.96437952819E+03 -0.15677865626E+04  0.34965866737E+03  0.18735644541E+04  0.50400001928E-02 0. -1.
</event>
<event>
 5   0  0.2282000E-08  0.3702108E+04  0.7818609E-02  0.8067495E-01
       -1   -1    0    0    0  501  0.00000000000E+00  0.00000000000E+00  0.21996119272E+04  0.21996119272E+04  0.50400001928E-02 0. -1.
        1   -1    0    0  501    0  0.00000000000E+00  0.00000000000E+00 -0.15577296792E+04  0.15577296792E+04  0.50400001928E-02 0.  1.
    10030    2    1    2    0    0  0.00000000000E+00  0.00000000000E+00  0.64188224801E+03  0.37573416064E+04  0.37021079302E+04 0.  0.
        5    1    3    3  502    0  0.15015055743E+04  0.55144354737E+03  0.12663808585E+04  0.20401841937E+04  0.46999998093E+01 0. -1.
       -5    1    3    3    0  502 -0.15015055743E+04 -0.55144354737E+03 -0.62449861045E+03  0.17171574127E+04  0.46999998093E+01 0.  1.
</event>
<event>
 5   0  0.7191801E-08  0.3590626E+04  0.7818609E-02  0.8092642E-01
        2   -1    0    0  501    0  0.00000000000E+00  0.00000000000E+00  0.24390142244E+04  0.24390142244E+04  0.25500000920E-02 0.  1.
       -2   -1    0    0    0  501  0.00000000000E+00  0.00000000000E+00 -0.13214963278E+04  0.13214963278E+04  0.25500000920E-02 0. -1.
    10030    2    1    2    0    0  0.00000000000E+00  0.00000000000E+00  0.11175178966E+04  0.37605105522E+04  0.35906257622E+04 0.  0.
        5    1    3    3  502    0  0.16797395059E+03 -0.11465878454E+04  0.19948572143E+04  0.23070232618E+04  0.46999998093E+01 0.  1.
       -5    1    3    3    0  502 -0.16797395059E+03  0.11465878454E+04 -0.87733931762E+03  0.14534872904E+04  0.46999998093E+01 0. -1.
</event>
<event>
 5   0  0.2282000E-08  0.3674669E+04  0.7818609E-02  0.8073599E-01
        1   -1    0    0  501    0  0.00000000000E+00  0.00000000000E+00  0.10641721338E+04  0.10641721338E+04  0.50400001928E-02 0.  1.
       -1   -1    0    0    0  501  0.00000000000E+00  0.00000000000E+00 -0.31722295975E+04  0.31722295975E+04  0.50400001928E-02 0. -1.
    10030    2    1    2    0    0  0.00000000000E+00  0.00000000000E+00 -0.21080574637E+04  0.42364017313E+04  0.36746691495E+04 0.  0.
        1    1    3    3  502    0 -0.33945822344E+03  0.13662585089E+04  0.30708792176E+03  0.14409015200E+04  0.50400001928E-02 0.  1.
       -1    1    3    3    0  502  0.33945822344E+03 -0.13662585089E+04 -0.24151453855E+04  0.27955002113E+04  0.50400001928E-02 0. -1.
</event>
<event>
 5   0  0.2282000E-08  0.3697048E+04  0.7818609E-02  0.8068616E-01
       -3   -1    0    0    0  501  0.00000000000E+00  0.00000000000E+00  0.16457391643E+04  0.16457391674E+04  0.10100000352E+00 0.  1.
        3   -1    0    0  501    0  0.00000000000E+00  0.00000000000E+00 -0.20762955865E+04  0.20762955890E+04  0.10100000352E+00 0. -1.
    10030    2    1    2    0    0  0.00000000000E+00  0.00000000000E+00 -0.43055642221E+03  0.37220347564E+04  0.36970479974E+04 0.  0.
        3    1    3    3  502    0  0.99248758854E+03 -0.15412434795E+04 -0.45474687876E+03  0.18887185631E+04  0.10100000352E+00 0.  1.
       -3    1    3    3    0  502 -0.99248758854E+03  0.15412434795E+04  0.24190456546E+02  0.18333161934E+04  0.10100000352E+00 0. -1.
</event>
<event>
 5   0  0.7191801E-08  0.3685094E+04  0.7818609E-02  0.8071273E-01
       -2   -1    0    0    0  501  0.00000000000E+00  0.00000000000E+00  0.17671164299E+04  0.17671164299E+04  0.25500000920E-02 0.  1.
        2   -1    0    0  501    0  0.00000000000E+00  0.00000000000E+00 -0.19211970467E+04  0.19211970467E+04  0.25500000920E-02 0. -1.
    10030    2    1    2    0    0  0.00000000000E+00  0.00000000000E+00 -0.15408061678E+03  0.36883134766E+04  0.36850936847E+04 0.  0.
        5    1    3    3  502    0 -0.38416657524E+03  0.17038457670E+04  0.51022820460E+03  0.18196233858E+04  0.46999998093E+01 0.  1.
       -5    1    3    3    0  502  0.38416657524E+03 -0.17038457670E+04 -0.66430882138E+03  0.18686900908E+04  0.46999998093E+01 0. -1.
</event>
<event>
 5   0  0.2282000E-08  0.3710562E+04  0.7818609E-02  0.8065625E-01
       -1   -1    0    0    0  501  0.00000000000E+00  0.00000000000E+00  0.20060008419E+04  0.20060008419E+04  0.50400001928E-02 0.  1.
        1   -1    0    0  501    0  0.00000000000E+00  0.00000000000E+00 -0.17158855870E+04  0.17158855870E+04  0.50400001928E-02 0. -1.
    10030    2    1    2    0    0  0.00000000000E+00  0.00000000000E+00  0.29011525489E+03  0.37218864289E+04  0.37105621850E+04 0.  0.
        5    1    3    3  502    0 -0.53811083039E+03  0.17405159980E+04  0.49696539735E+03  0.18883738775E+04  0.46999998093E+01 0.  1.
       -5    1    3    3    0  502  0.53811083039E+03 -0.17405159980E+04 -0.20685014246E+03  0.18335125515E+04  0.46999998093E+01 0. -1.
</event>
<event>
 5   0  0.7203049E-08  0.3697261E+04  0.7818609E-02  0.8068569E-01
       -2   -1    0    0    0  501  0.00000000000E+00  0.00000000000E+00  0.17236709182E+04  0.17236709182E+04  0.25500000920E-02 0.  1.
        2   -1    0    0  501    0  0.00000000000E+00  0.00000000000E+00 -0.19826495742E+04  0.19826495742E+04  0.25500000920E-02 0. -1.
    10030    2    1    2    0    0  0.00000000000E+00  0.00000000000E+00 -0.25897865601E+03  0.37063204923E+04  0.36972613713E+04 0.  0.
        4    1    3    3  502    0  0.10291078014E+04  0.11040028026E+04 -0.11996014185E+04  0.19279341875E+04  0.12699999809E+01 0. -1.
       -4    1    3    3    0  502 -0.10291078014E+04 -0.11040028026E+04  0.94062276250E+03  0.17783863049E+04  0.12699999809E+01 0.  1.
</event>
<event>
 5   0  0.2282000E-08  0.3696976E+04  0.7818609E-02  0.8068632E-01
       -1   -1    0    0    0  501  0.00000000000E+00  0.00000000000E+00  0.21579234296E+04  0.21579234296E+04  0.50400001928E-02 0.  1.
        1   -1    0    0  501    0  0.00000000000E+00  0.00000000000E+00 -0.15834244444E+04  0.15834244445E+04  0.50400001928E-02 0. -1.
    10030    2    1    2    0    0  0.00000000000E+00  0.00000000000E+00  0.57449898515E+03  0.37413478741E+04  0.36969764444E+04 0.  0.
        4    1    3    3  502    0 -0.12834443203E+04  0.88872734728E+03  0.12889994132E+04  0.20244966587E+04  0.12699999809E+01 0.  1.
       -4    1    3    3    0  502  0.12834443203E+04 -0.88872734728E+03 -0.71450042805E+03  0.17168512153E+04  0.12699999809E+01 0. -1.
</event>
<event>
 5   0  0.2282000E-08  0.3698387E+04  0.7818609E-02  0.8068319E-01
        1   -1    0    0  501    0  0.00000000000E+00  0.00000000000E+00  0.23064692066E+04  0.23064692066E+04  0.50400001928E-02 0. -1.
       -1   -1    0    0    0  501  0.00000000000E+00  0.00000000000E+00 -0.14825759663E+04  0.14825759663E+04  0.50400001928E-02 0.  1.
    10030    2    1    2    0    0  0.00000000000E+00  0.00000000000E+00  0.82389324033E+03  0.37890451729E+04  0.36983865741E+04 0.  0.
        2    1    3    3  502    0  0.94822042514E+03 -0.54557164265E+03  0.19393802250E+04  0.22266490628E+04  0.25500000920E-02 0. -1.
       -2    1    3    3    0  502 -0.94822042514E+03  0.54557164265E+03 -0.11154869847E+04  0.15623961101E+04  0.25500000920E-02 0.  1.
</event>
<event>
 5   0  0.2282000E-08  0.3698322E+04  0.7818609E-02  0.8068334E-01
       -1   -1    0    0    0  501  0.00000000000E+00  0.00000000000E+00  0.27564666128E+04  0.27564666129E+04  0.50400001928E-02 0. -1.
        1   -1    0    0  501    0  0.00000000000E+00  0.00000000000E+00 -0.12405001262E+04  0.12405001262E+04  0.50400001928E-02 0.  1.
    10030    2    1    2    0    0  0.00000000000E+00  0.00000000000E+00  0.15159664866E+04  0.39969667391E+04  0.36983224203E+04 0.  0.
        3    1    3    3  502    0  0.11173542003E+04  0.11186262051E+04 -0.27840719508E+03  0.16054019970E+04  0.10100000352E+00 0.  1.
       -3    1    3    3    0  502 -0.11173542003E+04 -0.11186262051E+04  0.17943736817E+04  0.23915647420E+04  0.10100000352E+00 0. -1.
</event>
<event>
 5   0  0.7254493E-08  0.3734774E+04  0.7818609E-02  0.8060299E-01
        2   -1    0    0  501    0  0.00000000000E+00  0.00000000000E+00  0.23826244756E+04  0.23826244756E+04  0.25500000920E-02 0. -1.
       -2   -1    0    0    0  501  0.00000000000E+00  0.00000000000E+00 -0.14635683270E+04  0.14635683270E+04  0.25500000920E-02 0.  1.
    10030    2    1    2    0    0  0.00000000000E+00  0.00000000000E+00  0.91905614855E+03  0.38461928026E+04  0.37347737375E+04 0.  0.
        3    1    3    3  502    0  0.54287103709E+03  0.11983380941E+04 -0.90530574057E+03  0.15969663881E+04  0.10100000352E+00 0.  1.
       -3    1    3    3    0  502 -0.54287103709E+03 -0.11983380941E+04  0.18243618891E+04  0.22492264144E+04  0.10100000352E+00 0. -1.
</event>
<event>
 5   0  0.2282000E-08  0.3698602E+04  0.7818609E-02  0.8068272E-01
       -1   -1    0    0    0  501  0.00000000000E+00  0.00000000000E+00  0.28434855809E+04  0.28434855809E+04  0.50400001928E-02 0.  1.
        1   -1    0    0  501    0  0.00000000000E+00  0.00000000000E+00 -0.12027189951E+04  0.12027189951E+04  0.50400001928E-02 0. -1.
    10030    2    1    2    0    0  0.00000000000E+00  0.00000000000E+00  0.16407665858E+04  0.40462045760E+04  0.36986019631E+04 0.  0.
        2    1    3    3  502    0  0.14908671861E+04  0.10941050503E+04  0.80640372158E+03  0.20174334660E+04  0.25500000920E-02 0. -1.
       -2    1    3    3    0  502 -0.14908671861E+04 -0.10941050503E+04  0.83436286421E+03  0.20287711100E+04  0.25500000920E-02 0.  1.
</event>
<event>
 5   0  0.2282000E-08  0.3728528E+04  0.7818609E-02  0.8061669E-01
        1   -1    0    0  501    0  0.00000000000E+00  0.00000000000E+00  0.18851226698E+04  0.18851226698E+04  0.50400001928E-02 0. -1.
       -1   -1    0    0    0  501  0.00000000000E+00  0.00000000000E+00 -0.18436360465E+04  0.18436360466E+04  0.50400001928E-02 0.  1.
    10030    2    1    2    0    0  0.00000000000E+00  0.00000000000E+00  0.41486623262E+02  0.37287587164E+04  0.37285279166E+04 0.  0.
        4    1    3    3  502    0 -0.14516313468E+04  0.93769384884E+03 -0.67856757065E+03  0.18565987402E+04  0.12699999809E+01 0.  1.
       -4    1    3    3    0  502  0.14516313468E+04 -0.93769384884E+03  0.72005419391E+03  0.18721599762E+04  0.12699999809E+01 0. -1.
</event>
<event>
 5   0  0.7191801E-08  0.3699640E+04  0.7818609E-02  0.8068042E-01
       -2   -1    0    0    0  501  0.00000000000E+00  0.00000000000E+00  0.31055944681E+04  0.31055944681E+04  0.25500000920E-02 0. -1.
        2   -1    0    0  501    0  0.00000000000E+00  0.00000000000E+00 -0.11018287716E+04  0.11018287716E+04  0.25500000920E-02 0.  1.
    10030    2    1    2    0    0  0.00000000000E+00  0.00000000000E+00  0.20037656966E+04  0.42074232397E+04  0.36996396246E+04 0.  0.
        5    1    3    3  502    0 -0.35965482595E+03  0.18132360279E+04  0.10793059304E+04  0.21405840017E+04  0.46999998093E+01 0. -1.
       -5    1    3    3    0  502  0.35965482595E+03 -0.18132360279E+04  0.92445976611E+03  0.20668392381E+04  0.46999998093E+01 0.  1.
</event>
<event>
 5   0  0.7203049E-08  0.3700861E+04  0.7818609E-02  0.8067771E-01
        2   -1    0    0  501    0  0.00000000000E+00  0.00000000000E+00  0.23679515367E+04  0.23679515367E+04  0.25500000920E-02 0.  1.
       -2   -1    0    0    0  501  0.00000000000E+00  0.00000000000E+00 -0.14460151538E+04  0.14460151538E+04  0.25500000920E-02 0. -1.
    10030    2    1    2    0    0  0.00000000000E+00  0.00000000000E+00  0.92193638294E+03  0.38139666904E+04  0.37008614162E+04 0.  0.
        4    1    3    3  502    0  0.54787781744E+03 -0.93935410763E+03 -0.10819643099E+04  0.15340158484E+04  0.12699999809E+01 0. -1.
       -4    1    3    3    0  502 -0.54787781744E+03  0.93935410763E+03  0.20039006929E+04  0.22799508420E+04  0.12699999809E+01 0.  1.
</event>
<event>
 5   0  0.2282000E-08  0.3701365E+04  0.7818609E-02  0.8067659E-01
        1   -1    0    0  501    0  0.00000000000E+00  0.00000000000E+00  0.14023489550E+04  0.14023489550E+04  0.50400001928E-02 0.  1.
       -1   -1    0    0    0  501  0.00000000000E+00  0.00000000000E+00 -0.24423489902E+04  0.24423489902E+04  0.50400001928E-02 0. -1.
    10030    2    1    2    0    0  0.00000000000E+00  0.00000000000E+00 -0.10400000352E+04  0.38446979451E+04  0.37013649126E+04 0.  0.
        2    1    3    3  502    0 -0.14233415221E+04 -0.10103457407E+04 -0.11589007520E+04  0.20951731569E+04  0.25500000920E-02 0.  1.
       -2    1    3    3    0  502  0.14233415221E+04  0.10103457407E+04  0.11890071683E+03  0.17495247882E+04  0.25500000920E-02 0. -1.
</event>
<event>
 5   0  0.2282000E-08  0.3698483E+04  0.7818609E-02  0.8068298E-01
        1   -1    0    0  501    0  0.00000000000E+00  0.00000000000E+00  0.19823606826E+04  0.19823606826E+04  0.50400001928E-02 0.  1.
       -1   -1    0    0    0  501  0.00000000000E+00  0.00000000000E+00 -0.17250618732E+04  0.17250618732E+04  0.50400001928E-02 0. -1.
    10030    2    1    2    0    0  0.00000000000E+00  0.00000000000E+00  0.25729880946E+03  0.37074225558E+04  0.36984833824E+04 0.  0.
        3    1    3    3  502    0 -0.16052181519E+04 -0.90984119624E+03  0.52319463089E+01  0.18451459836E+04  0.10100000352E+00 0.  1.
       -3    1    3    3    0  502  0.16052181519E+04  0.90984119624E+03  0.25206686315E+03  0.18622765722E+04  0.10100000352E+00 0. -1.
</event>
<event>
 5   0  0.2282000E-08  0.3686230E+04  0.7818609E-02  0.8071020E-01
       -1   -1    0    0    0  501  0.00000000000E+00  0.00000000000E+00  0.10425047523E+04  0.10425047523E+04  0.50400001928E-02 0. -1.
        1   -1    0    0  501    0  0.00000000000E+00  0.00000000000E+00 -0.32585683888E+04  0.32585683888E+04  0.50400001928E-02 0.  1.
    10030    2    1    2    0    0  0.00000000000E+00  0.00000000000E+00 -0.22160636365E+04  0.43010731411E+04  0.36862300693E+04 0.  0.
        5    1    3    3  502    0  0.17668683400E+04 -0.13093968197E+01 -0.17201548516E+04  0.24659238125E+04  0.46999998093E+01 0. -1.
       -5    1    3    3    0  502 -0.17668683400E+04  0.13093968197E+01 -0.49590878495E+03  0.18351493286E+04  0.46999998093E+01 0.  1.
</event>
<event>
 5   0  0.7309833E-08  0.3701570E+04  0.7818609E-02  0.8067614E-01
        2   -1    0    0  501    0  0.00000000000E+00  0.00000000000E+00  0.13594013334E+04  0.13594013334E+04  0.25500000920E-02 0. -1.
       -2   -1    0    0    0  501  0.00000000000E+00  0.00000000000E+00 -0.25197894637E+04  0.25197894637E+04  0.25500000920E-02 0.  1.
    10030    2    1    2    0    0  0.00000000000E+00  0.00000000000E+00 -0.11603881303E+04  0.38791907970E+04  0.37015700219E+04 0.  0.
        2    1    3    3  502    0 -0.24371880345E+02 -0.10151914740E+04 -0.22017620170E+04  0.24246574391E+04  0.25500000920E-02 0.  1.
       -2    1    3    3    0  502  0.24371880345E+02  0.10151914740E+04  0.10413738867E+04  0.14545333579E+04  0.25500000920E-02 0. -1.
</event>
<event>
 5   0  0.2282000E-08  0.3709822E+04  0.7818609E-02  0.8065789E-01
        1   -1    0    0  501    0  0.00000000000E+00  0.00000000000E+00  0.24369445494E+04  0.24369445494E+04  0.50400001928E-02 0. -1.
       -1   -1    0    0    0  501  0.00000000000E+00  0.00000000000E+00 -0.14118891211E+04  0.14118891211E+04  0.50400001928E-02 0.  1.
    10030    2    1    2    0    0  0.00000000000E+00  0.00000000000E+00  0.10250554283E+04  0.38488336706E+04  0.37098223667E+04 0.  0.
        1    1    3    3  502    0 -0.18547566985E+04  0.47670290392E+01  0.53686659348E+03  0.19308989809E+04  0.50400001928E-02 0. -1.
       -1    1    3    3    0  502  0.18547566985E+04 -0.47670290392E+01  0.48818883487E+03  0.19179346897E+04  0.50400001928E-02 0.  1.
</event>
<event>
 5   0  0.7191801E-08  0.3696264E+04  0.7818609E-02  0.8068790E-01
       -2   -1    0    0    0  501  0.00000000000E+00  0.00000000000E+00  0.30371743592E+04  0.30371743592E+04  0.25500000920E-02 0. -1.
        2   -1    0    0  501    0  0.00000000000E+00  0.00000000000E+00 -0.11245954573E+04  0.11245954573E+04  0.25500000920E-02 0.  1.
    10030    2    1    2    0    0  0.00000000000E+00  0.00000000000E+00  0.19125789019E+04  0.41617698166E+04  0.36962643236E+04 0.  0.
        5    1    3    3  502    0  0.27444817900E+03  0.12615284903E+04  0.24452542149E+04  0.27651521116E+04  0.46999998093E+01 0. -1.
       -5    1    3    3    0  502 -0.27444817900E+03 -0.12615284903E+04 -0.53267531293E+03  0.13966177050E+04  0.46999998093E+01 0.  1.
</event>
<event>
 5   0  0.2282000E-08  0.3734982E+04  0.7818609E-02  0.8060253E-01
        1   -1    0    0  501    0  0.00000000000E+00  0.00000000000E+00  0.25788993548E+04  0.25788993548E+04  0.50400001928E-02 0.  1.
       -1   -1    0    0    0  501  0.00000000000E+00  0.00000000000E+00 -0.13523301411E+04  0.13523301411E+04  0.50400001928E-02 0. -1.
    10030    2    1    2    0    0  0.00000000000E+00  0.00000000000E+00  0.12265692137E+04  0.39312294959E+04  0.37349823712E+04 0.  0.
        3    1    3    3  502    0  0.18249320695E+04  0.24740474590E+02  0.10297169160E+04  0.20955443413E+04  0.10100000352E+00 0.  1.
       -3    1    3    3    0  502 -0.18249320695E+04 -0.24740474590E+02  0.19685229770E+03  0.18356851545E+04  0.10100000352E+00 0. -1.
</event>
<event>
 5   0  0.7309833E-08  0.3694719E+04  0.7818609E-02  0.8069133E-01
       -2   -1    0    0    0  501  0.00000000000E+00  0.00000000000E+00  0.21163522935E+04  0.21163522935E+04  0.25500000920E-02 0.  1.
        2   -1    0    0  501    0  0.00000000000E+00  0.00000000000E+00 -0.16125559625E+04  0.16125559625E+04  0.25500000920E-02 0. -1.
    10030    2    1    2    0    0  0.00000000000E+00  0.00000000000E+00  0.50379633103E+03  0.37289082560E+04  0.36947186684E+04 0.  0.
        2    1    3    3  502    0  0.17742861310E+04 -0.64464924481E+02  0.76700278131E+03  0.19340476384E+04  0.25500000920E-02 0.  1.
       -2    1    3    3    0  502 -0.17742861310E+04  0.64464924481E+02 -0.26320645028E+03  0.17948606176E+04  0.25500000920E-02 0. -1.
</event>
<event>
 5   0  0.7191801E-08  0.3698102E+04  0.7818609E-02  0.8068383E-01
        2   -1    0    0  501    0  0.00000000000E+00  0.00000000000E+00  0.14150014426E+04  0.14150014426E+04  0.25500000920E-02 0.  1.
       -2   -1    0    0    0  501  0.00000000000E+00  0.00000000000E+00 -0.24162448502E+04  0.24162448502E+04  0.25500000920E-02 0. -1.
    10030    2    1    2    0    0  0.00000000000E+00  0.00000000000E+00 -0.10012434076E+04  0.38312462929E+04  0.36981021883E+04 0.  0.
        5    1    3    3  502    0 -0.16093312521E+04  0.90013326289E+03 -0.35864429783E+03  0.18785193084E+04  0.46999998093E+01 0.  1.
       -5    1    3    3    0  502  0.16093312521E+04 -0.90013326289E+03 -0.64259910978E+03  0.19527269844E+04  0.46999998093E+01 0. -1.
</event>
<event>
 5   0  0.2282000E-08  0.3699524E+04  0.7818609E-02  0.8068067E-01
        1   -1    0    0  501    0  0.00000000000E+00  0.00000000000E+00  0.22666253947E+04  0.22666253947E+04  0.50400001928E-02 0. -1.
       -1   -1    0    0    0  501  0.00000000000E+00  0.00000000000E+00 -0.15095656310E+04  0.15095656310E+04  0.50400001928E-02 0.  1.
    10030    2    1    2    0    0  0.00000000000E+00  0.00000000000E+00  0.75705976373E+03  0.37761910257E+04  0.36995241825E+04 0.  0.
        1    1    3    3  502    0 -0.10320636656E+04 -0.43084578295E+03 -0.11253793400E+04  0.15865882129E+04  0.50400001928E-02 0.  1.
       -1    1    3    3    0  502  0.10320636656E+04  0.43084578295E+03  0.18824391037E+04  0.21896028128E+04  0.50400001928E-02 0. -1.
</event>
<event>
 5   0  0.2282000E-08  0.3696623E+04  0.7818609E-02  0.8068711E-01
       -1   -1    0    0    0  501  0.00000000000E+00  0.00000000000E+00  0.20595219348E+04  0.20595219349E+04  0.50400001928E-02 0.  1.
        1   -1    0    0  501    0  0.00000000000E+00  0.00000000000E+00 -0.16587610188E+04  0.16587610188E+04  0.50400001928E-02 0. -1.
    10030    2    1    2    0    0  0.00000000000E+00  0.00000000000E+00  0.40076091603E+03  0.37182829537E+04  0.36966226223E+04 0.  0.
        4    1    3    3  502    0  0.79765388525E+03  0.51199519026E+03 -0.13956945812E+04  0.16871146293E+04  0.12699999809E+01 0. -1.
       -4    1    3    3    0  502 -0.79765388525E+03 -0.51199519026E+03  0.17964554972E+04  0.20311683244E+04  0.12699999809E+01 0.  1.
</event>
<event>
 5   0  0.7254493E-08  0.3711778E+04  0.7818609E-02  0.8065357E-01
       -2   -1    0    0    0  501  0.00000000000E+00  0.00000000000E+00  0.22812826789E+04  0.22812826789E+04  0.25500000920E-02 0.  1.
        2   -1    0    0  501    0  0.00000000000E+00  0.00000000000E+00 -0.15098186437E+04  0.15098186437E+04  0.25500000920E-02 0. -1.
    10030    2    1    2    0    0  0.00000000000E+00  0.00000000000E+00  0.77146403518E+03  0.37911013226E+04  0.37117775365E+04 0.  0.
        3    1    3    3  502    0  0.11143584681E+04  0.54150994840E+03  0.17970341679E+04  0.21827413109E+04  0.10100000352E+00 0.  1.
       -3    1    3    3    0  502 -0.11143584681E+04 -0.54150994840E+03 -0.10255701328E+04  0.16083600116E+04  0.10100000352E+00 0. -1.
</event>
<event>
 5   0  0.2282000E-08  0.3696403E+04  0.7818609E-02  0.8068759E-01
        1   -1    0    0  501    0  0.00000000000E+00  0.00000000000E+00  0.25720312246E+04  0.25720312246E+04  0.50400001928E-02 0. -1.
       -1   -1    0    0    0  501  0.00000000000E+00  0.00000000000E+00 -0.13280745495E+04  0.13280745495E+04  0.50400001928E-02 0.  1.
    10030    2    1    2    0    0  0.00000000000E+00  0.00000000000E+00  0.12439566751E+04  0.39001057741E+04  0.36964032301E+04 0.  0.
        5    1    3    3  502    0  0.27297779413E+03  0.40848456205E+03 -0.12579068743E+04  0.13504548522E+04  0.46999998093E+01 0.  1.
       -5    1    3    3    0  502 -0.27297779413E+03 -0.40848456205E+03  0.25018635494E+04  0.25496509218E+04  0.46999998093E+01 0. -1.
</event>
<event>
 5   0  0.7362817E-08  0.3701063E+04  0.7818609E-02  0.8067726E-01
       -2   -1    0    0    0  501  0.00000000000E+00  0.00000000000E+00  0.24065710647E+04  0.24065710647E+04  0.25500000920E-02 0. -1.
        2   -1    0    0  501    0  0.00000000000E+00  0.00000000000E+00 -0.14229648723E+04  0.14229648723E+04  0.25500000920E-02 0.  1.
    10030    2    1    2    0    0  0.00000000000E+00  0.00000000000E+00  0.98360619232E+03  0.38295359370E+04  0.37010625976E+04 0.  0.
        1    1    3    3  502    0  0.91719881920E+03 -0.42033623347E+03 -0.11133458819E+04  0.15024896924E+04  0.50400001928E-02 0.  1.
       -1    1    3    3    0  502 -0.91719881920E+03  0.42033623347E+03  0.20969520742E+04  0.23270462446E+04  0.50400001928E-02 0. -1.
</event>
<event>
 5   0  0.2282000E-08  0.3695481E+04  0.7818609E-02  0.8068964E-01
       -1   -1    0    0    0  501  0.00000000000E+00  0.00000000000E+00  0.17949099728E+04  0.17949099728E+04  0.50400001928E-02 0.  1.
        1   -1    0    0  501    0  0.00000000000E+00  0.00000000000E+00 -0.19021255875E+04  0.19021255875E+04  0.50400001928E-02 0. -1.
    10030    2    1    2    0    0  0.00000000000E+00  0.00000000000E+00 -0.10721561471E+03  0.36970355604E+04  0.36954805840E+04 0.  0.
        1    1    3    3  502    0  0.15989913398E+04  0.52505276979E+03 -0.81661508039E+03  0.18706453179E+04  0.50400001928E-02 0. -1.
       -1    1    3    3    0  502 -0.15989913398E+04 -0.52505276979E+03  0.70939946569E+03  0.18263902425E+04  0.50400001928E-02 0.  1.
</event>
<event>
 5   0  0.7309833E-08  0.3696490E+04  0.7818609E-02  0.8068740E-01
        2   -1    0    0  501    0  0.00000000000E+00  0.00000000000E+00  0.20219871481E+04  0.20219871481E+04  0.25500000920E-02 0. -1.
       -2   -1    0    0    0  501  0.00000000000E+00  0.00000000000E+00 -0.16894315474E+04  0.16894315474E+04  0.25500000920E-02 0.  1.
    10030    2    1    2    0    0  0.00000000000E+00  0.00000000000E+00  0.33255560070E+03  0.37114186955E+04  0.36964896193E+04 0.  0.
        2    1    3    3  502    0  0.55801821786E+03  0.17335528943E+04 -0.15030327783E+03  0.18273426181E+04  0.25500000920E-02 0.  1.
       -2    1    3    3    0  502 -0.55801821786E+03 -0.17335528943E+04  0.48285887853E+03  0.18840760774E+04  0.25500000920E-02 0. -1.
</event>
<event>
 5   0  0.2282000E-08  0.3698709E+04  0.7818609E-02  0.8068248E-01
       -1   -1    0    0    0  501  0.00000000000E+00  0.00000000000E+00  0.24591902552E+04  0.24591902552E+04  0.50400001928E-02 0. -1.
        1   -1    0    0  501    0  0.00000000000E+00  0.00000000000E+00 -0.13907468910E+04  0.13907468910E+04  0.50400001928E-02 0.  1.
    10030    2    1    2    0    0  0.00000000000E+00  0.00000000000E+00  0.10684433641E+04  0.38499371462E+04  0.36987085324E+04 0.  0.
        3    1    3    3  502    0  0.14287892599E+04 -0.91144704907E+03 -0.23627138039E+03  0.17111395758E+04  0.10100000352E+00 0.  1.
       -3    1    3    3    0  502 -0.14287892599E+04  0.91144704907E+03  0.13047147445E+04  0.21387975704E+04  0.10100000352E+00 0. -1.
</event>
<event>
 5   0  0.7203049E-08  0.3703801E+04  0.7818609E-02  0.8067120E-01
        2   -1    0    0  501    0  0.00000000000E+00  0.00000000000E+00  0.27656888697E+04  0.27656888697E+04  0.25500000920E-02 0.  1.
       -2   -1    0    0    0  501  0.00000000000E+00  0.00000000000E+00 -0.12400295483E+04  0.12400295483E+04  0.25500000920E-02 0. -1.
    10030    2    1    2    0    0  0.00000000000E+00  0.00000000000E+00  0.15256593214E+04  0.40057184180E+04  0.37038012473E+04 0.  0.
        4    1    3    3  502    0 -0.22515531686E+03  0.14011499691E+03 -0.12193870749E+04  0.12478916541E+04  0.12699999809E+01 0. -1.
       -4    1    3    3    0  502  0.22515531686E+03 -0.14011499691E+03  0.27450463963E+04  0.27578267639E+04  0.12699999809E+01 0.  1.
</event>
<event>
 5   0  0.7362817E-08  0.3698941E+04  0.7818609E-02  0.8068196E-01
        2   -1    0    0  501    0  0.00000000000E+00  0.00000000000E+00  0.14347676678E+04  0.14347676678E+04  0.25500000920E-02 0. -1.
       -2   -1    0    0    0  501  0.00000000000E+00  0.00000000000E+00 -0.23840389801E+04  0.23840389801E+04  0.25500000920E-02 0.  1.
    10030    2    1    2    0    0  0.00000000000E+00  0.00000000000E+00 -0.94927131229E+03  0.38188066479E+04  0.36989414958E+04 0.  0.
        1    1    3    3  502    0  0.77368371596E+03  0.32665268039E+03 -0.21758357780E+04  0.23322842449E+04  0.50400001928E-02 0.  1.
       -1    1    3    3    0  502 -0.77368371596E+03 -0.32665268039E+03  0.12265644657E+04  0.14865224030E+04  0.50400001928E-02 0. -1.
</event>
<event>
 5   0  0.2282000E-08  0.3701361E+04  0.7818609E-02  0.8067660E-01
        1   -1    0    0  501    0  0.00000000000E+00  0.00000000000E+00  0.22405391191E+04  0.22405391192E+04  0.50400001928E-02 0.  1.
       -1   -1    0    0    0  501  0.00000000000E+00  0.00000000000E+00 -0.15286584765E+04  0.15286584765E+04  0.50400001928E-02 0. -1.
    10030    2    1    2    0    0  0.00000000000E+00  0.00000000000E+00  0.71188064263E+03  0.37691975957E+04  0.37013614341E+04 0.  0.
        3    1    3    3  502    0 -0.74977566645E+03 -0.10944055756E+04 -0.95810923027E+03  0.16364169460E+04  0.10100000352E+00 0. -1.
       -3    1    3    3    0  502  0.74977566645E+03  0.10944055756E+04  0.16699898729E+04  0.21327806497E+04  0.10100000352E+00 0.  1.
</event>
<event>
 5   0  0.2282000E-08  0.3689635E+04  0.7818609E-02  0.8070263E-01
       -1   -1    0    0    0  501  0.00000000000E+00  0.00000000000E+00  0.20315133245E+04  0.20315133245E+04  0.50400001928E-02 0.  1.
        1   -1    0    0  501    0  0.00000000000E+00  0.00000000000E+00 -0.16752785540E+04  0.16752785540E+04  0.50400001928E-02 0. -1.
    10030    2    1    2    0    0  0.00000000000E+00  0.00000000000E+00  0.35623477055E+03  0.37067918785E+04  0.36896345102E+04 0.  0.
        5    1    3    3  502    0  0.10613584067E+04 -0.10191331829E+04 -0.93980794941E+03  0.17459596741E+04  0.46999998093E+01 0. -1.
       -5    1    3    3    0  502 -0.10613584067E+04  0.10191331829E+04  0.12960427200E+04  0.19608322044E+04  0.46999998093E+01 0.  1.
</event>
<event>
 5   0  0.2282000E-08  0.3706878E+04  0.7818609E-02  0.8066439E-01
        1   -1    0    0  501    0  0.00000000000E+00  0.00000000000E+00  0.19652314284E+04  0.19652314284E+04  0.50400001928E-02 0. -1.
       -1   -1    0    0    0  501  0.00000000000E+00  0.00000000000E+00 -0.17480054587E+04  0.17480054587E+04  0.50400001928E-02 0.  1.
    10030    2    1    2    0    0  0.00000000000E+00  0.00000000000E+00  0.21722596971E+03  0.37132368872E+04  0.37068775348E+04 0.  0.
        3    1    3    3  502    0  0.58014015149E+03  0.34596394568E+03  0.18375466413E+04  0.19577618130E+04  0.10100000352E+00 0. -1.
       -3    1    3    3    0  502 -0.58014015149E+03 -0.34596394568E+03 -0.16203206716E+04  0.17554750742E+04  0.10100000352E+00 0.  1.
</event>
<event>
 5   0  0.2282000E-08  0.3719327E+04  0.7818609E-02  0.8063692E-01
        3   -1    0    0  501    0  0.00000000000E+00  0.00000000000E+00  0.17767005207E+04  0.17767005236E+04  0.10100000352E+00 0. -1.
       -3   -1    0    0    0  501  0.00000000000E+00  0.00000000000E+00 -0.19464999089E+04  0.19464999115E+04  0.10100000352E+00 0.  1.
    10030    2    1    2    0    0  0.00000000000E+00  0.00000000000E+00 -0.16979938815E+03  0.37232004351E+04  0.37193265045E+04 0.  0.
        1    1    3    3  502    0  0.98055018743E+03 -0.75781705326E+03  0.13031165667E+04  0.17982986801E+04  0.50400001928E-02 0. -1.
       -1    1    3    3    0  502 -0.98055018743E+03  0.75781705326E+03 -0.14729159549E+04  0.19249017550E+04  0.50400001928E-02 0.  1.
</event>
<event>
 5   0  0.7309833E-08  0.3695226E+04  0.7818609E-02  0.8069021E-01
        2   -1    0    0  501    0  0.00000000000E+00  0.00000000000E+00  0.24109049258E+04  0.24109049258E+04  0.25500000920E-02 0.  1.
       -2   -1    0    0    0  501  0.00000000000E+00  0.00000000000E+00 -0.14159304420E+04  0.14159304420E+04  0.25500000920E-02 0. -1.
    10030    2    1    2    0    0  0.00000000000E+00  0.00000000000E+00  0.99497448379E+03  0.38268353678E+04  0.36952259347E+04 0.  0.
        2    1    3    3  502    0  0.43710409034E+03  0.84835354235E+03  0.21358927332E+04  0.23394019506E+04  0.25500000920E-02 0.  1.
       -2    1    3    3    0  502 -0.43710409034E+03 -0.84835354235E+03 -0.11409182494E+04  0.14874334172E+04  0.25500000920E-02 0. -1.
</event>
<event>
 5   0  0.2282000E-08  0.3699274E+04  0.7818609E-02  0.8068123E-01
       -1   -1    0    0    0  501  0.00000000000E+00  0.00000000000E+00  0.13849829436E+04  0.13849829436E+04  0.50400001928E-02 0.  1.
        1   -1    0    0  501    0  0.00000000000E+00  0.00000000000E+00 -0.24701800936E+04  0.24701800936E+04  0.50400001928E-02 0. -1.
    10030    2    1    2    0    0  0.00000000000E+00  0.00000000000E+00 -0.10851971500E+04  0.38551630372E+04  0.36992741435E+04 0.  0.
        3    1    3    3  502    0 -0.67506739307E+02  0.99307659340E+03  0.10820709041E+04  0.14702502277E+04  0.10100000352E+00 0.  1.
       -3    1    3    3    0  502  0.67506739307E+02 -0.99307659340E+03 -0.21672680541E+04  0.23849128095E+04  0.10100000352E+00 0. -1.
</event>
<event>
 5   0  0.7362817E-08  0.3700788E+04  0.7818609E-02  0.8067787E-01
        2   -1    0    0  501    0  0.00000000000E+00  0.00000000000E+00  0.18521386713E+04  0.18521386713E+04  0.25500000920E-02 0. -1.
       -2   -1    0    0    0  501  0.00000000000E+00  0.00000000000E+00 -0.18486512933E+04  0.18486512933E+04  0.25500000920E-02 0.  1.
    10030    2    1    2    0    0  0.00000000000E+00  0.00000000000E+00  0.34873780230E+01  0.37007899646E+04  0.37007883215E+04 0.  0.
        1    1    3    3  502    0 -0.31203764434E+03  0.55647701698E+03 -0.17351866686E+04  0.18487582148E+04  0.50400001928E-02 0.  1.
       -1    1    3    3    0  502  0.31203764434E+03 -0.55647701698E+03  0.17386740466E+04  0.18520317498E+04  0.50400001928E-02 0. -1.
</event>
<event>
 5   0  0.7203049E-08  0.3705198E+04  0.7818609E-02  0.8066811E-01
       -2   -1    0    0    0  501  0.00000000000E+00  0.00000000000E+00  0.18610672065E+04  0.18610672065E+04  0.25500000920E-02 0. -1.
        2   -1    0    0  501    0  0.00000000000E+00  0.00000000000E+00 -0.18441691980E+04  0.18441691980E+04  0.25500000920E-02 0.  1.
    10030    2    1    2    0    0  0.00000000000E+00  0.00000000000E+00  0.16898008515E+02  0.37052364044E+04  0.37051978719E+04 0.  0.
        4    1    3    3  502    0 -0.14056684926E+04  0.11521596187E+04  0.36726397644E+03  0.18542546048E+04  0.12699999809E+01 0. -1.
       -4    1    3    3    0  502  0.14056684926E+04 -0.11521596187E+04 -0.35036596792E+03  0.18509817996E+04  0.12699999809E+01 0.  1.
</event>
<event>
 5   0  0.2282000E-08  0.3706663E+04  0.7818609E-02  0.8066487E-01
        1   -1    0    0  501    0  0.00000000000E+00  0.00000000000E+00  0.16451980897E+04  0.16451980897E+04  0.50400001928E-02 0.  1.
       -1   -1    0    0    0  501  0.00000000000E+00  0.00000000000E+00 -0.20877962745E+04  0.20877962745E+04  0.50400001928E-02 0. -1.
    10030    2    1    2    0    0  0.00000000000E+00  0.00000000000E+00 -0.44259818481E+03  0.37329943642E+04  0.37066634282E+04 0.  0.
        5    1    3    3  502    0  0.76445846019E+03  0.16840229040E+04 -0.34251385835E+03  0.18808688715E+04  0.46999998093E+01 0. -1.
       -5    1    3    3    0  502 -0.76445846019E+03 -0.16840229040E+04 -0.10008432645E+03  0.18521254928E+04  0.46999998093E+01 0.  1.
</event>
<event>
 5   0  0.7254493E-08  0.3694628E+04  0.7818609E-02  0.8069153E-01
        2   -1    0    0  501    0  0.00000000000E+00  0.00000000000E+00  0.23988937505E+04  0.23988937505E+04  0.25500000920E-02 0. -1.
       -2   -1    0    0    0  501  0.00000000000E+00  0.00000000000E+00 -0.14225597805E+04  0.14225597805E+04  0.25500000920E-02 0.  1.
    10030    2    1    2    0    0  0.00000000000E+00  0.00000000000E+00  0.97633397000E+03  0.38214535310E+04  0.36946284074E+04 0.  0.
        3    1    3    3  502    0  0.12973395280E+04  0.42297187707E+02 -0.87136939956E+03  0.15633820850E+04  0.10100000352E+00 0.  1.
       -3    1    3    3    0  502 -0.12973395280E+04 -0.42297187707E+02  0.18477033696E+04  0.22580714460E+04  0.10100000352E+00 0. -1.
</event>
<event>
 5   0  0.7254493E-08  0.3697463E+04  0.7818609E-02  0.8068524E-01
        2   -1    0    0  501    0  0.00000000000E+00  0.00000000000E+00  0.21791428656E+04  0.21791428656E+04  0.25500000920E-02 0.  1.
       -2   -1    0    0    0  501  0.00000000000E+00  0.00000000000E+00 -0.15684188003E+04  0.15684188003E+04  0.25500000920E-02 0. -1.
    10030    2    1    2    0    0  0.00000000000E+00  0.00000000000E+00  0.61072406530E+03  0.37475616660E+04  0.36974632596E+04 0.  0.
        3    1    3    3  502    0 -0.15656776006E+04  0.78698064259E+03 -0.29179298223E+03  0.17764650392E+04  0.10100000352E+00 0. -1.
       -3    1    3    3    0  502  0.15656776006E+04 -0.78698064259E+03  0.90251704753E+03  0.19710966268E+04  0.10100000352E+00 0.  1.
</event>
<event>
 5   0  0.2282000E-08  0.3710292E+04  0.7818609E-02  0.8065685E-01
       -1   -1    0    0    0  501  0.00000000000E+00  0.00000000000E+00  0.13252166655E+04  0.13252166655E+04  0.50400001928E-02 0.  1.
        1   -1    0    0  501    0  0.00000000000E+00  0.00000000000E+00 -0.25969835530E+04  0.25969835530E+04  0.50400001928E-02 0. -1.
    10030    2    1    2    0    0  0.00000000000E+00  0.00000000000E+00 -0.12717668874E+04  0.39222002185E+04  0.37102915705E+04 0.  0.
        2    1    3    3  502    0  0.94050676727E+03  0.14861098293E+04 -0.11836616489E+02  0.17587539650E+04  0.25500000920E-02 0. -1.
       -2    1    3    3    0  502 -0.94050676727E+03 -0.14861098293E+04 -0.12599302709E+04  0.21634462535E+04  0.25500000920E-02 0.  1.
</event>
<event>
 5   0  0.2282000E-08  0.3658390E+04  0.7818609E-02  0.8077246E-01
       -1   -1    0    0    0  501  0.00000000000E+00  0.00000000000E+00  0.16851793639E+04  0.16851793640E+04  0.50400001928E-02 0. -1.
        1   -1    0    0  501    0  0.00000000000E+00  0.00000000000E+00 -0.19855180339E+04  0.19855180339E+04  0.50400001928E-02 0.  1.
    10030    2    1    2    0    0  0.00000000000E+00  0.00000000000E+00 -0.30033866994E+03  0.36706973978E+04  0.36583898193E+04 0.  0.
        5    1    3    3  502    0 -0.13492243579E+03  0.15134707942E+04  0.87165453589E+03  0.17517424549E+04  0.46999998093E+01 0. -1.
       -5    1    3    3    0  502  0.13492243579E+03 -0.15134707942E+04 -0.11719932058E+04  0.19189549429E+04  0.46999998093E+01 0.  1.
</event>
<event>
 5   0  0.2282000E-08  0.3701741E+04  0.7818609E-02  0.8067576E-01
        1   -1    0    0  501    0  0.00000000000E+00  0.00000000000E+00  0.21223745573E+04  0.21223745573E+04  0.50400001928E-02 0.  1.
       -1   -1    0    0    0  501  0.00000000000E+00  0.00000000000E+00 -0.16140986340E+04  0.16140986340E+04  0.50400001928E-02 0. -1.
    10030    2    1    2    0    0  0.00000000000E+00  0.00000000000E+00  0.50827592330E+03  0.37364731913E+04  0.37017411437E+04 0.  0.
        1    1    3    3  502    0 -0.94544154386E+03  0.26928500297E+03 -0.13288069290E+04  0.16529071300E+04  0.50400001928E-02 0. -1.
       -1    1    3    3    0  502  0.94544154386E+03 -0.26928500297E+03  0.18370828523E+04  0.20835660613E+04  0.50400001928E-02 0.  1.
</event>
<event>
 5   0  0.7191801E-08  0.3709766E+04  0.7818609E-02  0.8065801E-01
       -2   -1    0    0    0  501  0.00000000000E+00  0.00000000000E+00  0.23524807580E+04  0.23524807580E+04  0.25500000920E-02 0.  1.
        2   -1    0    0  501    0  0.00000000000E+00  0.00000000000E+00 -0.14625375361E+04  0.14625375361E+04  0.25500000920E-02 0. -1.
    10030    2    1    2    0    0  0.00000000000E+00  0.00000000000E+00  0.88994322192E+03  0.38150182941E+04  0.37097662522E+04 0.  0.
        5    1    3    3  502    0 -0.32587146139E+03  0.10903057825E+04  0.19513202965E+04  0.22589005951E+04  0.46999998093E+01 0.  1.
       -5    1    3    3    0  502  0.32587146139E+03 -0.10903057825E+04 -0.10613770746E+04  0.15561176990E+04  0.46999998093E+01 0. -1.
</event>
<event>
 5   0  0.7254493E-08  0.3698370E+04  0.7818609E-02  0.8068323E-01
        2   -1    0    0  501    0  0.00000000000E+00  0.00000000000E+00  0.27791197802E+04  0.27791197802E+04  0.25500000920E-02 0. -1.
       -2   -1    0    0    0  501  0.00000000000E+00  0.00000000000E+00 -0.12304201121E+04  0.12304201121E+04  0.25500000920E-02 0.  1.
    10030    2    1    2    0    0  0.00000000000E+00  0.00000000000E+00  0.15486996681E+04  0.40095398923E+04  0.36983698417E+04 0.  0.
        3    1    3    3  502    0 -0.50072963770E+03 -0.15041394019E+04 -0.25775740976E+03  0.16061146917E+04  0.10100000352E+00 0.  1.
       -3    1    3    3    0  502  0.50072963770E+03  0.15041394019E+04  0.18064570779E+04  0.24034252006E+04  0.10100000352E+00 0. -1.
</event>
<event>
 5   0  0.7203049E-08  0.3706278E+04  0.7818609E-02  0.8066572E-01
       -2   -1    0    0    0  501  0.00000000000E+00  0.00000000000E+00  0.22779801669E+04  0.22779801669E+04  0.25500000920E-02 0. -1.
        2   -1    0    0  501    0  0.00000000000E+00  0.00000000000E+00 -0.15075299859E+04  0.15075299859E+04  0.25500000920E-02 0.  1.
    10030    2    1    2    0    0  0.00000000000E+00  0.00000000000E+00  0.77045018093E+03  0.37855101528E+04  0.37062775983E+04 0.  0.
        4    1    3    3  502    0  0.15159112965E+04 -0.75509287051E+02 -0.70072258622E+03  0.16717363629E+04  0.12699999809E+01 0.  1.
       -4    1    3    3    0  502 -0.15159112965E+04  0.75509287051E+02  0.14711727672E+04  0.21137737899E+04  0.12699999809E+01 0. -1.
</event>
<event>
 5   0  0.7254493E-08  0.3704648E+04  0.7818609E-02  0.8066932E-01
       -2   -1    0    0    0  501  0.00000000000E+00  0.00000000000E+00  0.11979251717E+04  0.11979251717E+04  0.25500000920E-02 0.  1.
        2   -1    0    0  501    0  0.00000000000E+00  0.00000000000E+00 -0.28642063743E+04  0.28642063743E+04  0.25500000920E-02 0. -1.
    10030    2    1    2    0    0  0.00000000000E+00  0.00000000000E+00 -0.16662812026E+04  0.40621315460E+04  0.37046483843E+04 0.  0.
        3    1    3    3  502    0  0.46659542446E+03 -0.17068355681E+04 -0.14338221558E+04  0.22774645840E+04  0.10100000352E+00 0. -1.
       -3    1    3    3    0  502 -0.46659542446E+03  0.17068355681E+04 -0.23245904680E+03  0.17846669620E+04  0.10100000352E+00 0.  1.
</event>
<event>
 5   0  0.2282000E-08  0.3695530E+04  0.7818609E-02  0.8068953E-01
        1   -1    0    0  501    0  0.00000000000E+00  0.00000000000E+00  0.18370332170E+04  0.18370332170E+04  0.50400001928E-02 0.  1.
       -1   -1    0    0    0  501  0.00000000000E+00  0.00000000000E+00 -0.18585593511E+04  0.18585593511E+04  0.50400001928E-02 0. -1.
    10030    2    1    2    0    0  0.00000000000E+00  0.00000000000E+00 -0.21526134085E+02  0.36955925682E+04  0.36955298748E+04 0.  0.
        5    1    3    3  502    0  0.46844471141E+03  0.17709427331E+04  0.23118020797E+03  0.18463870099E+04  0.46999998093E+01 0.  1.
       -5    1    3    3    0  502 -0.46844471141E+03 -0.17709427331E+04 -0.25270634206E+03  0.18492055583E+04  0.46999998093E+01 0. -1.
</event>
<event>
 5   0  0.2282000E-08  0.3697091E+04  0.7818609E-02  0.8068607E-01
        1   -1    0    0  501    0  0.00000000000E+00  0.00000000000E+00  0.11403369148E+04  0.11403369149E+04  0.50400001928E-02 0.  1.
       -1   -1    0    0    0  501  0.00000000000E+00  0.00000000000E+00 -0.29965884113E+04  0.29965884113E+04  0.50400001928E-02 0. -1.
    10030    2    1    2    0    0  0.00000000000E+00  0.00000000000E+00 -0.18562514965E+04  0.41369253262E+04  0.36970909559E+04 0.  0.
        4    1    3    3  502    0  0.19115409659E+03  0.18216983265E+04 -0.64951832048E+03  0.19434506278E+04  0.12699999809E+01 0. -1.
       -4    1    3    3    0  502 -0.19115409659E+03 -0.18216983265E+04 -0.12067331760E+04  0.21934746983E+04  0.12699999809E+01 0.  1.
</event>
<event>
 5   0  0.2282000E-08  0.3697774E+04  0.7818609E-02  0.8068455E-01
        1   -1    0    0  501    0  0.00000000000E+00  0.00000000000E+00  0.27354746241E+04  0.27354746241E+04  0.50400001928E-02 0.  1.
       -1   -1    0    0    0  501  0.00000000000E+00  0.00000000000E+00 -0.12496490742E+04  0.12496490743E+04  0.50400001928E-02 0. -1.
    10030    2    1    2    0    0  0.00000000000E+00  0.00000000000E+00  0.14858255498E+04  0.39851236983E+04  0.36977741043E+04 0.  0.
        5    1    3    3  502    0 -0.17711376792E+04 -0.14981090494E+03  0.19445612888E+03  0.17880736176E+04  0.46999998093E+01 0. -1.
       -5    1    3    3    0  502  0.17711376792E+04  0.14981090494E+03  0.12913694209E+04  0.21970500807E+04  0.46999998093E+01 0.  1.
</event>
<event>
 5   0  0.2282000E-08  0.3697246E+04  0.7818609E-02  0.8068573E-01
        1   -1    0    0  501    0  0.00000000000E+00  0.00000000000E+00  0.17460514279E+04  0.17460514279E+04  0.50400001928E-02 0. -1.
       -1   -1    0    0    0  501  0.00000000000E+00  0.00000000000E+00 -0.19572197243E+04  0.19572197243E+04  0.50400001928E-02 0.  1.
    10030    2    1    2    0    0  0.00000000000E+00  0.00000000000E+00 -0.21116829643E+03  0.37032711522E+04  0.36972456204E+04 0.  0.
        4    1    3    3  502    0 -0.10137900167E+04 -0.92619026514E+03  0.11340944480E+04  0.17809464998E+04  0.12699999809E+01 0. -1.
       -4    1    3    3    0  502  0.10137900167E+04  0.92619026514E+03 -0.13452627444E+04  0.19223246525E+04  0.12699999809E+01 0.  1.
</event>
<event>
 5   0  0.7254493E-08  0.3698611E+04  0.7818609E-02  0.8068270E-01
        2   -1    0    0  501    0  0.00000000000E+00  0.00000000000E+00  0.15689818001E+04  0.15689818001E+04  0.25500000920E-02 0.  1.
       -2   -1    0    0    0  501  0.00000000000E+00  0.00000000000E+00 -0.21797134484E+04  0.21797134484E+04  0.25500000920E-02 0. -1.
    10030    2    1    2    0    0  0.00000000000E+00  0.00000000000E+00 -0.61073164835E+03  0.37486952485E+04  0.36986109447E+04 0.  0.
        3    1    3    3  502    0  0.13601875719E+04 -0.47828865419E+03  0.86835730552E+03  0.16831264622E+04  0.10100000352E+00 0.  1.
       -3    1    3    3    0  502 -0.13601875719E+04  0.47828865419E+03 -0.14790889539E+04  0.20655687863E+04  0.10100000352E+00 0. -1.
</event>
<event>
 5   0  0.2282000E-08  0.3688736E+04  0.7818609E-02  0.8070463E-01
        1   -1    0    0  501    0  0.00000000000E+00  0.00000000000E+00  0.18281312403E+04  0.18281312403E+04  0.50400001928E-02 0.  1.
       -1   -1    0    0    0  501  0.00000000000E+00  0.00000000000E+00 -0.18607494633E+04  0.18607494633E+04  0.50400001928E-02 0. -1.
    10030    2    1    2    0    0  0.00000000000E+00  0.00000000000E+00 -0.32618222986E+02  0.36888807036E+04  0.36887364906E+04 0.  0.
        3    1    3    3  502    0 -0.10191507999E+04  0.14205884265E+04  0.57104202408E+03  0.18392468116E+04  0.10100000352E+00 0. -1.
       -3    1    3    3    0  502  0.10191507999E+04 -0.14205884265E+04 -0.60366024707E+03  0.18496338920E+04  0.10100000352E+00 0.  1.
</event>
<event>
 5   0  0.7191801E-08  0.3692384E+04  0.7818609E-02  0.8069652E-01
        2   -1    0    0  501    0  0.00000000000E+00  0.00000000000E+00  0.18748365178E+04  0.18748365178E+04  0.25500000920E-02 0.  1.
       -2   -1    0    0    0  501  0.00000000000E+00  0.00000000000E+00 -0.18179847666E+04  0.18179847666E+04  0.25500000920E-02 0. -1.
    10030    2    1    2    0    0  0.00000000000E+00  0.00000000000E+00  0.56851751218E+02  0.36928212844E+04  0.36923836362E+04 0.  0.
        5    1    3    3  502    0  0.10462022098E+04 -0.14307503526E+04  0.54502993842E+03  0.18543638691E+04  0.46999998093E+01 0.  1.
       -5    1    3    3    0  502 -0.10462022098E+04  0.14307503526E+04 -0.48817818720E+03  0.18384574153E+04  0.46999998093E+01 0. -1.
</event>
<event>
 5   0  0.7254493E-08  0.3702480E+04  0.7818609E-02  0.8067412E-01
       -2   -1    0    0    0  501  0.00000000000E+00  0.00000000000E+00  0.21842563018E+04  0.21842563018E+04  0.25500000920E-02 0.  1.
        2   -1    0    0  501    0  0.00000000000E+00  0.00000000000E+00 -0.15689959364E+04  0.15689959364E+04  0.25500000920E-02 0. -1.
    10030    2    1    2    0    0  0.00000000000E+00  0.00000000000E+00  0.61526036547E+03  0.37532522382E+04  0.37024798509E+04 0.  0.
        3    1    3    3  502    0  0.30352763918E+03  0.10303194980E+04 -0.12208265986E+04  0.16260703828E+04  0.10100000352E+00 0. -1.
       -3    1    3    3    0  502 -0.30352763918E+03 -0.10303194980E+04  0.18360869641E+04  0.21271818554E+04  0.10100000352E+00 0.  1.
</event>
<event>
 5   0  0.2282000E-08  0.3703319E+04  0.7818609E-02  0.8067227E-01
        1   -1    0    0  501    0  0.00000000000E+00  0.00000000000E+00  0.14430311205E+04  0.14430311205E+04  0.50400001928E-02 0. -1.
       -1   -1    0    0    0  501  0.00000000000E+00  0.00000000000E+00 -0.23760000965E+04  0.23760000965E+04  0.50400001928E-02 0.  1.
    10030    2    1    2    0    0  0.00000000000E+00  0.00000000000E+00 -0.93296897595E+03  0.38190312170E+04  0.37033185559E+04 0.  0.
        3    1    3    3  502    0 -0.13137455977E+04 -0.92119800229E+03  0.48657221361E+03  0.16766889348E+04  0.10100000352E+00 0. -1.
       -3    1    3    3    0  502  0.13137455977E+04  0.92119800229E+03 -0.14195411896E+04  0.21423422822E+04  0.10100000352E+00 0.  1.
</event>
<event>
 5   0  0.7203049E-08  0.3696431E+04  0.7818609E-02  0.8068753E-01
       -2   -1    0    0    0  501  0.00000000000E+00  0.00000000000E+00  0.10881682749E+04  0.10881682749E+04  0.25500000920E-02 0. -1.
        2   -1    0    0  501    0  0.00000000000E+00  0.00000000000E+00 -0.31391286644E+04  0.31391286644E+04  0.25500000920E-02 0.  1.
    10030    2    1    2    0    0  0.00000000000E+00  0.00000000000E+00 -0.20509603895E+04  0.42272969393E+04  0.36964308318E+04 0.  0.
        4    1    3    3  502    0 -0.14386241687E+04  0.83384803541E+03 -0.10278942300E+03  0.16659859913E+04  0.12699999809E+01 0. -1.
       -4    1    3    3    0  502  0.14386241687E+04 -0.83384803541E+03 -0.19481709665E+04  0.25613109480E+04  0.12699999809E+01 0.  1.
</event>
<event>
 5   0  0.2282000E-08  0.3604770E+04  0.7818609E-02  0.8089400E-01
       -1   -1    0    0    0  501  0.00000000000E+00  0.00000000000E+00  0.25737309254E+04  0.25737309254E+04  0.50400001928E-02 0. -1.
        1   -1    0    0  501    0  0.00000000000E+00  0.00000000000E+00 -0.12622110587E+04  0.12622110587E+04  0.50400001928E-02 0.  1.
    10030    2    1    2    0    0  0.00000000000E+00  0.00000000000E+00  0.13115198667E+04  0.38359419841E+04  0.36047699711E+04 0.  0.
        2    1    3    3  502    0 -0.90149488419E+03  0.13475283812E+04 -0.18218096457E+03  0.16314765301E+04  0.25500000920E-02 0. -1.
       -2    1    3    3    0  502  0.90149488419E+03 -0.13475283812E+04  0.14937008313E+04  0.22044654540E+04  0.25500000920E-02 0.  1.
</event>
<event>
 5   0  0.2282000E-08  0.3691106E+04  0.7818609E-02  0.8069936E-01
        1   -1    0    0  501    0  0.00000000000E+00  0.00000000000E+00  0.25583837061E+04  0.25583837061E+04  0.50400001928E-02 0. -1.
       -1   -1    0    0    0  501  0.00000000000E+00  0.00000000000E+00 -0.13313346852E+04  0.13313346852E+04  0.50400001928E-02 0.  1.
    10030    2    1    2    0    0  0.00000000000E+00  0.00000000000E+00  0.12270490209E+04  0.38897183914E+04  0.36911055071E+04 0.  0.
        2    1    3    3  502    0 -0.16766808064E+04  0.77123538046E+03  0.61516639042E+03  0.19453771425E+04  0.25500000920E-02 0. -1.
       -2    1    3    3    0  502  0.16766808064E+04 -0.77123538046E+03  0.61188263047E+03  0.19443412489E+04  0.25500000920E-02 0.  1.
</event>
<event>
 5   0  0.2282000E-08  0.3698158E+04  0.7818609E-02  0.8068370E-01
       -1   -1    0    0    0  501  0.00000000000E+00  0.00000000000E+00  0.29660188735E+04  0.29660188735E+04  0.50400001928E-02 0.  1.
        1   -1    0    0  501    0  0.00000000000E+00  0.00000000000E+00 -0.11527552697E+04  0.11527552697E+04  0.50400001928E-02 0. -1.
    10030    2    1    2    0    0  0.00000000000E+00  0.00000000000E+00  0.18132636038E+04  0.41187741432E+04  0.36981583992E+04 0.  0.
        4    1    3    3  502    0 -0.85977627424E+03  0.14631126219E+04  0.17244348912E+04  0.24194195777E+04  0.12699999809E+01 0.  1.
       -4    1    3    3    0  502  0.85977627424E+03 -0.14631126219E+04  0.88828712591E+02  0.16993545655E+04  0.12699999809E+01 0. -1.
</event>
<event>
 5   0  0.2282000E-08  0.3701949E+04  0.7818609E-02  0.8067530E-01
       -1   -1    0    0    0  501  0.00000000000E+00  0.00000000000E+00  0.17690446505E+04  0.17690446505E+04  0.50400001928E-02 0. -1.
        1   -1    0    0  501    0  0.00000000000E+00  0.00000000000E+00 -0.19366991425E+04  0.19366991425E+04  0.50400001928E-02 0.  1.
    10030    2    1    2    0    0  0.00000000000E+00  0.00000000000E+00 -0.16765449199E+03  0.37057437930E+04  0.37019493555E+04 0.  0.
        3    1    3    3  502    0 -0.65447073485E+03  0.15007831744E+04 -0.94809227975E+03  0.18919727959E+04  0.10100000352E+00 0.  1.
       -3    1    3    3    0  502  0.65447073485E+03 -0.15007831744E+04  0.78043778776E+03  0.18137709971E+04  0.10100000352E+00 0. -1.
</event>
<event>
 5   0  0.2282000E-08  0.3783344E+04  0.7818609E-02  0.8049739E-01
       -1   -1    0    0    0  501  0.00000000000E+00  0.00000000000E+00  0.19668095545E+04  0.19668095545E+04  0.50400001928E-02 0. -1.
        1   -1    0    0  501    0  0.00000000000E+00  0.00000000000E+00 -0.18194047420E+04  0.18194047420E+04  0.50400001928E-02 0.  1.
    10030    2    1    2    0    0  0.00000000000E+00  0.00000000000E+00  0.14740481249E+03  0.37862142965E+04  0.37833438279E+04 0.  0.
        5    1    3    3  502    0  0.43691688699E+03 -0.15589214229E+04  0.10528455541E+04  0.19312271279E+04  0.46999998093E+01 0. -1.
       -5    1    3    3    0  502 -0.43691688699E+03  0.15589214229E+04 -0.90544074159E+03  0.18549871685E+04  0.46999998093E+01 0.  1.
</event>
<event>
 5   0  0.7254493E-08  0.3700872E+04  0.7818609E-02  0.8067769E-01
       -2   -1    0    0    0  501  0.00000000000E+00  0.00000000000E+00  0.14760692481E+04  0.14760692481E+04  0.25500000920E-02 0.  1.
        2   -1    0    0  501    0  0.00000000000E+00  0.00000000000E+00 -0.23197509670E+04  0.23197509670E+04  0.25500000920E-02 0. -1.
    10030    2    1    2    0    0  0.00000000000E+00  0.00000000000E+00 -0.84368171886E+03  0.37958202151E+04  0.37008718246E+04 0.  0.
        3    1    3    3  502    0 -0.12835413385E+04 -0.64399796519E+03 -0.16187864492E+04  0.21639503980E+04  0.10100000352E+00 0. -1.
       -3    1    3    3    0  502  0.12835413385E+04  0.64399796519E+03  0.77510473032E+03  0.16318698171E+04  0.10100000352E+00 0.  1.
</event>
<event>
 5   0  0.2282000E-08  0.3696149E+04  0.7818609E-02  0.8068816E-01
        1   -1    0    0  501    0  0.00000000000E+00  0.00000000000E+00  0.27787042870E+04  0.27787042870E+04  0.50400001928E-02 0.  1.
       -1   -1    0    0    0  501  0.00000000000E+00  0.00000000000E+00 -0.12291265707E+04  0.12291265707E+04  0.50400001928E-02 0. -1.
    10030    2    1    2    0    0  0.00000000000E+00  0.00000000000E+00  0.15495777163E+04  0.40078308576E+04  0.36961489532E+04 0.  0.
        1    1    3    3  502    0 -0.13745857764E+04  0.12092803940E+04  0.50147383216E+03  0.18982415896E+04  0.50400001928E-02 0. -1.
       -1    1    3    3    0  502  0.13745857764E+04 -0.12092803940E+04  0.10481038841E+04  0.21095892681E+04  0.50400001928E-02 0.  1.
</event>
<event>
 5   0  0.7362817E-08  0.3699671E+04  0.7818609E-02  0.8068035E-01
        2   -1    0    0  501    0  0.00000000000E+00  0.00000000000E+00  0.14788820804E+04  0.14788820804E+04  0.25500000920E-02 0.  1.
       -2   -1    0    0    0  501  0.00000000000E+00  0.00000000000E+00 -0.23138363379E+04  0.23138363379E+04  0.25500000920E-02 0. -1.
    10030    2    1    2    0    0  0.00000000000E+00  0.00000000000E+00 -0.83495425745E+03  0.37927184183E+04  0.36996708487E+04 0.  0.
        1    1    3    3  502    0  0.82681914839E+03  0.10273637200E+04  0.91237032657E+03  0.16035977457E+04  0.50400001928E-02 0.  1.
       -1    1    3    3    0  502 -0.82681914839E+03 -0.10273637200E+04 -0.17473245840E+04  0.21891206726E+04  0.50400001928E-02 0. -1.
</event>
<event>
 5   0  0.2282000E-08  0.3685493E+04  0.7818609E-02  0.8071184E-01
        1   -1    0    0  501    0  0.00000000000E+00  0.00000000000E+00  0.22520260566E+04  0.22520260566E+04  0.50400001928E-02 0. -1.
       -1   -1    0    0    0  501  0.00000000000E+00  0.00000000000E+00 -0.15078485198E+04  0.15078485198E+04  0.50400001928E-02 0.  1.
    10030    2    1    2    0    0  0.00000000000E+00  0.00000000000E+00  0.74417753676E+03  0.37598745764E+04  0.36854927247E+04 0.  0.
        3    1    3    3  502    0  0.11725463983E+04  0.13947448383E+04  0.91703896442E+02  0.18244417872E+04  0.10100000352E+00 0. -1.
       -3    1    3    3    0  502 -0.11725463983E+04 -0.13947448383E+04  0.65247364032E+03  0.19354327892E+04  0.10100000352E+00 0.  1.
</event>
<event>
 5   0  0.2282000E-08  0.3703473E+04  0.7818609E-02  0.8067193E-01
        1   -1    0    0  501    0  0.00000000000E+00  0.00000000000E+00  0.96489214841E+03  0.96489214842E+03  0.50400001928E-02 0.  1.
       -1   -1    0    0    0  501  0.00000000000E+00  0.00000000000E+00 -0.35536900117E+04  0.35536900117E+04  0.50400001928E-02 0. -1.
    10030    2    1    2    0    0  0.00000000000E+00  0.00000000000E+00 -0.25887978633E+04  0.45185821601E+04  0.37034727433E+04 0.  0.
        2    1    3    3  502    0  0.20562282923E+03  0.18311411346E+04 -0.10708553772E+04  0.21312179245E+04  0.25500000920E-02 0.  1.
       -2    1    3    3    0  502 -0.20562282923E+03 -0.18311411346E+04 -0.15179424860E+04  0.23873642356E+04  0.25500000920E-02 0. -1.
</event>
<event>
 5   0  0.2282000E-08  0.3705923E+04  0.7818609E-02  0.8066650E-01
        1   -1    0    0  501    0  0.00000000000E+00  0.00000000000E+00  0.15192096879E+04  0.15192096879E+04  0.50400001928E-02 0.  1.
       -1   -1    0    0    0  501  0.00000000000E+00  0.00000000000E+00 -0.22600346022E+04  0.22600346022E+04  0.50400001928E-02 0. -1.
    10030    2    1    2    0    0  0.00000000000E+00  0.00000000000E+00 -0.74082491427E+03  0.37792442901E+04  0.37059230768E+04 0.  0.
        5    1    3    3  502    0  0.16573750489E+04 -0.24598502427E+03  0.43647113769E+03  0.17314530975E+04  0.46999998093E+01 0.  1.
       -5    1    3    3    0  502 -0.16573750489E+04  0.24598502427E+03 -0.11772960520E+04  0.20477911926E+04  0.46999998093E+01 0. -1.
</event>
<event>
 5   0  0.7191801E-08  0.3746211E+04  0.7818609E-02  0.8057797E-01
        2   -1    0    0  501    0  0.00000000000E+00  0.00000000000E+00  0.23674952280E+04  0.23674952280E+04  0.25500000920E-02 0.  1.
       -2   -1    0    0    0  501  0.00000000000E+00  0.00000000000E+00 -0.14819558017E+04  0.14819558017E+04  0.25500000920E-02 0. -1.
    10030    2    1    2    0    0  0.00000000000E+00  0.00000000000E+00  0.88553942631E+03  0.38494510297E+04  0.37462105059E+04 0.  0.
        5    1    3    3  502    0  0.10685094335E+04  0.80138164316E+03  0.17921918250E+04  0.22351506829E+04  0.46999998093E+01 0.  1.
       -5    1    3    3    0  502 -0.10685094335E+04 -0.80138164316E+03 -0.90665239873E+03  0.16143003468E+04  0.46999998093E+01 0. -1.
</event>
<event>
 5   0  0.7191801E-08  0.3721894E+04  0.7818609E-02  0.8063127E-01
        2   -1    0    0  501    0  0.00000000000E+00  0.00000000000E+00  0.12310408373E+04  0.12310408373E+04  0.25500000920E-02 0.  1.
       -2   -1    0    0    0  501  0.00000000000E+00  0.00000000000E+00 -0.28131664844E+04  0.28131664844E+04  0.25500000920E-02 0. -1.
    10030    2    1    2    0    0  0.00000000000E+00  0.00000000000E+00 -0.15821256471E+04  0.40442073217E+04  0.37218935097E+04 0.  0.
        5    1    3    3  502    0  0.15923967673E+04 -0.83751805193E+03 -0.27457160970E+03  0.18200482441E+04  0.46999998093E+01 0.  1.
       -5    1    3    3    0  502 -0.15923967673E+04  0.83751805193E+03 -0.13075540374E+04  0.22241590776E+04  0.46999998093E+01 0. -1.
</event>
<event>
 5   0  0.7191801E-08  0.3683530E+04  0.7818609E-02  0.8071622E-01
       -2   -1    0    0    0  501  0.00000000000E+00  0.00000000000E+00  0.14306836198E+04  0.14306836198E+04  0.25500000920E-02 0.  1.
        2   -1    0    0  501    0  0.00000000000E+00  0.00000000000E+00 -0.23709630649E+04  0.23709630649E+04  0.25500000920E-02 0. -1.
    10030    2    1    2    0    0  0.00000000000E+00  0.00000000000E+00 -0.94027944505E+03  0.38016466847E+04  0.36835298397E+04 0.  0.
        5    1    3    3  502    0 -0.11573019751E+04  0.56652550870E+03 -0.18283078454E+04  0.22367455557E+04  0.46999998093E+01 0. -1.
       -5    1    3    3    0  502  0.11573019751E+04 -0.56652550870E+03  0.88802840032E+03  0.15649011289E+04  0.46999998093E+01 0.  1.
</event>
<event>
 5   0  0.2282000E-08  0.3698873E+04  0.7818609E-02  0.8068212E-01
       -1   -1    0    0    0  501  0.00000000000E+00  0.00000000000E+00  0.27069966421E+04  0.27069966421E+04  0.50400001928E-02 0.  1.
        1   -1    0    0  501    0  0.00000000000E+00  0.00000000000E+00 -0.12635463650E+04  0.12635463650E+04  0.50400001928E-02 0. -1.
    10030    2    1    2    0    0  0.00000000000E+00  0.00000000000E+00  0.14434502771E+04  0.39705430072E+04  0.36988732162E+04 0.  0.
        4    1    3    3  502    0 -0.47343969430E+03 -0.54038297651E+03  0.25510795431E+04  0.26503145764E+04  0.12699999809E+01 0.  1.
       -4    1    3    3    0  502  0.47343969430E+03  0.54038297651E+03 -0.11076292661E+04  0.13202284308E+04  0.12699999809E+01 0. -1.
</event>
<event>
 5   0  0.7309833E-08  0.3723539E+04  0.7818609E-02  0.8062765E-01
       -2   -1    0    0    0  501  0.00000000000E+00  0.00000000000E+00  0.11071531685E+04  0.11071531685E+04  0.25500000920E-02 0. -1.
        2   -1    0    0  501    0  0.00000000000E+00  0.00000000000E+00 -0.31307191342E+04  0.31307191342E+04  0.25500000920E-02 0.  1.
    10030    2    1    2    0    0  0.00000000000E+00  0.00000000000E+00 -0.20235659657E+04  0.42378723028E+04  0.37235389668E+04 0.  0.
        2    1    3    3  502    0  0.80511047417E+03 -0.11084486914E+04  0.42303964033E+03  0.14338144630E+04  0.25500000920E-02 0.  1.
       -2    1    3    3    0  502 -0.80511047417E+03  0.11084486914E+04 -0.24466056060E+04  0.28040578397E+04  0.25500000920E-02 0. -1.
</event>
<event>
 5   0  0.7254493E-08  0.3701232E+04  0.7818609E-02  0.8067689E-01
       -2   -1    0    0    0  501  0.00000000000E+00  0.00000000000E+00  0.14315236488E+04  0.14315236488E+04  0.25500000920E-02 0. -1.
        2   -1    0    0  501    0  0.00000000000E+00  0.00000000000E+00 -0.23924020865E+04  0.23924020865E+04  0.25500000920E-02 0.  1.
    10030    2    1    2    0    0  0.00000000000E+00  0.00000000000E+00 -0.96087843771E+03  0.38239257353E+04  0.37012323160E+04 0.  0.
        3    1    3    3  502    0 -0.11275612247E+04  0.98972505539E+03 -0.15997887832E+04  0.21932337225E+04  0.10100000352E+00 0.  1.
       -3    1    3    3    0  502  0.11275612247E+04 -0.98972505539E+03  0.63891034549E+03  0.16306920127E+04  0.10100000352E+00 0. -1.
</event>
<event>
 5   0  0.2282000E-08  0.3701455E+04  0.7818609E-02  0.8067640E-01
       -1   -1    0    0    0  501  0.00000000000E+00  0.00000000000E+00  0.17632157177E+04  0.17632157177E+04  0.50400001928E-02 0.  1.
        1   -1    0    0  501    0  0.00000000000E+00  0.00000000000E+00 -0.19425823482E+04  0.19425823482E+04  0.50400001928E-02 0. -1.
    10030    2    1    2    0    0  0.00000000000E+00  0.00000000000E+00 -0.17936663052E+03  0.37057980659E+04  0.37014547028E+04 0.  0.
        3    1    3    3  502    0  0.11760602093E+04  0.13884301577E+04 -0.42821586261E+03  0.18692845567E+04  0.10100000352E+00 0. -1.
       -3    1    3    3    0  502 -0.11760602093E+04 -0.13884301577E+04  0.24884923209E+03  0.18365135092E+04  0.10100000352E+00 0.  1.
</event>
<event>
 5   0  0.7254493E-08  0.3695110E+04  0.7818609E-02  0.8069046E-01
       -2   -1    0    0    0  501  0.00000000000E+00  0.00000000000E+00  0.14124337164E+04  0.14124337164E+04  0.25500000920E-02 0.  1.
        2   -1    0    0  501    0  0.00000000000E+00  0.00000000000E+00 -0.24167223838E+04  0.24167223838E+04  0.25500000920E-02 0. -1.
    10030    2    1    2    0    0  0.00000000000E+00  0.00000000000E+00 -0.10042886673E+04  0.38291561002E+04  0.36951103789E+04 0.  0.
        3    1    3    3  502    0 -0.91872424998E+03  0.11385680625E+04 -0.16713787045E+04  0.22212380027E+04  0.10100000352E+00 0. -1.
       -3    1    3    3    0  502  0.91872424998E+03 -0.11385680625E+04  0.66709003714E+03  0.16079180975E+04  0.10100000352E+00 0.  1.
</event>
<event>
 5   0  0.2282000E-08  0.3703074E+04  0.7818609E-02  0.8067281E-01
       -1   -1    0    0    0  501  0.00000000000E+00  0.00000000000E+00  0.16339630956E+04  0.16339630956E+04  0.50400001928E-02 0. -1.
        1   -1    0    0  501    0  0.00000000000E+00  0.00000000000E+00 -0.20980826272E+04  0.20980826272E+04  0.50400001928E-02 0.  1.
    10030    2    1    2    0    0  0.00000000000E+00  0.00000000000E+00 -0.46411953159E+03  0.37320457228E+04  0.37030741739E+04 0.  0.
        1    1    3    3  502    0  0.16643841782E+03 -0.48571417409E+02 -0.20898832713E+04  0.20970629502E+04  0.50400001928E-02 0.  1.
       -1    1    3    3    0  502 -0.16643841782E+03  0.48571417409E+02  0.16257637397E+04  0.16349827726E+04  0.50400001928E-02 0. -1.
</event>
<event>
 5   0  0.7191801E-08  0.3698569E+04  0.7818609E-02  0.8068279E-01
       -2   -1    0    0    0  501  0.00000000000E+00  0.00000000000E+00  0.19827371411E+04  0.19827371411E+04  0.25500000920E-02 0. -1.
        2   -1    0    0  501    0  0.00000000000E+00  0.00000000000E+00 -0.17248143189E+04  0.17248143189E+04  0.25500000920E-02 0.  1.
    10030    2    1    2    0    0  0.00000000000E+00  0.00000000000E+00  0.25792282214E+03  0.37075514600E+04  0.36985691350E+04 0.  0.
        5    1    3    3  502    0  0.93082808476E+03 -0.10091956920E+03 -0.14696546997E+04  0.17425649799E+04  0.46999998093E+01 0.  1.
       -5    1    3    3    0  502 -0.93082808476E+03  0.10091956920E+03  0.17275775218E+04  0.19649864801E+04  0.46999998093E+01 0. -1.
</event>
<event>
 5   0  0.2282000E-08  0.3702052E+04  0.7818609E-02  0.8067507E-01
        1   -1    0    0  501    0  0.00000000000E+00  0.00000000000E+00  0.28710897613E+04  0.28710897613E+04  0.50400001928E-02 0.  1.
       -1   -1    0    0    0  501  0.00000000000E+00  0.00000000000E+00 -0.11933787290E+04  0.11933787290E+04  0.50400001928E-02 0. -1.
    10030    2    1    2    0    0  0.00000000000E+00  0.00000000000E+00  0.16777110323E+04  0.40644684903E+04  0.37020521067E+04 0.  0.
        3    1    3    3  502    0  0.49730357485E+03 -0.55794861439E+02 -0.11177029654E+04  0.12246157933E+04  0.10100000352E+00 0. -1.
       -3    1    3    3    0  502 -0.49730357485E+03  0.55794861439E+02  0.27954139977E+04  0.28398526970E+04  0.10100000352E+00 0.  1.
</event>
<event>
 5   0  0.7309833E-08  0.3700278E+04  0.7818609E-02  0.8067900E-01
       -2   -1    0    0    0  501  0.00000000000E+00  0.00000000000E+00  0.29497127900E+04  0.29497127900E+04  0.25500000920E-02 0. -1.
        2   -1    0    0  501    0  0.00000000000E+00  0.00000000000E+00 -0.11604568576E+04  0.11604568576E+04  0.25500000920E-02 0.  1.
    10030    2    1    2    0    0  0.00000000000E+00  0.00000000000E+00  0.17892559323E+04  0.41101696476E+04  0.37002780626E+04 0.  0.
        2    1    3    3  502    0  0.10781914101E+04 -0.36872060402E+03 -0.72442172013E+03  0.13502734646E+04  0.25500000920E-02 0.  1.
       -2    1    3    3    0  502 -0.10781914101E+04  0.36872060402E+03  0.25136776525E+04  0.27598961830E+04  0.25500000920E-02 0. -1.
</event>
<event>
 5   0  0.2282000E-08  0.3792105E+04  0.7818609E-02  0.8047851E-01
       -1   -1    0    0    0  501  0.00000000000E+00  0.00000000000E+00  0.16759112324E+04  0.16759112324E+04  0.50400001928E-02 0. -1.
        1   -1    0    0  501    0  0.00000000000E+00  0.00000000000E+00 -0.21451108962E+04  0.21451108962E+04  0.50400001928E-02 0.  1.
    10030    2    1    2    0    0  0.00000000000E+00  0.00000000000E+00 -0.46919966378E+03  0.38210221286E+04  0.37921051914E+04 0.  0.
        5    1    3    3  502    0 -0.67429680863E+03 -0.96572822507E+03 -0.17317585543E+04  0.20943535927E+04  0.46999998093E+01 0.  1.
       -5    1    3    3    0  502  0.67429680863E+03  0.96572822507E+03  0.12625588905E+04  0.17266685359E+04  0.46999998093E+01 0. -1.
</event>
<event>
 5   0  0.2282000E-08  0.3700853E+04  0.7818609E-02  0.8067773E-01
       -1   -1    0    0    0  501  0.00000000000E+00  0.00000000000E+00  0.12822323746E+04  0.12822323746E+04  0.50400001928E-02 0.  1.
        1   -1    0    0  501    0  0.00000000000E+00  0.00000000000E+00 -0.26704036355E+04  0.26704036355E+04  0.50400001928E-02 0. -1.
    10030    2    1    2    0    0  0.00000000000E+00  0.00000000000E+00 -0.13881712610E+04  0.39526360101E+04  0.37008528718E+04 0.  0.
        2    1    3    3  502    0  0.91673317123E+03  0.13804560215E+04  0.18535410111E+03  0.16674575489E+04  0.25500000920E-02 0. -1.
       -2    1    3    3    0  502 -0.91673317123E+03 -0.13804560215E+04 -0.15735253621E+04  0.22851784612E+04  0.25500000920E-02 0.  1.
</event>
<event>
 5   0  0.2282000E-08  0.3697443E+04  0.7818609E-02  0.8068529E-01
       -3   -1    0    0    0  501  0.00000000000E+00  0.00000000000E+00  0.17948738527E+04  0.17948738556E+04  0.10100000352E+00 0.  1.
        3   -1    0    0  501    0  0.00000000000E+00  0.00000000000E+00 -0.19041847127E+04  0.19041847153E+04  0.10100000352E+00 0. -1.
    10030    2    1    2    0    0  0.00000000000E+00  0.00000000000E+00 -0.10931085994E+03  0.36990585709E+04  0.36974430958E+04 0.  0.
        2    1    3    3  502    0  0.11791881677E+04 -0.10832540418E+04  0.86978688365E+03  0.18222110956E+04  0.25500000920E-02 0.  1.
       -2    1    3    3    0  502 -0.11791881677E+04  0.10832540418E+04 -0.97909774359E+03  0.18768474753E+04  0.25500000920E-02 0. -1.
</event>
<event>
 5   0  0.7191801E-08  0.3698666E+04  0.7818609E-02  0.8068257E-01
        2   -1    0    0  501    0  0.00000000000E+00  0.00000000000E+00  0.19180996507E+04  0.19180996507E+04  0.25500000920E-02 0. -1.
       -2   -1    0    0    0  501  0.00000000000E+00  0.00000000000E+00 -0.17830319105E+04  0.17830319105E+04  0.25500000920E-02 0.  1.
    10030    2    1    2    0    0  0.00000000000E+00  0.00000000000E+00  0.13506774022E+03  0.37011315611E+04  0.36986661837E+04 0.  0.
        5    1    3    3  502    0  0.67406481210E+03  0.31900143014E+03  0.17609637264E+04  0.19123651898E+04  0.46999998093E+01 0. -1.
       -5    1    3    3    0  502 -0.67406481210E+03 -0.31900143014E+03 -0.16258959862E+04  0.17887663714E+04  0.46999998093E+01 0.  1.
</event>
<event>
 5   0  0.2282000E-08  0.3701485E+04  0.7818609E-02  0.8067633E-01
        1   -1    0    0  501    0  0.00000000000E+00  0.00000000000E+00  0.12208598252E+04  0.12208598252E+04  0.50400001928E-02 0. -1.
       -1   -1    0    0    0  501  0.00000000000E+00  0.00000000000E+00 -0.28056026666E+04  0.28056026666E+04  0.50400001928E-02 0.  1.
    10030    2    1    2    0    0  0.00000000000E+00  0.00000000000E+00 -0.15847428414E+04  0.40264624919E+04  0.37014848811E+04 0.  0.
        5    1    3    3  502    0 -0.94434316497E+03  0.73237616561E+03 -0.23296194871E+04  0.26182642926E+04  0.46999998093E+01 0.  1.
       -5    1    3    3    0  502  0.94434316497E+03 -0.73237616561E+03  0.74487664567E+03  0.14081981993E+04  0.46999998093E+01 0. -1.
</event>
<event>
 5   0  0.7362817E-08  0.3709199E+04  0.7818609E-02  0.8065926E-01
        2   -1    0    0  501    0  0.00000000000E+00  0.00000000000E+00  0.17805286027E+04  0.17805286027E+04  0.25500000920E-02 0. -1.
       -2   -1    0    0    0  501  0.00000000000E+00  0.00000000000E+00 -0.19317519753E+04  0.19317519753E+04  0.25500000920E-02 0.  1.
    10030    2    1    2    0    0  0.00000000000E+00  0.00000000000E+00 -0.15122337262E+03  0.37122805780E+04  0.37091991833E+04 0.  0.
        1    1    3    3  502    0  0.36722650584E+03  0.14633533819E+03  0.17378732701E+04  0.17822662093E+04  0.50400001928E-02 0. -1.
       -1    1    3    3    0  502 -0.36722650584E+03 -0.14633533819E+03 -0.18890966427E+04  0.19300143687E+04  0.50400001928E-02 0.  1.
</event>
<event>
 5   0  0.7191801E-08  0.3701142E+04  0.7818609E-02  0.8067709E-01
       -2   -1    0    0    0  501  0.00000000000E+00  0.00000000000E+00  0.15910973236E+04  0.15910973236E+04  0.25500000920E-02 0.  1.
        2   -1    0    0  501    0  0.00000000000E+00  0.00000000000E+00 -0.21523598108E+04  0.21523598108E+04  0.25500000920E-02 0. -1.
    10030    2    1    2    0    0  0.00000000000E+00  0.00000000000E+00 -0.56126248725E+03  0.37434571344E+04  0.37011424909E+04 0.  0.
        5    1    3    3  502    0 -0.14112472004E+04 -0.59730569980E+03 -0.13298918509E+04  0.20290458803E+04  0.46999998093E+01 0. -1.
       -5    1    3    3    0  502  0.14112472004E+04  0.59730569980E+03  0.76862936362E+03  0.17144112541E+04  0.46999998093E+01 0.  1.
</event>
<event>
 5   0  0.7191801E-08  0.3692180E+04  0.7818609E-02  0.8069697E-01
       -2   -1    0    0    0  501  0.00000000000E+00  0.00000000000E+00  0.23146469620E+04  0.23146469620E+04  0.25500000920E-02 0. -1.
        2   -1    0    0  501    0  0.00000000000E+00  0.00000000000E+00 -0.14723835229E+04  0.14723835229E+04  0.25500000920E-02 0.  1.
    10030    2    1    2    0    0  0.00000000000E+00  0.00000000000E+00  0.84226343903E+03  0.37870304849E+04  0.36921798701E+04 0.  0.
        5    1    3    3  502    0 -0.15741884091E+03  0.17634499015E+04  0.95752885205E+03  0.20128139107E+04  0.46999998093E+01 0. -1.
       -5    1    3    3    0  502  0.15741884091E+03 -0.17634499015E+04 -0.11526541302E+03  0.17742165742E+04  0.46999998093E+01 0.  1.
</event>
<event>
 5   0  0.2282000E-08  0.3694448E+04  0.7818609E-02  0.8069193E-01
        1   -1    0    0  501    0  0.00000000000E+00  0.00000000000E+00  0.21456437515E+04  0.21456437515E+04  0.50400001928E-02 0.  1.
       -1   -1    0    0    0  501  0.00000000000E+00  0.00000000000E+00 -0.15903090908E+04  0.15903090908E+04  0.50400001928E-02 0. -1.
    10030    2    1    2    0    0  0.00000000000E+00  0.00000000000E+00  0.55533466068E+03  0.37359528423E+04  0.36944481394E+04 0.  0.
        5    1    3    3  502    0  0.20108360836E+03 -0.23388790051E+02 -0.15790517361E+04  0.15919824522E+04  0.46999998093E+01 0. -1.
       -5    1    3    3    0  502 -0.20108360836E+03  0.23388790051E+02  0.21343863967E+04  0.21439703901E+04  0.46999998093E+01 0.  1.
</event>
<event>
 5   0  0.2282000E-08  0.3700099E+04  0.7818609E-02  0.8067940E-01
       -1   -1    0    0    0  501  0.00000000000E+00  0.00000000000E+00  0.12555631949E+04  0.12555631949E+04  0.50400001928E-02 0. -1.
        1   -1    0    0  501    0  0.00000000000E+00  0.00000000000E+00 -0.27260137865E+04  0.27260137865E+04  0.50400001928E-02 0.  1.
    10030    2    1    2    0    0  0.00000000000E+00  0.00000000000E+00 -0.14704505916E+04  0.39815769814E+04  0.37000986901E+04 0.  0.
        5    1    3    3  502    0 -0.12469735924E+04 -0.12208177280E+04 -0.13962193325E+04  0.22349025884E+04  0.46999998093E+01 0.  1.
       -5    1    3    3    0  502  0.12469735924E+04  0.12208177280E+04 -0.74231259111E+02  0.17466743930E+04  0.46999998093E+01 0. -1.
</event>
<event>
 5   0  0.7191801E-08  0.3703342E+04  0.7818609E-02  0.8067222E-01
        2   -1    0    0  501    0  0.00000000000E+00  0.00000000000E+00  0.17714124087E+04  0.17714124087E+04  0.25500000920E-02 0. -1.
       -2   -1    0    0    0  501  0.00000000000E+00  0.00000000000E+00 -0.19355656598E+04  0.19355656598E+04  0.25500000920E-02 0.  1.
    10030    2    1    2    0    0  0.00000000000E+00  0.00000000000E+00 -0.16415325112E+03  0.37069780685E+04  0.37033417490E+04 0.  0.
        5    1    3    3  502    0 -0.13337799915E+03  0.18258927781E+04 -0.35981764668E+03  0.18657880257E+04  0.46999998093E+01 0.  1.
       -5    1    3    3    0  502  0.13337799915E+03 -0.18258927781E+04  0.19566439556E+03  0.18411900428E+04  0.46999998093E+01 0. -1.
</event>
<event>
 5   0  0.2282000E-08  0.3744663E+04  0.7818609E-02  0.8058135E-01
        1   -1    0    0  501    0  0.00000000000E+00  0.00000000000E+00  0.16490365507E+04  0.16490365507E+04  0.50400001928E-02 0. -1.
       -1   -1    0    0    0  501  0.00000000000E+00  0.00000000000E+00 -0.21258629301E+04  0.21258629301E+04  0.50400001928E-02 0.  1.
    10030    2    1    2    0    0  0.00000000000E+00  0.00000000000E+00 -0.47682637943E+03  0.37748994808E+04  0.37446632284E+04 0.  0.
        4    1    3    3  502    0 -0.65819673745E+03  0.63287265002E+02  0.15274144811E+04  0.16643992409E+04  0.12699999809E+01 0. -1.
       -4    1    3    3    0  502  0.65819673745E+03 -0.63287265002E+02 -0.20042408605E+04  0.21105002400E+04  0.12699999809E+01 0.  1.
</event>
<event>
 5   0  0.7362817E-08  0.3695516E+04  0.7818609E-02  0.8068956E-01
       -2   -1    0    0    0  501  0.00000000000E+00  0.00000000000E+00  0.15344567284E+04  0.15344567284E+04  0.25500000920E-02 0. -1.
        2   -1    0    0  501    0  0.00000000000E+00  0.00000000000E+00 -0.22250285852E+04  0.22250285852E+04  0.25500000920E-02 0.  1.
    10030    2    1    2    0    0  0.00000000000E+00  0.00000000000E+00 -0.69057185680E+03  0.37594853136E+04  0.36955162473E+04 0.  0.
        1    1    3    3  502    0  0.17699616644E+04 -0.51595786195E+03 -0.47084552591E+03  0.19028064321E+04  0.50400001928E-02 0.  1.
       -1    1    3    3    0  502 -0.17699616644E+04  0.51595786195E+03 -0.21972633089E+03  0.18566788816E+04  0.50400001928E-02 0. -1.
</event>
<event>
 5   0  0.2282000E-08  0.3635002E+04  0.7818609E-02  0.8082521E-01
       -1   -1    0    0    0  501  0.00000000000E+00  0.00000000000E+00  0.23563073316E+04  0.23563073316E+04  0.50400001928E-02 0.  1.
        1   -1    0    0  501    0  0.00000000000E+00  0.00000000000E+00 -0.14019012456E+04  0.14019012456E+04  0.50400001928E-02 0. -1.
    10030    2    1    2    0    0  0.00000000000E+00  0.00000000000E+00  0.95440608607E+03  0.37582085772E+04  0.36350021640E+04 0.  0.
        5    1    3    3  502    0 -0.13847277954E+03  0.27098227499E+03  0.23297740012E+04  0.23495691287E+04  0.46999998093E+01 0.  1.
       -5    1    3    3    0  502  0.13847277954E+03 -0.27098227499E+03 -0.13753679151E+04  0.14086394485E+04  0.46999998093E+01 0. -1.
</event>
<event>
 5   0  0.2282000E-08  0.3702783E+04  0.7818609E-02  0.8067345E-01
       -1   -1    0    0    0  501  0.00000000000E+00  0.00000000000E+00  0.24661417718E+04  0.24661417718E+04  0.50400001928E-02 0. -1.
        1   -1    0    0  501    0  0.00000000000E+00  0.00000000000E+00 -0.13898835150E+04  0.13898835150E+04  0.50400001928E-02 0.  1.
    10030    2    1    2    0    0  0.00000000000E+00  0.00000000000E+00  0.10762582568E+04  0.38560252867E+04  0.37027826262E+04 0.  0.
        1    1    3    3  502    0  0.44790865327E+02  0.18181595881E+04  0.89878448194E+03  0.20286754433E+04  0.50400001928E-02 0. -1.
       -1    1    3    3    0  502 -0.44790865327E+02 -0.18181595881E+04  0.17747377487E+03  0.18273498434E+04  0.50400001928E-02 0.  1.
</event>
<event>
 5   0  0.2282000E-08  0.3701271E+04  0.7818609E-02  0.8067680E-01
        1   -1    0    0  501    0  0.00000000000E+00  0.00000000000E+00  0.25795483735E+04  0.25795483735E+04  0.50400001928E-02 0. -1.
       -1   -1    0    0    0  501  0.00000000000E+00  0.00000000000E+00 -0.13276946614E+04  0.13276946614E+04  0.50400001928E-02 0.  1.
    10030    2    1    2    0    0  0.00000000000E+00  0.00000000000E+00  0.12518537121E+04  0.39072430349E+04  0.37012714595E+04 0.  0.
        1    1    3    3  502    0 -0.60106652664E+03  0.17100091211E+04  0.23172936072E+03  0.18273233595E+04  0.50400001928E-02 0.  1.
       -1    1    3    3    0  502  0.60106652664E+03 -0.17100091211E+04  0.10201243514E+04  0.20799196754E+04  0.50400001928E-02 0. -1.
</event>
<event>
 5   0  0.2282000E-08  0.3696247E+04  0.7818609E-02  0.8068794E-01
        1   -1    0    0  501    0  0.00000000000E+00  0.00000000000E+00  0.17938719365E+04  0.17938719366E+04  0.50400001928E-02 0. -1.
       -1   -1    0    0    0  501  0.00000000000E+00  0.00000000000E+00 -0.19040157542E+04  0.19040157542E+04  0.50400001928E-02 0.  1.
    10030    2    1    2    0    0  0.00000000000E+00  0.00000000000E+00 -0.11014381763E+03  0.36978876907E+04  0.36962469767E+04 0.  0.
        4    1    3    3  502    0 -0.22934861139E+03  0.63573502550E+03  0.16658076139E+04  0.17976864097E+04  0.12699999809E+01 0. -1.
       -4    1    3    3    0  502  0.22934861139E+03 -0.63573502550E+03 -0.17759514316E+04  0.19002012810E+04  0.12699999809E+01 0.  1.
</event>
<event>
 5   0  0.7203049E-08  0.3693532E+04  0.7818609E-02  0.8069397E-01
        2   -1    0    0  501    0  0.00000000000E+00  0.00000000000E+00  0.22828135869E+04  0.22828135869E+04  0.25500000920E-02 0.  1.
       -2   -1    0    0    0  501  0.00000000000E+00  0.00000000000E+00 -0.14940094487E+04  0.14940094487E+04  0.25500000920E-02 0. -1.
    10030    2    1    2    0    0  0.00000000000E+00  0.00000000000E+00  0.78880413822E+03  0.37768230356E+04  0.36935322218E+04 0.  0.
        4    1    3    3  502    0  0.80601795141E+03  0.92078759012E+03 -0.10199107915E+04  0.15930267919E+04  0.12699999809E+01 0. -1.
       -4    1    3    3    0  502 -0.80601795141E+03 -0.92078759012E+03  0.18087149297E+04  0.21837962437E+04  0.12699999809E+01 0.  1.
</event>
<event>
 5   0  0.7254493E-08  0.3701584E+04  0.7818609E-02  0.8067611E-01
       -2   -1    0    0    0  501  0.00000000000E+00  0.00000000000E+00  0.14917994674E+04  0.14917994675E+04  0.25500000920E-02 0. -1.
        2   -1    0    0  501    0  0.00000000000E+00  0.00000000000E+00 -0.22961741126E+04  0.22961741126E+04  0.25500000920E-02 0.  1.
    10030    2    1    2    0    0  0.00000000000E+00  0.00000000000E+00 -0.80437464517E+03  0.37879735801E+04  0.37015841573E+04 0.  0.
        3    1    3    3  502    0 -0.15955558194E+04  0.42154105041E+03  0.45518230791E+03  0.17119246986E+04  0.10100000352E+00 0.  1.
       -3    1    3    3    0  502  0.15955558194E+04 -0.42154105041E+03 -0.12595569531E+04  0.20760488815E+04  0.10100000352E+00 0. -1.
</event>
<event>
 5   0  0.2282000E-08  0.3704954E+04  0.7818609E-02  0.8066865E-01
       -1   -1    0    0    0  501  0.00000000000E+00  0.00000000000E+00  0.30130246599E+04  0.30130246599E+04  0.50400001928E-02 0.  1.
        1   -1    0    0  501    0  0.00000000000E+00  0.00000000000E+00 -0.11389456943E+04  0.11389456944E+04  0.50400001928E-02 0. -1.
    10030    2    1    2    0    0  0.00000000000E+00  0.00000000000E+00  0.18740789656E+04  0.41519703543E+04  0.37049542310E+04 0.  0.
        1    1    3    3  502    0  0.27236190259E+03 -0.17572461664E+04  0.15188911802E+04  0.23386161533E+04  0.50400001928E-02 0.  1.
       -1    1    3    3    0  502 -0.27236190259E+03  0.17572461664E+04  0.35518778541E+03  0.18133542010E+04  0.50400001928E-02 0. -1.
</event>
<event>
 5   0  0.7191801E-08  0.3697663E+04  0.7818609E-02  0.8068480E-01
        2   -1    0    0  501    0  0.00000000000E+00  0.00000000000E+00  0.20794720395E+04  0.20794720395E+04  0.25500000920E-02 0.  1.
       -2   -1    0    0    0  501  0.00000000000E+00  0.00000000000E+00 -0.16437716673E+04  0.16437716673E+04  0.25500000920E-02 0. -1.
    10030    2    1    2    0    0  0.00000000000E+00  0.00000000000E+00  0.43570037220E+03  0.37232437068E+04  0.36976626247E+04 0.  0.
        5    1    3    3  502    0  0.60454355552E+03  0.16318958312E+04  0.84634639300E+03  0.19351695588E+04  0.46999998093E+01 0.  1.
       -5    1    3    3    0  502 -0.60454355552E+03 -0.16318958312E+04 -0.41064602080E+03  0.17880741480E+04  0.46999998093E+01 0. -1.
</event>
<event>
 5   0  0.7254493E-08  0.3710373E+04  0.7818609E-02  0.8065667E-01
        2   -1    0    0  501    0  0.00000000000E+00  0.00000000000E+00  0.26232835305E+04  0.26232835305E+04  0.25500000920E-02 0.  1.
       -2   -1    0    0    0  501  0.00000000000E+00  0.00000000000E+00 -0.13119880228E+04  0.13119880228E+04  0.25500000920E-02 0. -1.
    10030    2    1    2    0    0  0.00000000000E+00  0.00000000000E+00  0.13112955077E+04  0.39352715533E+04  0.37103727966E+04 0.  0.
        3    1    3    3  502    0 -0.16000969565E+03 -0.61373935562E+03  0.25047195105E+04  0.25837761001E+04  0.10100000352E+00 0.  1.
       -3    1    3    3    0  502  0.16000969565E+03  0.61373935562E+03 -0.11934240028E+04  0.13514954532E+04  0.10100000352E+00 0. -1.
</event>
<event>
 5   0  0.7203049E-08  0.3703366E+04  0.7818609E-02  0.8067216E-01
       -2   -1    0    0    0  501  0.00000000000E+00  0.00000000000E+00  0.13935125198E+04  0.13935125198E+04  0.25500000920E-02 0.  1.
        2   -1    0    0  501    0  0.00000000000E+00  0.00000000000E+00 -0.24604949019E+04  0.24604949019E+04  0.25500000920E-02 0. -1.
    10030    2    1    2    0    0  0.00000000000E+00  0.00000000000E+00 -0.10669823822E+04  0.38540074217E+04  0.37033662799E+04 0.  0.
        4    1    3    3  502    0 -0.15254571781E+04  0.10022298602E+04 -0.20896593726E+03  0.18371588584E+04  0.12699999809E+01 0. -1.
       -4    1    3    3    0  502  0.15254571781E+04 -0.10022298602E+04 -0.85801644489E+03  0.20168485634E+04  0.12699999809E+01 0.  1.
</event>
<event>
 5   0  0.7309833E-08  0.3696709E+04  0.7818609E-02  0.8068692E-01
        2   -1    0    0  501    0  0.00000000000E+00  0.00000000000E+00  0.28629917473E+04  0.28629917473E+04  0.25500000920E-02 0.  1.
       -2   -1    0    0    0  501  0.00000000000E+00  0.00000000000E+00 -0.11933021546E+04  0.11933021546E+04  0.25500000920E-02 0. -1.
    10030    2    1    2    0    0  0.00000000000E+00  0.00000000000E+00  0.16696895928E+04  0.40562939019E+04  0.36967089259E+04 0.  0.
        2    1    3    3  502    0  0.16216054500E+04  0.68520916869E+03  0.21675996438E+03  0.17737250978E+04  0.25500000920E-02 0. -1.
       -2    1    3    3    0  502 -0.16216054500E+04 -0.68520916869E+03  0.14529296284E+04  0.22825688041E+04  0.25500000920E-02 0.  1.
</event>
<event>
 5   0  0.7309833E-08  0.3691873E+04  0.7818609E-02  0.8069765E-01
        2   -1    0    0  501    0  0.00000000000E+00  0.00000000000E+00  0.24025856383E+04  0.24025856383E+04  0.25500000920E-02 0.  1.
       -2   -1    0    0    0  501  0.00000000000E+00  0.00000000000E+00 -0.14182563636E+04  0.14182563636E+04  0.25500000920E-02 0. -1.
    10030    2    1    2    0    0  0.00000000000E+00  0.00000000000E+00  0.98432927469E+03  0.38208420019E+04  0.36918734380E+04 0.  0.
        2    1    3    3  502    0 -0.13695431773E+03 -0.17213094428E+04 -0.18317951422E+03  0.17364381410E+04  0.25500000920E-02 0. -1.
       -2    1    3    3    0  502  0.13695431773E+03  0.17213094428E+04  0.11675087889E+04  0.20844038609E+04  0.25500000920E-02 0.  1.
</event>
<event>
 5   0  0.7309833E-08  0.3702558E+04  0.7818609E-02  0.8067395E-01
       -2   -1    0    0    0  501  0.00000000000E+00  0.00000000000E+00  0.14138823998E+04  0.14138823998E+04  0.25500000920E-02 0. -1.
        2   -1    0    0  501    0  0.00000000000E+00  0.00000000000E+00 -0.24239882087E+04  0.24239882087E+04  0.25500000920E-02 0.  1.
    10030    2    1    2    0    0  0.00000000000E+00  0.00000000000E+00 -0.10101058089E+04  0.38378706085E+04  0.37025581781E+04 0.  0.
        2    1    3    3  502    0  0.52342599356E+03  0.13501148621E+04 -0.17006575968E+04  0.22336116881E+04  0.25500000920E-02 0.  1.
       -2    1    3    3    0  502 -0.52342599356E+03 -0.13501148621E+04  0.69055178794E+03  0.16042589204E+04  0.25500000920E-02 0. -1.
</event>
<event>
 5   0  0.7254493E-08  0.3708589E+04  0.7818609E-02  0.8066061E-01
        2   -1    0    0  501    0  0.00000000000E+00  0.00000000000E+00  0.19599504266E+04  0.19599504266E+04  0.25500000920E-02 0. -1.
       -2   -1    0    0    0  501  0.00000000000E+00  0.00000000000E+00 -0.17543343784E+04  0.17543343784E+04  0.25500000920E-02 0.  1.
    10030    2    1    2    0    0  0.00000000000E+00  0.00000000000E+00  0.20561604817E+03  0.37142848051E+04  0.37085891730E+04 0.  0.
        3    1    3    3  502    0 -0.35507257751E+03 -0.11024720147E+04 -0.13474792054E+04  0.17768571405E+04  0.10100000352E+00 0.  1.
       -3    1    3    3    0  502  0.35507257751E+03  0.11024720147E+04  0.15530952536E+04  0.19374276646E+04  0.10100000352E+00 0. -1.
</event>
<event>
 5   0  0.7203049E-08  0.3706674E+04  0.7818609E-02  0.8066484E-01
       -2   -1    0    0    0  501  0.00000000000E+00  0.00000000000E+00  0.24841162485E+04  0.24841162485E+04  0.25500000920E-02 0.  1.
        2   -1    0    0  501    0  0.00000000000E+00  0.00000000000E+00 -0.13827281743E+04  0.13827281743E+04  0.25500000920E-02 0. -1.
    10030    2    1    2    0    0  0.00000000000E+00  0.00000000000E+00  0.11013880742E+04  0.38668444229E+04  0.37066737246E+04 0.  0.
        4    1    3    3  502    0 -0.31655087722E+03 -0.70661997757E+03  0.23073021581E+04  0.24337545300E+04  0.12699999809E+01 0.  1.
       -4    1    3    3    0  502  0.31655087722E+03  0.70661997757E+03 -0.12059140839E+04  0.14330898929E+04  0.12699999809E+01 0. -1.
</event>
<event>
 5   0  0.7362817E-08  0.3722496E+04  0.7818609E-02  0.8062995E-01
       -2   -1    0    0    0  501  0.00000000000E+00  0.00000000000E+00  0.21662609913E+04  0.21662609913E+04  0.25500000920E-02 0.  1.
        2   -1    0    0  501    0  0.00000000000E+00  0.00000000000E+00 -0.15991810525E+04  0.15991810525E+04  0.25500000920E-02 0. -1.
    10030    2    1    2    0    0  0.00000000000E+00  0.00000000000E+00  0.56707993881E+03  0.37654420438E+04  0.37224956855E+04 0.  0.
        1    1    3    3  502    0  0.14783677180E+04 -0.93734029175E+03  0.92334458577E+03  0.19790763391E+04  0.50400001928E-02 0.  1.
       -1    1    3    3    0  502 -0.14783677180E+04  0.93734029175E+03 -0.35626464696E+03  0.17863657047E+04  0.50400001928E-02 0. -1.
</event>
<event>
 5   0  0.2282000E-08  0.3694794E+04  0.7818609E-02  0.8069116E-01
       -1   -1    0    0    0  501  0.00000000000E+00  0.00000000000E+00  0.18764267472E+04  0.18764267472E+04  0.50400001928E-02 0.  1.
        1   -1    0    0  501    0  0.00000000000E+00  0.00000000000E+00 -0.18188166613E+04  0.18188166613E+04  0.50400001928E-02 0. -1.
    10030    2    1    2    0    0  0.00000000000E+00  0.00000000000E+00  0.57610085969E+02  0.36952434085E+04  0.36947943009E+04 0.  0.
        1    1    3    3  502    0 -0.12862300236E+04 -0.12154464497E+04 -0.50152206840E+03  0.18393537265E+04  0.50400001928E-02 0. -1.
       -1    1    3    3    0  502  0.12862300236E+04  0.12154464497E+04  0.55913215436E+03  0.18558896821E+04  0.50400001928E-02 0.  1.
</event>
<event>
 5   0  0.2282000E-08  0.3683397E+04  0.7818609E-02  0.8071651E-01
        1   -1    0    0  501    0  0.00000000000E+00  0.00000000000E+00  0.16750954272E+04  0.16750954272E+04  0.50400001928E-02 0.  1.
       -1   -1    0    0    0  501  0.00000000000E+00  0.00000000000E+00 -0.20248722660E+04  0.20248722660E+04  0.50400001928E-02 0. -1.
    10030    2    1    2    0    0  0.00000000000E+00  0.00000000000E+00 -0.34977683880E+03  0.36999676932E+04  0.36833974933E+04 0.  0.
        3    1    3    3  502    0 -0.46419286522E+02 -0.17985115641E+04  0.22065409048E+03  0.18125911934E+04  0.10100000352E+00 0. -1.
       -3    1    3    3    0  502  0.46419286522E+02  0.17985115641E+04 -0.57043092929E+03  0.18873764998E+04  0.10100000352E+00 0.  1.
</event>
<event>
 5   0  0.2282000E-08  0.3709222E+04  0.7818609E-02  0.8065921E-01
       -1   -1    0    0    0  501  0.00000000000E+00  0.00000000000E+00  0.17281119629E+04  0.17281119629E+04  0.50400001928E-02 0.  1.
        1   -1    0    0  501    0  0.00000000000E+00  0.00000000000E+00 -0.19903694123E+04  0.19903694123E+04  0.50400001928E-02 0. -1.
    10030    2    1    2    0    0  0.00000000000E+00  0.00000000000E+00 -0.26225744945E+03  0.37184813752E+04  0.37092215852E+04 0.  0.
        1    1    3    3  502    0  0.36433053702E+03  0.18184252428E+04 -0.11790153345E+03  0.18583077989E+04  0.50400001928E-02 0.  1.
       -1    1    3    3    0  502 -0.36433053702E+03 -0.18184252428E+04 -0.14435591600E+03  0.18601735764E+04  0.50400001928E-02 0. -1.
</event>
<event>
 5   0  0.7203049E-08  0.3697193E+04  0.7818609E-02  0.8068584E-01
        2   -1    0    0  501    0  0.00000000000E+00  0.00000000000E+00  0.23242632006E+04  0.23242632006E+04  0.25500000920E-02 0.  1.
       -2   -1    0    0    0  501  0.00000000000E+00  0.00000000000E+00 -0.14702765263E+04  0.14702765263E+04  0.25500000920E-02 0. -1.
    10030    2    1    2    0    0  0.00000000000E+00  0.00000000000E+00  0.85398667432E+03  0.37945397270E+04  0.36971933273E+04 0.  0.
        4    1    3    3  502    0 -0.14212698338E+04 -0.34945126388E+03 -0.73197975076E+03  0.16364351789E+04  0.12699999809E+01 0. -1.
       -4    1    3    3    0  502  0.14212698338E+04  0.34945126388E+03  0.15859664251E+04  0.21581045481E+04  0.12699999809E+01 0.  1.
</event>
<event>
 5   0  0.7309833E-08  0.3720173E+04  0.7818609E-02  0.8063506E-01
       -2   -1    0    0    0  501  0.00000000000E+00  0.00000000000E+00  0.11439535171E+04  0.11439535171E+04  0.25500000920E-02 0.  1.
        2   -1    0    0  501    0  0.00000000000E+00  0.00000000000E+00 -0.30245301525E+04  0.30245301525E+04  0.25500000920E-02 0. -1.
    10030    2    1    2    0    0  0.00000000000E+00  0.00000000000E+00 -0.18805766354E+04  0.41684836696E+04  0.37201730634E+04 0.  0.
        2    1    3    3  502    0 -0.56443049078E+03  0.11214596093E+04 -0.24781497125E+04  0.27780351747E+04  0.25500000920E-02 0. -1.
       -2    1    3    3    0  502  0.56443049078E+03 -0.11214596093E+04  0.59757307715E+03  0.13904484948E+04  0.25500000920E-02 0.  1.
</event>
<event>
 5   0  0.7309833E-08  0.3695226E+04  0.7818609E-02  0.8069021E-01
        2   -1    0    0  501    0  0.00000000000E+00  0.00000000000E+00  0.24015816680E+04  0.24015816680E+04  0.25500000920E-02 0.  1.
       -2   -1    0    0    0  501  0.00000000000E+00  0.00000000000E+00 -0.14214270056E+04  0.14214270056E+04  0.25500000920E-02 0. -1.
    10030    2    1    2    0    0  0.00000000000E+00  0.00000000000E+00  0.98015466242E+03  0.38230086737E+04  0.36952255894E+04 0.  0.
        2    1    3    3  502    0  0.77581792847E+03  0.56703144889E+03  0.21227015316E+04  0.23300815253E+04  0.25500000920E-02 0.  1.
       -2    1    3    3    0  502 -0.77581792847E+03 -0.56703144889E+03 -0.11425468692E+04  0.14929271484E+04  0.25500000920E-02 0. -1.
</event>
<event>
 5   0  0.7362817E-08  0.3698039E+04  0.7818609E-02  0.8068396E-01
        2   -1    0    0  501    0  0.00000000000E+00  0.00000000000E+00  0.21130300733E+04  0.21130300733E+04  0.25500000920E-02 0. -1.
       -2   -1    0    0    0  501  0.00000000000E+00  0.00000000000E+00 -0.16179957265E+04  0.16179957266E+04  0.25500000920E-02 0.  1.
    10030    2    1    2    0    0  0.00000000000E+00  0.00000000000E+00  0.49503434675E+03  0.37310257998E+04  0.36980392798E+04 0.  0.
        1    1    3    3  502    0 -0.47108641304E+03  0.79973885539E+03 -0.13659250909E+04  0.16514405830E+04  0.50400001928E-02 0.  1.
       -1    1    3    3    0  502  0.47108641304E+03 -0.79973885539E+03  0.18609594376E+04  0.20795852168E+04  0.50400001928E-02 0. -1.
</event>
<event>
 5   0  0.7191801E-08  0.3701436E+04  0.7818609E-02  0.8067644E-01
        2   -1    0    0  501    0  0.00000000000E+00  0.00000000000E+00  0.23271096929E+04  0.23271096929E+04  0.25500000920E-02 0. -1.
       -2   -1    0    0    0  501  0.00000000000E+00  0.00000000000E+00 -0.14718500379E+04  0.14718500379E+04  0.25500000920E-02 0.  1.
    10030    2    1    2    0    0  0.00000000000E+00  0.00000000000E+00  0.85525965498E+03  0.37989597308E+04  0.37014356618E+04 0.  0.
        5    1    3    3  502    0 -0.23499267387E+01  0.15382077704E+04  0.14838436395E+04  0.21372652394E+04  0.46999998093E+01 0. -1.
       -5    1    3    3    0  502  0.23499267387E+01 -0.15382077704E+04 -0.62858398450E+03  0.16616944914E+04  0.46999998093E+01 0.  1.
</event>
<event>
 5   0  0.2282000E-08  0.3696126E+04  0.7818609E-02  0.8068821E-01
        1   -1    0    0  501    0  0.00000000000E+00  0.00000000000E+00  0.24427791102E+04  0.24427791102E+04  0.50400001928E-02 0. -1.
       -1   -1    0    0    0  501  0.00000000000E+00  0.00000000000E+00 -0.13981360003E+04  0.13981360004E+04  0.50400001928E-02 0.  1.
    10030    2    1    2    0    0  0.00000000000E+00  0.00000000000E+00  0.10446431099E+04  0.38409151106E+04  0.36961263046E+04 0.  0.
        2    1    3    3  502    0  0.11637085107E+04  0.14155802415E+04  0.77096964095E+03  0.19880842803E+04  0.25500000920E-02 0.  1.
       -2    1    3    3    0  502 -0.11637085107E+04 -0.14155802415E+04  0.27367346892E+03  0.18528308303E+04  0.25500000920E-02 0. -1.
</event>
<event>
 5   0  0.2282000E-08  0.3694982E+04  0.7818609E-02  0.8069075E-01
       -1   -1    0    0    0  501  0.00000000000E+00  0.00000000000E+00  0.13660744788E+04  0.13660744788E+04  0.50400001928E-02 0. -1.
        1   -1    0    0  501    0  0.00000000000E+00  0.00000000000E+00 -0.24985629764E+04  0.24985629764E+04  0.50400001928E-02 0.  1.
    10030    2    1    2    0    0  0.00000000000E+00  0.00000000000E+00 -0.11324884976E+04  0.38646374553E+04  0.36949820654E+04 0.  0.
        3    1    3    3  502    0  0.10787074714E+04  0.12483995678E+03  0.99705009768E+03  0.14742129192E+04  0.10100000352E+00 0. -1.
       -3    1    3    3    0  502 -0.10787074714E+04 -0.12483995678E+03 -0.21295385953E+04  0.23904245361E+04  0.10100000352E+00 0.  1.
</event>
<event>
 5   0  0.2282000E-08  0.3698282E+04  0.7818609E-02  0.8068343E-01
        1   -1    0    0  501    0  0.00000000000E+00  0.00000000000E+00  0.17973262857E+04  0.17973262857E+04  0.50400001928E-02 0. -1.
       -1   -1    0    0    0  501  0.00000000000E+00  0.00000000000E+00 -0.19024497304E+04  0.19024497304E+04  0.50400001928E-02 0.  1.
    10030    2    1    2    0    0  0.00000000000E+00  0.00000000000E+00 -0.10512344471E+03  0.36997760160E+04  0.36982822540E+04 0.  0.
        1    1    3    3  502    0 -0.59905693551E+03 -0.80043756475E+03 -0.16087456787E+04  0.18941045815E+04  0.50400001928E-02 0.  1.
       -1    1    3    3    0  502  0.59905693551E+03  0.80043756475E+03  0.15036222339E+04  0.18056714345E+04  0.50400001928E-02 0. -1.
</event>
<event>
 5   0  0.2282000E-08  0.3710288E+04  0.7818609E-02  0.8065686E-01
       -1   -1    0    0    0  501  0.00000000000E+00  0.00000000000E+00  0.12378988757E+04  0.12378988757E+04  0.50400001928E-02 0. -1.
        1   -1    0    0  501    0  0.00000000000E+00  0.00000000000E+00 -0.27801624082E+04  0.27801624083E+04  0.50400001928E-02 0.  1.
    10030    2    1    2    0    0  0.00000000000E+00  0.00000000000E+00 -0.15422635326E+04  0.40180612839E+04  0.37102883550E+04 0.  0.
        2    1    3    3  502    0  0.10162936671E+04 -0.90820928331E+02  0.90672934650E+03  0.13650125885E+04  0.25500000920E-02 0. -1.
       -2    1    3    3    0  502 -0.10162936671E+04  0.90820928331E+02 -0.24489928791E+04  0.26530486955E+04  0.25500000920E-02 0.  1.
</event>
<event>
 5   0  0.7254493E-08  0.3705923E+04  0.7818609E-02  0.8066651E-01
       -2   -1    0    0    0  501  0.00000000000E+00  0.00000000000E+00  0.23231288578E+04  0.23231288578E+04  0.25500000920E-02 0. -1.
        2   -1    0    0  501    0  0.00000000000E+00  0.00000000000E+00 -0.14779487517E+04  0.14779487517E+04  0.25500000920E-02 0.  1.
    10030    2    1    2    0    0  0.00000000000E+00  0.00000000000E+00  0.84518010604E+03  0.38010776095E+04  0.37059225008E+04 0.  0.
        3    1    3    3  502    0 -0.83346250235E+02  0.13653379817E+04 -0.85945263571E+03  0.16154730716E+04  0.10100000352E+00 0.  1.
       -3    1    3    3    0  502  0.83346250235E+02 -0.13653379817E+04  0.17046327418E+04  0.21856045379E+04  0.10100000352E+00 0. -1.
</event>
<event>
 5   0  0.2282000E-08  0.3674215E+04  0.7818609E-02  0.8073700E-01
        1   -1    0    0  501    0  0.00000000000E+00  0.00000000000E+00  0.24561059688E+04  0.24561059688E+04  0.50400001928E-02 0. -1.
       -1   -1    0    0    0  501  0.00000000000E+00  0.00000000000E+00 -0.13741120404E+04  0.13741120404E+04  0.50400001928E-02 0.  1.
    10030    2    1    2    0    0  0.00000000000E+00  0.00000000000E+00  0.10819939284E+04  0.38302180092E+04  0.36742154451E+04 0.  0.
        2    1    3    3  502    0  0.15517059324E+04 -0.34541368292E+03  0.15008874436E+04  0.21862673742E+04  0.25500000920E-02 0. -1.
       -2    1    3    3    0  502 -0.15517059324E+04  0.34541368292E+03 -0.41889351525E+03  0.16439506350E+04  0.25500000920E-02 0.  1.
</event>
<event>
 5   0  0.7191801E-08  0.3707065E+04  0.7818609E-02  0.8066398E-01
       -2   -1    0    0    0  501  0.00000000000E+00  0.00000000000E+00  0.16582156123E+04  0.16582156123E+04  0.25500000920E-02 0.  1.
        2   -1    0    0  501    0  0.00000000000E+00  0.00000000000E+00 -0.20718553323E+04  0.20718553323E+04  0.25500000920E-02 0. -1.
    10030    2    1    2    0    0  0.00000000000E+00  0.00000000000E+00 -0.41363972001E+03  0.37300709446E+04  0.37070650701E+04 0.  0.
        5    1    3    3  502    0 -0.82034456528E+03  0.98073036161E+03  0.11434333701E+04  0.17153014924E+04  0.46999998093E+01 0.  1.
       -5    1    3    3    0  502  0.82034456528E+03 -0.98073036161E+03 -0.15570730901E+04  0.20147694523E+04  0.46999998093E+01 0. -1.
</event>
<event>
 5   0  0.7362817E-08  0.3707037E+04  0.7818609E-02  0.8066404E-01
        2   -1    0    0  501    0  0.00000000000E+00  0.00000000000E+00  0.21845853459E+04  0.21845853459E+04  0.25500000920E-02 0. -1.
       -2   -1    0    0    0  501  0.00000000000E+00  0.00000000000E+00 -0.15726239889E+04  0.15726239889E+04  0.25500000920E-02 0.  1.
    10030    2    1    2    0    0  0.00000000000E+00  0.00000000000E+00  0.61196135699E+03  0.37572093347E+04  0.37070372648E+04 0.  0.
        1    1    3    3  502    0  0.74620391304E+03 -0.16614221657E+03 -0.14053946245E+04  0.15998617336E+04  0.50400001928E-02 0.  1.
       -1    1    3    3    0  502 -0.74620391304E+03  0.16614221657E+03  0.20173559815E+04  0.21573476011E+04  0.50400001928E-02 0. -1.
</event>
<event>
 5   0  0.2282000E-08  0.3691670E+04  0.7818609E-02  0.8069810E-01
       -1   -1    0    0    0  501  0.00000000000E+00  0.00000000000E+00  0.14250741701E+04  0.14250741701E+04  0.50400001928E-02 0.  1.
        1   -1    0    0  501    0  0.00000000000E+00  0.00000000000E+00 -0.23908277683E+04  0.23908277684E+04  0.50400001928E-02 0. -1.
    10030    2    1    2    0    0  0.00000000000E+00  0.00000000000E+00 -0.96575359824E+03  0.38159019385E+04  0.36916700274E+04 0.  0.
        5    1    3    3  502    0 -0.62718361090E+02  0.77092516447E+02  0.14223004931E+04  0.14257761506E+04  0.46999998093E+01 0.  1.
       -5    1    3    3    0  502  0.62718361090E+02 -0.77092516447E+02 -0.23880540913E+04  0.23901257879E+04  0.46999998093E+01 0. -1.
</event>
<event>
 5   0  0.2282000E-08  0.3698896E+04  0.7818609E-02  0.8068207E-01
       -1   -1    0    0    0  501  0.00000000000E+00  0.00000000000E+00  0.14779003424E+04  0.14779003424E+04  0.50400001928E-02 0.  1.
        1   -1    0    0  501    0  0.00000000000E+00  0.00000000000E+00 -0.23144031877E+04  0.23144031877E+04  0.50400001928E-02 0. -1.
    10030    2    1    2    0    0  0.00000000000E+00  0.00000000000E+00 -0.83650284536E+03  0.37923035301E+04  0.36988956533E+04 0.  0.
        3    1    3    3  502    0  0.13831027518E+04  0.92269545848E+03 -0.12487171154E+04  0.20793351283E+04  0.10100000352E+00 0. -1.
       -3    1    3    3    0  502 -0.13831027518E+04 -0.92269545848E+03  0.41221427004E+03  0.17129684018E+04  0.10100000352E+00 0.  1.
</event>
<event>
 5   0  0.2282000E-08  0.3704258E+04  0.7818609E-02  0.8067019E-01
       -1   -1    0    0    0  501  0.00000000000E+00  0.00000000000E+00  0.10427828863E+04  0.10427828863E+04  0.50400001928E-02 0. -1.
        1   -1    0    0  501    0  0.00000000000E+00  0.00000000000E+00 -0.32896406611E+04  0.32896406611E+04  0.50400001928E-02 0.  1.
    10030    2    1    2    0    0  0.00000000000E+00  0.00000000000E+00 -0.22468577748E+04  0.43324235475E+04  0.37042575416E+04 0.  0.
        1    1    3    3  502    0 -0.10120038686E+04  0.13690181501E+04 -0.27034235865E+03  0.17237887099E+04  0.50400001928E-02 0. -1.
       -1    1    3    3    0  502  0.10120038686E+04 -0.13690181501E+04 -0.19765154161E+04  0.26086348376E+04  0.50400001928E-02 0.  1.
</event>
<event>
 5   0  0.2282000E-08  0.3698046E+04  0.7818609E-02  0.8068395E-01
       -1   -1    0    0    0  501  0.00000000000E+00  0.00000000000E+00  0.14543506118E+04  0.14543506118E+04  0.50400001928E-02 0. -1.
        1   -1    0    0  501    0  0.00000000000E+00  0.00000000000E+00 -0.23507988124E+04  0.23507988124E+04  0.50400001928E-02 0.  1.
    10030    2    1    2    0    0  0.00000000000E+00  0.00000000000E+00 -0.89644820062E+03  0.38051494242E+04  0.36980458034E+04 0.  0.
        5    1    3    3  502    0  0.11679934073E+04 -0.10237362198E+04 -0.14805861345E+04  0.21457869975E+04  0.46999998093E+01 0. -1.
       -5    1    3    3    0  502 -0.11679934073E+04  0.10237362198E+04  0.58413793389E+03  0.16593624266E+04  0.46999998093E+01 0.  1.
</event>
<event>
 5   0  0.7309833E-08  0.3695976E+04  0.7818609E-02  0.8068854E-01
       -2   -1    0    0    0  501  0.00000000000E+00  0.00000000000E+00  0.17557575102E+04  0.17557575102E+04  0.25500000920E-02 0. -1.
        2   -1    0    0  501    0  0.00000000000E+00  0.00000000000E+00 -0.19450637416E+04  0.19450637416E+04  0.25500000920E-02 0.  1.
    10030    2    1    2    0    0  0.00000000000E+00  0.00000000000E+00 -0.18930623137E+03  0.37008212519E+04  0.36959763377E+04 0.  0.
        2    1    3    3  502    0  0.15198705939E+04 -0.64029351993E+03  0.74015306236E+03  0.18077082092E+04  0.25500000920E-02 0. -1.
       -2    1    3    3    0  502 -0.15198705939E+04  0.64029351993E+03 -0.92945929373E+03  0.18931130427E+04  0.25500000920E-02 0.  1.
</event>
<event>
 5   0  0.2282000E-08  0.3670607E+04  0.7818609E-02  0.8074507E-01
       -1   -1    0    0    0  501  0.00000000000E+00  0.00000000000E+00  0.17705542727E+04  0.17705542727E+04  0.50400001928E-02 0.  1.
        1   -1    0    0  501    0  0.00000000000E+00  0.00000000000E+00 -0.19024207542E+04  0.19024207542E+04  0.50400001928E-02 0. -1.
    10030    2    1    2    0    0  0.00000000000E+00  0.00000000000E+00 -0.13186648151E+03  0.36729750269E+04  0.36706071404E+04 0.  0.
        2    1    3    3  502    0 -0.10109212235E+04 -0.14814197234E+04  0.32389871904E+03  0.18224918373E+04  0.25500000920E-02 0. -1.
       -2    1    3    3    0  502  0.10109212235E+04  0.14814197234E+04 -0.45576520055E+03  0.18504831896E+04  0.25500000920E-02 0.  1.
</event>
<event>
 5   0  0.7191801E-08  0.3703428E+04  0.7818609E-02  0.8067203E-01
       -2   -1    0    0    0  501  0.00000000000E+00  0.00000000000E+00  0.17344453605E+04  0.17344453605E+04  0.25500000920E-02 0.  1.
        2   -1    0    0  501    0  0.00000000000E+00  0.00000000000E+00 -0.19769110083E+04  0.19769110083E+04  0.25500000920E-02 0. -1.
    10030    2    1    2    0    0  0.00000000000E+00  0.00000000000E+00 -0.24246564773E+03  0.37113563688E+04  0.37034276699E+04 0.  0.
        5    1    3    3  502    0 -0.26763537365E+03 -0.10435459294E+04 -0.16305133384E+04  0.19542805931E+04  0.46999998093E+01 0. -1.
       -5    1    3    3    0  502  0.26763537365E+03  0.10435459294E+04  0.13880476906E+04  0.17570757757E+04  0.46999998093E+01 0.  1.
</event>
<event>
 5   0  0.2282000E-08  0.3698732E+04  0.7818609E-02  0.8068243E-01
       -1   -1    0    0    0  501  0.00000000000E+00  0.00000000000E+00  0.17967929206E+04  0.17967929206E+04  0.50400001928E-02 0.  1.
        1   -1    0    0  501    0  0.00000000000E+00  0.00000000000E+00 -0.19034777010E+04  0.19034777010E+04  0.50400001928E-02 0. -1.
    10030    2    1    2    0    0  0.00000000000E+00  0.00000000000E+00 -0.10668478039E+03  0.37002706217E+04  0.36987323546E+04 0.  0.
        1    1    3    3  502    0 -0.10071641742E+04  0.12393705551E+04 -0.98632673700E+03  0.18770347569E+04  0.50400001928E-02 0. -1.
       -1    1    3    3    0  502  0.10071641742E+04 -0.12393705551E+04  0.87964195661E+03  0.18232358647E+04  0.50400001928E-02 0.  1.
</event>
<event>
 5   0  0.7254493E-08  0.3698438E+04  0.7818609E-02  0.8068308E-01
        2   -1    0    0  501    0  0.00000000000E+00  0.00000000000E+00  0.11505633930E+04  0.11505633930E+04  0.25500000920E-02 0.  1.
       -2   -1    0    0    0  501  0.00000000000E+00  0.00000000000E+00 -0.29721182271E+04  0.29721182271E+04  0.25500000920E-02 0. -1.
    10030    2    1    2    0    0  0.00000000000E+00  0.00000000000E+00 -0.18215548341E+04  0.41226816202E+04  0.36984377415E+04 0.  0.
        3    1    3    3  502    0 -0.32085363088E+02  0.11656670598E+04 -0.25106085508E+04  0.27682060022E+04  0.10100000352E+00 0. -1.
       -3    1    3    3    0  502  0.32085363088E+02 -0.11656670598E+04  0.68905371678E+03  0.13544756180E+04  0.10100000352E+00 0.  1.
</event>
<event>
 5   0  0.7191801E-08  0.3702035E+04  0.7818609E-02  0.8067511E-01
        2   -1    0    0  501    0  0.00000000000E+00  0.00000000000E+00  0.21590183055E+04  0.21590183055E+04  0.25500000920E-02 0. -1.
       -2   -1    0    0    0  501  0.00000000000E+00  0.00000000000E+00 -0.15869557539E+04  0.15869557539E+04  0.25500000920E-02 0.  1.
    10030    2    1    2    0    0  0.00000000000E+00  0.00000000000E+00  0.57206255154E+03  0.37459740594E+04  0.37020353984E+04 0.  0.
        5    1    3    3  502    0  0.36727800128E+03 -0.15245364707E+04 -0.70907356317E+03  0.17210206241E+04  0.46999998093E+01 0.  1.
       -5    1    3    3    0  502 -0.36727800128E+03  0.15245364707E+04  0.12811361147E+04  0.20249534353E+04  0.46999998093E+01 0. -1.
</event>
<event>
 5   0  0.7191801E-08  0.3694767E+04  0.7818609E-02  0.8069123E-01
       -2   -1    0    0    0  501  0.00000000000E+00  0.00000000000E+00  0.20048303781E+04  0.20048303781E+04  0.25500000920E-02 0.  1.
        2   -1    0    0  501    0  0.00000000000E+00  0.00000000000E+00 -0.17023012208E+04  0.17023012208E+04  0.25500000920E-02 0. -1.
    10030    2    1    2    0    0  0.00000000000E+00  0.00000000000E+00  0.30252915734E+03  0.37071315989E+04  0.36947666774E+04 0.  0.
        5    1    3    3  502    0  0.32062308672E+03  0.34784749157E+03 -0.16404905572E+04  0.17073454248E+04  0.46999998093E+01 0. -1.
       -5    1    3    3    0  502 -0.32062308672E+03 -0.34784749157E+03  0.19430197146E+04  0.19997861741E+04  0.46999998093E+01 0.  1.
</event>
<event>
 5   0  0.7254493E-08  0.3706792E+04  0.7818609E-02  0.8066458E-01
        2   -1    0    0  501    0  0.00000000000E+00  0.00000000000E+00  0.18744296037E+04  0.18744296037E+04  0.25500000920E-02 0. -1.
       -2   -1    0    0    0  501  0.00000000000E+00  0.00000000000E+00 -0.18325987645E+04  0.18325987645E+04  0.25500000920E-02 0.  1.
    10030    2    1    2    0    0  0.00000000000E+00  0.00000000000E+00  0.41830839249E+02  0.37070283682E+04  0.37067923469E+04 0.  0.
        3    1    3    3  502    0  0.21511824304E+03  0.17957189365E+04  0.42615105287E+03  0.18580869429E+04  0.10100000352E+00 0. -1.
       -3    1    3    3    0  502 -0.21511824304E+03 -0.17957189365E+04 -0.38432021362E+03  0.18489414253E+04  0.10100000352E+00 0.  1.
</event>
<event>
 5   0  0.2282000E-08  0.3707794E+04  0.7818609E-02  0.8066237E-01
        1   -1    0    0  501    0  0.00000000000E+00  0.00000000000E+00  0.17779860835E+04  0.17779860835E+04  0.50400001928E-02 0. -1.
       -1   -1    0    0    0  501  0.00000000000E+00  0.00000000000E+00 -0.19330491866E+04  0.19330491866E+04  0.50400001928E-02 0.  1.
    10030    2    1    2    0    0  0.00000000000E+00  0.00000000000E+00 -0.15506310311E+03  0.37110352700E+04  0.37077942512E+04 0.  0.
        1    1    3    3  502    0  0.14916205644E+04  0.10601949172E+04  0.21935777751E+03  0.18431123149E+04  0.50400001928E-02 0.  1.
       -1    1    3    3    0  502 -0.14916205644E+04 -0.10601949172E+04 -0.37442088062E+03  0.18679229552E+04  0.50400001928E-02 0. -1.
</event>
<event>
 5   0  0.2282000E-08  0.3694008E+04  0.7818609E-02  0.8069291E-01
        1   -1    0    0  501    0  0.00000000000E+00  0.00000000000E+00  0.27126183151E+04  0.27126183151E+04  0.50400001928E-02 0.  1.
       -1   -1    0    0    0  501  0.00000000000E+00  0.00000000000E+00 -0.12576127649E+04  0.12576127649E+04  0.50400001928E-02 0. -1.
    10030    2    1    2    0    0  0.00000000000E+00  0.00000000000E+00  0.14550055502E+04  0.39702310800E+04  0.36940078069E+04 0.  0.
        4    1    3    3  502    0 -0.18109683350E+04 -0.29718796106E+03  0.95165172290E+03  0.20672613790E+04  0.12699999809E+01 0. -1.
       -4    1    3    3    0  502  0.18109683350E+04  0.29718796106E+03  0.50335382732E+03  0.19029697010E+04  0.12699999809E+01 0.  1.
</event>
<event>
 5   0  0.2282000E-08  0.3694079E+04  0.7818609E-02  0.8069275E-01
        1   -1    0    0  501    0  0.00000000000E+00  0.00000000000E+00  0.12487008655E+04  0.12487008655E+04  0.50400001928E-02 0. -1.
       -1   -1    0    0    0  501  0.00000000000E+00  0.00000000000E+00 -0.27320841391E+04  0.27320841391E+04  0.50400001928E-02 0.  1.
    10030    2    1    2    0    0  0.00000000000E+00  0.00000000000E+00 -0.14833832736E+04  0.39807850046E+04  0.36940794951E+04 0.  0.
        5    1    3    3  502    0  0.10444908920E+04  0.11741348535E+04 -0.17875750963E+04  0.23801261926E+04  0.46999998093E+01 0. -1.
       -5    1    3    3    0  502 -0.10444908920E+04 -0.11741348535E+04  0.30419182272E+03  0.16006588120E+04  0.46999998093E+01 0.  1.
</event>
<event>
 5   0  0.7309833E-08  0.3698422E+04  0.7818609E-02  0.8068312E-01
       -2   -1    0    0    0  501  0.00000000000E+00  0.00000000000E+00  0.29939761316E+04  0.29939761316E+04  0.25500000920E-02 0.  1.
        2   -1    0    0  501    0  0.00000000000E+00  0.00000000000E+00 -0.11421538289E+04  0.11421538289E+04  0.25500000920E-02 0. -1.
    10030    2    1    2    0    0  0.00000000000E+00  0.00000000000E+00  0.18518223027E+04  0.41361299605E+04  0.36984219890E+04 0.  0.
        2    1    3    3  502    0  0.99342115763E+03 -0.18488302491E+03 -0.80609264683E+03  0.12926146698E+04  0.25500000920E-02 0. -1.
       -2    1    3    3    0  502 -0.99342115763E+03  0.18488302491E+03  0.26579149495E+04  0.28435152906E+04  0.25500000920E-02 0.  1.
</event>
<event>
 5   0  0.2282000E-08  0.3699285E+04  0.7818609E-02  0.8068120E-01
       -1   -1    0    0    0  501  0.00000000000E+00  0.00000000000E+00  0.22533197813E+04  0.22533197813E+04  0.50400001928E-02 0. -1.
        1   -1    0    0  501    0  0.00000000000E+00  0.00000000000E+00 -0.15182834217E+04  0.15182834217E+04  0.50400001928E-02 0.  1.
    10030    2    1    2    0    0  0.00000000000E+00  0.00000000000E+00  0.73503635960E+03  0.37716032030E+04  0.36992853730E+04 0.  0.
        3    1    3    3  502    0  0.65182892593E+02  0.11396196081E+04 -0.11163361664E+04  0.15966177086E+04  0.10100000352E+00 0.  1.
       -3    1    3    3    0  502 -0.65182892593E+02 -0.11396196081E+04  0.18513725260E+04  0.21749854944E+04  0.10100000352E+00 0. -1.
</event>
<event>
 5   0  0.2282000E-08  0.3773567E+04  0.7818609E-02  0.8051851E-01
        1   -1    0    0  501    0  0.00000000000E+00  0.00000000000E+00  0.21467084693E+04  0.21467084693E+04  0.50400001928E-02 0. -1.
       -1   -1    0    0    0  501  0.00000000000E+00  0.00000000000E+00 -0.16583301062E+04  0.16583301062E+04  0.50400001928E-02 0.  1.
    10030    2    1    2    0    0  0.00000000000E+00  0.00000000000E+00  0.48837836307E+03  0.38050385755E+04  0.37735666332E+04 0.  0.
        4    1    3    3  502    0  0.17051755007E+04 -0.71408440767E+03 -0.13633016102E+03  0.18536794639E+04  0.12699999809E+01 0. -1.
       -4    1    3    3    0  502 -0.17051755007E+04  0.71408440767E+03  0.62470852409E+03  0.19513591116E+04  0.12699999809E+01 0.  1.
</event>
<event>
 5   0  0.7203049E-08  0.3700736E+04  0.7818609E-02  0.8067799E-01
       -2   -1    0    0    0  501  0.00000000000E+00  0.00000000000E+00  0.23786757221E+04  0.23786757221E+04  0.25500000920E-02 0.  1.
        2   -1    0    0  501    0  0.00000000000E+00  0.00000000000E+00 -0.14393980842E+04  0.14393980842E+04  0.25500000920E-02 0. -1.
    10030    2    1    2    0    0  0.00000000000E+00  0.00000000000E+00  0.93927763793E+03  0.38180738063E+04  0.37007357524E+04 0.  0.
        4    1    3    3  502    0  0.35153617682E+03  0.11019410470E+04  0.19597347164E+04  0.22756127804E+04  0.12699999809E+01 0.  1.
       -4    1    3    3    0  502 -0.35153617682E+03 -0.11019410470E+04 -0.10204570784E+04  0.15424610259E+04  0.12699999809E+01 0. -1.
</event>
<event>
 5   0  0.2282000E-08  0.3684501E+04  0.7818609E-02  0.8071405E-01
        1   -1    0    0  501    0  0.00000000000E+00  0.00000000000E+00  0.15566429396E+04  0.15566429396E+04  0.50400001928E-02 0.  1.
       -1   -1    0    0    0  501  0.00000000000E+00  0.00000000000E+00 -0.21802607196E+04  0.21802607196E+04  0.50400001928E-02 0. -1.
    10030    2    1    2    0    0  0.00000000000E+00  0.00000000000E+00 -0.62361777998E+03  0.37369036592E+04  0.36845012991E+04 0.  0.
        4    1    3    3  502    0  0.12805210573E+04 -0.84219737954E+03  0.72491056780E+03  0.16954431717E+04  0.12699999809E+01 0. -1.
       -4    1    3    3    0  502 -0.12805210573E+04  0.84219737954E+03 -0.13485283478E+04  0.20414604875E+04  0.12699999809E+01 0.  1.
</event>
<event>
 5   0  0.2282000E-08  0.3700228E+04  0.7818609E-02  0.8067911E-01
        1   -1    0    0  501    0  0.00000000000E+00  0.00000000000E+00  0.20787770238E+04  0.20787770238E+04  0.50400001928E-02 0.  1.
       -1   -1    0    0    0  501  0.00000000000E+00  0.00000000000E+00 -0.16466034935E+04  0.16466034936E+04  0.50400001928E-02 0. -1.
    10030    2    1    2    0    0  0.00000000000E+00  0.00000000000E+00  0.43217353028E+03  0.37253805174E+04  0.37002278361E+04 0.  0.
        4    1    3    3  502    0  0.21397008062E+03 -0.13884115127E+04 -0.99602821413E+03  0.17220753585E+04  0.12699999809E+01 0. -1.
       -4    1    3    3    0  502 -0.21397008062E+03  0.13884115127E+04  0.14282017444E+04  0.20033051589E+04  0.12699999809E+01 0.  1.
</event>
<event>
 5   0  0.2282000E-08  0.3695026E+04  0.7818609E-02  0.8069065E-01
       -1   -1    0    0    0  501  0.00000000000E+00  0.00000000000E+00  0.12116048418E+04  0.12116048418E+04  0.50400001928E-02 0. -1.
        1   -1    0    0  501    0  0.00000000000E+00  0.00000000000E+00 -0.28171755568E+04  0.28171755568E+04  0.50400001928E-02 0.  1.
    10030    2    1    2    0    0  0.00000000000E+00  0.00000000000E+00 -0.16055707150E+04  0.40287803986E+04  0.36950255993E+04 0.  0.
        1    1    3    3  502    0 -0.99071302089E+03  0.13203659308E+04 -0.17074434671E+04  0.23749192985E+04  0.50400001928E-02 0.  1.
       -1    1    3    3    0  502  0.99071302089E+03 -0.13203659308E+04  0.10187275209E+03  0.16538611001E+04  0.50400001928E-02 0. -1.
</event>
<event>
 5   0  0.7362817E-08  0.3695972E+04  0.7818609E-02  0.8068855E-01
        2   -1    0    0  501    0  0.00000000000E+00  0.00000000000E+00  0.27238036755E+04  0.27238036755E+04  0.25500000920E-02 0. -1.
       -2   -1    0    0    0  501  0.00000000000E+00  0.00000000000E+00 -0.12537807183E+04  0.12537807183E+04  0.25500000920E-02 0.  1.
    10030    2    1    2    0    0  0.00000000000E+00  0.00000000000E+00  0.14700229573E+04  0.39775843938E+04  0.36959721475E+04 0.  0.
        1    1    3    3  502    0 -0.13604148201E+04  0.12504929988E+04  0.76118106153E+03  0.19984638679E+04  0.50400001928E-02 0.  1.
       -1    1    3    3    0  502  0.13604148201E+04 -0.12504929988E+04  0.70884189576E+03  0.19791205259E+04  0.50400001928E-02 0. -1.
</event>
<event>
 5   0  0.2282000E-08  0.3698549E+04  0.7818609E-02  0.8068283E-01
        1   -1    0    0  501    0  0.00000000000E+00  0.00000000000E+00  0.18059146368E+04  0.18059146368E+04  0.50400001928E-02 0.  1.
       -1   -1    0    0    0  501  0.00000000000E+00  0.00000000000E+00 -0.18936754879E+04  0.18936754879E+04  0.50400001928E-02 0. -1.
    10030    2    1    2    0    0  0.00000000000E+00  0.00000000000E+00 -0.87760851028E+02  0.36995901247E+04  0.36985490566E+04 0.  0.
        3    1    3    3  502    0 -0.16053426588E+04  0.77211732508E+03  0.45277323519E+03  0.18380135551E+04  0.10100000352E+00 0.  1.
       -3    1    3    3    0  502  0.16053426588E+04 -0.77211732508E+03 -0.54053408622E+03  0.18615765696E+04  0.10100000352E+00 0. -1.
</event>
<event>
 5   0  0.7309833E-08  0.3677341E+04  0.7818609E-02  0.8073002E-01
       -2   -1    0    0    0  501  0.00000000000E+00  0.00000000000E+00  0.18038468998E+04  0.18038468998E+04  0.25500000920E-02 0.  1.
        2   -1    0    0  501    0  0.00000000000E+00  0.00000000000E+00 -0.18741659947E+04  0.18741659947E+04  0.25500000920E-02 0. -1.
    10030    2    1    2    0    0  0.00000000000E+00  0.00000000000E+00 -0.70319094977E+02  0.36780128945E+04  0.36773406256E+04 0.  0.
        2    1    3    3  502    0  0.17374178685E+04 -0.58072653391E+03 -0.19280930711E+03  0.18420205173E+04  0.25500000920E-02 0.  1.
       -2    1    3    3    0  502 -0.17374178685E+04  0.58072653391E+03  0.12249021213E+03  0.18359923772E+04  0.25500000920E-02 0. -1.
</event>
<event>
 5   0  0.7254493E-08  0.3709094E+04  0.7818609E-02  0.8065949E-01
        2   -1    0    0  501    0  0.00000000000E+00  0.00000000000E+00  0.17686534906E+04  0.17686534906E+04  0.25500000920E-02 0. -1.
       -2   -1    0    0    0  501  0.00000000000E+00  0.00000000000E+00 -0.19446120584E+04  0.19446120584E+04  0.25500000920E-02 0.  1.
    10030    2    1    2    0    0  0.00000000000E+00  0.00000000000E+00 -0.17595856787E+03  0.37132655490E+04  0.37090941778E+04 0.  0.
        3    1    3    3  502    0 -0.14084575823E+04  0.12004363076E+04  0.32758193381E+02  0.18509114510E+04  0.10100000352E+00 0.  1.
       -3    1    3    3    0  502  0.14084575823E+04 -0.12004363076E+04 -0.20871676126E+03  0.18623540980E+04  0.10100000352E+00 0. -1.
</event>
<event>
 5   0  0.2282000E-08  0.3698241E+04  0.7818609E-02  0.8068352E-01
       -1   -1    0    0    0  501  0.00000000000E+00  0.00000000000E+00  0.18702864377E+04  0.18702864377E+04  0.50400001928E-02 0. -1.
        1   -1    0    0  501    0  0.00000000000E+00  0.00000000000E+00 -0.18281939815E+04  0.18281939815E+04  0.50400001928E-02 0.  1.
    10030    2    1    2    0    0  0.00000000000E+00  0.00000000000E+00  0.42092456232E+02  0.36984804192E+04  0.36982408840E+04 0.  0.
        5    1    3    3  502    0  0.10477739810E+04  0.11052347525E+02 -0.15026245226E+04  0.18318992919E+04  0.46999998093E+01 0.  1.
       -5    1    3    3    0  502 -0.10477739810E+04 -0.11052347525E+02  0.15447169789E+04  0.18665811272E+04  0.46999998093E+01 0. -1.
</event>
<event>
 5   0  0.7203049E-08  0.3707430E+04  0.7818609E-02  0.8066317E-01
        2   -1    0    0  501    0  0.00000000000E+00  0.00000000000E+00  0.13605610820E+04  0.13605610820E+04  0.25500000920E-02 0. -1.
       -2   -1    0    0    0  501  0.00000000000E+00  0.00000000000E+00 -0.25256195394E+04  0.25256195394E+04  0.25500000920E-02 0.  1.
    10030    2    1    2    0    0  0.00000000000E+00  0.00000000000E+00 -0.11650584574E+04  0.38861806214E+04  0.37074301899E+04 0.  0.
        4    1    3    3  502    0 -0.62587613202E+03  0.14323438139E+03 -0.24053434260E+04  0.24895613330E+04  0.12699999809E+01 0.  1.
       -4    1    3    3    0  502  0.62587613202E+03 -0.14323438139E+03  0.12402849686E+04  0.13966192884E+04  0.12699999809E+01 0. -1.
</event>
<event>
 5   0  0.7203049E-08  0.3696406E+04  0.7818609E-02  0.8068759E-01
        2   -1    0    0  501    0  0.00000000000E+00  0.00000000000E+00  0.22283581572E+04  0.22283581572E+04  0.25500000920E-02 0. -1.
       -2   -1    0    0    0  501  0.00000000000E+00  0.00000000000E+00 -0.15329020807E+04  0.15329020807E+04  0.25500000920E-02 0.  1.
    10030    2    1    2    0    0  0.00000000000E+00  0.00000000000E+00  0.69545607657E+03  0.37612602379E+04  0.36964062849E+04 0.  0.
        4    1    3    3  502    0 -0.12145248312E+04 -0.10773930805E+04  0.12464035029E+04  0.20467949874E+04  0.12699999809E+01 0. -1.
       -4    1    3    3    0  502  0.12145248312E+04  0.10773930805E+04 -0.55094742634E+03  0.17144652505E+04  0.12699999809E+01 0.  1.
</event>
<event>
 5   0  0.7309833E-08  0.3693744E+04  0.7818609E-02  0.8069350E-01
       -2   -1    0    0    0  501  0.00000000000E+00  0.00000000000E+00  0.15780006872E+04  0.15780006872E+04  0.25500000920E-02 0.  1.
        2   -1    0    0  501    0  0.00000000000E+00  0.00000000000E+00 -0.21615559038E+04  0.21615559038E+04  0.25500000920E-02 0. -1.
    10030    2    1    2    0    0  0.00000000000E+00  0.00000000000E+00 -0.58355521664E+03  0.37395565910E+04  0.36937442801E+04 0.  0.
        2    1    3    3  502    0  0.68806115185E+03 -0.73490007189E+03  0.12757900387E+04  0.16251604496E+04  0.25500000920E-02 0.  1.
       -2    1    3    3    0  502 -0.68806115185E+03  0.73490007189E+03 -0.18593452553E+04  0.21143961414E+04  0.25500000920E-02 0. -1.
</event>
<event>
 5   0  0.2282000E-08  0.3694276E+04  0.7818609E-02  0.8069231E-01
       -1   -1    0    0    0  501  0.00000000000E+00  0.00000000000E+00  0.17440233579E+04  0.17440233579E+04  0.50400001928E-02 0.  1.
        1   -1    0    0  501    0  0.00000000000E+00  0.00000000000E+00 -0.19563493702E+04  0.19563493702E+04  0.50400001928E-02 0. -1.
    10030    2    1    2    0    0  0.00000000000E+00  0.00000000000E+00 -0.21232601229E+03  0.37003727281E+04  0.36942761120E+04 0.  0.
        5    1    3    3  502    0 -0.14008229414E+04 -0.80999994133E+03  0.78608876895E+03  0.17989892887E+04  0.46999998093E+01 0.  1.
       -5    1    3    3    0  502  0.14008229414E+04  0.80999994133E+03 -0.99841478124E+03  0.19013834394E+04  0.46999998093E+01 0. -1.
</event>
<event>
 5   0  0.7254493E-08  0.3701813E+04  0.7818609E-02  0.8067560E-01
        2   -1    0    0  501    0  0.00000000000E+00  0.00000000000E+00  0.31445974409E+04  0.31445974409E+04  0.25500000920E-02 0. -1.
       -2   -1    0    0    0  501  0.00000000000E+00  0.00000000000E+00 -0.10894414179E+04  0.10894414179E+04  0.25500000920E-02 0.  1.
    10030    2    1    2    0    0  0.00000000000E+00  0.00000000000E+00  0.20551560229E+04  0.42340388588E+04  0.37018129044E+04 0.  0.
        3    1    3    3  502    0 -0.14997131391E+04  0.12970824394E+03  0.22594028462E+04  0.27149336935E+04  0.10100000352E+00 0. -1.
       -3    1    3    3    0  502  0.14997131391E+04 -0.12970824394E+03 -0.20424682331E+03  0.15191051653E+04  0.10100000352E+00 0.  1.
</event>
<event>
 5   0  0.2282000E-08  0.3701504E+04  0.7818609E-02  0.8067629E-01
        1   -1    0    0  501    0  0.00000000000E+00  0.00000000000E+00  0.23661233721E+04  0.23661233721E+04  0.50400001928E-02 0.  1.
       -1   -1    0    0    0  501  0.00000000000E+00  0.00000000000E+00 -0.14476352127E+04  0.14476352128E+04  0.50400001928E-02 0. -1.
    10030    2    1    2    0    0  0.00000000000E+00  0.00000000000E+00  0.91848815933E+03  0.38137585848E+04  0.37015042948E+04 0.  0.
        3    1    3    3  502    0  0.10332697883E+04  0.15344891579E+04  0.40299853092E+03  0.18933333719E+04  0.10100000352E+00 0.  1.
       -3    1    3    3    0  502 -0.10332697883E+04 -0.15344891579E+04  0.51548962841E+03  0.19204252129E+04  0.10100000352E+00 0. -1.
</event>
<event>
 5   0  0.7203049E-08  0.3705297E+04  0.7818609E-02  0.8066789E-01
        2   -1    0    0  501    0  0.00000000000E+00  0.00000000000E+00  0.21539408675E+04  0.21539408675E+04  0.25500000920E-02 0. -1.
       -2   -1    0    0    0  501  0.00000000000E+00  0.00000000000E+00 -0.15935010107E+04  0.15935010107E+04  0.25500000920E-02 0.  1.
    10030    2    1    2    0    0  0.00000000000E+00  0.00000000000E+00  0.56043985676E+03  0.37474418782E+04  0.37052972617E+04 0.  0.
        4    1    3    3  502    0  0.12799811959E+04 -0.12638690492E+04  0.72864605286E+03  0.19407842535E+04  0.12699999809E+01 0. -1.
       -4    1    3    3    0  502 -0.12799811959E+04  0.12638690492E+04 -0.16820619610E+03  0.18066576247E+04  0.12699999809E+01 0.  1.
</event>
<event>
 5   0  0.2282000E-08  0.3716530E+04  0.7818609E-02  0.8064308E-01
       -1   -1    0    0    0  501  0.00000000000E+00  0.00000000000E+00  0.17500919818E+04  0.17500919818E+04  0.50400001928E-02 0.  1.
        1   -1    0    0  501    0  0.00000000000E+00  0.00000000000E+00 -0.19731238651E+04  0.19731238651E+04  0.50400001928E-02 0. -1.
    10030    2    1    2    0    0  0.00000000000E+00  0.00000000000E+00 -0.22303188330E+03  0.37232158470E+04  0.37165297015E+04 0.  0.
        4    1    3    3  502    0 -0.72481806694E+03 -0.17071973488E+04 -0.22688659382E+03  0.18685189743E+04  0.12699999809E+01 0. -1.
       -4    1    3    3    0  502  0.72481806694E+03  0.17071973488E+04  0.38547105196E+01  0.18546968727E+04  0.12699999809E+01 0.  1.
</event>
<event>
 5   0  0.2282000E-08  0.3698020E+04  0.7818609E-02  0.8068401E-01
       -1   -1    0    0    0  501  0.00000000000E+00  0.00000000000E+00  0.18146375555E+04  0.18146375555E+04  0.50400001928E-02 0.  1.
        1   -1    0    0  501    0  0.00000000000E+00  0.00000000000E+00 -0.18840331920E+04  0.18840331920E+04  0.50400001928E-02 0. -1.
    10030    2    1    2    0    0  0.00000000000E+00  0.00000000000E+00 -0.69395636509E+02  0.36986707475E+04  0.36980196787E+04 0.  0.
        3    1    3    3  502    0  0.55655347497E+03  0.17487091300E+04 -0.26079509729E+03  0.18535774828E+04  0.10100000352E+00 0.  1.
       -3    1    3    3    0  502 -0.55655347497E+03 -0.17487091300E+04  0.19139946078E+03  0.18450932647E+04  0.10100000352E+00 0. -1.
</event>
<event>
 5   0  0.7309833E-08  0.3702180E+04  0.7818609E-02  0.8067479E-01
       -2   -1    0    0    0  501  0.00000000000E+00  0.00000000000E+00  0.18332911955E+04  0.18332911955E+04  0.25500000920E-02 0. -1.
        2   -1    0    0  501    0  0.00000000000E+00  0.00000000000E+00 -0.18690619827E+04  0.18690619827E+04  0.25500000920E-02 0.  1.
    10030    2    1    2    0    0  0.00000000000E+00  0.00000000000E+00 -0.35770787188E+02  0.37023531782E+04  0.37021803720E+04 0.  0.
        2    1    3    3  502    0  0.15994633410E+04 -0.92009529563E+03  0.12935104176E+03  0.18497540443E+04  0.25500000920E-02 0.  1.
       -2    1    3    3    0  502 -0.15994633410E+04  0.92009529563E+03 -0.16512182895E+03  0.18525991339E+04  0.25500000920E-02 0. -1.
</event>
<event>
 5   0  0.2282000E-08  0.3681482E+04  0.7818609E-02  0.8072078E-01
        1   -1    0    0  501    0  0.00000000000E+00  0.00000000000E+00  0.20160051045E+04  0.20160051045E+04  0.50400001928E-02 0. -1.
       -1   -1    0    0    0  501  0.00000000000E+00  0.00000000000E+00 -0.16807136637E+04  0.16807136638E+04  0.50400001928E-02 0.  1.
    10030    2    1    2    0    0  0.00000000000E+00  0.00000000000E+00  0.33529144078E+03  0.36967187683E+04  0.36814819437E+04 0.  0.
        3    1    3    3  502    0 -0.90683869605E+03  0.84019763763E+03 -0.12018312781E+04  0.17241481729E+04  0.10100000352E+00 0.  1.
       -3    1    3    3    0  502  0.90683869605E+03 -0.84019763763E+03  0.15371227188E+04  0.19725705954E+04  0.10100000352E+00 0. -1.
</event>
<event>
 5   0  0.7203049E-08  0.3700399E+04  0.7818609E-02  0.8067873E-01
        2   -1    0    0  501    0  0.00000000000E+00  0.00000000000E+00  0.14213306093E+04  0.14213306093E+04  0.25500000920E-02 0.  1.
       -2   -1    0    0    0  501  0.00000000000E+00  0.00000000000E+00 -0.24084747304E+04  0.24084747304E+04  0.25500000920E-02 0. -1.
    10030    2    1    2    0    0  0.00000000000E+00  0.00000000000E+00 -0.98714412101E+03  0.38298053397E+04  0.37003993601E+04 0.  0.
        4    1    3    3  502    0 -0.12013945132E+03  0.28415085018E+03 -0.23816669232E+04  0.24015649355E+04  0.12699999809E+01 0. -1.
       -4    1    3    3    0  502  0.12013945132E+03 -0.28415085018E+03  0.13945228022E+04  0.14282404042E+04  0.12699999809E+01 0.  1.
</event>
<event>
 5   0  0.7362817E-08  0.3697452E+04  0.7818609E-02  0.8068527E-01
        2   -1    0    0  501    0  0.00000000000E+00  0.00000000000E+00  0.17892307404E+04  0.17892307404E+04  0.25500000920E-02 0.  1.
       -2   -1    0    0    0  501  0.00000000000E+00  0.00000000000E+00 -0.19101991486E+04  0.19101991486E+04  0.25500000920E-02 0. -1.
    10030    2    1    2    0    0  0.00000000000E+00  0.00000000000E+00 -0.12096840818E+03  0.36994298889E+04  0.36974515747E+04 0.  0.
        1    1    3    3  502    0 -0.73761802784E+03 -0.45697377653E+03  0.15728357559E+04  0.17963066839E+04  0.50400001928E-02 0.  1.
       -1    1    3    3    0  502  0.73761802784E+03  0.45697377653E+03 -0.16938041641E+04  0.19031232051E+04  0.50400001928E-02 0. -1.
</event>
<event>
 5   0  0.7254493E-08  0.3701495E+04  0.7818609E-02  0.8067631E-01
       -2   -1    0    0    0  501  0.00000000000E+00  0.00000000000E+00  0.12377328244E+04  0.12377328244E+04  0.25500000920E-02 0. -1.
        2   -1    0    0  501    0  0.00000000000E+00  0.00000000000E+00 -0.27673719191E+04  0.27673719191E+04  0.25500000920E-02 0.  1.
    10030    2    1    2    0    0  0.00000000000E+00  0.00000000000E+00 -0.15296390947E+04  0.40051047435E+04  0.37014954068E+04 0.  0.
        3    1    3    3  502    0 -0.56063621938E+03  0.11875460837E+04  0.64625200311E+03  0.14636325813E+04  0.10100000352E+00 0. -1.
       -3    1    3    3    0  502  0.56063621938E+03 -0.11875460837E+04 -0.21758910979E+04  0.25414721622E+04  0.10100000352E+00 0.  1.
</event>
<event>
 5   0  0.7254493E-08  0.3700240E+04  0.7818609E-02  0.8067909E-01
       -2   -1    0    0    0  501  0.00000000000E+00  0.00000000000E+00  0.12651582265E+04  0.12651582265E+04  0.25500000920E-02 0. -1.
        2   -1    0    0  501    0  0.00000000000E+00  0.00000000000E+00 -0.27055465339E+04  0.27055465339E+04  0.25500000920E-02 0.  1.
    10030    2    1    2    0    0  0.00000000000E+00  0.00000000000E+00 -0.14403883075E+04  0.39707047604E+04  0.37002402379E+04 0.  0.
        3    1    3    3  502    0 -0.30921014536E+02  0.77577441774E+03 -0.25222769186E+04  0.26390647815E+04  0.10100000352E+00 0.  1.
       -3    1    3    3    0  502  0.30921014536E+02 -0.77577441774E+03  0.10818886112E+04  0.13316399789E+04  0.10100000352E+00 0. -1.
</event>
<event>
 5   0  0.7191801E-08  0.3697184E+04  0.7818609E-02  0.8068586E-01
        2   -1    0    0  501    0  0.00000000000E+00  0.00000000000E+00  0.15454973727E+04  0.15454973727E+04  0.25500000920E-02 0. -1.
       -2   -1    0    0    0  501  0.00000000000E+00  0.00000000000E+00 -0.22111276606E+04  0.22111276606E+04  0.25500000920E-02 0.  1.
    10030    2    1    2    0    0  0.00000000000E+00  0.00000000000E+00 -0.66563028790E+03  0.37566250332E+04  0.36971837877E+04 0.  0.
        5    1    3    3  502    0  0.16598392038E+04  0.12616436509E+03 -0.11496594259E+04  0.20230478282E+04  0.46999998093E+01 0.  1.
       -5    1    3    3    0  502 -0.16598392038E+04 -0.12616436509E+03  0.48402913799E+03  0.17335772051E+04  0.46999998093E+01 0. -1.
</event>
<event>
 5   0  0.2282000E-08  0.3701461E+04  0.7818609E-02  0.8067638E-01
       -1   -1    0    0    0  501  0.00000000000E+00  0.00000000000E+00  0.26080670312E+04  0.26080670312E+04  0.50400001928E-02 0. -1.
        1   -1    0    0  501    0  0.00000000000E+00  0.00000000000E+00 -0.13133107655E+04  0.13133107655E+04  0.50400001928E-02 0.  1.
    10030    2    1    2    0    0  0.00000000000E+00  0.00000000000E+00  0.12947562657E+04  0.39213777967E+04  0.37014605275E+04 0.  0.
        3    1    3    3  502    0  0.14396268698E+04  0.11587720684E+04  0.54183868723E+03  0.19258419987E+04  0.10100000352E+00 0. -1.
       -3    1    3    3    0  502 -0.14396268698E+04 -0.11587720684E+04  0.75291757848E+03  0.19955357980E+04  0.10100000352E+00 0.  1.
</event>
<event>
 5   0  0.2282000E-08  0.3696558E+04  0.7818609E-02  0.8068725E-01
       -1   -1    0    0    0  501  0.00000000000E+00  0.00000000000E+00  0.20940111632E+04  0.20940111632E+04  0.50400001928E-02 0.  1.
        1   -1    0    0  501    0  0.00000000000E+00  0.00000000000E+00 -0.16313830880E+04  0.16313830880E+04  0.50400001928E-02 0. -1.
    10030    2    1    2    0    0  0.00000000000E+00  0.00000000000E+00  0.46262807517E+03  0.37253942512E+04  0.36965575324E+04 0.  0.
        4    1    3    3  502    0  0.99171678681E+03  0.73846216047E+03  0.16158228604E+04  0.20346286337E+04  0.12699999809E+01 0. -1.
       -4    1    3    3    0  502 -0.99171678681E+03 -0.73846216047E+03 -0.11531947853E+04  0.16907656175E+04  0.12699999809E+01 0.  1.
</event>
<event>
 5   0  0.7203049E-08  0.3688340E+04  0.7818609E-02  0.8070551E-01
       -2   -1    0    0    0  501  0.00000000000E+00  0.00000000000E+00  0.18901515596E+04  0.18901515596E+04  0.25500000920E-02 0.  1.
        2   -1    0    0  501    0  0.00000000000E+00  0.00000000000E+00 -0.17993072111E+04  0.17993072111E+04  0.25500000920E-02 0. -1.
    10030    2    1    2    0    0  0.00000000000E+00  0.00000000000E+00  0.90844348488E+02  0.36894587708E+04  0.36883401857E+04 0.  0.
        4    1    3    3  502    0 -0.10208851054E+04  0.19768781670E+03  0.15689319589E+04  0.18822422734E+04  0.12699999809E+01 0.  1.
       -4    1    3    3    0  502  0.10208851054E+04 -0.19768781670E+03 -0.14780876104E+04  0.18072164973E+04  0.12699999809E+01 0. -1.
</event>
<event>
 5   0  0.2282000E-08  0.3698228E+04  0.7818609E-02  0.8068355E-01
        1   -1    0    0  501    0  0.00000000000E+00  0.00000000000E+00  0.22842712146E+04  0.22842712146E+04  0.50400001928E-02 0. -1.
       -1   -1    0    0    0  501  0.00000000000E+00  0.00000000000E+00 -0.14968547162E+04  0.14968547162E+04  0.50400001928E-02 0.  1.
    10030    2    1    2    0    0  0.00000000000E+00  0.00000000000E+00  0.78741649837E+03  0.37811259308E+04  0.36982277597E+04 0.  0.
        3    1    3    3  502    0  0.17293373103E+04  0.60678287104E+03  0.64504194223E+03  0.19429030091E+04  0.10100000352E+00 0. -1.
       -3    1    3    3    0  502 -0.17293373103E+04 -0.60678287104E+03  0.14237455614E+03  0.18382229217E+04  0.10100000352E+00 0.  1.
</event>
<event>
 5   0  0.2282000E-08  0.3703266E+04  0.7818609E-02  0.8067239E-01
        1   -1    0    0  501    0  0.00000000000E+00  0.00000000000E+00  0.16578707926E+04  0.16578707926E+04  0.50400001928E-02 0.  1.
       -1   -1    0    0    0  501  0.00000000000E+00  0.00000000000E+00 -0.20680405242E+04  0.20680405242E+04  0.50400001928E-02 0. -1.
    10030    2    1    2    0    0  0.00000000000E+00  0.00000000000E+00 -0.41016973159E+03  0.37259113168E+04  0.37032655767E+04 0.  0.
        4    1    3    3  502    0 -0.85747386730E+03  0.15779040644E+04  0.24878311199E+03  0.18129912629E+04  0.12699999809E+01 0.  1.
       -4    1    3    3    0  502  0.85747386730E+03 -0.15779040644E+04 -0.65895284359E+03  0.19129200539E+04  0.12699999809E+01 0. -1.
</event>
<event>
 5   0  0.2282000E-08  0.3705144E+04  0.7818609E-02  0.8066823E-01
       -1   -1    0    0    0  501  0.00000000000E+00  0.00000000000E+00  0.13311591840E+04  0.13311591840E+04  0.50400001928E-02 0.  1.
        1   -1    0    0  501    0  0.00000000000E+00  0.00000000000E+00 -0.25782217986E+04  0.25782217986E+04  0.50400001928E-02 0. -1.
    10030    2    1    2    0    0  0.00000000000E+00  0.00000000000E+00 -0.12470626146E+04  0.39093809826E+04  0.37051443295E+04 0.  0.
        5    1    3    3  502    0 -0.15944730065E+03 -0.16324420315E+04 -0.15322307410E+04  0.22445586563E+04  0.46999998093E+01 0. -1.
       -5    1    3    3    0  502  0.15944730065E+03  0.16324420315E+04  0.28516812645E+03  0.16648223263E+04  0.46999998093E+01 0.  1.
</event>
<event>
 5   0  0.2282000E-08  0.3700304E+04  0.7818609E-02  0.8067894E-01
        1   -1    0    0  501    0  0.00000000000E+00  0.00000000000E+00  0.25562545410E+04  0.25562545410E+04  0.50400001928E-02 0. -1.
       -1   -1    0    0    0  501  0.00000000000E+00  0.00000000000E+00 -0.13390929606E+04  0.13390929607E+04  0.50400001928E-02 0.  1.
    10030    2    1    2    0    0  0.00000000000E+00  0.00000000000E+00  0.12171615804E+04  0.38953475017E+04  0.37003040208E+04 0.  0.
        3    1    3    3  502    0  0.11606024367E+04 -0.13427536947E+04  0.11586930472E+04  0.21195648347E+04  0.10100000352E+00 0. -1.
       -3    1    3    3    0  502 -0.11606024367E+04  0.13427536947E+04  0.58468533172E+02  0.17757826670E+04  0.10100000352E+00 0.  1.
</event>
<event>
 5   0  0.2282000E-08  0.3698103E+04  0.7818609E-02  0.8068382E-01
       -1   -1    0    0    0  501  0.00000000000E+00  0.00000000000E+00  0.23911326325E+04  0.23911326325E+04  0.50400001928E-02 0.  1.
        1   -1    0    0  501    0  0.00000000000E+00  0.00000000000E+00 -0.14298625864E+04  0.14298625864E+04  0.50400001928E-02 0. -1.
    10030    2    1    2    0    0  0.00000000000E+00  0.00000000000E+00  0.96127004604E+03  0.38209952189E+04  0.36981028057E+04 0.  0.
        5    1    3    3  502    0  0.71996083978E+03 -0.10072979997E+04  0.18995801794E+04  0.22674699158E+04  0.46999998093E+01 0.  1.
       -5    1    3    3    0  502 -0.71996083978E+03  0.10072979997E+04 -0.93831013339E+03  0.15535253031E+04  0.46999998093E+01 0. -1.
</event>
<event>
 5   0  0.2282000E-08  0.3712290E+04  0.7818609E-02  0.8065244E-01
        1   -1    0    0  501    0  0.00000000000E+00  0.00000000000E+00  0.13218378185E+04  0.13218378185E+04  0.50400001928E-02 0. -1.
       -1   -1    0    0    0  501  0.00000000000E+00  0.00000000000E+00 -0.26064269439E+04  0.26064269439E+04  0.50400001928E-02 0.  1.
    10030    2    1    2    0    0  0.00000000000E+00  0.00000000000E+00 -0.12845891254E+04  0.39282647624E+04  0.37122897008E+04 0.  0.
        2    1    3    3  502    0 -0.57646236095E+03  0.12886673691E+04 -0.19175208260E+04  0.23811464801E+04  0.25500000920E-02 0.  1.
       -2    1    3    3    0  502  0.57646236095E+03 -0.12886673691E+04  0.63293170063E+03  0.15471182823E+04  0.25500000920E-02 0. -1.
</event>
<event>
 5   0  0.2282000E-08  0.3696421E+04  0.7818609E-02  0.8068756E-01
        1   -1    0    0  501    0  0.00000000000E+00  0.00000000000E+00  0.26105482761E+04  0.26105482761E+04  0.50400001928E-02 0. -1.
       -1   -1    0    0    0  501  0.00000000000E+00  0.00000000000E+00 -0.13084918691E+04  0.13084918691E+04  0.50400001928E-02 0.  1.
    10030    2    1    2    0    0  0.00000000000E+00  0.00000000000E+00  0.13020564070E+04  0.39190401452E+04  0.36964205351E+04 0.  0.
        2    1    3    3  502    0  0.58915036586E+03 -0.75922413045E+03 -0.10227730069E+04  0.14034187036E+04  0.25500000920E-02 0.  1.
       -2    1    3    3    0  502 -0.58915036586E+03  0.75922413045E+03  0.23248294139E+04  0.25156214416E+04  0.25500000920E-02 0. -1.
</event>
<event>
 5   0  0.7191801E-08  0.3688569E+04  0.7818609E-02  0.8070500E-01
        2   -1    0    0  501    0  0.00000000000E+00  0.00000000000E+00  0.28950540809E+04  0.28950540809E+04  0.25500000920E-02 0.  1.
       -2   -1    0    0    0  501  0.00000000000E+00  0.00000000000E+00 -0.11748950099E+04  0.11748950099E+04  0.25500000920E-02 0. -1.
    10030    2    1    2    0    0  0.00000000000E+00  0.00000000000E+00  0.17201590710E+04  0.40699490908E+04  0.36885686075E+04 0.  0.
        5    1    3    3  502    0  0.12005787006E+04  0.11375743299E+04  0.17604784107E+04  0.24155270433E+04  0.46999998093E+01 0.  1.
       -5    1    3    3    0  502 -0.12005787006E+04 -0.11375743299E+04 -0.40319339725E+02  0.16544220475E+04  0.46999998093E+01 0. -1.
</event>
<event>
 5   0  0.2282000E-08  0.3700096E+04  0.7818609E-02  0.8067941E-01
        1   -1    0    0  501    0  0.00000000000E+00  0.00000000000E+00  0.23780304190E+04  0.23780304190E+04  0.50400001928E-02 0.  1.
       -1   -1    0    0    0  501  0.00000000000E+00  0.00000000000E+00 -0.14392910072E+04  0.14392910072E+04  0.50400001928E-02 0. -1.
    10030    2    1    2    0    0  0.00000000000E+00  0.00000000000E+00  0.93873941184E+03  0.38173214263E+04  0.37000961052E+04 0.  0.
        3    1    3    3  502    0 -0.12786071641E+04 -0.12543160469E+04  0.94722074729E+03  0.20261718041E+04  0.10100000352E+00 0.  1.
       -3    1    3    3    0  502  0.12786071641E+04  0.12543160469E+04 -0.84813354456E+01  0.17911496221E+04  0.10100000352E+00 0. -1.
</event>
<event>
 5   0  0.7191801E-08  0.3693708E+04  0.7818609E-02  0.8069358E-01
        2   -1    0    0  501    0  0.00000000000E+00  0.00000000000E+00  0.14841996923E+04  0.14841996923E+04  0.25500000920E-02 0.  1.
       -2   -1    0    0    0  501  0.00000000000E+00  0.00000000000E+00 -0.22981207716E+04  0.22981207717E+04  0.25500000920E-02 0. -1.
    10030    2    1    2    0    0  0.00000000000E+00  0.00000000000E+00 -0.81392107932E+03  0.37823204640E+04  0.36937082409E+04 0.  0.
        5    1    3    3  502    0  0.33643538688E+03 -0.18085655819E+04 -0.23948316137E+03  0.18551206183E+04  0.46999998093E+01 0.  1.
       -5    1    3    3    0  502 -0.33643538688E+03  0.18085655819E+04 -0.57443791795E+03  0.19271998457E+04  0.46999998093E+01 0. -1.
</event>
<event>
 5   0  0.2282000E-08  0.3698705E+04  0.7818609E-02  0.8068249E-01
       -1   -1    0    0    0  501  0.00000000000E+00  0.00000000000E+00  0.14755484335E+04  0.14755484336E+04  0.50400001928E-02 0. -1.
        1   -1    0    0  501    0  0.00000000000E+00  0.00000000000E+00 -0.23178536139E+04  0.23178536139E+04  0.50400001928E-02 0.  1.
    10030    2    1    2    0    0  0.00000000000E+00  0.00000000000E+00 -0.84230518033E+03  0.37934020474E+04  0.36987053244E+04 0.  0.
        3    1    3    3  502    0 -0.26538926701E+03 -0.21312756033E+03  0.14431466388E+04  0.14827430834E+04  0.10100000352E+00 0. -1.
       -3    1    3    3    0  502  0.26538926701E+03  0.21312756033E+03 -0.22854518192E+04  0.23106589640E+04  0.10100000352E+00 0.  1.
</event>
<event>
 5   0  0.7203049E-08  0.3701373E+04  0.7818609E-02  0.8067658E-01
       -2   -1    0    0    0  501  0.00000000000E+00  0.00000000000E+00  0.18019808983E+04  0.18019808983E+04  0.25500000920E-02 0. -1.
        2   -1    0    0  501    0  0.00000000000E+00  0.00000000000E+00 -0.19007082723E+04  0.19007082723E+04  0.25500000920E-02 0.  1.
    10030    2    1    2    0    0  0.00000000000E+00  0.00000000000E+00 -0.98727373996E+02  0.37026891707E+04  0.37013727183E+04 0.  0.
        4    1    3    3  502    0 -0.24215227541E+03 -0.17977770722E+04  0.31737038559E+03  0.18415660999E+04  0.12699999809E+01 0. -1.
       -4    1    3    3    0  502  0.24215227541E+03  0.17977770722E+04 -0.41609775959E+03  0.18611230707E+04  0.12699999809E+01 0.  1.
</event>
<event>
 5   0  0.2282000E-08  0.3720469E+04  0.7818609E-02  0.8063441E-01
        1   -1    0    0  501    0  0.00000000000E+00  0.00000000000E+00  0.19796832426E+04  0.19796832426E+04  0.50400001928E-02 0.  1.
       -1   -1    0    0    0  501  0.00000000000E+00  0.00000000000E+00 -0.17479926511E+04  0.17479926511E+04  0.50400001928E-02 0. -1.
    10030    2    1    2    0    0  0.00000000000E+00  0.00000000000E+00  0.23169059149E+03  0.37276758938E+04  0.37204686585E+04 0.  0.
        4    1    3    3  502    0  0.32974198854E+03  0.59608679854E+03  0.18502158971E+04  0.19716363076E+04  0.12699999809E+01 0.  1.
       -4    1    3    3    0  502 -0.32974198854E+03 -0.59608679854E+03 -0.16185253056E+04  0.17560395862E+04  0.12699999809E+01 0. -1.
</event>
<event>
 5   0  0.7203049E-08  0.3699670E+04  0.7818609E-02  0.8068035E-01
        2   -1    0    0  501    0  0.00000000000E+00  0.00000000000E+00  0.20290122454E+04  0.20290122454E+04  0.25500000920E-02 0.  1.
       -2   -1    0    0    0  501  0.00000000000E+00  0.00000000000E+00 -0.16864806107E+04  0.16864806107E+04  0.25500000920E-02 0. -1.
    10030    2    1    2    0    0  0.00000000000E+00  0.00000000000E+00  0.34253163465E+03  0.37154928561E+04  0.36996701533E+04 0.  0.
        4    1    3    3  502    0 -0.24070064119E+03  0.12323397871E+03  0.20090552362E+04  0.20271724068E+04  0.12699999809E+01 0.  1.
       -4    1    3    3    0  502  0.24070064119E+03 -0.12323397871E+03 -0.16665236015E+04  0.16883204493E+04  0.12699999809E+01 0. -1.
</event>
<event>
 5   0  0.7309833E-08  0.3755441E+04  0.7818609E-02  0.8055785E-01
        2   -1    0    0  501    0  0.00000000000E+00  0.00000000000E+00  0.22793592165E+04  0.22793592165E+04  0.25500000920E-02 0.  1.
       -2   -1    0    0    0  501  0.00000000000E+00  0.00000000000E+00 -0.15468531621E+04  0.15468531621E+04  0.25500000920E-02 0. -1.
    10030    2    1    2    0    0  0.00000000000E+00  0.00000000000E+00  0.73250605444E+03  0.38262123786E+04  0.37554408591E+04 0.  0.
        2    1    3    3  502    0  0.16834201872E+04 -0.80161623472E+03  0.59256944818E+03  0.19564331487E+04  0.25500000920E-02 0.  1.
       -2    1    3    3    0  502 -0.16834201872E+04  0.80161623472E+03  0.13993660626E+03  0.18697792298E+04  0.25500000920E-02 0. -1.
</event>
<event>
 5   0  0.2282000E-08  0.3697803E+04  0.7818609E-02  0.8068449E-01
        1   -1    0    0  501    0  0.00000000000E+00  0.00000000000E+00  0.24074773428E+04  0.24074773428E+04  0.50400001928E-02 0.  1.
       -1   -1    0    0    0  501  0.00000000000E+00  0.00000000000E+00 -0.14199247228E+04  0.14199247228E+04  0.50400001928E-02 0. -1.
    10030    2    1    2    0    0  0.00000000000E+00  0.00000000000E+00  0.98755261999E+03  0.38274020655E+04  0.36978029144E+04 0.  0.
        1    1    3    3  502    0 -0.95483771735E+03 -0.12181302743E+04  0.15405979828E+04  0.21838036946E+04  0.50400001928E-02 0.  1.
       -1    1    3    3    0  502  0.95483771735E+03  0.12181302743E+04 -0.55304536286E+03  0.16435983710E+04  0.50400001928E-02 0. -1.
</event>
<event>
 5   0  0.2282000E-08  0.3713795E+04  0.7818609E-02  0.8064911E-01
        1   -1    0    0  501    0  0.00000000000E+00  0.00000000000E+00  0.18850176866E+04  0.18850176866E+04  0.50400001928E-02 0.  1.
       -1   -1    0    0    0  501  0.00000000000E+00  0.00000000000E+00 -0.18291971522E+04  0.18291971522E+04  0.50400001928E-02 0. -1.
    10030    2    1    2    0    0  0.00000000000E+00  0.00000000000E+00  0.55820534389E+02  0.37142148389E+04  0.37137953548E+04 0.  0.
        1    1    3    3  502    0 -0.70939218392E+03 -0.11853704521E+04  0.12689084374E+04  0.18757582471E+04  0.50400001928E-02 0.  1.
       -1    1    3    3    0  502  0.70939218392E+03  0.11853704521E+04 -0.12130879030E+04  0.18384565917E+04  0.50400001928E-02 0. -1.
</event>
<event>
 5   0  0.7191801E-08  0.3698387E+04  0.7818609E-02  0.8068319E-01
       -2   -1    0    0    0  501  0.00000000000E+00  0.00000000000E+00  0.17616607050E+04  0.17616607050E+04  0.25500000920E-02 0. -1.
        2   -1    0    0  501    0  0.00000000000E+00  0.00000000000E+00 -0.19410758480E+04  0.19410758480E+04  0.25500000920E-02 0.  1.
    10030    2    1    2    0    0  0.00000000000E+00  0.00000000000E+00 -0.17941514302E+03  0.37027365529E+04  0.36983872413E+04 0.  0.
        5    1    3    3  502    0 -0.17736992690E+04  0.98125921036E+02 -0.60398193555E+03  0.18762873079E+04  0.46999998093E+01 0.  1.
       -5    1    3    3    0  502  0.17736992690E+04 -0.98125921036E+02  0.42456679253E+03  0.18264492450E+04  0.46999998093E+01 0. -1.
</event>
<event>
 5   0  0.7254493E-08  0.3691230E+04  0.7818609E-02  0.8069908E-01
       -2   -1    0    0    0  501  0.00000000000E+00  0.00000000000E+00  0.13759205794E+04  0.13759205794E+04  0.25500000920E-02 0.  1.
        2   -1    0    0  501    0  0.00000000000E+00  0.00000000000E+00 -0.24756474442E+04  0.24756474442E+04  0.25500000920E-02 0. -1.
    10030    2    1    2    0    0  0.00000000000E+00  0.00000000000E+00 -0.10997268647E+04  0.38515680236E+04  0.36912297495E+04 0.  0.
        3    1    3    3  502    0 -0.49178228678E+03  0.16635503412E+04 -0.12073489585E+04  0.21135139161E+04  0.10100000352E+00 0. -1.
       -3    1    3    3    0  502  0.49178228678E+03 -0.16635503412E+04  0.10762209384E+03  0.17380541075E+04  0.10100000352E+00 0.  1.
</event>
<event>
 5   0  0.7191801E-08  0.3700095E+04  0.7818609E-02  0.8067941E-01
       -2   -1    0    0    0  501  0.00000000000E+00  0.00000000000E+00  0.17727352118E+04  0.17727352118E+04  0.25500000920E-02 0.  1.
        2   -1    0    0  501    0  0.00000000000E+00  0.00000000000E+00 -0.19307319489E+04  0.19307319489E+04  0.25500000920E-02 0. -1.
    10030    2    1    2    0    0  0.00000000000E+00  0.00000000000E+00 -0.15799673717E+03  0.37034671607E+04  0.37000954098E+04 0.  0.
        5    1    3    3  502    0 -0.81581742070E+03 -0.15071327825E+04 -0.77651728440E+03  0.18814910233E+04  0.46999998093E+01 0. -1.
       -5    1    3    3    0  502  0.81581742070E+03  0.15071327825E+04  0.61852054722E+03  0.18219761374E+04  0.46999998093E+01 0.  1.
</event>
<event>
 5   0  0.2282000E-08  0.3698466E+04  0.7818609E-02  0.8068302E-01
       -1   -1    0    0    0  501  0.00000000000E+00  0.00000000000E+00  0.17480209937E+04  0.17480209937E+04  0.50400001928E-02 0. -1.
        1   -1    0    0  501    0  0.00000000000E+00  0.00000000000E+00 -0.19563055867E+04  0.19563055867E+04  0.50400001928E-02 0.  1.
    10030    2    1    2    0    0  0.00000000000E+00  0.00000000000E+00 -0.20828459299E+03  0.37043265805E+04  0.36984662961E+04 0.  0.
        2    1    3    3  502    0 -0.61171287500E+03  0.15771371413E+04 -0.85239298987E+03  0.18942354693E+04  0.25500000920E-02 0.  1.
       -2    1    3    3    0  502  0.61171287500E+03 -0.15771371413E+04  0.64410839688E+03  0.18100911112E+04  0.25500000920E-02 0. -1.
</event>
<event>
 5   0  0.7203049E-08  0.3701192E+04  0.7818609E-02  0.8067698E-01
        2   -1    0    0  501    0  0.00000000000E+00  0.00000000000E+00  0.11722028046E+04  0.11722028046E+04  0.25500000920E-02 0. -1.
       -2   -1    0    0    0  501  0.00000000000E+00  0.00000000000E+00 -0.29215986771E+04  0.29215986771E+04  0.25500000920E-02 0.  1.
    10030    2    1    2    0    0  0.00000000000E+00  0.00000000000E+00 -0.17493958725E+04  0.40938014816E+04  0.37011923284E+04 0.  0.
        4    1    3    3  502    0 -0.45149860822E+01 -0.37412714559E+03  0.11299302988E+04  0.11902670286E+04  0.12699999809E+01 0. -1.
       -4    1    3    3    0  502  0.45149860822E+01  0.37412714559E+03 -0.28793261713E+04  0.29035344531E+04  0.12699999809E+01 0.  1.
</event>
<event>
 5   0  0.2282000E-08  0.3665300E+04  0.7818609E-02  0.8075695E-01
        1   -1    0    0  501    0  0.00000000000E+00  0.00000000000E+00  0.12605377934E+04  0.12605377934E+04  0.50400001928E-02 0.  1.
       -1   -1    0    0    0  501  0.00000000000E+00  0.00000000000E+00 -0.26644237291E+04  0.26644237291E+04  0.50400001928E-02 0. -1.
    10030    2    1    2    0    0  0.00000000000E+00  0.00000000000E+00 -0.14038859357E+04  0.39249615225E+04  0.36653004288E+04 0.  0.
        3    1    3    3  502    0  0.75005746158E+03  0.74790078080E+02 -0.24907403980E+04  0.26023004231E+04  0.10100000352E+00 0. -1.
       -3    1    3    3    0  502 -0.75005746158E+03 -0.74790078080E+02  0.10868544624E+04  0.13226610994E+04  0.10100000352E+00 0.  1.
</event>
<event>
 5   0  0.7254493E-08  0.3699046E+04  0.7818609E-02  0.8068173E-01
        2   -1    0    0  501    0  0.00000000000E+00  0.00000000000E+00  0.24950554770E+04  0.24950554770E+04  0.25500000920E-02 0. -1.
       -2   -1    0    0    0  501  0.00000000000E+00  0.00000000000E+00 -0.13710054371E+04  0.13710054371E+04  0.25500000920E-02 0.  1.
    10030    2    1    2    0    0  0.00000000000E+00  0.00000000000E+00  0.11240500399E+04  0.38660609140E+04  0.36990456200E+04 0.  0.
        3    1    3    3  502    0 -0.80664785613E+03 -0.12076057575E+04  0.17590500945E+04  0.22810632772E+04  0.10100000352E+00 0. -1.
       -3    1    3    3    0  502  0.80664785613E+03  0.12076057575E+04 -0.63500005459E+03  0.15849976369E+04  0.10100000352E+00 0.  1.
</event>
<event>
 5   0  0.2282000E-08  0.3700068E+04  0.7818609E-02  0.8067947E-01
       -1   -1    0    0    0  501  0.00000000000E+00  0.00000000000E+00  0.10923952000E+04  0.10923952000E+04  0.50400001928E-02 0. -1.
        1   -1    0    0  501    0  0.00000000000E+00  0.00000000000E+00 -0.31331389469E+04  0.31331389469E+04  0.50400001928E-02 0.  1.
    10030    2    1    2    0    0  0.00000000000E+00  0.00000000000E+00 -0.20407437469E+04  0.42255341469E+04  0.37000680786E+04 0.  0.
        1    1    3    3  502    0  0.11591147109E+04 -0.11273129324E+04  0.63275140040E+01  0.16169172514E+04  0.50400001928E-02 0. -1.
       -1    1    3    3    0  502 -0.11591147109E+04  0.11273129324E+04 -0.20470712609E+04  0.26086168955E+04  0.50400001928E-02 0.  1.
</event>
<event>
 5   0  0.7191801E-08  0.3718757E+04  0.7818609E-02  0.8063818E-01
       -2   -1    0    0    0  501  0.00000000000E+00  0.00000000000E+00  0.16806744739E+04  0.16806744739E+04  0.25500000920E-02 0.  1.
        2   -1    0    0  501    0  0.00000000000E+00  0.00000000000E+00 -0.20570844338E+04  0.20570844338E+04  0.25500000920E-02 0. -1.
    10030    2    1    2    0    0  0.00000000000E+00  0.00000000000E+00 -0.37640995985E+03  0.37377589077E+04  0.37187574799E+04 0.  0.
        5    1    3    3  502    0  0.91975664184E+03 -0.10300987823E+04  0.10632317443E+04  0.17428538704E+04  0.46999998093E+01 0.  1.
       -5    1    3    3    0  502 -0.91975664184E+03  0.10300987823E+04 -0.14396417041E+04  0.19949050373E+04  0.46999998093E+01 0. -1.
</event>
<event>
 5   0  0.2282000E-08  0.3690324E+04  0.7818609E-02  0.8070109E-01
        1   -1    0    0  501    0  0.00000000000E+00  0.00000000000E+00  0.24731893711E+04  0.24731893711E+04  0.50400001928E-02 0. -1.
       -1   -1    0    0    0  501  0.00000000000E+00  0.00000000000E+00 -0.13766124813E+04  0.13766124813E+04  0.50400001928E-02 0.  1.
    10030    2    1    2    0    0  0.00000000000E+00  0.00000000000E+00  0.10965768898E+04  0.38498018524E+04  0.36903242984E+04 0.  0.
        4    1    3    3  502    0  0.24954918512E+03 -0.15976040542E+04 -0.37894620690E+03  0.16607875693E+04  0.12699999809E+01 0.  1.
       -4    1    3    3    0  502 -0.24954918512E+03  0.15976040542E+04  0.14755230967E+04  0.21890142831E+04  0.12699999809E+01 0. -1.
</event>
<event>
 5   0  0.7309833E-08  0.3698667E+04  0.7818609E-02  0.8068257E-01
       -2   -1    0    0    0  501  0.00000000000E+00  0.00000000000E+00  0.13966592540E+04  0.13966592540E+04  0.25500000920E-02 0. -1.
        2   -1    0    0  501    0  0.00000000000E+00  0.00000000000E+00 -0.24487246820E+04  0.24487246820E+04  0.25500000920E-02 0.  1.
    10030    2    1    2    0    0  0.00000000000E+00  0.00000000000E+00 -0.10520654280E+04  0.38453839360E+04  0.36986667802E+04 0.  0.
        2    1    3    3  502    0  0.15320139117E+04  0.46832408816E+03 -0.14866089910E+04  0.21854977395E+04  0.25500000920E-02 0.  1.
       -2    1    3    3    0  502 -0.15320139117E+04 -0.46832408816E+03  0.43454356301E+03  0.16598861965E+04  0.25500000920E-02 0. -1.
</event>
<event>
 5   0  0.7254493E-08  0.3703244E+04  0.7818609E-02  0.8067243E-01
        2   -1    0    0  501    0  0.00000000000E+00  0.00000000000E+00  0.19377898918E+04  0.19377898918E+04  0.25500000920E-02 0. -1.
       -2   -1    0    0    0  501  0.00000000000E+00  0.00000000000E+00 -0.17692860687E+04  0.17692860687E+04  0.25500000920E-02 0.  1.
    10030    2    1    2    0    0  0.00000000000E+00  0.00000000000E+00  0.16850382309E+03  0.37070759606E+04  0.37032443397E+04 0.  0.
        3    1    3    3  502    0 -0.58934591382E+03 -0.12276303835E+04  0.13401813303E+04  0.19106258066E+04  0.10100000352E+00 0. -1.
       -3    1    3    3    0  502  0.58934591382E+03  0.12276303835E+04 -0.11716775072E+04  0.17964501540E+04  0.10100000352E+00 0.  1.
</event>
<event>
 5   0  0.2282000E-08  0.3698434E+04  0.7818609E-02  0.8068309E-01
       -1   -1    0    0    0  501  0.00000000000E+00  0.00000000000E+00  0.17822565297E+04  0.17822565297E+04  0.50400001928E-02 0.  1.
        1   -1    0    0  501    0  0.00000000000E+00  0.00000000000E+00 -0.19186936716E+04  0.19186936716E+04  0.50400001928E-02 0. -1.
    10030    2    1    2    0    0  0.00000000000E+00  0.00000000000E+00 -0.13643714183E+03  0.37009502013E+04  0.36984344389E+04 0.  0.
        5    1    3    3  502    0  0.10045380611E+04  0.15417610960E+04  0.11482179322E+03  0.18437272379E+04  0.46999998093E+01 0.  1.
       -5    1    3    3    0  502 -0.10045380611E+04 -0.15417610960E+04 -0.25125893505E+03  0.18572229634E+04  0.46999998093E+01 0. -1.
</event>
<event>
 5   0  0.2282000E-08  0.3716615E+04  0.7818609E-02  0.8064290E-01
       -1   -1    0    0    0  501  0.00000000000E+00  0.00000000000E+00  0.14179529179E+04  0.14179529179E+04  0.50400001928E-02 0. -1.
        1   -1    0    0  501    0  0.00000000000E+00  0.00000000000E+00 -0.24354168072E+04  0.24354168072E+04  0.50400001928E-02 0.  1.
    10030    2    1    2    0    0  0.00000000000E+00  0.00000000000E+00 -0.10174638894E+04  0.38533697251E+04  0.37166147866E+04 0.  0.
        2    1    3    3  502    0  0.15023048085E+03 -0.11340521987E+04 -0.20270845467E+04  0.23275986222E+04  0.25500000920E-02 0.  1.
       -2    1    3    3    0  502 -0.15023048085E+03  0.11340521987E+04  0.10096206573E+04  0.15257711029E+04  0.25500000920E-02 0. -1.
</event>
<event>
 5   0  0.7203049E-08  0.3705451E+04  0.7818609E-02  0.8066755E-01
       -2   -1    0    0    0  501  0.00000000000E+00  0.00000000000E+00  0.12356678401E+04  0.12356678401E+04  0.25500000920E-02 0.  1.
        2   -1    0    0  501    0  0.00000000000E+00  0.00000000000E+00 -0.27779237853E+04  0.27779237853E+04  0.25500000920E-02 0. -1.
    10030    2    1    2    0    0  0.00000000000E+00  0.00000000000E+00 -0.15422559452E+04  0.40135916253E+04  0.37054506250E+04 0.  0.
        4    1    3    3  502    0  0.30236304725E+03 -0.14989031464E+04  0.36203190427E+03  0.15713697105E+04  0.12699999809E+01 0.  1.
       -4    1    3    3    0  502 -0.30236304725E+03  0.14989031464E+04 -0.19042878495E+04  0.24422219148E+04  0.12699999809E+01 0. -1.
</event>
<event>
 5   0  0.7309833E-08  0.3698061E+04  0.7818609E-02  0.8068392E-01
       -2   -1    0    0    0  501  0.00000000000E+00  0.00000000000E+00  0.26684785012E+04  0.26684785012E+04  0.25500000920E-02 0. -1.
        2   -1    0    0  501    0  0.00000000000E+00  0.00000000000E+00 -0.12812221242E+04  0.12812221242E+04  0.25500000920E-02 0.  1.
    10030    2    1    2    0    0  0.00000000000E+00  0.00000000000E+00  0.13872563770E+04  0.39497006253E+04  0.36980609479E+04 0.  0.
        2    1    3    3  502    0  0.12168412864E+04  0.10892770186E+04 -0.23236652035E+03  0.16496124815E+04  0.25500000920E-02 0.  1.
       -2    1    3    3    0  502 -0.12168412864E+04 -0.10892770186E+04  0.16196228974E+04  0.23000881438E+04  0.25500000920E-02 0. -1.
</event>
<event>
 5   0  0.2282000E-08  0.3679979E+04  0.7818609E-02  0.8072413E-01
        1   -1    0    0  501    0  0.00000000000E+00  0.00000000000E+00  0.14395178544E+04  0.14395178544E+04  0.50400001928E-02 0. -1.
       -1   -1    0    0    0  501  0.00000000000E+00  0.00000000000E+00 -0.23518714024E+04  0.23518714024E+04  0.50400001928E-02 0.  1.
    10030    2    1    2    0    0  0.00000000000E+00  0.00000000000E+00 -0.91235354805E+03  0.37913892568E+04  0.36799787364E+04 0.  0.
        2    1    3    3  502    0 -0.54324243597E+02  0.12290589620E+04 -0.18658185147E+04  0.22349084512E+04  0.25500000920E-02 0.  1.
       -2    1    3    3    0  502  0.54324243597E+02 -0.12290589620E+04  0.95346496669E+03  0.15564808056E+04  0.25500000920E-02 0. -1.
</event>
<event>
 5   0  0.7309833E-08  0.3702580E+04  0.7818609E-02  0.8067390E-01
        2   -1    0    0  501    0  0.00000000000E+00  0.00000000000E+00  0.15845448716E+04  0.15845448716E+04  0.25500000920E-02 0. -1.
       -2   -1    0    0    0  501  0.00000000000E+00  0.00000000000E+00 -0.21629394480E+04  0.21629394480E+04  0.25500000920E-02 0.  1.
    10030    2    1    2    0    0  0.00000000000E+00  0.00000000000E+00 -0.57839457646E+03  0.37474843196E+04  0.37025799707E+04 0.  0.
        2    1    3    3  502    0 -0.13053721983E+04  0.95052750963E+02  0.10359726348E+04  0.16692126592E+04  0.25500000920E-02 0. -1.
       -2    1    3    3    0  502  0.13053721983E+04 -0.95052750963E+02 -0.16143672113E+04  0.20782716604E+04  0.25500000920E-02 0.  1.
</event>
<event>
 5   0  0.7191801E-08  0.3700008E+04  0.7818609E-02  0.8067960E-01
        2   -1    0    0  501    0  0.00000000000E+00  0.00000000000E+00  0.20550343034E+04  0.20550343034E+04  0.25500000920E-02 0.  1.
       -2   -1    0    0    0  501  0.00000000000E+00  0.00000000000E+00 -0.16654294022E+04  0.16654294022E+04  0.25500000920E-02 0. -1.
    10030    2    1    2    0    0  0.00000000000E+00  0.00000000000E+00  0.38960490114E+03  0.37204637056E+04  0.37000078656E+04 0.  0.
        5    1    3    3  502    0  0.60172008970E+03  0.41898214455E+03 -0.15130810895E+04  0.16813832333E+04  0.46999998093E+01 0. -1.
       -5    1    3    3    0  502 -0.60172008970E+03 -0.41898214455E+03  0.19026859906E+04  0.20390804723E+04  0.46999998093E+01 0.  1.
</event>
<event>
 5   0  0.7203049E-08  0.3702706E+04  0.7818609E-02  0.8067362E-01
        2   -1    0    0  501    0  0.00000000000E+00  0.00000000000E+00  0.20271598242E+04  0.20271598242E+04  0.25500000920E-02 0. -1.
       -2   -1    0    0    0  501  0.00000000000E+00  0.00000000000E+00 -0.16907933842E+04  0.16907933842E+04  0.25500000920E-02 0.  1.
    10030    2    1    2    0    0  0.00000000000E+00  0.00000000000E+00  0.33636644003E+03  0.37179532084E+04  0.37027062641E+04 0.  0.
        4    1    3    3  502    0  0.14357103523E+03 -0.41378026947E+03 -0.16380234626E+04  0.16955675246E+04  0.12699999809E+01 0.  1.
       -4    1    3    3    0  502 -0.14357103523E+03  0.41378026947E+03  0.19743899026E+04  0.20223856838E+04  0.12699999809E+01 0. -1.
</event>
<event>
 5   0  0.7309833E-08  0.3695151E+04  0.7818609E-02  0.8069037E-01
        2   -1    0    0  501    0  0.00000000000E+00  0.00000000000E+00  0.23444123397E+04  0.23444123397E+04  0.25500000920E-02 0. -1.
       -2   -1    0    0    0  501  0.00000000000E+00  0.00000000000E+00 -0.14560299144E+04  0.14560299144E+04  0.25500000920E-02 0.  1.
    10030    2    1    2    0    0  0.00000000000E+00  0.00000000000E+00  0.88838242529E+03  0.38004422541E+04  0.36951506049E+04 0.  0.
        2    1    3    3  502    0 -0.13049849594E+03 -0.73505356997E+03 -0.12939952742E+04  0.14939067500E+04  0.25500000920E-02 0.  1.
       -2    1    3    3    0  502  0.13049849594E+03  0.73505356997E+03  0.21823776995E+04  0.23065355040E+04  0.25500000920E-02 0. -1.
</event>
<event>
 5   0  0.7191801E-08  0.3696054E+04  0.7818609E-02  0.8068837E-01
       -2   -1    0    0    0  501  0.00000000000E+00  0.00000000000E+00  0.10527417188E+04  0.10527417188E+04  0.25500000920E-02 0.  1.
        2   -1    0    0  501    0  0.00000000000E+00  0.00000000000E+00 -0.32441045069E+04  0.32441045069E+04  0.25500000920E-02 0. -1.
    10030    2    1    2    0    0  0.00000000000E+00  0.00000000000E+00 -0.21913627881E+04  0.42968462257E+04  0.36960541957E+04 0.  0.
        5    1    3    3  502    0  0.69011817850E+03 -0.75704178353E+03 -0.28838197119E+04  0.30603616752E+04  0.46999998093E+01 0. -1.
       -5    1    3    3    0  502 -0.69011817850E+03  0.75704178353E+03  0.69245692378E+03  0.12364845505E+04  0.46999998093E+01 0.  1.
</event>
<event>
 5   0  0.2282000E-08  0.3706511E+04  0.7818609E-02  0.8066520E-01
        1   -1    0    0  501    0  0.00000000000E+00  0.00000000000E+00  0.29305656187E+04  0.29305656187E+04  0.50400001928E-02 0.  1.
       -1   -1    0    0    0  501  0.00000000000E+00  0.00000000000E+00 -0.11719774410E+04  0.11719774410E+04  0.50400001928E-02 0. -1.
    10030    2    1    2    0    0  0.00000000000E+00  0.00000000000E+00  0.17585881777E+04  0.41025430598E+04  0.37065114567E+04 0.  0.
        1    1    3    3  502    0 -0.78814778406E+03  0.15619186372E+04  0.20258554245E+03  0.17611949525E+04  0.50400001928E-02 0. -1.
       -1    1    3    3    0  502  0.78814778406E+03 -0.15619186372E+04  0.15560026352E+04  0.23413481073E+04  0.50400001928E-02 0.  1.
</event>
<event>
 5   0  0.7254493E-08  0.3697889E+04  0.7818609E-02  0.8068430E-01
       -2   -1    0    0    0  501  0.00000000000E+00  0.00000000000E+00  0.21972737466E+04  0.21972737466E+04  0.25500000920E-02 0. -1.
        2   -1    0    0  501    0  0.00000000000E+00  0.00000000000E+00 -0.15558350274E+04  0.15558350274E+04  0.25500000920E-02 0.  1.
    10030    2    1    2    0    0  0.00000000000E+00  0.00000000000E+00  0.64143871919E+03  0.37531087740E+04  0.36978888354E+04 0.  0.
        3    1    3    3  502    0 -0.61451116679E+03  0.76627954561E+03 -0.12691291442E+04  0.16048355402E+04  0.10100000352E+00 0.  1.
       -3    1    3    3    0  502  0.61451116679E+03 -0.76627954561E+03  0.19105678634E+04  0.21482732338E+04  0.10100000352E+00 0. -1.
</event>
<event>
 5   0  0.2282000E-08  0.3696024E+04  0.7818609E-02  0.8068844E-01
       -1   -1    0    0    0  501  0.00000000000E+00  0.00000000000E+00  0.18201601919E+04  0.18201601920E+04  0.50400001928E-02 0. -1.
        1   -1    0    0  501    0  0.00000000000E+00  0.00000000000E+00 -0.18762899123E+04  0.18762899123E+04  0.50400001928E-02 0.  1.
    10030    2    1    2    0    0  0.00000000000E+00  0.00000000000E+00 -0.56129720358E+02  0.36964501043E+04  0.36960239214E+04 0.  0.
        1    1    3    3  502    0 -0.16154342849E+04 -0.84384443942E+03  0.27766114743E+03  0.18435826750E+04  0.50400001928E-02 0. -1.
       -1    1    3    3    0  502  0.16154342849E+04  0.84384443942E+03 -0.33379086779E+03  0.18528674292E+04  0.50400001928E-02 0.  1.
</event>
<event>
 5   0  0.7309833E-08  0.3701102E+04  0.7818609E-02  0.8067718E-01
       -2   -1    0    0    0  501  0.00000000000E+00  0.00000000000E+00  0.18160230164E+04  0.18160230164E+04  0.25500000920E-02 0.  1.
        2   -1    0    0  501    0  0.00000000000E+00  0.00000000000E+00 -0.18857349878E+04  0.18857349878E+04  0.25500000920E-02 0. -1.
    10030    2    1    2    0    0  0.00000000000E+00  0.00000000000E+00 -0.69711971366E+02  0.37017580042E+04  0.37011015337E+04 0.  0.
        2    1    3    3  502    0  0.95875779522E+03 -0.24908504347E+03 -0.15982321674E+04  0.18803206986E+04  0.25500000920E-02 0. -1.
       -2    1    3    3    0  502 -0.95875779522E+03  0.24908504347E+03  0.15285201960E+04  0.18214373056E+04  0.25500000920E-02 0.  1.
</event>
<event>
 5   0  0.7191801E-08  0.3702928E+04  0.7818609E-02  0.8067313E-01
        2   -1    0    0  501    0  0.00000000000E+00  0.00000000000E+00  0.22998986266E+04  0.22998986266E+04  0.25500000920E-02 0. -1.
       -2   -1    0    0    0  501  0.00000000000E+00  0.00000000000E+00 -0.14904650054E+04  0.14904650054E+04  0.25500000920E-02 0.  1.
    10030    2    1    2    0    0  0.00000000000E+00  0.00000000000E+00  0.80943362122E+03  0.37903636320E+04  0.37029277167E+04 0.  0.
        5    1    3    3  502    0 -0.15415625615E+04  0.59876967651E+03 -0.44737912613E+03  0.17132163988E+04  0.46999998093E+01 0.  1.
       -5    1    3    3    0  502  0.15415625615E+04 -0.59876967651E+03  0.12568127473E+04  0.20771472332E+04  0.46999998093E+01 0. -1.
</event>
<event>
 5   0  0.2282000E-08  0.3704024E+04  0.7818609E-02  0.8067071E-01
        1   -1    0    0  501    0  0.00000000000E+00  0.00000000000E+00  0.15498523082E+04  0.15498523082E+04  0.50400001928E-02 0.  1.
       -1   -1    0    0    0  501  0.00000000000E+00  0.00000000000E+00 -0.22130807941E+04  0.22130807941E+04  0.50400001928E-02 0. -1.
    10030    2    1    2    0    0  0.00000000000E+00  0.00000000000E+00 -0.66322848592E+03  0.37629331024E+04  0.37040239616E+04 0.  0.
        3    1    3    3  502    0  0.17306351720E+04  0.28145783812E+03  0.27421882653E+03  0.17746866169E+04  0.10100000352E+00 0.  1.
       -3    1    3    3    0  502 -0.17306351720E+04 -0.28145783812E+03 -0.93744731245E+03  0.19882464855E+04  0.10100000352E+00 0. -1.
</event>
<event>
 5   0  0.2282000E-08  0.3706195E+04  0.7818609E-02  0.8066590E-01
        1   -1    0    0  501    0  0.00000000000E+00  0.00000000000E+00  0.10414841223E+04  0.10414841223E+04  0.50400001928E-02 0. -1.
       -1   -1    0    0    0  501  0.00000000000E+00  0.00000000000E+00 -0.32971901506E+04  0.32971901506E+04  0.50400001928E-02 0.  1.
    10030    2    1    2    0    0  0.00000000000E+00  0.00000000000E+00 -0.22557060283E+04  0.43386742730E+04  0.37061954564E+04 0.  0.
        1    1    3    3  502    0 -0.49669579691E+03  0.17849429582E+04 -0.11691276965E+04  0.21907961223E+04  0.50400001928E-02 0.  1.
       -1    1    3    3    0  502  0.49669579691E+03 -0.17849429582E+04 -0.10865783317E+04  0.21478781506E+04  0.50400001928E-02 0. -1.
</event>
<event>
 5   0  0.2282000E-08  0.3696602E+04  0.7818609E-02  0.8068715E-01
       -1   -1    0    0    0  501  0.00000000000E+00  0.00000000000E+00  0.14285540593E+04  0.14285540593E+04  0.50400001928E-02 0. -1.
        1   -1    0    0  501    0  0.00000000000E+00  0.00000000000E+00 -0.23913805515E+04  0.23913805515E+04  0.50400001928E-02 0.  1.
    10030    2    1    2    0    0  0.00000000000E+00  0.00000000000E+00 -0.96282649212E+03  0.38199346108E+04  0.36966018959E+04 0.  0.
        5    1    3    3  502    0 -0.12918097271E+04  0.75312505480E+03 -0.16040404846E+04  0.21929290197E+04  0.46999998093E+01 0. -1.
       -5    1    3    3    0  502  0.12918097271E+04 -0.75312505480E+03  0.64121399250E+03  0.16270055911E+04  0.46999998093E+01 0.  1.
</event>
<event>
 5   0  0.2282000E-08  0.3715644E+04  0.7818609E-02  0.8064504E-01
       -1   -1    0    0    0  501  0.00000000000E+00  0.00000000000E+00  0.16924960920E+04  0.16924960920E+04  0.50400001928E-02 0.  1.
        1   -1    0    0  501    0  0.00000000000E+00  0.00000000000E+00 -0.20392971578E+04  0.20392971579E+04  0.50400001928E-02 0. -1.
    10030    2    1    2    0    0  0.00000000000E+00  0.00000000000E+00 -0.34680106584E+03  0.37317932499E+04  0.37156439389E+04 0.  0.
        3    1    3    3  502    0  0.32895360022E+03  0.28029903644E+03  0.16413074513E+04  0.16972531281E+04  0.10100000352E+00 0.  1.
       -3    1    3    3    0  502 -0.32895360022E+03 -0.28029903644E+03 -0.19881085171E+04  0.20345401218E+04  0.10100000352E+00 0. -1.
</event>
<event>
 5   0  0.7191801E-08  0.3706281E+04  0.7818609E-02  0.8066571E-01
       -2   -1    0    0    0  501  0.00000000000E+00  0.00000000000E+00  0.18615478619E+04  0.18615478619E+04  0.25500000920E-02 0. -1.
        2   -1    0    0  501    0  0.00000000000E+00  0.00000000000E+00 -0.18447711545E+04  0.18447711545E+04  0.25500000920E-02 0.  1.
    10030    2    1    2    0    0  0.00000000000E+00  0.00000000000E+00  0.16776707419E+02  0.37063190164E+04  0.37062810462E+04 0.  0.
        5    1    3    3  502    0 -0.41392364568E+02  0.11105103448E+04  0.14913604421E+04  0.18598722031E+04  0.46999998093E+01 0. -1.
       -5    1    3    3    0  502  0.41392364568E+02 -0.11105103448E+04 -0.14745837347E+04  0.18464468133E+04  0.46999998093E+01 0.  1.
</event>
<event>
 5   0  0.7191801E-08  0.3661558E+04  0.7818609E-02  0.8076535E-01
       -2   -1    0    0    0  501  0.00000000000E+00  0.00000000000E+00  0.11802226553E+04  0.11802226553E+04  0.25500000920E-02 0. -1.
        2   -1    0    0  501    0  0.00000000000E+00  0.00000000000E+00 -0.28399310092E+04  0.28399310092E+04  0.25500000920E-02 0.  1.
    10030    2    1    2    0    0  0.00000000000E+00  0.00000000000E+00 -0.16597083539E+04  0.40201536646E+04  0.36615575466E+04 0.  0.
        5    1    3    3  502    0  0.24354044835E+03 -0.18144989595E+04 -0.83339537602E+03  0.20115388057E+04  0.46999998093E+01 0. -1.
       -5    1    3    3    0  502 -0.24354044835E+03  0.18144989595E+04 -0.82631297790E+03  0.20086148589E+04  0.46999998093E+01 0.  1.
</event>
<event>
 5   0  0.2282000E-08  0.3699427E+04  0.7818609E-02  0.8068089E-01
       -1   -1    0    0    0  501  0.00000000000E+00  0.00000000000E+00  0.13382821575E+04  0.13382821576E+04  0.50400001928E-02 0. -1.
        1   -1    0    0  501    0  0.00000000000E+00  0.00000000000E+00 -0.25565908394E+04  0.25565908394E+04  0.50400001928E-02 0.  1.
    10030    2    1    2    0    0  0.00000000000E+00  0.00000000000E+00 -0.12183086818E+04  0.38948729969E+04  0.36994269310E+04 0.  0.
        1    1    3    3  502    0 -0.16870479952E+04  0.70376952923E+03 -0.90697245497E+03  0.20405934241E+04  0.50400001928E-02 0.  1.
       -1    1    3    3    0  502  0.16870479952E+04 -0.70376952923E+03 -0.31133622686E+03  0.18542795729E+04  0.50400001928E-02 0. -1.
</event>
<event>
 5   0  0.2282000E-08  0.3701498E+04  0.7818609E-02  0.8067630E-01
        3   -1    0    0  501    0  0.00000000000E+00  0.00000000000E+00  0.16977976048E+04  0.16977976078E+04  0.10100000352E+00 0. -1.
       -3   -1    0    0    0  501  0.00000000000E+00  0.00000000000E+00 -0.20174796285E+04  0.20174796310E+04  0.10100000352E+00 0.  1.
    10030    2    1    2    0    0  0.00000000000E+00  0.00000000000E+00 -0.31968202369E+03  0.37152772388E+04  0.37014981243E+04 0.  0.
        2    1    3    3  502    0 -0.11748578432E+03 -0.55377196277E+03  0.16087642527E+04  0.17054585064E+04  0.25500000920E-02 0. -1.
       -2    1    3    3    0  502  0.11748578432E+03  0.55377196277E+03 -0.19284462764E+04  0.20098187324E+04  0.25500000920E-02 0.  1.
</event>
<event>
 5   0  0.7254493E-08  0.3700242E+04  0.7818609E-02  0.8067908E-01
       -2   -1    0    0    0  501  0.00000000000E+00  0.00000000000E+00  0.16314810347E+04  0.16314810347E+04  0.25500000920E-02 0.  1.
        2   -1    0    0  501    0  0.00000000000E+00  0.00000000000E+00 -0.20980616791E+04  0.20980616791E+04  0.25500000920E-02 0. -1.
    10030    2    1    2    0    0  0.00000000000E+00  0.00000000000E+00 -0.46658064446E+03  0.37295427138E+04  0.37002420673E+04 0.  0.
        3    1    3    3  502    0 -0.49537113367E+03 -0.17583666498E+04  0.61776861908E+02  0.18278572772E+04  0.10100000352E+00 0.  1.
       -3    1    3    3    0  502  0.49537113367E+03  0.17583666498E+04 -0.52835750637E+03  0.19016854366E+04  0.10100000352E+00 0. -1.
</event>
<event>
 5   0  0.7191801E-08  0.3709619E+04  0.7818609E-02  0.8065833E-01
       -2   -1    0    0    0  501  0.00000000000E+00  0.00000000000E+00  0.28240826110E+04  0.28240826110E+04  0.25500000920E-02 0. -1.
        2   -1    0    0  501    0  0.00000000000E+00  0.00000000000E+00 -0.12182076982E+04  0.12182076982E+04  0.25500000920E-02 0.  1.
    10030    2    1    2    0    0  0.00000000000E+00  0.00000000000E+00  0.16058749128E+04  0.40422903092E+04  0.37096194830E+04 0.  0.
        5    1    3    3  502    0  0.10539713588E+01  0.81525728622E+03  0.26183720539E+04  0.27423602710E+04  0.46999998093E+01 0. -1.
       -5    1    3    3    0  502 -0.10539713588E+01 -0.81525728622E+03 -0.10124971411E+04  0.12999300382E+04  0.46999998093E+01 0.  1.
</event>
<event>
 5   0  0.7203049E-08  0.3689766E+04  0.7818609E-02  0.8070234E-01
       -2   -1    0    0    0  501  0.00000000000E+00  0.00000000000E+00  0.13373593568E+04  0.13373593568E+04  0.25500000920E-02 0. -1.
        2   -1    0    0  501    0  0.00000000000E+00  0.00000000000E+00 -0.25450096787E+04  0.25450096787E+04  0.25500000920E-02 0.  1.
    10030    2    1    2    0    0  0.00000000000E+00  0.00000000000E+00 -0.12076503219E+04  0.38823690355E+04  0.36897655790E+04 0.  0.
        4    1    3    3  502    0  0.37478670471E+03 -0.86532487239E+03  0.10646122837E+04  0.14222001042E+04  0.12699999809E+01 0. -1.
       -4    1    3    3    0  502 -0.37478670471E+03  0.86532487239E+03 -0.22722626056E+04  0.24601689313E+04  0.12699999809E+01 0.  1.
</event>
<event>
 5   0  0.2282000E-08  0.3695126E+04  0.7818609E-02  0.8069043E-01
       -1   -1    0    0    0  501  0.00000000000E+00  0.00000000000E+00  0.16754962435E+04  0.16754962435E+04  0.50400001928E-02 0.  1.
        1   -1    0    0  501    0  0.00000000000E+00  0.00000000000E+00 -0.20373006617E+04  0.20373006617E+04  0.50400001928E-02 0. -1.
    10030    2    1    2    0    0  0.00000000000E+00  0.00000000000E+00 -0.36180441821E+03  0.37127969052E+04  0.36951263066E+04 0.  0.
        3    1    3    3  502    0 -0.14450588628E+04 -0.11511890322E+04 -0.17323088776E+03  0.18556508981E+04  0.10100000352E+00 0.  1.
       -3    1    3    3    0  502  0.14450588628E+04  0.11511890322E+04 -0.18857353045E+03  0.18571460071E+04  0.10100000352E+00 0. -1.
</event>
<event>
 5   0  0.2282000E-08  0.3677586E+04  0.7818609E-02  0.8072947E-01
       -1   -1    0    0    0  501  0.00000000000E+00  0.00000000000E+00  0.13188808350E+04  0.13188808350E+04  0.50400001928E-02 0.  1.
        1   -1    0    0  501    0  0.00000000000E+00  0.00000000000E+00 -0.25636584032E+04  0.25636584032E+04  0.50400001928E-02 0. -1.
    10030    2    1    2    0    0  0.00000000000E+00  0.00000000000E+00 -0.12447775682E+04  0.38825392382E+04  0.36775861298E+04 0.  0.
        4    1    3    3  502    0  0.43424239292E+03  0.95015242873E+03 -0.22199296912E+04  0.24534558363E+04  0.12699999809E+01 0. -1.
       -4    1    3    3    0  502 -0.43424239292E+03 -0.95015242873E+03  0.97515212306E+03  0.14290834019E+04  0.12699999809E+01 0.  1.
</event>
<event>
 5   0  0.2282000E-08  0.3696914E+04  0.7818609E-02  0.8068646E-01
        1   -1    0    0  501    0  0.00000000000E+00  0.00000000000E+00  0.19640086535E+04  0.19640086535E+04  0.50400001928E-02 0.  1.
       -1   -1    0    0    0  501  0.00000000000E+00  0.00000000000E+00 -0.17397034755E+04  0.17397034755E+04  0.50400001928E-02 0. -1.
    10030    2    1    2    0    0  0.00000000000E+00  0.00000000000E+00  0.22430517797E+03  0.37037121290E+04  0.36969136752E+04 0.  0.
        4    1    3    3  502    0  0.67585534537E+03 -0.54645470034E+02 -0.16106097729E+04  0.17475216819E+04  0.12699999809E+01 0. -1.
       -4    1    3    3    0  502 -0.67585534537E+03  0.54645470034E+02  0.18349149509E+04  0.19561904471E+04  0.12699999809E+01 0.  1.
</event>
<event>
 5   0  0.2282000E-08  0.3701522E+04  0.7818609E-02  0.8067625E-01
        1   -1    0    0  501    0  0.00000000000E+00  0.00000000000E+00  0.12258669178E+04  0.12258669178E+04  0.50400001928E-02 0. -1.
       -1   -1    0    0    0  501  0.00000000000E+00  0.00000000000E+00 -0.27941989337E+04  0.27941989337E+04  0.50400001928E-02 0.  1.
    10030    2    1    2    0    0  0.00000000000E+00  0.00000000000E+00 -0.15683320159E+04  0.40200658515E+04  0.37015218678E+04 0.  0.
        4    1    3    3  502    0 -0.21602979404E+03 -0.42234396636E+03 -0.27270471555E+04  0.27680012823E+04  0.12699999809E+01 0.  1.
       -4    1    3    3    0  502  0.21602979404E+03  0.42234396636E+03  0.11587151395E+04  0.12520645692E+04  0.12699999809E+01 0. -1.
</event>
<event>
 5   0  0.2282000E-08  0.3703460E+04  0.7818609E-02  0.8067195E-01
       -1   -1    0    0    0  501  0.00000000000E+00  0.00000000000E+00  0.20290539396E+04  0.20290539396E+04  0.50400001928E-02 0. -1.
        1   -1    0    0  501    0  0.00000000000E+00  0.00000000000E+00 -0.16899029460E+04  0.16899029461E+04  0.50400001928E-02 0.  1.
    10030    2    1    2    0    0  0.00000000000E+00  0.00000000000E+00  0.33915099354E+03  0.37189568856E+04  0.37034601282E+04 0.  0.
        1    1    3    3  502    0  0.55455461009E+02  0.16798185031E+04  0.95002688776E+03  0.19306518586E+04  0.50400001928E-02 0.  1.
       -1    1    3    3    0  502 -0.55455461009E+02 -0.16798185031E+04 -0.61087589423E+03  0.17883050270E+04  0.50400001928E-02 0. -1.
</event>
<event>
 5   0  0.2282000E-08  0.3696802E+04  0.7818609E-02  0.8068671E-01
        1   -1    0    0  501    0  0.00000000000E+00  0.00000000000E+00  0.16472017433E+04  0.16472017433E+04  0.50400001928E-02 0. -1.
       -1   -1    0    0    0  501  0.00000000000E+00  0.00000000000E+00 -0.20741758544E+04  0.20741758544E+04  0.50400001928E-02 0.  1.
    10030    2    1    2    0    0  0.00000000000E+00  0.00000000000E+00 -0.42697411111E+03  0.37213775976E+04  0.36968019061E+04 0.  0.
        5    1    3    3  502    0  0.14397944467E+04  0.72760148692E+03  0.69481503129E+03  0.17564743067E+04  0.46999998093E+01 0. -1.
       -5    1    3    3    0  502 -0.14397944467E+04 -0.72760148692E+03 -0.11217891424E+04  0.19649032909E+04  0.46999998093E+01 0.  1.
</event>
<event>
 5   0  0.7203049E-08  0.3691888E+04  0.7818609E-02  0.8069762E-01
        2   -1    0    0  501    0  0.00000000000E+00  0.00000000000E+00  0.12058504510E+04  0.12058504510E+04  0.25500000920E-02 0. -1.
       -2   -1    0    0    0  501  0.00000000000E+00  0.00000000000E+00 -0.28258148541E+04  0.28258148541E+04  0.25500000920E-02 0.  1.
    10030    2    1    2    0    0  0.00000000000E+00  0.00000000000E+00 -0.16199644032E+04  0.40316653051E+04  0.36918884686E+04 0.  0.
        4    1    3    3  502    0 -0.41111675029E+03 -0.17994125089E+04 -0.83686804783E+03  0.20266356609E+04  0.12699999809E+01 0. -1.
       -4    1    3    3    0  502  0.41111675029E+03  0.17994125089E+04 -0.78309635535E+03  0.20050296442E+04  0.12699999809E+01 0.  1.
</event>
<event>
 5   0  0.2282000E-08  0.3734757E+04  0.7818609E-02  0.8060303E-01
       -3   -1    0    0    0  501  0.00000000000E+00  0.00000000000E+00  0.24503998336E+04  0.24503998357E+04  0.10100000352E+00 0.  1.
        3   -1    0    0  501    0  0.00000000000E+00  0.00000000000E+00 -0.14230750471E+04  0.14230750507E+04  0.10100000352E+00 0. -1.
    10030    2    1    2    0    0  0.00000000000E+00  0.00000000000E+00  0.10273247865E+04  0.38734748864E+04  0.37347572181E+04 0.  0.
        2    1    3    3  502    0 -0.45150583308E+03  0.10261995190E+04  0.20625017314E+04  0.23475213231E+04  0.25500000920E-02 0.  1.
       -2    1    3    3    0  502  0.45150583308E+03 -0.10261995190E+04 -0.10351769449E+04  0.15259535633E+04  0.25500000920E-02 0. -1.
</event>
<event>
 5   0  0.7203049E-08  0.3691099E+04  0.7818609E-02  0.8069937E-01
        2   -1    0    0  501    0  0.00000000000E+00  0.00000000000E+00  0.11959782730E+04  0.11959782730E+04  0.25500000920E-02 0.  1.
       -2   -1    0    0    0  501  0.00000000000E+00  0.00000000000E+00 -0.28479216332E+04  0.28479216332E+04  0.25500000920E-02 0. -1.
    10030    2    1    2    0    0  0.00000000000E+00  0.00000000000E+00 -0.16519433602E+04  0.40438999062E+04  0.36910986964E+04 0.  0.
        4    1    3    3  502    0  0.15061544385E+04 -0.74474749411E+03  0.10482297475E+02  0.16802563834E+04  0.12699999809E+01 0. -1.
       -4    1    3    3    0  502 -0.15061544385E+04  0.74474749411E+03 -0.16624256577E+04  0.23636435228E+04  0.12699999809E+01 0.  1.
</event>
<event>
 5   0  0.2282000E-08  0.3701290E+04  0.7818609E-02  0.8067676E-01
       -1   -1    0    0    0  501  0.00000000000E+00  0.00000000000E+00  0.11569994027E+04  0.11569994027E+04  0.50400001928E-02 0. -1.
        1   -1    0    0  501    0  0.00000000000E+00  0.00000000000E+00 -0.29601459568E+04  0.29601459568E+04  0.50400001928E-02 0.  1.
    10030    2    1    2    0    0  0.00000000000E+00  0.00000000000E+00 -0.18031465541E+04  0.41171453595E+04  0.37012901016E+04 0.  0.
        1    1    3    3  502    0 -0.10949345339E+04  0.13319863165E+04 -0.16492688377E+04  0.23860337130E+04  0.50400001928E-02 0.  1.
       -1    1    3    3    0  502  0.10949345339E+04 -0.13319863165E+04 -0.15387771642E+03  0.17311116465E+04  0.50400001928E-02 0. -1.
</event>
<event>
 5   0  0.7362817E-08  0.3682089E+04  0.7818609E-02  0.8071943E-01
       -2   -1    0    0    0  501  0.00000000000E+00  0.00000000000E+00  0.18690007568E+04  0.18690007568E+04  0.25500000920E-02 0. -1.
        2   -1    0    0  501    0  0.00000000000E+00  0.00000000000E+00 -0.18135062940E+04  0.18135062940E+04  0.25500000920E-02 0.  1.
    10030    2    1    2    0    0  0.00000000000E+00  0.00000000000E+00  0.55494462812E+02  0.36825070509E+04  0.36820888833E+04 0.  0.
        1    1    3    3  502    0 -0.87401109992E+03 -0.77063698319E+03  0.14532749809E+04  0.18627358731E+04  0.50400001928E-02 0. -1.
       -1    1    3    3    0  502  0.87401109992E+03  0.77063698319E+03 -0.13977805181E+04  0.18197711778E+04  0.50400001928E-02 0.  1.
</event>
<event>
 5   0  0.2282000E-08  0.3676443E+04  0.7818609E-02  0.8073203E-01
        1   -1    0    0  501    0  0.00000000000E+00  0.00000000000E+00  0.22327798007E+04  0.22327798007E+04  0.50400001928E-02 0. -1.
       -1   -1    0    0    0  501  0.00000000000E+00  0.00000000000E+00 -0.15133859310E+04  0.15133859310E+04  0.50400001928E-02 0.  1.
    10030    2    1    2    0    0  0.00000000000E+00  0.00000000000E+00  0.71939386976E+03  0.37461657317E+04  0.36764425944E+04 0.  0.
        3    1    3    3  502    0 -0.18372191638E+04 -0.48518362352E+02  0.39684710977E+03  0.18802169891E+04  0.10100000352E+00 0.  1.
       -3    1    3    3    0  502  0.18372191638E+04  0.48518362352E+02  0.32254675999E+03  0.18659487426E+04  0.10100000352E+00 0. -1.
</event>
<event>
 5   0  0.7309833E-08  0.3701126E+04  0.7818609E-02  0.8067712E-01
        2   -1    0    0  501    0  0.00000000000E+00  0.00000000000E+00  0.24884741670E+04  0.24884741670E+04  0.25500000920E-02 0.  1.
       -2   -1    0    0    0  501  0.00000000000E+00  0.00000000000E+00 -0.13761780567E+04  0.13761780567E+04  0.25500000920E-02 0. -1.
    10030    2    1    2    0    0  0.00000000000E+00  0.00000000000E+00  0.11122961103E+04  0.38646522237E+04  0.37011260683E+04 0.  0.
        2    1    3    3  502    0 -0.78467501902E+03 -0.16663738315E+04  0.74313233938E+03  0.19861425693E+04  0.25500000920E-02 0.  1.
       -2    1    3    3    0  502  0.78467501902E+03  0.16663738315E+04  0.36916377096E+03  0.18785096544E+04  0.25500000920E-02 0. -1.
</event>
<event>
 5   0  0.2282000E-08  0.3694565E+04  0.7818609E-02  0.8069167E-01
       -1   -1    0    0    0  501  0.00000000000E+00  0.00000000000E+00  0.11948988884E+04  0.11948988884E+04  0.50400001928E-02 0. -1.
        1   -1    0    0  501    0  0.00000000000E+00  0.00000000000E+00 -0.28558508724E+04  0.28558508724E+04  0.50400001928E-02 0.  1.
    10030    2    1    2    0    0  0.00000000000E+00  0.00000000000E+00 -0.16609519839E+04  0.40507497608E+04  0.36945652155E+04 0.  0.
        1    1    3    3  502    0  0.18428003302E+04 -0.12714537352E+03 -0.80927163351E+03  0.20166803366E+04  0.50400001928E-02 0. -1.
       -1    1    3    3    0  502 -0.18428003302E+04  0.12714537352E+03 -0.85168035043E+03  0.20340694242E+04  0.50400001928E-02 0.  1.
</event>
<event>
 5   0  0.2282000E-08  0.3698416E+04  0.7818609E-02  0.8068313E-01
       -1   -1    0    0    0  501  0.00000000000E+00  0.00000000000E+00  0.21146664391E+04  0.21146664391E+04  0.50400001928E-02 0. -1.
        1   -1    0    0  501    0  0.00000000000E+00  0.00000000000E+00 -0.16170733882E+04  0.16170733882E+04  0.50400001928E-02 0.  1.
    10030    2    1    2    0    0  0.00000000000E+00  0.00000000000E+00  0.49759305092E+03  0.37317398274E+04  0.36984163225E+04 0.  0.
        5    1    3    3  502    0  0.78296338481E+03  0.16127718242E+04 -0.20859139143E+03  0.18048814580E+04  0.46999998093E+01 0.  1.
       -5    1    3    3    0  502 -0.78296338481E+03 -0.16127718242E+04  0.70618444235E+03  0.19268583693E+04  0.46999998093E+01 0. -1.
</event>
<event>
 5   0  0.2282000E-08  0.3713940E+04  0.7818609E-02  0.8064880E-01
       -1   -1    0    0    0  501  0.00000000000E+00  0.00000000000E+00  0.24405478515E+04  0.24405478515E+04  0.50400001928E-02 0. -1.
        1   -1    0    0  501    0  0.00000000000E+00  0.00000000000E+00 -0.14129358020E+04  0.14129358020E+04  0.50400001928E-02 0.  1.
    10030    2    1    2    0    0  0.00000000000E+00  0.00000000000E+00  0.10276120495E+04  0.38534836535E+04  0.37139399219E+04 0.  0.
        1    1    3    3  502    0  0.15713482556E+04  0.64571034958E+03 -0.26420783490E+03  0.17192681513E+04  0.50400001928E-02 0.  1.
       -1    1    3    3    0  502 -0.15713482556E+04 -0.64571034958E+03  0.12918198844E+04  0.21342155022E+04  0.50400001928E-02 0. -1.
</event>
<event>
 5   0  0.7191801E-08  0.3706266E+04  0.7818609E-02  0.8066575E-01
        2   -1    0    0  501    0  0.00000000000E+00  0.00000000000E+00  0.13636625474E+04  0.13636625474E+04  0.25500000920E-02 0. -1.
       -2   -1    0    0    0  501  0.00000000000E+00  0.00000000000E+00 -0.25182937293E+04  0.25182937293E+04  0.25500000920E-02 0.  1.
    10030    2    1    2    0    0  0.00000000000E+00  0.00000000000E+00 -0.11546311819E+04  0.38819562766E+04  0.37062664998E+04 0.  0.
        5    1    3    3  502    0  0.54118753853E+03  0.54421856905E+03  0.11893602996E+04  0.14155062045E+04  0.46999998093E+01 0. -1.
       -5    1    3    3    0  502 -0.54118753853E+03 -0.54421856905E+03 -0.23439914815E+04  0.24664500721E+04  0.46999998093E+01 0.  1.
</event>
<event>
 5   0  0.7254493E-08  0.3702925E+04  0.7818609E-02  0.8067314E-01
       -2   -1    0    0    0  501  0.00000000000E+00  0.00000000000E+00  0.12133226441E+04  0.12133226441E+04  0.25500000920E-02 0.  1.
        2   -1    0    0  501    0  0.00000000000E+00  0.00000000000E+00 -0.28252280564E+04  0.28252280564E+04  0.25500000920E-02 0. -1.
    10030    2    1    2    0    0  0.00000000000E+00  0.00000000000E+00 -0.16119054123E+04  0.40385507006E+04  0.37029248849E+04 0.  0.
        3    1    3    3  502    0 -0.89869588583E+03 -0.15464467823E+04 -0.28431156188E+03  0.18110728920E+04  0.10100000352E+00 0.  1.
       -3    1    3    3    0  502  0.89869588583E+03  0.15464467823E+04 -0.13275938504E+04  0.22274778086E+04  0.10100000352E+00 0. -1.
</event>
<event>
 5   0  0.7362817E-08  0.3700588E+04  0.7818609E-02  0.8067832E-01
        2   -1    0    0  501    0  0.00000000000E+00  0.00000000000E+00  0.13461956962E+04  0.13461956962E+04  0.25500000920E-02 0. -1.
       -2   -1    0    0    0  501  0.00000000000E+00  0.00000000000E+00 -0.25431572627E+04  0.25431572627E+04  0.25500000920E-02 0.  1.
    10030    2    1    2    0    0  0.00000000000E+00  0.00000000000E+00 -0.11969615665E+04  0.38893529589E+04  0.37005877164E+04 0.  0.
        1    1    3    3  502    0 -0.14600058208E+04  0.12135883799E+03  0.58931920712E+03  0.15791270032E+04  0.50400001928E-02 0. -1.
       -1    1    3    3    0  502  0.14600058208E+04 -0.12135883799E+03 -0.17862807736E+04  0.23102259557E+04  0.50400001928E-02 0.  1.
</event>
<event>
 5   0  0.2282000E-08  0.3686191E+04  0.7818609E-02  0.8071029E-01
       -1   -1    0    0    0  501  0.00000000000E+00  0.00000000000E+00  0.17606029755E+04  0.17606029755E+04  0.50400001928E-02 0. -1.
        1   -1    0    0  501    0  0.00000000000E+00  0.00000000000E+00 -0.19294536805E+04  0.19294536805E+04  0.50400001928E-02 0.  1.
    10030    2    1    2    0    0  0.00000000000E+00  0.00000000000E+00 -0.16885070506E+03  0.36900566560E+04  0.36861914714E+04 0.  0.
        2    1    3    3  502    0  0.58998179849E+03 -0.16183120323E+03  0.16559988417E+04  0.17653894824E+04  0.25500000920E-02 0. -1.
       -2    1    3    3    0  502 -0.58998179849E+03  0.16183120323E+03 -0.18248495467E+04  0.19246671736E+04  0.25500000920E-02 0.  1.
</event>
<event>
 5   0  0.2282000E-08  0.3697405E+04  0.7818609E-02  0.8068537E-01
        1   -1    0    0  501    0  0.00000000000E+00  0.00000000000E+00  0.19748983126E+04  0.19748983126E+04  0.50400001928E-02 0. -1.
       -1   -1    0    0    0  501  0.00000000000E+00  0.00000000000E+00 -0.17305703301E+04  0.17305703302E+04  0.50400001928E-02 0.  1.
    10030    2    1    2    0    0  0.00000000000E+00  0.00000000000E+00  0.24432798249E+03  0.37054686428E+04  0.36974047249E+04 0.  0.
        1    1    3    3  502    0 -0.10226692608E+04 -0.10117756153E+04  0.12857984277E+04  0.19294610412E+04  0.50400001928E-02 0. -1.
       -1    1    3    3    0  502  0.10226692608E+04  0.10117756153E+04 -0.10414704452E+04  0.17760076016E+04  0.50400001928E-02 0.  1.
</event>
<event>
 5   0  0.7191801E-08  0.3705173E+04  0.7818609E-02  0.8066816E-01
       -2   -1    0    0    0  501  0.00000000000E+00  0.00000000000E+00  0.28342709643E+04  0.28342709643E+04  0.25500000920E-02 0.  1.
        2   -1    0    0  501    0  0.00000000000E+00  0.00000000000E+00 -0.12109204629E+04  0.12109204629E+04  0.25500000920E-02 0. -1.
    10030    2    1    2    0    0  0.00000000000E+00  0.00000000000E+00  0.16233505014E+04  0.40451914271E+04  0.37051729827E+04 0.  0.
        5    1    3    3  502    0  0.14622912727E+04  0.32600470946E+03  0.20013923443E+04  0.25000336482E+04  0.46999998093E+01 0.  1.
       -5    1    3    3    0  502 -0.14622912727E+04 -0.32600470946E+03 -0.37804184290E+03  0.15451577789E+04  0.46999998093E+01 0. -1.
</event>
<event>
 5   0  0.2282000E-08  0.3719866E+04  0.7818609E-02  0.8063573E-01
       -1   -1    0    0    0  501  0.00000000000E+00  0.00000000000E+00  0.17710794444E+04  0.17710794444E+04  0.50400001928E-02 0. -1.
        1   -1    0    0  501    0  0.00000000000E+00  0.00000000000E+00 -0.19532447654E+04  0.19532447654E+04  0.50400001928E-02 0.  1.
    10030    2    1    2    0    0  0.00000000000E+00  0.00000000000E+00 -0.18216532098E+03  0.37243242099E+04  0.37198664782E+04 0.  0.
        5    1    3    3  502    0  0.12730313471E+02  0.53607086187E+03 -0.18741704267E+04  0.19493770564E+04  0.46999998093E+01 0.  1.
       -5    1    3    3    0  502 -0.12730313471E+02 -0.53607086187E+03  0.16920051057E+04  0.17749471534E+04  0.46999998093E+01 0. -1.
</event>
<event>
 5   0  0.2282000E-08  0.3716391E+04  0.7818609E-02  0.8064339E-01
        1   -1    0    0  501    0  0.00000000000E+00  0.00000000000E+00  0.22446879865E+04  0.22446879865E+04  0.50400001928E-02 0.  1.
       -1   -1    0    0    0  501  0.00000000000E+00  0.00000000000E+00 -0.15382500223E+04  0.15382500223E+04  0.50400001928E-02 0. -1.
    10030    2    1    2    0    0  0.00000000000E+00  0.00000000000E+00  0.70643796418E+03  0.37829380088E+04  0.37163914462E+04 0.  0.
        4    1    3    3  502    0 -0.10365198920E+04  0.90917645033E+02  0.19203484289E+04  0.21841197783E+04  0.12699999809E+01 0.  1.
       -4    1    3    3    0  502  0.10365198920E+04 -0.90917645033E+02 -0.12139104647E+04  0.15988182305E+04  0.12699999809E+01 0. -1.
</event>
<event>
 5   0  0.7191801E-08  0.3698183E+04  0.7818609E-02  0.8068365E-01
       -2   -1    0    0    0  501  0.00000000000E+00  0.00000000000E+00  0.17186327907E+04  0.17186327908E+04  0.25500000920E-02 0.  1.
        2   -1    0    0  501    0  0.00000000000E+00  0.00000000000E+00 -0.19894527067E+04  0.19894527067E+04  0.25500000920E-02 0. -1.
    10030    2    1    2    0    0  0.00000000000E+00  0.00000000000E+00 -0.27081991597E+03  0.37080854975E+04  0.36981826117E+04 0.  0.
        5    1    3    3  502    0  0.16296173177E+04 -0.55750575844E+02  0.73890886717E+03  0.17901868989E+04  0.46999998093E+01 0.  1.
       -5    1    3    3    0  502 -0.16296173177E+04  0.55750575844E+02 -0.10097287831E+04  0.19178985986E+04  0.46999998093E+01 0. -1.
</event>
<event>
 5   0  0.2282000E-08  0.3688942E+04  0.7818609E-02  0.8070417E-01
        3   -1    0    0  501    0  0.00000000000E+00  0.00000000000E+00  0.15762139758E+04  0.15762139790E+04  0.10100000352E+00 0. -1.
       -3   -1    0    0    0  501  0.00000000000E+00  0.00000000000E+00 -0.21583831566E+04  0.21583831590E+04  0.10100000352E+00 0.  1.
    10030    2    1    2    0    0  0.00000000000E+00  0.00000000000E+00 -0.58216918086E+03  0.37345971380E+04  0.36889422370E+04 0.  0.
        5    1    3    3  502    0  0.48960785953E+03  0.14477601615E+04 -0.13364953379E+04  0.20302628450E+04  0.46999998093E+01 0.  1.
       -5    1    3    3    0  502 -0.48960785953E+03 -0.14477601615E+04  0.75432615708E+03  0.17043342931E+04  0.46999998093E+01 0. -1.
</event>
<event>
 5   0  0.7191801E-08  0.3700087E+04  0.7818609E-02  0.8067943E-01
       -2   -1    0    0    0  501  0.00000000000E+00  0.00000000000E+00  0.24809938898E+04  0.24809938898E+04  0.25500000920E-02 0. -1.
        2   -1    0    0  501    0  0.00000000000E+00  0.00000000000E+00 -0.13795520422E+04  0.13795520422E+04  0.25500000920E-02 0.  1.
    10030    2    1    2    0    0  0.00000000000E+00  0.00000000000E+00  0.11014418476E+04  0.38605459319E+04  0.37000865867E+04 0.  0.
        5    1    3    3  502    0 -0.17639730863E+03 -0.10572704048E+04  0.21239919665E+04  0.23791386432E+04  0.46999998093E+01 0. -1.
       -5    1    3    3    0  502  0.17639730863E+03  0.10572704048E+04 -0.10225501190E+04  0.14814072888E+04  0.46999998093E+01 0.  1.
</event>
<event>
 5   0  0.7203049E-08  0.3701639E+04  0.7818609E-02  0.8067599E-01
        2   -1    0    0  501    0  0.00000000000E+00  0.00000000000E+00  0.15733602067E+04  0.15733602067E+04  0.25500000920E-02 0. -1.
       -2   -1    0    0    0  501  0.00000000000E+00  0.00000000000E+00 -0.21772077663E+04  0.21772077663E+04  0.25500000920E-02 0.  1.
    10030    2    1    2    0    0  0.00000000000E+00  0.00000000000E+00 -0.60384755964E+03  0.37505679730E+04  0.37016385892E+04 0.  0.
        4    1    3    3  502    0  0.15088176635E+04 -0.58902650379E+03 -0.12093327481E+04  0.20213783101E+04  0.12699999809E+01 0.  1.
       -4    1    3    3    0  502 -0.15088176635E+04  0.58902650379E+03  0.60548518849E+03  0.17291896629E+04  0.12699999809E+01 0. -1.
</event>
<event>
 5   0  0.7362817E-08  0.3716416E+04  0.7818609E-02  0.8064334E-01
        2   -1    0    0  501    0  0.00000000000E+00  0.00000000000E+00  0.21441513915E+04  0.21441513915E+04  0.25500000920E-02 0. -1.
       -2   -1    0    0    0  501  0.00000000000E+00  0.00000000000E+00 -0.16103980920E+04  0.16103980920E+04  0.25500000920E-02 0.  1.
    10030    2    1    2    0    0  0.00000000000E+00  0.00000000000E+00  0.53375329947E+03  0.37545494835E+04  0.37164161822E+04 0.  0.
        1    1    3    3  502    0 -0.11760180599E+04  0.12997292086E+04  0.89015336084E+03  0.19658808455E+04  0.50400001928E-02 0. -1.
       -1    1    3    3    0  502  0.11760180599E+04 -0.12997292086E+04 -0.35640006137E+03  0.17886686380E+04  0.50400001928E-02 0.  1.
</event>
<event>
 5   0  0.7362817E-08  0.3706771E+04  0.7818609E-02  0.8066463E-01
        2   -1    0    0  501    0  0.00000000000E+00  0.00000000000E+00  0.22293169258E+04  0.22293169258E+04  0.25500000920E-02 0. -1.
       -2   -1    0    0    0  501  0.00000000000E+00  0.00000000000E+00 -0.15408476308E+04  0.15408476308E+04  0.25500000920E-02 0.  1.
    10030    2    1    2    0    0  0.00000000000E+00  0.00000000000E+00  0.68846929498E+03  0.37701645566E+04  0.37067709417E+04 0.  0.
        1    1    3    3  502    0 -0.23776071667E+02  0.24080911695E+03  0.22131811240E+04  0.22263703690E+04  0.50400001928E-02 0. -1.
       -1    1    3    3    0  502  0.23776071667E+02 -0.24080911695E+03 -0.15247118290E+04  0.15437941877E+04  0.50400001928E-02 0.  1.
</event>
<event>
 5   0  0.2282000E-08  0.3598562E+04  0.7818609E-02  0.8090821E-01
        1   -1    0    0  501    0  0.00000000000E+00  0.00000000000E+00  0.22736205147E+04  0.22736205147E+04  0.50400001928E-02 0.  1.
       -1   -1    0    0    0  501  0.00000000000E+00  0.00000000000E+00 -0.14239015508E+04  0.14239015508E+04  0.50400001928E-02 0. -1.
    10030    2    1    2    0    0  0.00000000000E+00  0.00000000000E+00  0.84971896392E+03  0.36975220655E+04  0.35985618110E+04 0.  0.
        2    1    3    3  502    0 -0.16238392554E+04  0.74773294563E+03  0.21565965647E+03  0.18006853064E+04  0.25500000920E-02 0.  1.
       -2    1    3    3    0  502  0.16238392554E+04 -0.74773294563E+03  0.63405930745E+03  0.18968367591E+04  0.25500000920E-02 0. -1.
</event>
<event>
 5   0  0.7362817E-08  0.3720611E+04  0.7818609E-02  0.8063410E-01
       -2   -1    0    0    0  501  0.00000000000E+00  0.00000000000E+00  0.28820234220E+04  0.28820234220E+04  0.25500000920E-02 0. -1.
        2   -1    0    0  501    0  0.00000000000E+00  0.00000000000E+00 -0.12008008897E+04  0.12008008897E+04  0.25500000920E-02 0.  1.
    10030    2    1    2    0    0  0.00000000000E+00  0.00000000000E+00  0.16812225322E+04  0.40828243117E+04  0.37206108581E+04 0.  0.
        1    1    3    3  502    0  0.17175727536E+04  0.62408627192E+02  0.59418086949E+02  0.17197329763E+04  0.50400001928E-02 0.  1.
       -1    1    3    3    0  502 -0.17175727536E+04 -0.62408627192E+02  0.16218044453E+04  0.23630913354E+04  0.50400001928E-02 0. -1.
</event>
<event>
 5   0  0.2282000E-08  0.3698449E+04  0.7818609E-02  0.8068306E-01
        1   -1    0    0  501    0  0.00000000000E+00  0.00000000000E+00  0.25302501503E+04  0.25302501503E+04  0.50400001928E-02 0.  1.
       -1   -1    0    0    0  501  0.00000000000E+00  0.00000000000E+00 -0.13514989222E+04  0.13514989223E+04  0.50400001928E-02 0. -1.
    10030    2    1    2    0    0  0.00000000000E+00  0.00000000000E+00  0.11787512281E+04  0.38817490726E+04  0.36984485132E+04 0.  0.
        5    1    3    3  502    0  0.11970491936E+04 -0.86717571343E+03  0.17556116430E+04  0.22950195688E+04  0.46999998093E+01 0.  1.
       -5    1    3    3    0  502 -0.11970491936E+04  0.86717571343E+03 -0.57686041498E+03  0.15867295038E+04  0.46999998093E+01 0. -1.
</event>
<event>
 5   0  0.2282000E-08  0.3699428E+04  0.7818609E-02  0.8068089E-01
       -1   -1    0    0    0  501  0.00000000000E+00  0.00000000000E+00  0.16417591981E+04  0.16417591981E+04  0.50400001928E-02 0.  1.
        1   -1    0    0  501    0  0.00000000000E+00  0.00000000000E+00 -0.20840090307E+04  0.20840090307E+04  0.50400001928E-02 0. -1.
    10030    2    1    2    0    0  0.00000000000E+00  0.00000000000E+00 -0.44224983262E+03  0.37257682288E+04  0.36994275206E+04 0.  0.
        3    1    3    3  502    0 -0.13832917305E+04 -0.48753083766E+03 -0.13562073258E+04  0.19976187449E+04  0.10100000352E+00 0. -1.
       -3    1    3    3    0  502  0.13832917305E+04  0.48753083766E+03  0.91395749313E+03  0.17281494839E+04  0.10100000352E+00 0.  1.
</event>
<event>
 5   0  0.7203049E-08  0.3701430E+04  0.7818609E-02  0.8067645E-01
       -2   -1    0    0    0  501  0.00000000000E+00  0.00000000000E+00  0.18222314906E+04  0.18222314906E+04  0.25500000920E-02 0. -1.
        2   -1    0    0  501    0  0.00000000000E+00  0.00000000000E+00 -0.18796433016E+04  0.18796433016E+04  0.25500000920E-02 0.  1.
    10030    2    1    2    0    0  0.00000000000E+00  0.00000000000E+00 -0.57411811052E+02  0.37018747922E+04  0.37014295699E+04 0.  0.
        4    1    3    3  502    0 -0.80765569371E+03 -0.15116935923E+04  0.66967484875E+03  0.18401063156E+04  0.12699999809E+01 0.  1.
       -4    1    3    3    0  502  0.80765569371E+03  0.15116935923E+04 -0.72708665980E+03  0.18617684766E+04  0.12699999809E+01 0. -1.
</event>
<event>
 5   0  0.2282000E-08  0.3696369E+04  0.7818609E-02  0.8068767E-01
        1   -1    0    0  501    0  0.00000000000E+00  0.00000000000E+00  0.15566541368E+04  0.15566541368E+04  0.50400001928E-02 0.  1.
       -1   -1    0    0    0  501  0.00000000000E+00  0.00000000000E+00 -0.21943122591E+04  0.21943122591E+04  0.50400001928E-02 0. -1.
    10030    2    1    2    0    0  0.00000000000E+00  0.00000000000E+00 -0.63765812231E+03  0.37509663960E+04  0.36963686265E+04 0.  0.
        1    1    3    3  502    0 -0.13395446006E+04 -0.19367094382E+02 -0.16108319429E+04  0.20951215644E+04  0.50400001928E-02 0. -1.
       -1    1    3    3    0  502  0.13395446006E+04  0.19367094382E+02  0.97317382056E+03  0.16558448316E+04  0.50400001928E-02 0.  1.
</event>
<event>
 5   0  0.7254493E-08  0.3722261E+04  0.7818609E-02  0.8063046E-01
       -2   -1    0    0    0  501  0.00000000000E+00  0.00000000000E+00  0.33363470719E+04  0.33363470719E+04  0.25500000920E-02 0. -1.
        2   -1    0    0  501    0  0.00000000000E+00  0.00000000000E+00 -0.10382034312E+04  0.10382034312E+04  0.25500000920E-02 0.  1.
    10030    2    1    2    0    0  0.00000000000E+00  0.00000000000E+00  0.22981436407E+04  0.43745505031E+04  0.37222611288E+04 0.  0.
        3    1    3    3  502    0 -0.13211225113E+02  0.17093686062E+04  0.20140448530E+04  0.26416836012E+04  0.10100000352E+00 0. -1.
       -3    1    3    3    0  502  0.13211225113E+02 -0.17093686062E+04  0.28409878770E+03  0.17328669019E+04  0.10100000352E+00 0.  1.
</event>
<event>
 5   0  0.7254493E-08  0.3698507E+04  0.7818609E-02  0.8068293E-01
       -2   -1    0    0    0  501  0.00000000000E+00  0.00000000000E+00  0.15137647309E+04  0.15137647309E+04  0.25500000920E-02 0.  1.
        2   -1    0    0  501    0  0.00000000000E+00  0.00000000000E+00 -0.22590954130E+04  0.22590954130E+04  0.25500000920E-02 0. -1.
    10030    2    1    2    0    0  0.00000000000E+00  0.00000000000E+00 -0.74533068214E+03  0.37728601439E+04  0.36985072448E+04 0.  0.
        3    1    3    3  502    0  0.18380398726E+04  0.12492870484E+03 -0.20899929640E+03  0.18540977511E+04  0.10100000352E+00 0.  1.
       -3    1    3    3    0  502 -0.18380398726E+04 -0.12492870484E+03 -0.53633138574E+03  0.19187623928E+04  0.10100000352E+00 0. -1.
</event>
<event>
 5   0  0.7254493E-08  0.3705705E+04  0.7818609E-02  0.8066699E-01
        2   -1    0    0  501    0  0.00000000000E+00  0.00000000000E+00  0.24594262515E+04  0.24594262515E+04  0.25500000920E-02 0.  1.
       -2   -1    0    0    0  501  0.00000000000E+00  0.00000000000E+00 -0.13958797206E+04  0.13958797206E+04  0.25500000920E-02 0. -1.
    10030    2    1    2    0    0  0.00000000000E+00  0.00000000000E+00  0.10635465309E+04  0.38553059721E+04  0.37057054544E+04 0.  0.
        3    1    3    3  502    0  0.67052842763E+00 -0.18528525339E+04  0.53230023304E+03  0.19277983583E+04  0.10100000352E+00 0.  1.
       -3    1    3    3    0  502 -0.67052842763E+00  0.18528525339E+04  0.53124629783E+03  0.19275076138E+04  0.10100000352E+00 0. -1.
</event>
<event>
 5   0  0.2282000E-08  0.3699022E+04  0.7818609E-02  0.8068179E-01
        1   -1    0    0  501    0  0.00000000000E+00  0.00000000000E+00  0.22341242551E+04  0.22341242551E+04  0.50400001928E-02 0. -1.
       -1   -1    0    0    0  501  0.00000000000E+00  0.00000000000E+00 -0.15311102211E+04  0.15311102212E+04  0.50400001928E-02 0.  1.
    10030    2    1    2    0    0  0.00000000000E+00  0.00000000000E+00  0.70301403394E+03  0.37652344762E+04  0.36990217530E+04 0.  0.
        2    1    3    3  502    0 -0.30691094810E+03  0.31924230081E+03 -0.14763480349E+04  0.15413349723E+04  0.25500000920E-02 0.  1.
       -2    1    3    3    0  502  0.30691094810E+03 -0.31924230081E+03  0.21793620688E+04  0.22238995040E+04  0.25500000920E-02 0. -1.
</event>
<event>
 5   0  0.7191801E-08  0.3701920E+04  0.7818609E-02  0.8067536E-01
        2   -1    0    0  501    0  0.00000000000E+00  0.00000000000E+00  0.25456929800E+04  0.25456929800E+04  0.25500000920E-02 0.  1.
       -2   -1    0    0    0  501  0.00000000000E+00  0.00000000000E+00 -0.13458234468E+04  0.13458234468E+04  0.25500000920E-02 0. -1.
    10030    2    1    2    0    0  0.00000000000E+00  0.00000000000E+00  0.11998695333E+04  0.38915164268E+04  0.37019202049E+04 0.  0.
        5    1    3    3  502    0  0.15664995690E+04 -0.85720768500E+03  0.87845668741E+02  0.17878660091E+04  0.46999998093E+01 0.  1.
       -5    1    3    3    0  502 -0.15664995690E+04  0.85720768500E+03  0.11120238645E+04  0.21036504177E+04  0.46999998093E+01 0. -1.
</event>
<event>
 5   0  0.7191801E-08  0.3699642E+04  0.7818609E-02  0.8068041E-01
        2   -1    0    0  501    0  0.00000000000E+00  0.00000000000E+00  0.22451539432E+04  0.22451539432E+04  0.25500000920E-02 0.  1.
       -2   -1    0    0    0  501  0.00000000000E+00  0.00000000000E+00 -0.15240996677E+04  0.15240996677E+04  0.25500000920E-02 0. -1.
    10030    2    1    2    0    0  0.00000000000E+00  0.00000000000E+00  0.72105427557E+03  0.37692536109E+04  0.36996423496E+04 0.  0.
        5    1    3    3  502    0 -0.39583568759E+03 -0.69263739187E+02  0.22001406580E+04  0.22365429488E+04  0.46999998093E+01 0.  1.
       -5    1    3    3    0  502  0.39583568759E+03  0.69263739187E+02 -0.14790863824E+04  0.15327106621E+04  0.46999998093E+01 0. -1.
</event>
<event>
 5   0  0.7203049E-08  0.3703023E+04  0.7818609E-02  0.8067292E-01
        2   -1    0    0  501    0  0.00000000000E+00  0.00000000000E+00  0.23747817289E+04  0.23747817289E+04  0.25500000920E-02 0. -1.
       -2   -1    0    0    0  501  0.00000000000E+00  0.00000000000E+00 -0.14435410692E+04  0.14435410692E+04  0.25500000920E-02 0.  1.
    10030    2    1    2    0    0  0.00000000000E+00  0.00000000000E+00  0.93124065978E+03  0.38183227981E+04  0.37030230656E+04 0.  0.
        4    1    3    3  502    0  0.10371116847E+04  0.15308232786E+04  0.36740335227E+03  0.18852075199E+04  0.12699999809E+01 0.  1.
       -4    1    3    3    0  502 -0.10371116847E+04 -0.15308232786E+04  0.56383730751E+03  0.19331152783E+04  0.12699999809E+01 0. -1.
</event>
<event>
 5   0  0.7203049E-08  0.3694469E+04  0.7818609E-02  0.8069189E-01
        2   -1    0    0  501    0  0.00000000000E+00  0.00000000000E+00  0.18608953106E+04  0.18608953106E+04  0.25500000920E-02 0. -1.
       -2   -1    0    0    0  501  0.00000000000E+00  0.00000000000E+00 -0.18336740711E+04  0.18336740711E+04  0.25500000920E-02 0.  1.
    10030    2    1    2    0    0  0.00000000000E+00  0.00000000000E+00  0.27221239430E+02  0.36945693817E+04  0.36944690985E+04 0.  0.
        4    1    3    3  502    0 -0.13509584584E+04 -0.11684015729E+03  0.12680503010E+04  0.18565272843E+04  0.12699999809E+01 0. -1.
       -4    1    3    3    0  502  0.13509584584E+04  0.11684015729E+03 -0.12408290616E+04  0.18380420973E+04  0.12699999809E+01 0.  1.
</event>
<event>
 5   0  0.2282000E-08  0.3710744E+04  0.7818609E-02  0.8065585E-01
        1   -1    0    0  501    0  0.00000000000E+00  0.00000000000E+00  0.25237905710E+04  0.25237905710E+04  0.50400001928E-02 0. -1.
       -1   -1    0    0    0  501  0.00000000000E+00  0.00000000000E+00 -0.13639819124E+04  0.13639819124E+04  0.50400001928E-02 0.  1.
    10030    2    1    2    0    0  0.00000000000E+00  0.00000000000E+00  0.11598086586E+04  0.38877724835E+04  0.37107436935E+04 0.  0.
        4    1    3    3  502    0  0.63091951204E+03  0.24395146076E+03  0.23899927116E+04  0.24838757055E+04  0.12699999809E+01 0. -1.
       -4    1    3    3    0  502 -0.63091951204E+03 -0.24395146076E+03 -0.12301840530E+04  0.14038967779E+04  0.12699999809E+01 0.  1.
</event>
<event>
 5   0  0.7254493E-08  0.3696271E+04  0.7818609E-02  0.8068789E-01
       -2   -1    0    0    0  501  0.00000000000E+00  0.00000000000E+00  0.11870260370E+04  0.11870260370E+04  0.25500000920E-02 0. -1.
        2   -1    0    0  501    0  0.00000000000E+00  0.00000000000E+00 -0.28774468107E+04  0.28774468107E+04  0.25500000920E-02 0.  1.
    10030    2    1    2    0    0  0.00000000000E+00  0.00000000000E+00 -0.16904207737E+04  0.40644728477E+04  0.36962707067E+04 0.  0.
        3    1    3    3  502    0 -0.64666180068E+03 -0.11090988096E+04  0.61662881081E+03  0.14242551578E+04  0.10100000352E+00 0. -1.
       -3    1    3    3    0  502  0.64666180068E+03  0.11090988096E+04 -0.23070495846E+04  0.26402176899E+04  0.10100000352E+00 0.  1.
</event>
<event>
 5   0  0.2282000E-08  0.3693315E+04  0.7818609E-02  0.8069445E-01
       -1   -1    0    0    0  501  0.00000000000E+00  0.00000000000E+00  0.16217997862E+04  0.16217997862E+04  0.50400001928E-02 0.  1.
        1   -1    0    0  501    0  0.00000000000E+00  0.00000000000E+00 -0.21026914817E+04  0.21026914817E+04  0.50400001928E-02 0. -1.
    10030    2    1    2    0    0  0.00000000000E+00  0.00000000000E+00 -0.48089169549E+03  0.37244912679E+04  0.36933153646E+04 0.  0.
        4    1    3    3  502    0  0.14009368045E+04  0.95767533396E+03  0.49397147456E+03  0.17674205516E+04  0.12699999809E+01 0.  1.
       -4    1    3    3    0  502 -0.14009368045E+04 -0.95767533396E+03 -0.97486317004E+03  0.19570707163E+04  0.12699999809E+01 0. -1.
</event>
<event>
 5   0  0.7362817E-08  0.3698163E+04  0.7818609E-02  0.8068369E-01
       -2   -1    0    0    0  501  0.00000000000E+00  0.00000000000E+00  0.14853383728E+04  0.14853383728E+04  0.25500000920E-02 0. -1.
        2   -1    0    0  501    0  0.00000000000E+00  0.00000000000E+00 -0.23019007603E+04  0.23019007603E+04  0.25500000920E-02 0.  1.
    10030    2    1    2    0    0  0.00000000000E+00  0.00000000000E+00 -0.81656238748E+03  0.37872391330E+04  0.36981625327E+04 0.  0.
        1    1    3    3  502    0  0.23370675558E+03 -0.12449246797E+04  0.97125341053E+03  0.15961796557E+04  0.50400001928E-02 0. -1.
       -1    1    3    3    0  502 -0.23370675558E+03  0.12449246797E+04 -0.17878157980E+04  0.21910594774E+04  0.50400001928E-02 0.  1.
</event>
<event>
 5   0  0.7309833E-08  0.3698814E+04  0.7818609E-02  0.8068225E-01
       -2   -1    0    0    0  501  0.00000000000E+00  0.00000000000E+00  0.15725589341E+04  0.15725589341E+04  0.25500000920E-02 0. -1.
        2   -1    0    0  501    0  0.00000000000E+00  0.00000000000E+00 -0.21749942559E+04  0.21749942559E+04  0.25500000920E-02 0.  1.
    10030    2    1    2    0    0  0.00000000000E+00  0.00000000000E+00 -0.60243532177E+03  0.37475531900E+04  0.36988142147E+04 0.  0.
        2    1    3    3  502    0 -0.15279762255E+04  0.93936029377E+03 -0.75793185803E+03  0.19471953699E+04  0.25500000920E-02 0.  1.
       -2    1    3    3    0  502  0.15279762255E+04 -0.93936029377E+03  0.15549653626E+03  0.18003578200E+04  0.25500000920E-02 0. -1.
</event>
<event>
 5   0  0.2282000E-08  0.3699792E+04  0.7818609E-02  0.8068008E-01
       -1   -1    0    0    0  501  0.00000000000E+00  0.00000000000E+00  0.36510953855E+04  0.36510953855E+04  0.50400001928E-02 0. -1.
        1   -1    0    0  501    0  0.00000000000E+00  0.00000000000E+00 -0.93728445293E+03  0.93728445295E+03  0.50400001928E-02 0.  1.
    10030    2    1    2    0    0  0.00000000000E+00  0.00000000000E+00  0.27138109325E+04  0.45883798384E+04  0.36997918542E+04 0.  0.
        1    1    3    3  502    0 -0.38049127365E+03  0.66265682905E+03  0.34462287988E+04  0.35299264321E+04  0.50400001928E-02 0. -1.
       -1    1    3    3    0  502  0.38049127365E+03 -0.66265682905E+03 -0.73241786628E+03  0.10584534063E+04  0.50400001928E-02 0.  1.
</event>
<event>
 5   0  0.2282000E-08  0.3696547E+04  0.7818609E-02  0.8068727E-01
        1   -1    0    0  501    0  0.00000000000E+00  0.00000000000E+00  0.26873590369E+04  0.26873590370E+04  0.50400001928E-02 0.  1.
       -1   -1    0    0    0  501  0.00000000000E+00  0.00000000000E+00 -0.12711793750E+04  0.12711793751E+04  0.50400001928E-02 0. -1.
    10030    2    1    2    0    0  0.00000000000E+00  0.00000000000E+00  0.14161796619E+04  0.39585384120E+04  0.36965472437E+04 0.  0.
        2    1    3    3  502    0  0.67647977784E+02 -0.12878953552E+04  0.21258827346E+04  0.24864891104E+04  0.25500000920E-02 0.  1.
       -2    1    3    3    0  502 -0.67647977784E+02  0.12878953552E+04 -0.70970307272E+03  0.14720493016E+04  0.25500000920E-02 0. -1.
</event>
<event>
 5   0  0.7203049E-08  0.3694400E+04  0.7818609E-02  0.8069204E-01
       -2   -1    0    0    0  501  0.00000000000E+00  0.00000000000E+00  0.24768150445E+04  0.24768150445E+04  0.25500000920E-02 0.  1.
        2   -1    0    0  501    0  0.00000000000E+00  0.00000000000E+00 -0.13776353285E+04  0.13776353285E+04  0.25500000920E-02 0. -1.
    10030    2    1    2    0    0  0.00000000000E+00  0.00000000000E+00  0.10991797160E+04  0.38544503730E+04  0.36944000366E+04 0.  0.
        4    1    3    3  502    0 -0.12593435875E+04  0.26833041622E+03  0.19314304456E+04  0.23212868549E+04  0.12699999809E+01 0.  1.
       -4    1    3    3    0  502  0.12593435875E+04 -0.26833041622E+03 -0.83225072956E+03  0.15331635182E+04  0.12699999809E+01 0. -1.
</event>
<event>
 5   0  0.7203049E-08  0.3702721E+04  0.7818609E-02  0.8067359E-01
       -2   -1    0    0    0  501  0.00000000000E+00  0.00000000000E+00  0.12186764722E+04  0.12186764722E+04  0.25500000920E-02 0.  1.
        2   -1    0    0  501    0  0.00000000000E+00  0.00000000000E+00 -0.28125065620E+04  0.28125065620E+04  0.25500000920E-02 0. -1.
    10030    2    1    2    0    0  0.00000000000E+00  0.00000000000E+00 -0.15938300898E+04  0.40311830342E+04  0.37027209320E+04 0.  0.
        4    1    3    3  502    0 -0.68817769215E+03 -0.30160714299E+03 -0.26390463543E+04  0.27439246851E+04  0.12699999809E+01 0. -1.
       -4    1    3    3    0  502  0.68817769215E+03  0.30160714299E+03  0.10452162645E+04  0.12872583490E+04  0.12699999809E+01 0.  1.
</event>
<event>
 5   0  0.2282000E-08  0.3649292E+04  0.7818609E-02  0.8079293E-01
       -1   -1    0    0    0  501  0.00000000000E+00  0.00000000000E+00  0.21952876151E+04  0.21952876151E+04  0.50400001928E-02 0.  1.
        1   -1    0    0  501    0  0.00000000000E+00  0.00000000000E+00 -0.15165816853E+04  0.15165816853E+04  0.50400001928E-02 0. -1.
    10030    2    1    2    0    0  0.00000000000E+00  0.00000000000E+00  0.67870592979E+03  0.37118693004E+04  0.36492919812E+04 0.  0.
        4    1    3    3  502    0  0.17919630980E+04 -0.31018396086E+03  0.18853514013E+03  0.18283579917E+04  0.12699999809E+01 0. -1.
       -4    1    3    3    0  502 -0.17919630980E+04  0.31018396086E+03  0.49017078966E+03  0.18835113087E+04  0.12699999809E+01 0.  1.
</event>
<event>
 5   0  0.2282000E-08  0.3694050E+04  0.7818609E-02  0.8069282E-01
        1   -1    0    0  501    0  0.00000000000E+00  0.00000000000E+00  0.21029416430E+04  0.21029416430E+04  0.50400001928E-02 0.  1.
       -1   -1    0    0    0  501  0.00000000000E+00  0.00000000000E+00 -0.16222520111E+04  0.16222520111E+04  0.50400001928E-02 0. -1.
    10030    2    1    2    0    0  0.00000000000E+00  0.00000000000E+00  0.48068963195E+03  0.37251936541E+04  0.36940499778E+04 0.  0.
        2    1    3    3  502    0 -0.19295940196E+03  0.12749758958E+04  0.15738794346E+04  0.20346727846E+04  0.25500000920E-02 0.  1.
       -2    1    3    3    0  502  0.19295940196E+03 -0.12749758958E+04 -0.10931898026E+04  0.16905208695E+04  0.25500000920E-02 0. -1.
</event>
<event>
 5   0  0.7191801E-08  0.3705284E+04  0.7818609E-02  0.8066792E-01
        2   -1    0    0  501    0  0.00000000000E+00  0.00000000000E+00  0.14347981989E+04  0.14347981989E+04  0.25500000920E-02 0. -1.
       -2   -1    0    0    0  501  0.00000000000E+00  0.00000000000E+00 -0.23921710358E+04  0.23921710358E+04  0.25500000920E-02 0.  1.
    10030    2    1    2    0    0  0.00000000000E+00  0.00000000000E+00 -0.95737283687E+03  0.38269692347E+04  0.37052841692E+04 0.  0.
        5    1    3    3  502    0  0.11831692311E+04  0.71700963398E+03 -0.17513327227E+04  0.22318558736E+04  0.46999998093E+01 0.  1.
       -5    1    3    3    0  502 -0.11831692311E+04 -0.71700963398E+03  0.79395988586E+03  0.15951133612E+04  0.46999998093E+01 0. -1.
</event>
<event>
 5   0  0.7191801E-08  0.3708768E+04  0.7818609E-02  0.8066022E-01
        2   -1    0    0  501    0  0.00000000000E+00  0.00000000000E+00  0.27090250373E+04  0.27090250373E+04  0.25500000920E-02 0. -1.
       -2   -1    0    0    0  501  0.00000000000E+00  0.00000000000E+00 -0.12693641488E+04  0.12693641488E+04  0.25500000920E-02 0.  1.
    10030    2    1    2    0    0  0.00000000000E+00  0.00000000000E+00  0.14396608885E+04  0.39783891861E+04  0.37087675908E+04 0.  0.
        5    1    3    3  502    0 -0.84143402997E+03  0.16518240345E+04  0.76995316345E+03  0.20073325165E+04  0.46999998093E+01 0. -1.
       -5    1    3    3    0  502  0.84143402997E+03 -0.16518240345E+04  0.66970772508E+03  0.19710566696E+04  0.46999998093E+01 0.  1.
</event>
<event>
 5   0  0.2282000E-08  0.3681989E+04  0.7818609E-02  0.8071965E-01
       -1   -1    0    0    0  501  0.00000000000E+00  0.00000000000E+00  0.11954050420E+04  0.11954050420E+04  0.50400001928E-02 0.  1.
        1   -1    0    0  501    0  0.00000000000E+00  0.00000000000E+00 -0.28352400964E+04  0.28352400964E+04  0.50400001928E-02 0. -1.
    10030    2    1    2    0    0  0.00000000000E+00  0.00000000000E+00 -0.16398350544E+04  0.40306451384E+04  0.36819887596E+04 0.  0.
        5    1    3    3  502    0  0.11782694216E+04  0.14007518862E+04 -0.10355845447E+04  0.21030649338E+04  0.46999998093E+01 0. -1.
       -5    1    3    3    0  502 -0.11782694216E+04 -0.14007518862E+04 -0.60425050972E+03  0.19275802046E+04  0.46999998093E+01 0.  1.
</event>
<event>
 5   0  0.7309833E-08  0.3712592E+04  0.7818609E-02  0.8065177E-01
        2   -1    0    0  501    0  0.00000000000E+00  0.00000000000E+00  0.22060006397E+04  0.22060006397E+04  0.25500000920E-02 0.  1.
       -2   -1    0    0    0  501  0.00000000000E+00  0.00000000000E+00 -0.15620283864E+04  0.15620283864E+04  0.25500000920E-02 0. -1.
    10030    2    1    2    0    0  0.00000000000E+00  0.00000000000E+00  0.64397225337E+03  0.37680290261E+04  0.37125924202E+04 0.  0.
        2    1    3    3  502    0  0.22836172186E+03  0.22490100809E+03  0.21777044016E+04  0.22011646918E+04  0.25500000920E-02 0.  1.
       -2    1    3    3    0  502 -0.22836172186E+03 -0.22490100809E+03 -0.15337321483E+04  0.15668643343E+04  0.25500000920E-02 0. -1.
</event>
<event>
 5   0  0.2282000E-08  0.3700512E+04  0.7818609E-02  0.8067848E-01
        1   -1    0    0  501    0  0.00000000000E+00  0.00000000000E+00  0.24150544079E+04  0.24150544079E+04  0.50400001928E-02 0. -1.
       -1   -1    0    0    0  501  0.00000000000E+00  0.00000000000E+00 -0.14175443254E+04  0.14175443254E+04  0.50400001928E-02 0.  1.
    10030    2    1    2    0    0  0.00000000000E+00  0.00000000000E+00  0.99751008252E+03  0.38325987333E+04  0.37005116789E+04 0.  0.
        4    1    3    3  502    0 -0.54362966332E+03 -0.17411532942E+04  0.82014926918E+03  0.19999486097E+04  0.12699999809E+01 0. -1.
       -4    1    3    3    0  502  0.54362966332E+03  0.17411532942E+04  0.17736081333E+03  0.18326501236E+04  0.12699999809E+01 0.  1.
</event>
<event>
 5   0  0.7254493E-08  0.3705062E+04  0.7818609E-02  0.8066841E-01
        2   -1    0    0  501    0  0.00000000000E+00  0.00000000000E+00  0.19906022077E+04  0.19906022077E+04  0.25500000920E-02 0. -1.
       -2   -1    0    0    0  501  0.00000000000E+00  0.00000000000E+00 -0.17240368116E+04  0.17240368116E+04  0.25500000920E-02 0.  1.
    10030    2    1    2    0    0  0.00000000000E+00  0.00000000000E+00  0.26656539608E+03  0.37146390194E+04  0.37050622038E+04 0.  0.
        3    1    3    3  502    0 -0.10852342586E+04  0.22358121068E+03  0.16217580194E+04  0.19641336608E+04  0.10100000352E+00 0. -1.
       -3    1    3    3    0  502  0.10852342586E+04 -0.22358121068E+03 -0.13551926233E+04  0.17505053585E+04  0.10100000352E+00 0.  1.
</event>
<event>
 5   0  0.2282000E-08  0.3703079E+04  0.7818609E-02  0.8067280E-01
        1   -1    0    0  501    0  0.00000000000E+00  0.00000000000E+00  0.13611867213E+04  0.13611867213E+04  0.50400001928E-02 0.  1.
       -1   -1    0    0    0  501  0.00000000000E+00  0.00000000000E+00 -0.25185367693E+04  0.25185367693E+04  0.50400001928E-02 0. -1.
    10030    2    1    2    0    0  0.00000000000E+00  0.00000000000E+00 -0.11573500480E+04  0.38797234906E+04  0.37030791553E+04 0.  0.
        2    1    3    3  502    0 -0.17357347645E+04 -0.61656231668E+03 -0.77544937378E+03  0.19985609809E+04  0.25500000920E-02 0.  1.
       -2    1    3    3    0  502  0.17357347645E+04  0.61656231668E+03 -0.38190067418E+03  0.18811625097E+04  0.25500000920E-02 0. -1.
</event>
<event>
 5   0  0.7309833E-08  0.3694581E+04  0.7818609E-02  0.8069164E-01
        2   -1    0    0  501    0  0.00000000000E+00  0.00000000000E+00  0.28922017144E+04  0.28922017144E+04  0.25500000920E-02 0.  1.
       -2   -1    0    0    0  501  0.00000000000E+00  0.00000000000E+00 -0.11798906031E+04  0.11798906031E+04  0.25500000920E-02 0. -1.
    10030    2    1    2    0    0  0.00000000000E+00  0.00000000000E+00  0.17123111113E+04  0.40720923175E+04  0.36945806934E+04 0.  0.
        2    1    3    3  502    0  0.18257293965E+04 -0.14406861167E+03  0.58971505210E+03  0.19240081696E+04  0.25500000920E-02 0.  1.
       -2    1    3    3    0  502 -0.18257293965E+04  0.14406861167E+03  0.11225960592E+04  0.21480841479E+04  0.25500000920E-02 0. -1.
</event>
<event>
 5   0  0.2282000E-08  0.3698803E+04  0.7818609E-02  0.8068227E-01
        1   -1    0    0  501    0  0.00000000000E+00  0.00000000000E+00  0.24023885881E+04  0.24023885881E+04  0.50400001928E-02 0. -1.
       -1   -1    0    0    0  501  0.00000000000E+00  0.00000000000E+00 -0.14237021822E+04  0.14237021822E+04  0.50400001928E-02 0.  1.
    10030    2    1    2    0    0  0.00000000000E+00  0.00000000000E+00  0.97868640595E+03  0.38260907703E+04  0.36988029822E+04 0.  0.
        3    1    3    3  502    0 -0.89334746606E+03 -0.86143118038E+03  0.19077166984E+04  0.22758550888E+04  0.10100000352E+00 0. -1.
       -3    1    3    3    0  502  0.89334746606E+03  0.86143118038E+03 -0.92903029247E+03  0.15502356815E+04  0.10100000352E+00 0.  1.
</event>
<event>
 5   0  0.7309833E-08  0.3697355E+04  0.7818609E-02  0.8068548E-01
        2   -1    0    0  501    0  0.00000000000E+00  0.00000000000E+00  0.15393520972E+04  0.15393520972E+04  0.25500000920E-02 0.  1.
       -2   -1    0    0    0  501  0.00000000000E+00  0.00000000000E+00 -0.22201598295E+04  0.22201598295E+04  0.25500000920E-02 0. -1.
    10030    2    1    2    0    0  0.00000000000E+00  0.00000000000E+00 -0.68080773230E+03  0.37595119267E+04  0.36973545622E+04 0.  0.
        2    1    3    3  502    0 -0.16910495174E+04 -0.64275265476E+03 -0.72736469078E+03  0.19498304641E+04  0.25500000920E-02 0. -1.
       -2    1    3    3    0  502  0.16910495174E+04  0.64275265476E+03  0.46556958487E+02  0.18096814625E+04  0.25500000920E-02 0.  1.
</event>
<event>
 5   0  0.2282000E-08  0.3696431E+04  0.7818609E-02  0.8068753E-01
       -1   -1    0    0    0  501  0.00000000000E+00  0.00000000000E+00  0.15229382031E+04  0.15229382031E+04  0.50400001928E-02 0.  1.
        1   -1    0    0  501    0  0.00000000000E+00  0.00000000000E+00 -0.22429674448E+04  0.22429674448E+04  0.50400001928E-02 0. -1.
    10030    2    1    2    0    0  0.00000000000E+00  0.00000000000E+00 -0.72002924166E+03  0.37659056479E+04  0.36964311491E+04 0.  0.
        5    1    3    3  502    0 -0.13643274054E+04  0.11068395413E+04 -0.94473167876E+03  0.19947488749E+04  0.46999998093E+01 0. -1.
       -5    1    3    3    0  502  0.13643274054E+04 -0.11068395413E+04  0.22470243709E+03  0.17711567730E+04  0.46999998093E+01 0.  1.
</event>
<event>
 5   0  0.2282000E-08  0.3686644E+04  0.7818609E-02  0.8070928E-01
       -1   -1    0    0    0  501  0.00000000000E+00  0.00000000000E+00  0.27833141131E+04  0.27833141131E+04  0.50400001928E-02 0. -1.
        1   -1    0    0  501    0  0.00000000000E+00  0.00000000000E+00 -0.12207876765E+04  0.12207876765E+04  0.50400001928E-02 0.  1.
    10030    2    1    2    0    0  0.00000000000E+00  0.00000000000E+00  0.15625264366E+04  0.40041017896E+04  0.36866437686E+04 0.  0.
        4    1    3    3  502    0 -0.10857259162E+04  0.99305322251E+03  0.19872264640E+04  0.24726556776E+04  0.12699999809E+01 0. -1.
       -4    1    3    3    0  502  0.10857259162E+04 -0.99305322251E+03 -0.42470002736E+03  0.15314461120E+04  0.12699999809E+01 0.  1.
</event>
<event>
 5   0  0.7254493E-08  0.3691031E+04  0.7818609E-02  0.8069952E-01
        2   -1    0    0  501    0  0.00000000000E+00  0.00000000000E+00  0.20280074012E+04  0.20280074012E+04  0.25500000920E-02 0. -1.
       -2   -1    0    0    0  501  0.00000000000E+00  0.00000000000E+00 -0.16794449931E+04  0.16794449931E+04  0.25500000920E-02 0.  1.
    10030    2    1    2    0    0  0.00000000000E+00  0.00000000000E+00  0.34856240803E+03  0.37074523943E+04  0.36910306831E+04 0.  0.
        3    1    3    3  502    0  0.15877550154E+04  0.84906034342E+03  0.58112327186E+03  0.18919761423E+04  0.10100000352E+00 0. -1.
       -3    1    3    3    0  502 -0.15877550154E+04 -0.84906034342E+03 -0.23256086382E+03  0.18154762520E+04  0.10100000352E+00 0.  1.
</event>
<event>
 5   0  0.2282000E-08  0.3715911E+04  0.7818609E-02  0.8064445E-01
        1   -1    0    0  501    0  0.00000000000E+00  0.00000000000E+00  0.24301878173E+04  0.24301878173E+04  0.50400001928E-02 0. -1.
       -1   -1    0    0    0  501  0.00000000000E+00  0.00000000000E+00 -0.14204655028E+04  0.14204655028E+04  0.50400001928E-02 0.  1.
    10030    2    1    2    0    0  0.00000000000E+00  0.00000000000E+00  0.10097223145E+04  0.38506533201E+04  0.37159106339E+04 0.  0.
        3    1    3    3  502    0 -0.77291067958E+03 -0.97098184603E+03  0.19376775250E+04  0.23010412567E+04  0.10100000352E+00 0. -1.
       -3    1    3    3    0  502  0.77291067958E+03  0.97098184603E+03 -0.92795521053E+03  0.15496120633E+04  0.10100000352E+00 0.  1.
</event>
<event>
 5   0  0.2282000E-08  0.3700184E+04  0.7818609E-02  0.8067921E-01
        1   -1    0    0  501    0  0.00000000000E+00  0.00000000000E+00  0.13773655650E+04  0.13773655651E+04  0.50400001928E-02 0. -1.
       -1   -1    0    0    0  501  0.00000000000E+00  0.00000000000E+00 -0.24850625787E+04  0.24850625787E+04  0.50400001928E-02 0.  1.
    10030    2    1    2    0    0  0.00000000000E+00  0.00000000000E+00 -0.11076970137E+04  0.38624281438E+04  0.37001835754E+04 0.  0.
        2    1    3    3  502    0  0.10331237202E+04  0.14878965260E+04 -0.94672778226E+03  0.20438870289E+04  0.25500000920E-02 0.  1.
       -2    1    3    3    0  502 -0.10331237202E+04 -0.14878965260E+04 -0.16096923144E+03  0.18185411149E+04  0.25500000920E-02 0. -1.
</event>
<event>
 5   0  0.2282000E-08  0.3697409E+04  0.7818609E-02  0.8068536E-01
       -1   -1    0    0    0  501  0.00000000000E+00  0.00000000000E+00  0.19869438984E+04  0.19869438984E+04  0.50400001928E-02 0. -1.
        1   -1    0    0  501    0  0.00000000000E+00  0.00000000000E+00 -0.17200828025E+04  0.17200828025E+04  0.50400001928E-02 0.  1.
    10030    2    1    2    0    0  0.00000000000E+00  0.00000000000E+00  0.26686109598E+03  0.37070267009E+04  0.36974088382E+04 0.  0.
        2    1    3    3  502    0 -0.98308080556E+03  0.15263052437E+04  0.48312495811E+03  0.18786871194E+04  0.25500000920E-02 0.  1.
       -2    1    3    3    0  502  0.98308080556E+03 -0.15263052437E+04 -0.21626386213E+03  0.18283395815E+04  0.25500000920E-02 0. -1.
</event>
<event>
 5   0  0.7203049E-08  0.3705193E+04  0.7818609E-02  0.8066812E-01
        2   -1    0    0  501    0  0.00000000000E+00  0.00000000000E+00  0.22195134409E+04  0.22195134409E+04  0.25500000920E-02 0.  1.
       -2   -1    0    0    0  501  0.00000000000E+00  0.00000000000E+00 -0.15463364407E+04  0.15463364407E+04  0.25500000920E-02 0. -1.
    10030    2    1    2    0    0  0.00000000000E+00  0.00000000000E+00  0.67317700021E+03  0.37658498817E+04  0.37051933900E+04 0.  0.
        4    1    3    3  502    0 -0.14349640640E+04  0.10841571871E+04 -0.11520424501E+03  0.18021632285E+04  0.12699999809E+01 0. -1.
       -4    1    3    3    0  502  0.14349640640E+04 -0.10841571871E+04  0.78838124522E+03  0.19636866532E+04  0.12699999809E+01 0.  1.
</event>
<event>
 5   0  0.2282000E-08  0.3754372E+04  0.7818609E-02  0.8056018E-01
       -1   -1    0    0    0  501  0.00000000000E+00  0.00000000000E+00  0.13640895367E+04  0.13640895367E+04  0.50400001928E-02 0. -1.
        1   -1    0    0  501    0  0.00000000000E+00  0.00000000000E+00 -0.25832812462E+04  0.25832812462E+04  0.50400001928E-02 0.  1.
    10030    2    1    2    0    0  0.00000000000E+00  0.00000000000E+00 -0.12191917095E+04  0.39473707829E+04  0.37543718081E+04 0.  0.
        1    1    3    3  502    0 -0.45338589067E+03  0.17609974575E+04 -0.10995513873E+04  0.21250138975E+04  0.50400001928E-02 0.  1.
       -1    1    3    3    0  502  0.45338589067E+03 -0.17609974575E+04 -0.11964032222E+03  0.18223568854E+04  0.50400001928E-02 0. -1.
</event>
<event>
 5   0  0.2282000E-08  0.3695577E+04  0.7818609E-02  0.8068943E-01
       -1   -1    0    0    0  501  0.00000000000E+00  0.00000000000E+00  0.26779916432E+04  0.26779916432E+04  0.50400001928E-02 0. -1.
        1   -1    0    0  501    0  0.00000000000E+00  0.00000000000E+00 -0.12749561930E+04  0.12749561930E+04  0.50400001928E-02 0.  1.
    10030    2    1    2    0    0  0.00000000000E+00  0.00000000000E+00  0.14030354501E+04  0.39529478362E+04  0.36955768320E+04 0.  0.
        1    1    3    3  502    0 -0.53232787419E+03  0.10362939818E+03 -0.11879120744E+04  0.13058511072E+04  0.50400001928E-02 0.  1.
       -1    1    3    3    0  502  0.53232787419E+03 -0.10362939818E+03  0.25909475245E+04  0.26470967290E+04  0.50400001928E-02 0. -1.
</event>
<event>
 5   0  0.7191801E-08  0.3695430E+04  0.7818609E-02  0.8068975E-01
        2   -1    0    0  501    0  0.00000000000E+00  0.00000000000E+00  0.12087086710E+04  0.12087086710E+04  0.25500000920E-02 0.  1.
       -2   -1    0    0    0  501  0.00000000000E+00  0.00000000000E+00 -0.28245443878E+04  0.28245443878E+04  0.25500000920E-02 0. -1.
    10030    2    1    2    0    0  0.00000000000E+00  0.00000000000E+00 -0.16158357168E+04  0.40332530589E+04  0.36954303096E+04 0.  0.
        5    1    3    3  502    0 -0.36285654258E+03 -0.17985940286E+04 -0.10455957975E+04  0.21118470617E+04  0.46999998093E+01 0.  1.
       -5    1    3    3    0  502  0.36285654258E+03  0.17985940286E+04 -0.57023991926E+03  0.19214059971E+04  0.46999998093E+01 0. -1.
</event>
<event>
 5   0  0.7362817E-08  0.3698966E+04  0.7818609E-02  0.8068191E-01
        2   -1    0    0  501    0  0.00000000000E+00  0.00000000000E+00  0.22287317188E+04  0.22287317188E+04  0.25500000920E-02 0. -1.
       -2   -1    0    0    0  501  0.00000000000E+00  0.00000000000E+00 -0.15347685628E+04  0.15347685628E+04  0.25500000920E-02 0.  1.
    10030    2    1    2    0    0  0.00000000000E+00  0.00000000000E+00  0.69396315601E+03  0.37635002815E+04  0.36989660051E+04 0.  0.
        1    1    3    3  502    0 -0.15807662710E+01 -0.12370215603E+04 -0.10519103489E+04  0.16238042436E+04  0.50400001928E-02 0.  1.
       -1    1    3    3    0  502  0.15807662710E+01  0.12370215603E+04  0.17458735049E+04  0.21396960379E+04  0.50400001928E-02 0. -1.
</event>
<event>
 5   0  0.7362817E-08  0.3701279E+04  0.7818609E-02  0.8067678E-01
        2   -1    0    0  501    0  0.00000000000E+00  0.00000000000E+00  0.22432490988E+04  0.22432490988E+04  0.25500000920E-02 0. -1.
       -2   -1    0    0    0  501  0.00000000000E+00  0.00000000000E+00 -0.15267438510E+04  0.15267438510E+04  0.25500000920E-02 0.  1.
    10030    2    1    2    0    0  0.00000000000E+00  0.00000000000E+00  0.71650524779E+03  0.37699929498E+04  0.37012791129E+04 0.  0.
        1    1    3    3  502    0  0.17060813714E+04  0.47182844683E+03  0.90821262201E+03  0.19895190112E+04  0.50400001928E-02 0.  1.
       -1    1    3    3    0  502 -0.17060813714E+04 -0.47182844683E+03 -0.19170737422E+03  0.17804739387E+04  0.50400001928E-02 0. -1.
</event>
<event>
 5   0  0.2282000E-08  0.3707353E+04  0.7818609E-02  0.8066334E-01
       -1   -1    0    0    0  501  0.00000000000E+00  0.00000000000E+00  0.16166498111E+04  0.16166498111E+04  0.50400001928E-02 0. -1.
        1   -1    0    0  501    0  0.00000000000E+00  0.00000000000E+00 -0.21254556398E+04  0.21254556398E+04  0.50400001928E-02 0.  1.
    10030    2    1    2    0    0  0.00000000000E+00  0.00000000000E+00 -0.50880582877E+03  0.37421054509E+04  0.37073534812E+04 0.  0.
        3    1    3    3  502    0 -0.94284393190E+03  0.83803890870E+03  0.11165829411E+04  0.16846428010E+04  0.10100000352E+00 0. -1.
       -3    1    3    3    0  502  0.94284393190E+03 -0.83803890870E+03 -0.16253887698E+04  0.20574626499E+04  0.10100000352E+00 0.  1.
</event>
<event>
 5   0  0.7191801E-08  0.3697668E+04  0.7818609E-02  0.8068479E-01
        2   -1    0    0  501    0  0.00000000000E+00  0.00000000000E+00  0.21721758802E+04  0.21721758802E+04  0.25500000920E-02 0. -1.
       -2   -1    0    0    0  501  0.00000000000E+00  0.00000000000E+00 -0.15736239235E+04  0.15736239235E+04  0.25500000920E-02 0.  1.
    10030    2    1    2    0    0  0.00000000000E+00  0.00000000000E+00  0.59855195674E+03  0.37457998037E+04  0.36976684174E+04 0.  0.
        5    1    3    3  502    0 -0.37150483052E+03  0.12245259670E+04  0.16510692799E+04  0.20889067811E+04  0.46999998093E+01 0. -1.
       -5    1    3    3    0  502  0.37150483052E+03 -0.12245259670E+04 -0.10525173232E+04  0.16568930227E+04  0.46999998093E+01 0.  1.
</event>
<event>
 5   0  0.7309833E-08  0.3698733E+04  0.7818609E-02  0.8068243E-01
       -2   -1    0    0    0  501  0.00000000000E+00  0.00000000000E+00  0.20453426658E+04  0.20453426658E+04  0.25500000920E-02 0. -1.
        2   -1    0    0  501    0  0.00000000000E+00  0.00000000000E+00 -0.16721679479E+04  0.16721679479E+04  0.25500000920E-02 0.  1.
    10030    2    1    2    0    0  0.00000000000E+00  0.00000000000E+00  0.37317471787E+03  0.37175106138E+04  0.36987329984E+04 0.  0.
        2    1    3    3  502    0 -0.12080412693E+04  0.56529065133E+03 -0.11010251244E+04  0.17295009549E+04  0.25500000920E-02 0.  1.
       -2    1    3    3    0  502  0.12080412693E+04 -0.56529065133E+03  0.14741998422E+04  0.19880096588E+04  0.25500000920E-02 0. -1.
</event>
<event>
 5   0  0.2282000E-08  0.3675628E+04  0.7818609E-02  0.8073384E-01
        1   -1    0    0  501    0  0.00000000000E+00  0.00000000000E+00  0.11984181581E+04  0.11984181581E+04  0.50400001928E-02 0. -1.
       -1   -1    0    0    0  501  0.00000000000E+00  0.00000000000E+00 -0.28183491811E+04  0.28183491811E+04  0.50400001928E-02 0.  1.
    10030    2    1    2    0    0  0.00000000000E+00  0.00000000000E+00 -0.16199310231E+04  0.40167673392E+04  0.36756282916E+04 0.  0.
        5    1    3    3  502    0 -0.30353215643E+03 -0.13064773635E+04 -0.21829659269E+04  0.25621040571E+04  0.46999998093E+01 0.  1.
       -5    1    3    3    0  502  0.30353215643E+03  0.13064773635E+04  0.56303490386E+03  0.14546632821E+04  0.46999998093E+01 0. -1.
</event>
<event>
 5   0  0.7362817E-08  0.3699177E+04  0.7818609E-02  0.8068144E-01
       -2   -1    0    0    0  501  0.00000000000E+00  0.00000000000E+00  0.22273006762E+04  0.22273006762E+04  0.25500000920E-02 0.  1.
        2   -1    0    0  501    0  0.00000000000E+00  0.00000000000E+00 -0.15359294867E+04  0.15359294867E+04  0.25500000920E-02 0. -1.
    10030    2    1    2    0    0  0.00000000000E+00  0.00000000000E+00  0.69137118947E+03  0.37632301630E+04  0.36991765486E+04 0.  0.
        1    1    3    3  502    0 -0.15321692786E+04  0.61608095478E+03  0.11931030166E+04  0.20373004809E+04  0.50400001928E-02 0.  1.
       -1    1    3    3    0  502  0.15321692786E+04 -0.61608095478E+03 -0.50173182713E+03  0.17259296821E+04  0.50400001928E-02 0. -1.
</event>
<event>
 5   0  0.7203049E-08  0.3697624E+04  0.7818609E-02  0.8068488E-01
       -2   -1    0    0    0  501  0.00000000000E+00  0.00000000000E+00  0.13785142953E+04  0.13785142953E+04  0.25500000920E-02 0. -1.
        2   -1    0    0  501    0  0.00000000000E+00  0.00000000000E+00 -0.24795583260E+04  0.24795583260E+04  0.25500000920E-02 0.  1.
    10030    2    1    2    0    0  0.00000000000E+00  0.00000000000E+00 -0.11010440307E+04  0.38580726214E+04  0.36976244258E+04 0.  0.
        4    1    3    3  502    0 -0.14722200444E+04 -0.10924107206E+04 -0.80030921026E+03  0.20003223457E+04  0.12699999809E+01 0.  1.
       -4    1    3    3    0  502  0.14722200444E+04  0.10924107206E+04 -0.30073482046E+03  0.18577502757E+04  0.12699999809E+01 0. -1.
</event>
<event>
 5   0  0.7362817E-08  0.3698341E+04  0.7818609E-02  0.8068330E-01
        2   -1    0    0  501    0  0.00000000000E+00  0.00000000000E+00  0.15861320851E+04  0.15861320851E+04  0.25500000920E-02 0.  1.
       -2   -1    0    0    0  501  0.00000000000E+00  0.00000000000E+00 -0.21558298434E+04  0.21558298434E+04  0.25500000920E-02 0. -1.
    10030    2    1    2    0    0  0.00000000000E+00  0.00000000000E+00 -0.56969775828E+03  0.37419619285E+04  0.36983406466E+04 0.  0.
        1    1    3    3  502    0 -0.15320754155E+04  0.73518791602E+03 -0.10226093523E+04  0.19833018525E+04  0.50400001928E-02 0.  1.
       -1    1    3    3    0  502  0.15320754155E+04 -0.73518791602E+03  0.45291159405E+03  0.17586600760E+04  0.50400001928E-02 0. -1.
</event>
<event>
 5   0  0.7309833E-08  0.3696705E+04  0.7818609E-02  0.8068692E-01
        2   -1    0    0  501    0  0.00000000000E+00  0.00000000000E+00  0.13536969339E+04  0.13536969339E+04  0.25500000920E-02 0. -1.
       -2   -1    0    0    0  501  0.00000000000E+00  0.00000000000E+00 -0.25237608664E+04  0.25237608664E+04  0.25500000920E-02 0.  1.
    10030    2    1    2    0    0  0.00000000000E+00  0.00000000000E+00 -0.11700639326E+04  0.38774578003E+04  0.36967052069E+04 0.  0.
        2    1    3    3  502    0  0.28482779586E+03 -0.33283233176E+03  0.12984595178E+04  0.13703654088E+04  0.25500000920E-02 0. -1.
       -2    1    3    3    0  502 -0.28482779586E+03  0.33283233176E+03 -0.24685234504E+04  0.25070923915E+04  0.25500000920E-02 0.  1.
</event>
<event>
 5   0  0.2282000E-08  0.3700471E+04  0.7818609E-02  0.8067857E-01
       -1   -1    0    0    0  501  0.00000000000E+00  0.00000000000E+00  0.13014148603E+04  0.13014148603E+04  0.50400001928E-02 0. -1.
        1   -1    0    0  501    0  0.00000000000E+00  0.00000000000E+00 -0.26305000279E+04  0.26305000279E+04  0.50400001928E-02 0.  1.
    10030    2    1    2    0    0  0.00000000000E+00  0.00000000000E+00 -0.13290851676E+04  0.39319148882E+04  0.37004712275E+04 0.  0.
        2    1    3    3  502    0 -0.18088169923E+04 -0.32284212023E+03 -0.43339123789E+03  0.18878225317E+04  0.25500000920E-02 0.  1.
       -2    1    3    3    0  502  0.18088169923E+04  0.32284212023E+03 -0.89569392966E+03  0.20440923565E+04  0.25500000920E-02 0. -1.
</event>
<event>
 5   0  0.2282000E-08  0.3702391E+04  0.7818609E-02  0.8067432E-01
        1   -1    0    0  501    0  0.00000000000E+00  0.00000000000E+00  0.14911668934E+04  0.14911668934E+04  0.50400001928E-02 0. -1.
       -1   -1    0    0    0  501  0.00000000000E+00  0.00000000000E+00 -0.22981496936E+04  0.22981496936E+04  0.50400001928E-02 0.  1.
    10030    2    1    2    0    0  0.00000000000E+00  0.00000000000E+00 -0.80698280016E+03  0.37893165870E+04  0.37023909784E+04 0.  0.
        2    1    3    3  502    0 -0.54174698111E+03  0.15126785037E+04  0.53746239150E+03  0.16942703058E+04  0.25500000920E-02 0. -1.
       -2    1    3    3    0  502  0.54174698111E+03 -0.15126785037E+04 -0.13444451917E+04  0.20950462812E+04  0.25500000920E-02 0.  1.
</event>
<event>
 5   0  0.7362817E-08  0.3714073E+04  0.7818609E-02  0.8064850E-01
        2   -1    0    0  501    0  0.00000000000E+00  0.00000000000E+00  0.27115677753E+04  0.27115677753E+04  0.25500000920E-02 0. -1.
       -2   -1    0    0    0  501  0.00000000000E+00  0.00000000000E+00 -0.12718046651E+04  0.12718046651E+04  0.25500000920E-02 0.  1.
    10030    2    1    2    0    0  0.00000000000E+00  0.00000000000E+00  0.14397631101E+04  0.39833724404E+04  0.37140729915E+04 0.  0.
        1    1    3    3  502    0 -0.63130247282E+03  0.10401626444E+04 -0.78473015111E+03  0.14478544641E+04  0.50400001928E-02 0.  1.
       -1    1    3    3    0  502  0.63130247282E+03 -0.10401626444E+04  0.22244932612E+04  0.25355179764E+04  0.50400001928E-02 0. -1.
</event>
<event>
 5   0  0.2282000E-08  0.3703233E+04  0.7818609E-02  0.8067246E-01
        1   -1    0    0  501    0  0.00000000000E+00  0.00000000000E+00  0.18665711856E+04  0.18665711856E+04  0.50400001928E-02 0.  1.
       -1   -1    0    0    0  501  0.00000000000E+00  0.00000000000E+00 -0.18367818074E+04  0.18367818074E+04  0.50400001928E-02 0. -1.
    10030    2    1    2    0    0  0.00000000000E+00  0.00000000000E+00  0.29789378208E+02  0.37033529931E+04  0.37032331798E+04 0.  0.
        3    1    3    3  502    0 -0.12815756214E+03  0.44509566962E+03  0.18077018286E+04  0.18660976468E+04  0.10100000352E+00 0.  1.
       -3    1    3    3    0  502  0.12815756214E+03 -0.44509566962E+03 -0.17779124504E+04  0.18372553463E+04  0.10100000352E+00 0. -1.
</event>
<event>
 5   0  0.2282000E-08  0.3702599E+04  0.7818609E-02  0.8067386E-01
        1   -1    0    0  501    0  0.00000000000E+00  0.00000000000E+00  0.13893726353E+04  0.13893726353E+04  0.50400001928E-02 0.  1.
       -1   -1    0    0    0  501  0.00000000000E+00  0.00000000000E+00 -0.24668040575E+04  0.24668040575E+04  0.50400001928E-02 0. -1.
    10030    2    1    2    0    0  0.00000000000E+00  0.00000000000E+00 -0.10774314222E+04  0.38561766928E+04  0.37025991163E+04 0.  0.
        5    1    3    3  502    0 -0.37398450661E+03  0.59490907665E+03 -0.23225059277E+04  0.24264865743E+04  0.46999998093E+01 0. -1.
       -5    1    3    3    0  502  0.37398450661E+03 -0.59490907665E+03  0.12450745055E+04  0.14296901185E+04  0.46999998093E+01 0.  1.
</event>
<event>
 5   0  0.7254493E-08  0.3700534E+04  0.7818609E-02  0.8067844E-01
       -2   -1    0    0    0  501  0.00000000000E+00  0.00000000000E+00  0.11935905814E+04  0.11935905814E+04  0.25500000920E-02 0.  1.
        2   -1    0    0  501    0  0.00000000000E+00  0.00000000000E+00 -0.28682260112E+04  0.28682260112E+04  0.25500000920E-02 0. -1.
    10030    2    1    2    0    0  0.00000000000E+00  0.00000000000E+00 -0.16746354298E+04  0.40618165925E+04  0.37005337735E+04 0.  0.
        3    1    3    3  502    0  0.15557548723E+04  0.71932497588E+03 -0.16022688336E+04  0.23462879340E+04  0.10100000352E+00 0. -1.
       -3    1    3    3    0  502 -0.15557548723E+04 -0.71932497588E+03 -0.72366596158E+02  0.17155286585E+04  0.10100000352E+00 0.  1.
</event>
<event>
 5   0  0.2282000E-08  0.3749429E+04  0.7818609E-02  0.8057095E-01
       -1   -1    0    0    0  501  0.00000000000E+00  0.00000000000E+00  0.17104802757E+04  0.17104802757E+04  0.50400001928E-02 0. -1.
        1   -1    0    0  501    0  0.00000000000E+00  0.00000000000E+00 -0.20547175904E+04  0.20547175905E+04  0.50400001928E-02 0.  1.
    10030    2    1    2    0    0  0.00000000000E+00  0.00000000000E+00 -0.34423731472E+03  0.37651978662E+04  0.37494287088E+04 0.  0.
        4    1    3    3  502    0  0.60662916152E+03 -0.13468467076E+04  0.98710076935E+03  0.17766160348E+04  0.12699999809E+01 0. -1.
       -4    1    3    3    0  502 -0.60662916152E+03  0.13468467076E+04 -0.13313380841E+04  0.19885818314E+04  0.12699999809E+01 0.  1.
</event>
<event>
 5   0  0.7309833E-08  0.3705602E+04  0.7818609E-02  0.8066721E-01
        2   -1    0    0  501    0  0.00000000000E+00  0.00000000000E+00  0.15421866031E+04  0.15421866031E+04  0.25500000920E-02 0.  1.
       -2   -1    0    0    0  501  0.00000000000E+00  0.00000000000E+00 -0.22259768788E+04  0.22259768788E+04  0.25500000920E-02 0. -1.
    10030    2    1    2    0    0  0.00000000000E+00  0.00000000000E+00 -0.68379027570E+03  0.37681634819E+04  0.37056020949E+04 0.  0.
        2    1    3    3  502    0 -0.11091334349E+04  0.75008054744E+03  0.96037974438E+03  0.16477642603E+04  0.25500000920E-02 0.  1.
       -2    1    3    3    0  502  0.11091334349E+04 -0.75008054744E+03 -0.16441700201E+04  0.21203992216E+04  0.25500000920E-02 0. -1.
</event>
<event>
 5   0  0.2282000E-08  0.3696219E+04  0.7818609E-02  0.8068800E-01
        1   -1    0    0  501    0  0.00000000000E+00  0.00000000000E+00  0.24059892739E+04  0.24059892739E+04  0.50400001928E-02 0.  1.
       -1   -1    0    0    0  501  0.00000000000E+00  0.00000000000E+00 -0.14195857386E+04  0.14195857386E+04  0.50400001928E-02 0. -1.
    10030    2    1    2    0    0  0.00000000000E+00  0.00000000000E+00  0.98640353531E+03  0.38255750126E+04  0.36962186410E+04 0.  0.
        1    1    3    3  502    0  0.72852287845E+03  0.10485828598E+04 -0.88968602633E+03  0.15562174732E+04  0.50400001928E-02 0. -1.
       -1    1    3    3    0  502 -0.72852287845E+03 -0.10485828598E+04  0.18760895616E+04  0.22693575394E+04  0.50400001928E-02 0.  1.
</event>
<event>
 5   0  0.2282000E-08  0.3697490E+04  0.7818609E-02  0.8068518E-01
        1   -1    0    0  501    0  0.00000000000E+00  0.00000000000E+00  0.27676434752E+04  0.27676434752E+04  0.50400001928E-02 0. -1.
       -1   -1    0    0    0  501  0.00000000000E+00  0.00000000000E+00 -0.12349342690E+04  0.12349342690E+04  0.50400001928E-02 0.  1.
    10030    2    1    2    0    0  0.00000000000E+00  0.00000000000E+00  0.15327092063E+04  0.40025777443E+04  0.36974898361E+04 0.  0.
        1    1    3    3  502    0  0.13955841458E+04 -0.65685434835E+03 -0.33692926112E+03  0.15788078002E+04  0.50400001928E-02 0.  1.
       -1    1    3    3    0  502 -0.13955841458E+04  0.65685434835E+03  0.18696384674E+04  0.24237699440E+04  0.50400001928E-02 0. -1.
</event>
<event>
 5   0  0.7191801E-08  0.3700277E+04  0.7818609E-02  0.8067901E-01
       -2   -1    0    0    0  501  0.00000000000E+00  0.00000000000E+00  0.12110360830E+04  0.12110360830E+04  0.25500000920E-02 0.  1.
        2   -1    0    0  501    0  0.00000000000E+00  0.00000000000E+00 -0.28265149409E+04  0.28265149409E+04  0.25500000920E-02 0. -1.
    10030    2    1    2    0    0  0.00000000000E+00  0.00000000000E+00 -0.16154788579E+04  0.40375510239E+04  0.37002765208E+04 0.  0.
        5    1    3    3  502    0  0.17284355922E+04  0.40088520353E+03 -0.23575388032E+03  0.17899163457E+04  0.46999998093E+01 0.  1.
       -5    1    3    3    0  502 -0.17284355922E+04 -0.40088520353E+03 -0.13797249776E+04  0.22476346782E+04  0.46999998093E+01 0. -1.
</event>
<event>
 5   0  0.2282000E-08  0.3708692E+04  0.7818609E-02  0.8066038E-01
       -1   -1    0    0    0  501  0.00000000000E+00  0.00000000000E+00  0.20778479908E+04  0.20778479908E+04  0.50400001928E-02 0. -1.
        1   -1    0    0  501    0  0.00000000000E+00  0.00000000000E+00 -0.16548846388E+04  0.16548846388E+04  0.50400001928E-02 0.  1.
    10030    2    1    2    0    0  0.00000000000E+00  0.00000000000E+00  0.42296335199E+03  0.37327326295E+04  0.37086918026E+04 0.  0.
        3    1    3    3  502    0 -0.50442007414E+03 -0.13945909428E+04  0.13319253234E+04  0.19933260110E+04  0.10100000352E+00 0. -1.
       -3    1    3    3    0  502  0.50442007414E+03  0.13945909428E+04 -0.90896197143E+03  0.17394066185E+04  0.10100000352E+00 0.  1.
</event>
<event>
 5   0  0.2282000E-08  0.3709684E+04  0.7818609E-02  0.8065819E-01
        1   -1    0    0  501    0  0.00000000000E+00  0.00000000000E+00  0.22800764479E+04  0.22800764479E+04  0.50400001928E-02 0. -1.
       -1   -1    0    0    0  501  0.00000000000E+00  0.00000000000E+00 -0.15089140118E+04  0.15089140118E+04  0.50400001928E-02 0.  1.
    10030    2    1    2    0    0  0.00000000000E+00  0.00000000000E+00  0.77116243606E+03  0.37889904597E+04  0.37096842455E+04 0.  0.
        5    1    3    3  502    0 -0.10934233789E+04  0.13721568926E+04 -0.22896937012E+03  0.17694174991E+04  0.46999998093E+01 0.  1.
       -5    1    3    3    0  502  0.10934233789E+04 -0.13721568926E+04  0.10001318062E+04  0.20195729606E+04  0.46999998093E+01 0. -1.
</event>
<event>
 5   0  0.7309833E-08  0.3698568E+04  0.7818609E-02  0.8068279E-01
        2   -1    0    0  501    0  0.00000000000E+00  0.00000000000E+00  0.13596890777E+04  0.13596890777E+04  0.25500000920E-02 0. -1.
       -2   -1    0    0    0  501  0.00000000000E+00  0.00000000000E+00 -0.25151721789E+04  0.25151721789E+04  0.25500000920E-02 0.  1.
    10030    2    1    2    0    0  0.00000000000E+00  0.00000000000E+00 -0.11554831012E+04  0.38748612566E+04  0.36985684475E+04 0.  0.
        2    1    3    3  502    0  0.13785272549E+03 -0.13213277648E+02  0.13542490452E+04  0.13613112947E+04  0.25500000920E-02 0. -1.
       -2    1    3    3    0  502 -0.13785272549E+03  0.13213277648E+02 -0.25097321464E+04  0.25135499619E+04  0.25500000920E-02 0.  1.
</event>
<event>
 5   0  0.7203049E-08  0.3719076E+04  0.7818609E-02  0.8063748E-01
        2   -1    0    0  501    0  0.00000000000E+00  0.00000000000E+00  0.18756309917E+04  0.18756309917E+04  0.25500000920E-02 0.  1.
       -2   -1    0    0    0  501  0.00000000000E+00  0.00000000000E+00 -0.18435828678E+04  0.18435828678E+04  0.25500000920E-02 0. -1.
    10030    2    1    2    0    0  0.00000000000E+00  0.00000000000E+00  0.32048123841E+02  0.37192138595E+04  0.37190757791E+04 0.  0.
        4    1    3    3  502    0  0.33808888177E+03  0.15484492393E+04 -0.95657588092E+03  0.18512261255E+04  0.12699999809E+01 0. -1.
       -4    1    3    3    0  502 -0.33808888177E+03 -0.15484492393E+04  0.98862400476E+03  0.18679877340E+04  0.12699999809E+01 0.  1.
</event>
<event>
 5   0  0.2282000E-08  0.3700567E+04  0.7818609E-02  0.8067836E-01
        1   -1    0    0  501    0  0.00000000000E+00  0.00000000000E+00  0.17000883202E+04  0.17000883202E+04  0.50400001928E-02 0.  1.
       -1   -1    0    0    0  501  0.00000000000E+00  0.00000000000E+00 -0.20137478561E+04  0.20137478561E+04  0.50400001928E-02 0. -1.
    10030    2    1    2    0    0  0.00000000000E+00  0.00000000000E+00 -0.31365953589E+03  0.37138361763E+04  0.37005670971E+04 0.  0.
        3    1    3    3  502    0  0.39289539576E+03 -0.16874947478E+04  0.49476240016E+03  0.18018865554E+04  0.10100000352E+00 0.  1.
       -3    1    3    3    0  502 -0.39289539576E+03  0.16874947478E+04 -0.80842193605E+03  0.19119496209E+04  0.10100000352E+00 0. -1.
</event>
<event>
 5   0  0.7309833E-08  0.3656446E+04  0.7818609E-02  0.8077683E-01
        2   -1    0    0  501    0  0.00000000000E+00  0.00000000000E+00  0.18041297779E+04  0.18041297779E+04  0.25500000920E-02 0.  1.
       -2   -1    0    0    0  501  0.00000000000E+00  0.00000000000E+00 -0.18526375339E+04  0.18526375339E+04  0.25500000920E-02 0. -1.
    10030    2    1    2    0    0  0.00000000000E+00  0.00000000000E+00 -0.48507755978E+02  0.36567673119E+04  0.36564455651E+04 0.  0.
        2    1    3    3  502    0 -0.34030264638E+03 -0.14624379515E+04  0.10188469564E+04  0.18145467130E+04  0.25500000920E-02 0.  1.
       -2    1    3    3    0  502  0.34030264638E+03  0.14624379515E+04 -0.10673547124E+04  0.18422205989E+04  0.25500000920E-02 0. -1.
</event>
<event>
 5   0  0.7203049E-08  0.3713166E+04  0.7818609E-02  0.8065050E-01
       -2   -1    0    0    0  501  0.00000000000E+00  0.00000000000E+00  0.11348875117E+04  0.11348875117E+04  0.25500000920E-02 0. -1.
        2   -1    0    0  501    0  0.00000000000E+00  0.00000000000E+00 -0.30372175474E+04  0.30372175474E+04  0.25500000920E-02 0.  1.
    10030    2    1    2    0    0  0.00000000000E+00  0.00000000000E+00 -0.19023300357E+04  0.41721050592E+04  0.37131659080E+04 0.  0.
        4    1    3    3  502    0  0.50295270533E+02 -0.15895498790E+04  0.12520427514E+03  0.15952667976E+04  0.12699999809E+01 0. -1.
       -4    1    3    3    0  502 -0.50295270533E+02  0.15895498790E+04 -0.20275343108E+04  0.25768382616E+04  0.12699999809E+01 0.  1.
</event>
<event>
 5   0  0.7254493E-08  0.3699868E+04  0.7818609E-02  0.8067991E-01
        2   -1    0    0  501    0  0.00000000000E+00  0.00000000000E+00  0.24439521354E+04  0.24439521354E+04  0.25500000920E-02 0. -1.
       -2   -1    0    0    0  501  0.00000000000E+00  0.00000000000E+00 -0.14002961341E+04  0.14002961341E+04  0.25500000920E-02 0.  1.
    10030    2    1    2    0    0  0.00000000000E+00  0.00000000000E+00  0.10436560014E+04  0.38442482695E+04  0.36998684988E+04 0.  0.
        3    1    3    3  502    0 -0.15624962384E+04  0.98153531578E+03  0.38457214249E+03  0.18848612188E+04  0.10100000352E+00 0.  1.
       -3    1    3    3    0  502  0.15624962384E+04 -0.98153531578E+03  0.65908385888E+03  0.19593870507E+04  0.10100000352E+00 0. -1.
</event>
<event>
 5   0  0.2282000E-08  0.3709420E+04  0.7818609E-02  0.8065877E-01
        1   -1    0    0  501    0  0.00000000000E+00  0.00000000000E+00  0.19259786579E+04  0.19259786579E+04  0.50400001928E-02 0. -1.
       -1   -1    0    0    0  501  0.00000000000E+00  0.00000000000E+00 -0.17860783796E+04  0.17860783796E+04  0.50400001928E-02 0.  1.
    10030    2    1    2    0    0  0.00000000000E+00  0.00000000000E+00  0.13990027825E+03  0.37120570375E+04  0.37094198147E+04 0.  0.
        5    1    3    3  502    0 -0.14833345293E+03  0.17683653216E+04  0.60959972458E+03  0.18763668720E+04  0.46999998093E+01 0.  1.
       -5    1    3    3    0  502  0.14833345293E+03 -0.17683653216E+04 -0.46969944633E+03  0.18356901655E+04  0.46999998093E+01 0. -1.
</event>
<event>
 5   0  0.7309833E-08  0.3707390E+04  0.7818609E-02  0.8066326E-01
        2   -1    0    0  501    0  0.00000000000E+00  0.00000000000E+00  0.18436717333E+04  0.18436717333E+04  0.25500000920E-02 0. -1.
       -2   -1    0    0    0  501  0.00000000000E+00  0.00000000000E+00 -0.18637731192E+04  0.18637731192E+04  0.25500000920E-02 0.  1.
    10030    2    1    2    0    0  0.00000000000E+00  0.00000000000E+00 -0.20101385882E+02  0.37074448524E+04  0.37073903582E+04 0.  0.
        2    1    3    3  502    0 -0.12464372981E+04  0.13065125991E+04 -0.42910900582E+03  0.18559945174E+04  0.25500000920E-02 0.  1.
       -2    1    3    3    0  502  0.12464372981E+04 -0.13065125991E+04  0.40900761994E+03  0.18514503350E+04  0.25500000920E-02 0. -1.
</event>
<event>
 5   0  0.2282000E-08  0.3714522E+04  0.7818609E-02  0.8064751E-01
        1   -1    0    0  501    0  0.00000000000E+00  0.00000000000E+00  0.18716072589E+04  0.18716072589E+04  0.50400001928E-02 0.  1.
       -1   -1    0    0    0  501  0.00000000000E+00  0.00000000000E+00 -0.18430251189E+04  0.18430251189E+04  0.50400001928E-02 0. -1.
    10030    2    1    2    0    0  0.00000000000E+00  0.00000000000E+00  0.28582140012E+02  0.37146323778E+04  0.37145224139E+04 0.  0.
        4    1    3    3  502    0 -0.17433388792E+04 -0.58841046693E+03  0.26720220006E+03  0.18592622068E+04  0.12699999809E+01 0.  1.
       -4    1    3    3    0  502  0.17433388792E+04  0.58841046693E+03 -0.23862006005E+03  0.18553701709E+04  0.12699999809E+01 0. -1.
</event>
<event>
 5   0  0.7309833E-08  0.3696710E+04  0.7818609E-02  0.8068691E-01
        2   -1    0    0  501    0  0.00000000000E+00  0.00000000000E+00  0.26680021358E+04  0.26680021358E+04  0.25500000920E-02 0. -1.
       -2   -1    0    0    0  501  0.00000000000E+00  0.00000000000E+00 -0.12805149202E+04  0.12805149202E+04  0.25500000920E-02 0.  1.
    10030    2    1    2    0    0  0.00000000000E+00  0.00000000000E+00  0.13874872156E+04  0.39485170560E+04  0.36967101818E+04 0.  0.
        2    1    3    3  502    0  0.90887345030E+03 -0.13782423186E+04 -0.19402357520E+03  0.16623020139E+04  0.25500000920E-02 0.  1.
       -2    1    3    3    0  502 -0.90887345030E+03  0.13782423186E+04  0.15815107908E+04  0.22862150421E+04  0.25500000920E-02 0. -1.
</event>
<event>
 5   0  0.2282000E-08  0.3692289E+04  0.7818609E-02  0.8069673E-01
        1   -1    0    0  501    0  0.00000000000E+00  0.00000000000E+00  0.14369934063E+04  0.14369934063E+04  0.50400001928E-02 0. -1.
       -1   -1    0    0    0  501  0.00000000000E+00  0.00000000000E+00 -0.23717925976E+04  0.23717925976E+04  0.50400001928E-02 0.  1.
    10030    2    1    2    0    0  0.00000000000E+00  0.00000000000E+00 -0.93479919130E+03  0.38087860039E+04  0.36922894382E+04 0.  0.
        5    1    3    3  502    0  0.17257114983E+04  0.10938022738E+03  0.19967523329E+03  0.17406712780E+04  0.46999998093E+01 0. -1.
       -5    1    3    3    0  502 -0.17257114983E+04 -0.10938022738E+03 -0.11344744246E+04  0.20681147259E+04  0.46999998093E+01 0.  1.
</event>
<event>
 5   0  0.2282000E-08  0.3703474E+04  0.7818609E-02  0.8067192E-01
        1   -1    0    0  501    0  0.00000000000E+00  0.00000000000E+00  0.11134364160E+04  0.11134364160E+04  0.50400001928E-02 0. -1.
       -1   -1    0    0    0  501  0.00000000000E+00  0.00000000000E+00 -0.30795927304E+04  0.30795927305E+04  0.50400001928E-02 0.  1.
    10030    2    1    2    0    0  0.00000000000E+00  0.00000000000E+00 -0.19661563145E+04  0.41930291464E+04  0.37034744187E+04 0.  0.
        5    1    3    3  502    0 -0.64884372304E+03 -0.17149783338E+04 -0.69054449303E+03  0.19593424022E+04  0.46999998093E+01 0.  1.
       -5    1    3    3    0  502  0.64884372304E+03  0.17149783338E+04 -0.12756118215E+04  0.22336867442E+04  0.46999998093E+01 0. -1.
</event>
<event>
 5   0  0.2282000E-08  0.3703440E+04  0.7818609E-02  0.8067200E-01
        1   -1    0    0  501    0  0.00000000000E+00  0.00000000000E+00  0.13499269715E+04  0.13499269715E+04  0.50400001928E-02 0.  1.
       -1   -1    0    0    0  501  0.00000000000E+00  0.00000000000E+00 -0.25400393025E+04  0.25400393025E+04  0.50400001928E-02 0. -1.
    10030    2    1    2    0    0  0.00000000000E+00  0.00000000000E+00 -0.11901123310E+04  0.38899662740E+04  0.37034403266E+04 0.  0.
        3    1    3    3  502    0  0.87967989716E+03 -0.62439416981E+03 -0.21759044436E+04  0.24286343814E+04  0.10100000352E+00 0. -1.
       -3    1    3    3    0  502 -0.87967989716E+03  0.62439416981E+03  0.98579211260E+03  0.14613318926E+04  0.10100000352E+00 0.  1.
</event>
<event>
 5   0  0.2282000E-08  0.3694015E+04  0.7818609E-02  0.8069289E-01
       -1   -1    0    0    0  501  0.00000000000E+00  0.00000000000E+00  0.16855493857E+04  0.16855493857E+04  0.50400001928E-02 0.  1.
        1   -1    0    0  501    0  0.00000000000E+00  0.00000000000E+00 -0.20239321102E+04  0.20239321102E+04  0.50400001928E-02 0. -1.
    10030    2    1    2    0    0  0.00000000000E+00  0.00000000000E+00 -0.33838272444E+03  0.37094814959E+04  0.36940154439E+04 0.  0.
        2    1    3    3  502    0  0.10281025811E+04 -0.11276689157E+04  0.87574469031E+03  0.17594206045E+04  0.25500000920E-02 0.  1.
       -2    1    3    3    0  502 -0.10281025811E+04  0.11276689157E+04 -0.12141274148E+04  0.19500608914E+04  0.25500000920E-02 0. -1.
</event>
<event>
 5   0  0.7191801E-08  0.3668076E+04  0.7818609E-02  0.8075074E-01
       -2   -1    0    0    0  501  0.00000000000E+00  0.00000000000E+00  0.14509584869E+04  0.14509584870E+04  0.25500000920E-02 0. -1.
        2   -1    0    0  501    0  0.00000000000E+00  0.00000000000E+00 -0.23182580928E+04  0.23182580928E+04  0.25500000920E-02 0.  1.
    10030    2    1    2    0    0  0.00000000000E+00  0.00000000000E+00 -0.86729960581E+03  0.37692165797E+04  0.36680764739E+04 0.  0.
        5    1    3    3  502    0 -0.88939686409E+03 -0.15970569608E+04 -0.58625892253E+03  0.19197237645E+04  0.46999998093E+01 0.  1.
       -5    1    3    3    0  502  0.88939686409E+03  0.15970569608E+04 -0.28104068327E+03  0.18494928152E+04  0.46999998093E+01 0. -1.
</event>
<event>
 5   0  0.2282000E-08  0.3707964E+04  0.7818609E-02  0.8066199E-01
       -1   -1    0    0    0  501  0.00000000000E+00  0.00000000000E+00  0.23048302654E+04  0.23048302654E+04  0.50400001928E-02 0. -1.
        1   -1    0    0  501    0  0.00000000000E+00  0.00000000000E+00 -0.14913241503E+04  0.14913241504E+04  0.50400001928E-02 0.  1.
    10030    2    1    2    0    0  0.00000000000E+00  0.00000000000E+00  0.81350611509E+03  0.37961544158E+04  0.37079638819E+04 0.  0.
        4    1    3    3  502    0 -0.45662410673E+03 -0.42101518447E+03 -0.13816450946E+04  0.15148280895E+04  0.12699999809E+01 0.  1.
       -4    1    3    3    0  502  0.45662410673E+03  0.42101518447E+03  0.21951512097E+04  0.22813263263E+04  0.12699999809E+01 0. -1.
</event>
<event>
 5   0  0.2282000E-08  0.3698115E+04  0.7818609E-02  0.8068380E-01
        1   -1    0    0  501    0  0.00000000000E+00  0.00000000000E+00  0.27605901443E+04  0.27605901443E+04  0.50400001928E-02 0. -1.
       -1   -1    0    0    0  501  0.00000000000E+00  0.00000000000E+00 -0.12385079720E+04  0.12385079720E+04  0.50400001928E-02 0.  1.
    10030    2    1    2    0    0  0.00000000000E+00  0.00000000000E+00  0.15220821723E+04  0.39990981163E+04  0.36981146013E+04 0.  0.
        5    1    3    3  502    0 -0.10417257676E+04 -0.62800777711E+03  0.22670095933E+04  0.25727302480E+04  0.46999998093E+01 0. -1.
       -5    1    3    3    0  502  0.10417257676E+04  0.62800777711E+03 -0.74492742102E+03  0.14263678682E+04  0.46999998093E+01 0.  1.
</event>
<event>
 5   0  0.7309833E-08  0.3703847E+04  0.7818609E-02  0.8067110E-01
        2   -1    0    0  501    0  0.00000000000E+00  0.00000000000E+00  0.17361222406E+04  0.17361222406E+04  0.25500000920E-02 0. -1.
       -2   -1    0    0    0  501  0.00000000000E+00  0.00000000000E+00 -0.19754489194E+04  0.19754489194E+04  0.25500000920E-02 0.  1.
    10030    2    1    2    0    0  0.00000000000E+00  0.00000000000E+00 -0.23932667878E+03  0.37115711601E+04  0.37038470834E+04 0.  0.
        2    1    3    3  502    0  0.41436025204E+03  0.86938012854E+03  0.14654396028E+04  0.17535761904E+04  0.25500000920E-02 0. -1.
       -2    1    3    3    0  502 -0.41436025204E+03 -0.86938012854E+03 -0.17047662815E+04  0.19579949696E+04  0.25500000920E-02 0.  1.
</event>
<event>
 5   0  0.2282000E-08  0.3690554E+04  0.7818609E-02  0.8070058E-01
       -1   -1    0    0    0  501  0.00000000000E+00  0.00000000000E+00  0.21177548779E+04  0.21177548779E+04  0.50400001928E-02 0.  1.
        1   -1    0    0  501    0  0.00000000000E+00  0.00000000000E+00 -0.16078571412E+04  0.16078571412E+04  0.50400001928E-02 0. -1.
    10030    2    1    2    0    0  0.00000000000E+00  0.00000000000E+00  0.50989773664E+03  0.37256120191E+04  0.36905540526E+04 0.  0.
        2    1    3    3  502    0  0.19105206850E+03 -0.14079413461E+04  0.14435234969E+04  0.20254776753E+04  0.25500000920E-02 0. -1.
       -2    1    3    3    0  502 -0.19105206850E+03  0.14079413461E+04 -0.93362576029E+03  0.17001343439E+04  0.25500000920E-02 0.  1.
</event>
<event>
 5   0  0.7191801E-08  0.3699600E+04  0.7818609E-02  0.8068051E-01
       -2   -1    0    0    0  501  0.00000000000E+00  0.00000000000E+00  0.10926348406E+04  0.10926348406E+04  0.25500000920E-02 0.  1.
        2   -1    0    0  501    0  0.00000000000E+00  0.00000000000E+00 -0.31316586258E+04  0.31316586258E+04  0.25500000920E-02 0. -1.
    10030    2    1    2    0    0  0.00000000000E+00  0.00000000000E+00 -0.20390237852E+04  0.42242934664E+04  0.36995996125E+04 0.  0.
        5    1    3    3  502    0  0.60090810135E+03  0.16859221382E+04 -0.15530179870E+04  0.23696647358E+04  0.46999998093E+01 0.  1.
       -5    1    3    3    0  502 -0.60090810135E+03 -0.16859221382E+04 -0.48600579822E+03  0.18546287305E+04  0.46999998093E+01 0. -1.
</event>
<event>
 5   0  0.2282000E-08  0.3697895E+04  0.7818609E-02  0.8068428E-01
       -1   -1    0    0    0  501  0.00000000000E+00  0.00000000000E+00  0.17091061787E+04  0.17091061787E+04  0.50400001928E-02 0. -1.
        1   -1    0    0  501    0  0.00000000000E+00  0.00000000000E+00 -0.20002308691E+04  0.20002308692E+04  0.50400001928E-02 0.  1.
    10030    2    1    2    0    0  0.00000000000E+00  0.00000000000E+00 -0.29112469048E+03  0.37093370478E+04  0.36978950430E+04 0.  0.
        1    1    3    3  502    0  0.33099445748E+03 -0.19725248063E+02 -0.19701629792E+04  0.19978710121E+04  0.50400001928E-02 0.  1.
       -1    1    3    3    0  502 -0.33099445748E+03  0.19725248063E+02  0.16790382887E+04  0.17114660357E+04  0.50400001928E-02 0. -1.
</event>
<event>
 5   0  0.7254493E-08  0.3709601E+04  0.7818609E-02  0.8065837E-01
        2   -1    0    0  501    0  0.00000000000E+00  0.00000000000E+00  0.24891241781E+04  0.24891241781E+04  0.25500000920E-02 0. -1.
       -2   -1    0    0    0  501  0.00000000000E+00  0.00000000000E+00 -0.13821266790E+04  0.13821266790E+04  0.25500000920E-02 0.  1.
    10030    2    1    2    0    0  0.00000000000E+00  0.00000000000E+00  0.11069974991E+04  0.38712508570E+04  0.37096010210E+04 0.  0.
        3    1    3    3  502    0  0.80548823777E+03  0.27659666567E+03  0.22730157036E+04  0.24273272164E+04  0.10100000352E+00 0. -1.
       -3    1    3    3    0  502 -0.80548823777E+03 -0.27659666567E+03 -0.11660182045E+04  0.14439236406E+04  0.10100000352E+00 0.  1.
</event>
<event>
 5   0  0.7191801E-08  0.3720314E+04  0.7818609E-02  0.8063475E-01
       -2   -1    0    0    0  501  0.00000000000E+00  0.00000000000E+00  0.14718669144E+04  0.14718669144E+04  0.25500000920E-02 0. -1.
        2   -1    0    0  501    0  0.00000000000E+00  0.00000000000E+00 -0.23508814239E+04  0.23508814239E+04  0.25500000920E-02 0.  1.
    10030    2    1    2    0    0  0.00000000000E+00  0.00000000000E+00 -0.87901450953E+03  0.38227483383E+04  0.37203142811E+04 0.  0.
        5    1    3    3  502    0 -0.13188986378E+04  0.12762148642E+04 -0.75107963998E+03  0.19830180816E+04  0.46999998093E+01 0.  1.
       -5    1    3    3    0  502  0.13188986378E+04 -0.12762148642E+04 -0.12793486955E+03  0.18397302567E+04  0.46999998093E+01 0. -1.
</event>
<event>
 5   0  0.2282000E-08  0.3702533E+04  0.7818609E-02  0.8067401E-01
        1   -1    0    0  501    0  0.00000000000E+00  0.00000000000E+00  0.24825903457E+04  0.24825903457E+04  0.50400001928E-02 0.  1.
       -1   -1    0    0    0  501  0.00000000000E+00  0.00000000000E+00 -0.13804884408E+04  0.13804884408E+04  0.50400001928E-02 0. -1.
    10030    2    1    2    0    0  0.00000000000E+00  0.00000000000E+00  0.11021019049E+04  0.38630787864E+04  0.37025327954E+04 0.  0.
        1    1    3    3  502    0  0.83321972327E+03  0.15825278182E+04  0.52265542081E+02  0.17892403666E+04  0.50400001928E-02 0. -1.
       -1    1    3    3    0  502 -0.83321972327E+03 -0.15825278182E+04  0.10498363628E+04  0.20738384198E+04  0.50400001928E-02 0.  1.
</event>
<event>
 5   0  0.7309833E-08  0.3700951E+04  0.7818609E-02  0.8067751E-01
        2   -1    0    0  501    0  0.00000000000E+00  0.00000000000E+00  0.15942266843E+04  0.15942266843E+04  0.25500000920E-02 0. -1.
       -2   -1    0    0    0  501  0.00000000000E+00  0.00000000000E+00 -0.21479129033E+04  0.21479129033E+04  0.25500000920E-02 0.  1.
    10030    2    1    2    0    0  0.00000000000E+00  0.00000000000E+00 -0.55368621905E+03  0.37421395876E+04  0.37009512647E+04 0.  0.
        2    1    3    3  502    0  0.16455691295E+04 -0.52031133619E+03 -0.95183402808E+03  0.19709413141E+04  0.25500000920E-02 0.  1.
       -2    1    3    3    0  502 -0.16455691295E+04  0.52031133619E+03  0.39814780903E+03  0.17711982736E+04  0.25500000920E-02 0. -1.
</event>
<event>
 5   0  0.7191801E-08  0.3705940E+04  0.7818609E-02  0.8066647E-01
        2   -1    0    0  501    0  0.00000000000E+00  0.00000000000E+00  0.15661987966E+04  0.15661987966E+04  0.25500000920E-02 0.  1.
       -2   -1    0    0    0  501  0.00000000000E+00  0.00000000000E+00 -0.21922496384E+04  0.21922496384E+04  0.25500000920E-02 0. -1.
    10030    2    1    2    0    0  0.00000000000E+00  0.00000000000E+00 -0.62605084184E+03  0.37584484351E+04  0.37059404990E+04 0.  0.
        5    1    3    3  502    0  0.69797027235E+02 -0.98220582221E+03 -0.19049395745E+04  0.21443919359E+04  0.46999998093E+01 0. -1.
       -5    1    3    3    0  502 -0.69797027235E+02  0.98220582221E+03  0.12788887326E+04  0.16140564992E+04  0.46999998093E+01 0.  1.
</event>
<event>
 5   0  0.2282000E-08  0.3696617E+04  0.7818609E-02  0.8068712E-01
        1   -1    0    0  501    0  0.00000000000E+00  0.00000000000E+00  0.25359912903E+04  0.25359912903E+04  0.50400001928E-02 0.  1.
       -1   -1    0    0    0  501  0.00000000000E+00  0.00000000000E+00 -0.13471043550E+04  0.13471043550E+04  0.50400001928E-02 0. -1.
    10030    2    1    2    0    0  0.00000000000E+00  0.00000000000E+00  0.11888869353E+04  0.38830956454E+04  0.36966173248E+04 0.  0.
        4    1    3    3  502    0  0.34010623073E+03 -0.12303629512E+04  0.19985785770E+04  0.23714517033E+04  0.12699999809E+01 0.  1.
       -4    1    3    3    0  502 -0.34010623073E+03  0.12303629512E+04 -0.80969164169E+03  0.15116439420E+04  0.12699999809E+01 0. -1.
</event>
<event>
 5   0  0.7191801E-08  0.3702100E+04  0.7818609E-02  0.8067497E-01
        2   -1    0    0  501    0  0.00000000000E+00  0.00000000000E+00  0.19582251713E+04  0.19582251713E+04  0.25500000920E-02 0. -1.
       -2   -1    0    0    0  501  0.00000000000E+00  0.00000000000E+00 -0.17497407752E+04  0.17497407752E+04  0.25500000920E-02 0.  1.
    10030    2    1    2    0    0  0.00000000000E+00  0.00000000000E+00  0.20848439617E+03  0.37079659465E+04  0.37021001765E+04 0.  0.
        5    1    3    3  502    0  0.12354405941E+04 -0.11465581498E+04  0.87060503553E+03  0.18970725528E+04  0.46999998093E+01 0. -1.
       -5    1    3    3    0  502 -0.12354405941E+04  0.11465581498E+04 -0.66212063937E+03  0.18108933938E+04  0.46999998093E+01 0.  1.
</event>
<event>
 5   0  0.2282000E-08  0.3699668E+04  0.7818609E-02  0.8068035E-01
        1   -1    0    0  501    0  0.00000000000E+00  0.00000000000E+00  0.11440626139E+04  0.11440626139E+04  0.50400001928E-02 0.  1.
       -1   -1    0    0    0  501  0.00000000000E+00  0.00000000000E+00 -0.29909960003E+04  0.29909960003E+04  0.50400001928E-02 0. -1.
    10030    2    1    2    0    0  0.00000000000E+00  0.00000000000E+00 -0.18469333864E+04  0.41350586142E+04  0.36996684728E+04 0.  0.
        4    1    3    3  502    0  0.52556823207E+03 -0.89608730664E+03  0.78724307223E+03  0.13034368782E+04  0.12699999809E+01 0.  1.
       -4    1    3    3    0  502 -0.52556823207E+03  0.89608730664E+03 -0.26341764587E+04  0.28316217360E+04  0.12699999809E+01 0. -1.
</event>
<event>
 5   0  0.2282000E-08  0.3712964E+04  0.7818609E-02  0.8065095E-01
        1   -1    0    0  501    0  0.00000000000E+00  0.00000000000E+00  0.24294149593E+04  0.24294149593E+04  0.50400001928E-02 0. -1.
       -1   -1    0    0    0  501  0.00000000000E+00  0.00000000000E+00 -0.14186645013E+04  0.14186645013E+04  0.50400001928E-02 0.  1.
    10030    2    1    2    0    0  0.00000000000E+00  0.00000000000E+00  0.10107504580E+04  0.38480794606E+04  0.37129636474E+04 0.  0.
        5    1    3    3  502    0  0.13646232234E+04 -0.31533676456E+03  0.17682706343E+04  0.22557564015E+04  0.46999998093E+01 0. -1.
       -5    1    3    3    0  502 -0.13646232234E+04  0.31533676456E+03 -0.75752017628E+03  0.15923230591E+04  0.46999998093E+01 0.  1.
</event>
<event>
 5   0  0.2282000E-08  0.3697607E+04  0.7818609E-02  0.8068492E-01
        1   -1    0    0  501    0  0.00000000000E+00  0.00000000000E+00  0.21431426472E+04  0.21431426473E+04  0.50400001928E-02 0. -1.
       -1   -1    0    0    0  501  0.00000000000E+00  0.00000000000E+00 -0.15948891857E+04  0.15948891858E+04  0.50400001928E-02 0.  1.
    10030    2    1    2    0    0  0.00000000000E+00  0.00000000000E+00  0.54825346150E+03  0.37380318330E+04  0.36976073516E+04 0.  0.
        5    1    3    3  502    0  0.72283824674E+03 -0.15587138356E+04  0.96420874966E+03  0.19702295692E+04  0.46999998093E+01 0. -1.
       -5    1    3    3    0  502 -0.72283824674E+03  0.15587138356E+04 -0.41595528816E+03  0.17678022638E+04  0.46999998093E+01 0.  1.
</event>
<event>
 5   0  0.7254493E-08  0.3711186E+04  0.7818609E-02  0.8065487E-01
       -2   -1    0    0    0  501  0.00000000000E+00  0.00000000000E+00  0.26510545912E+04  0.26510545912E+04  0.25500000920E-02 0. -1.
        2   -1    0    0  501    0  0.00000000000E+00  0.00000000000E+00 -0.12988136314E+04  0.12988136314E+04  0.25500000920E-02 0.  1.
    10030    2    1    2    0    0  0.00000000000E+00  0.00000000000E+00  0.13522409598E+04  0.39498682226E+04  0.37111862474E+04 0.  0.
        3    1    3    3  502    0  0.56388614912E+03  0.17554208391E+04  0.45348813504E+03  0.18987157266E+04  0.10100000352E+00 0. -1.
       -3    1    3    3    0  502 -0.56388614912E+03 -0.17554208391E+04  0.89875282480E+03  0.20511524960E+04  0.10100000352E+00 0.  1.
</event>
<event>
 5   0  0.2282000E-08  0.3693095E+04  0.7818609E-02  0.8069494E-01
        1   -1    0    0  501    0  0.00000000000E+00  0.00000000000E+00  0.11890192879E+04  0.11890192879E+04  0.50400001928E-02 0.  1.
       -1   -1    0    0    0  501  0.00000000000E+00  0.00000000000E+00 -0.28676887511E+04  0.28676887511E+04  0.50400001928E-02 0. -1.
    10030    2    1    2    0    0  0.00000000000E+00  0.00000000000E+00 -0.16786694633E+04  0.40567080390E+04  0.36930947655E+04 0.  0.
        5    1    3    3  502    0 -0.53305519730E+03 -0.16992053974E+04 -0.13755219449E+04  0.22502287743E+04  0.46999998093E+01 0. -1.
       -5    1    3    3    0  502  0.53305519730E+03  0.16992053974E+04 -0.30314751841E+03  0.18064792647E+04  0.46999998093E+01 0.  1.
</event>
<event>
 5   0  0.2282000E-08  0.3700741E+04  0.7818609E-02  0.8067798E-01
        1   -1    0    0  501    0  0.00000000000E+00  0.00000000000E+00  0.23515020326E+04  0.23515020326E+04  0.50400001928E-02 0. -1.
       -1   -1    0    0    0  501  0.00000000000E+00  0.00000000000E+00 -0.14560357573E+04  0.14560357574E+04  0.50400001928E-02 0.  1.
    10030    2    1    2    0    0  0.00000000000E+00  0.00000000000E+00  0.89546627525E+03  0.38075377900E+04  0.37007410301E+04 0.  0.
        5    1    3    3  502    0 -0.65035482499E+03 -0.12399323751E+04 -0.79691115560E+03  0.16110503323E+04  0.46999998093E+01 0.  1.
       -5    1    3    3    0  502  0.65035482499E+03  0.12399323751E+04  0.16923774308E+04  0.21964874577E+04  0.46999998093E+01 0. -1.
</event>
<event>
 5   0  0.7254493E-08  0.3698541E+04  0.7818609E-02  0.8068285E-01
        2   -1    0    0  501    0  0.00000000000E+00  0.00000000000E+00  0.13873927433E+04  0.13873927433E+04  0.25500000920E-02 0. -1.
       -2   -1    0    0    0  501  0.00000000000E+00  0.00000000000E+00 -0.24649126209E+04  0.24649126209E+04  0.25500000920E-02 0.  1.
    10030    2    1    2    0    0  0.00000000000E+00  0.00000000000E+00 -0.10775198776E+04  0.38523053643E+04  0.36985412709E+04 0.  0.
        3    1    3    3  502    0  0.16898794995E+04 -0.49202314514E+03 -0.11298222403E+04  0.20914774211E+04  0.10100000352E+00 0.  1.
       -3    1    3    3    0  502 -0.16898794995E+04  0.49202314514E+03  0.52302362679E+02  0.17608279432E+04  0.10100000352E+00 0. -1.
</event>
<event>
 5   0  0.7362817E-08  0.3650615E+04  0.7818609E-02  0.8078995E-01
       -2   -1    0    0    0  501  0.00000000000E+00  0.00000000000E+00  0.26528166037E+04  0.26528166037E+04  0.25500000920E-02 0.  1.
        2   -1    0    0  501    0  0.00000000000E+00  0.00000000000E+00 -0.12559280634E+04  0.12559280634E+04  0.25500000920E-02 0. -1.
    10030    2    1    2    0    0  0.00000000000E+00  0.00000000000E+00  0.13968885403E+04  0.39087446671E+04  0.36506146439E+04 0.  0.
        1    1    3    3  502    0 -0.17821297439E+03  0.67341198357E+03 -0.11080107511E+04  0.13087900475E+04  0.50400001928E-02 0. -1.
       -1    1    3    3    0  502  0.17821297439E+03 -0.67341198357E+03  0.25048992914E+04  0.25999546196E+04  0.50400001928E-02 0.  1.
</event>
<event>
 5   0  0.7203049E-08  0.3688424E+04  0.7818609E-02  0.8070532E-01
       -2   -1    0    0    0  501  0.00000000000E+00  0.00000000000E+00  0.18969215151E+04  0.18969215151E+04  0.25500000920E-02 0.  1.
        2   -1    0    0  501    0  0.00000000000E+00  0.00000000000E+00 -0.17929673910E+04  0.17929673910E+04  0.25500000920E-02 0. -1.
    10030    2    1    2    0    0  0.00000000000E+00  0.00000000000E+00  0.10395412409E+03  0.36898889061E+04  0.36884242814E+04 0.  0.
        4    1    3    3  502    0  0.11160037059E+04 -0.38041789570E+03  0.14706144747E+04  0.18849112958E+04  0.12699999809E+01 0.  1.
       -4    1    3    3    0  502 -0.11160037059E+04  0.38041789570E+03 -0.13666603506E+04  0.18049776103E+04  0.12699999809E+01 0. -1.
</event>
<event>
 5   0  0.2282000E-08  0.3699140E+04  0.7818609E-02  0.8068152E-01
       -1   -1    0    0    0  501  0.00000000000E+00  0.00000000000E+00  0.26298013424E+04  0.26298013424E+04  0.50400001928E-02 0. -1.
        1   -1    0    0  501    0  0.00000000000E+00  0.00000000000E+00 -0.13008241237E+04  0.13008241237E+04  0.50400001928E-02 0.  1.
    10030    2    1    2    0    0  0.00000000000E+00  0.00000000000E+00  0.13289772187E+04  0.39306254661E+04  0.36991399145E+04 0.  0.
        2    1    3    3  502    0 -0.10066846393E+04  0.33892622188E+03  0.22733822318E+04  0.25092930715E+04  0.25500000920E-02 0. -1.
       -2    1    3    3    0  502  0.10066846393E+04 -0.33892622188E+03 -0.94440501316E+03  0.14213323946E+04  0.25500000920E-02 0.  1.
</event>
<event>
 5   0  0.7191801E-08  0.3700726E+04  0.7818609E-02  0.8067801E-01
        2   -1    0    0  501    0  0.00000000000E+00  0.00000000000E+00  0.25524757167E+04  0.25524757167E+04  0.25500000920E-02 0. -1.
       -2   -1    0    0    0  501  0.00000000000E+00  0.00000000000E+00 -0.13413816218E+04  0.13413816218E+04  0.25500000920E-02 0.  1.
    10030    2    1    2    0    0  0.00000000000E+00  0.00000000000E+00  0.12110940949E+04  0.38938573386E+04  0.37007264241E+04 0.  0.
        5    1    3    3  502    0  0.18307887014E+04 -0.64240510959E+02  0.87973788005E+03  0.20322093741E+04  0.46999998093E+01 0.  1.
       -5    1    3    3    0  502 -0.18307887014E+04  0.64240510959E+02  0.33135621484E+03  0.18616479645E+04  0.46999998093E+01 0. -1.
</event>
<event>
 5   0  0.2282000E-08  0.3701146E+04  0.7818609E-02  0.8067708E-01
       -1   -1    0    0    0  501  0.00000000000E+00  0.00000000000E+00  0.13752700555E+04  0.13752700555E+04  0.50400001928E-02 0.  1.
        1   -1    0    0  501    0  0.00000000000E+00  0.00000000000E+00 -0.24901436601E+04  0.24901436601E+04  0.50400001928E-02 0. -1.
    10030    2    1    2    0    0  0.00000000000E+00  0.00000000000E+00 -0.11148736046E+04  0.38654137156E+04  0.37011457738E+04 0.  0.
        4    1    3    3  502    0 -0.16278484899E+04 -0.86922933123E+03 -0.41284326651E+03  0.18910027795E+04  0.12699999809E+01 0. -1.
       -4    1    3    3    0  502  0.16278484899E+04  0.86922933123E+03 -0.70203033808E+03  0.19744109362E+04  0.12699999809E+01 0.  1.
</event>
<event>
 5   0  0.7362817E-08  0.3703188E+04  0.7818609E-02  0.8067256E-01
        2   -1    0    0  501    0  0.00000000000E+00  0.00000000000E+00  0.19595552828E+04  0.19595552828E+04  0.25500000920E-02 0. -1.
       -2   -1    0    0    0  501  0.00000000000E+00  0.00000000000E+00 -0.17495803529E+04  0.17495803529E+04  0.25500000920E-02 0.  1.
    10030    2    1    2    0    0  0.00000000000E+00  0.00000000000E+00  0.20997492997E+03  0.37091356357E+04  0.37031875044E+04 0.  0.
        1    1    3    3  502    0 -0.22219486562E+03  0.15565994862E+04 -0.87434932529E+03  0.17991273611E+04  0.50400001928E-02 0.  1.
       -1    1    3    3    0  502  0.22219486562E+03 -0.15565994862E+04  0.10843242553E+04  0.19100082747E+04  0.50400001928E-02 0. -1.
</event>
<event>
 5   0  0.7191801E-08  0.3700117E+04  0.7818609E-02  0.8067936E-01
       -2   -1    0    0    0  501  0.00000000000E+00  0.00000000000E+00  0.13873669438E+04  0.13873669438E+04  0.25500000920E-02 0. -1.
        2   -1    0    0  501    0  0.00000000000E+00  0.00000000000E+00 -0.24670594379E+04  0.24670594379E+04  0.25500000920E-02 0.  1.
    10030    2    1    2    0    0  0.00000000000E+00  0.00000000000E+00 -0.10796924941E+04  0.38544263817E+04  0.37001171400E+04 0.  0.
        5    1    3    3  502    0  0.66176897634E+03 -0.84280617023E+03 -0.21108635587E+04  0.23672827191E+04  0.46999998093E+01 0.  1.
       -5    1    3    3    0  502 -0.66176897634E+03  0.84280617023E+03  0.10311710646E+04  0.14871436626E+04  0.46999998093E+01 0. -1.
</event>
<event>
 5   0  0.7309833E-08  0.3644863E+04  0.7818609E-02  0.8080292E-01
       -2   -1    0    0    0  501  0.00000000000E+00  0.00000000000E+00  0.19489521589E+04  0.19489521589E+04  0.25500000920E-02 0. -1.
        2   -1    0    0  501    0  0.00000000000E+00  0.00000000000E+00 -0.17041240328E+04  0.17041240328E+04  0.25500000920E-02 0.  1.
    10030    2    1    2    0    0  0.00000000000E+00  0.00000000000E+00  0.24482812604E+03  0.36530761917E+04  0.36448628028E+04 0.  0.
        2    1    3    3  502    0  0.20911841207E+03 -0.24008219231E+03 -0.16760336216E+04  0.17060066442E+04  0.25500000920E-02 0.  1.
       -2    1    3    3    0  502 -0.20911841207E+03  0.24008219231E+03  0.19208617476E+04  0.19470695475E+04  0.25500000920E-02 0. -1.
</event>
<event>
 5   0  0.2282000E-08  0.3698797E+04  0.7818609E-02  0.8068228E-01
       -1   -1    0    0    0  501  0.00000000000E+00  0.00000000000E+00  0.17104712759E+04  0.17104712759E+04  0.50400001928E-02 0.  1.
        1   -1    0    0  501    0  0.00000000000E+00  0.00000000000E+00 -0.19996097682E+04  0.19996097682E+04  0.50400001928E-02 0. -1.
    10030    2    1    2    0    0  0.00000000000E+00  0.00000000000E+00 -0.28913849230E+03  0.37100810442E+04  0.36987971405E+04 0.  0.
        1    1    3    3  502    0  0.74629874436E+03 -0.71445632676E+03  0.13940155134E+04  0.17351336865E+04  0.50400001928E-02 0.  1.
       -1    1    3    3    0  502 -0.74629874436E+03  0.71445632676E+03 -0.16831540056E+04  0.19749473576E+04  0.50400001928E-02 0. -1.
</event>
<event>
 5   0  0.2282000E-08  0.3669886E+04  0.7818609E-02  0.8074668E-01
        1   -1    0    0  501    0  0.00000000000E+00  0.00000000000E+00  0.15974140872E+04  0.15974140872E+04  0.50400001928E-02 0.  1.
       -1   -1    0    0    0  501  0.00000000000E+00  0.00000000000E+00 -0.21077914062E+04  0.21077914062E+04  0.50400001928E-02 0. -1.
    10030    2    1    2    0    0  0.00000000000E+00  0.00000000000E+00 -0.51037731899E+03  0.37052054935E+04  0.36698859303E+04 0.  0.
        4    1    3    3  502    0  0.83050847439E+03 -0.31885165015E+03 -0.18755028156E+04  0.20757945768E+04  0.12699999809E+01 0. -1.
       -4    1    3    3    0  502 -0.83050847439E+03  0.31885165015E+03  0.13651254966E+04  0.16294109166E+04  0.12699999809E+01 0.  1.
</event>
<event>
 5   0  0.7309833E-08  0.3695753E+04  0.7818609E-02  0.8068904E-01
        2   -1    0    0  501    0  0.00000000000E+00  0.00000000000E+00  0.14741263703E+04  0.14741263703E+04  0.25500000920E-02 0. -1.
       -2   -1    0    0    0  501  0.00000000000E+00  0.00000000000E+00 -0.23163878130E+04  0.23163878130E+04  0.25500000920E-02 0.  1.
    10030    2    1    2    0    0  0.00000000000E+00  0.00000000000E+00 -0.84226144266E+03  0.37905141834E+04  0.36957534329E+04 0.  0.
        2    1    3    3  502    0 -0.61744540185E+03 -0.11392285904E+04  0.93005772577E+03  0.15950197424E+04  0.25500000920E-02 0. -1.
       -2    1    3    3    0  502  0.61744540185E+03  0.11392285904E+04 -0.17723191684E+04  0.21954944409E+04  0.25500000920E-02 0.  1.
</event>
<event>
 5   0  0.7191801E-08  0.3675734E+04  0.7818609E-02  0.8073361E-01
       -2   -1    0    0    0  501  0.00000000000E+00  0.00000000000E+00  0.16275613247E+04  0.16275613247E+04  0.25500000920E-02 0. -1.
        2   -1    0    0  501    0  0.00000000000E+00  0.00000000000E+00 -0.20753474287E+04  0.20753474287E+04  0.25500000920E-02 0.  1.
    10030    2    1    2    0    0  0.00000000000E+00  0.00000000000E+00 -0.44778610397E+03  0.37029087534E+04  0.36757340547E+04 0.  0.
        5    1    3    3  502    0 -0.92811990248E+02 -0.56657323672E+03 -0.19826852020E+04  0.20641419521E+04  0.46999998093E+01 0.  1.
       -5    1    3    3    0  502  0.92811990248E+02  0.56657323672E+03  0.15348990980E+04  0.16387668013E+04  0.46999998093E+01 0. -1.
</event>
<event>
 5   0  0.2282000E-08  0.3700569E+04  0.7818609E-02  0.8067836E-01
       -1   -1    0    0    0  501  0.00000000000E+00  0.00000000000E+00  0.17105504673E+04  0.17105504673E+04  0.50400001928E-02 0.  1.
        1   -1    0    0  501    0  0.00000000000E+00  0.00000000000E+00 -0.20014335069E+04  0.20014335070E+04  0.50400001928E-02 0. -1.
    10030    2    1    2    0    0  0.00000000000E+00  0.00000000000E+00 -0.29088303967E+03  0.37119839742E+04  0.37005691565E+04 0.  0.
        1    1    3    3  502    0  0.25573173754E+02 -0.17439424032E+04  0.47417248172E+03  0.18074370350E+04  0.50400001928E-02 0.  1.
       -1    1    3    3    0  502 -0.25573173754E+02  0.17439424032E+04 -0.76505552139E+03  0.19045469393E+04  0.50400001928E-02 0. -1.
</event>
<event>
 5   0  0.2282000E-08  0.3699863E+04  0.7818609E-02  0.8067992E-01
        1   -1    0    0  501    0  0.00000000000E+00  0.00000000000E+00  0.22096261801E+04  0.22096261801E+04  0.50400001928E-02 0.  1.
       -1   -1    0    0    0  501  0.00000000000E+00  0.00000000000E+00 -0.15487895815E+04  0.15487895815E+04  0.50400001928E-02 0. -1.
    10030    2    1    2    0    0  0.00000000000E+00  0.00000000000E+00  0.66083659864E+03  0.37584157616E+04  0.36998627038E+04 0.  0.
        2    1    3    3  502    0  0.10508990689E+04  0.10633142542E+03 -0.12123500577E+04  0.16079452377E+04  0.25500000920E-02 0. -1.
       -2    1    3    3    0  502 -0.10508990689E+04 -0.10633142542E+03  0.18731866563E+04  0.21504705239E+04  0.25500000920E-02 0.  1.
</event>
<event>
 5   0  0.7203049E-08  0.3696431E+04  0.7818609E-02  0.8068753E-01
       -2   -1    0    0    0  501  0.00000000000E+00  0.00000000000E+00  0.20350770110E+04  0.20350770110E+04  0.25500000920E-02 0.  1.
        2   -1    0    0  501    0  0.00000000000E+00  0.00000000000E+00 -0.16785114280E+04  0.16785114280E+04  0.25500000920E-02 0. -1.
    10030    2    1    2    0    0  0.00000000000E+00  0.00000000000E+00  0.35656558299E+03  0.37135884390E+04  0.36964307216E+04 0.  0.
        4    1    3    3  502    0  0.12314390711E+04 -0.43382181002E+03 -0.11359386459E+04  0.17306073411E+04  0.12699999809E+01 0.  1.
       -4    1    3    3    0  502 -0.12314390711E+04  0.43382181002E+03  0.14925042289E+04  0.19829810980E+04  0.12699999809E+01 0. -1.
</event>
<event>
 5   0  0.2282000E-08  0.3702385E+04  0.7818609E-02  0.8067434E-01
       -3   -1    0    0    0  501  0.00000000000E+00  0.00000000000E+00  0.16018514876E+04  0.16018514908E+04  0.10100000352E+00 0. -1.
        3   -1    0    0  501    0  0.00000000000E+00  0.00000000000E+00 -0.21393449778E+04  0.21393449802E+04  0.10100000352E+00 0.  1.
    10030    2    1    2    0    0  0.00000000000E+00  0.00000000000E+00 -0.53749349015E+03  0.37411964710E+04  0.37023846076E+04 0.  0.
        3    1    3    3  502    0 -0.25406912608E+03 -0.15579127461E+04  0.70848465770E+03  0.17302004987E+04  0.10100000352E+00 0. -1.
       -3    1    3    3    0  502  0.25406912608E+03  0.15579127461E+04 -0.12459781478E+04  0.20109959723E+04  0.10100000352E+00 0.  1.
</event>
<event>
 5   0  0.7203049E-08  0.3699639E+04  0.7818609E-02  0.8068042E-01
        2   -1    0    0  501    0  0.00000000000E+00  0.00000000000E+00  0.27730457894E+04  0.27730457894E+04  0.25500000920E-02 0.  1.
       -2   -1    0    0    0  501  0.00000000000E+00  0.00000000000E+00 -0.12339616959E+04  0.12339616959E+04  0.25500000920E-02 0. -1.
    10030    2    1    2    0    0  0.00000000000E+00  0.00000000000E+00  0.15390840935E+04  0.40070074853E+04  0.36996390555E+04 0.  0.
        4    1    3    3  502    0 -0.82982755908E+03  0.16403602319E+04  0.99265456888E+03  0.20892008458E+04  0.12699999809E+01 0.  1.
       -4    1    3    3    0  502  0.82982755908E+03 -0.16403602319E+04  0.54642952457E+03  0.19178066395E+04  0.12699999809E+01 0. -1.
</event>
<event>
 5   0  0.7203049E-08  0.3683106E+04  0.7818609E-02  0.8071716E-01
       -2   -1    0    0    0  501  0.00000000000E+00  0.00000000000E+00  0.33057034955E+04  0.33057034955E+04  0.25500000920E-02 0.  1.
        2   -1    0    0  501    0  0.00000000000E+00  0.00000000000E+00 -0.10258986260E+04  0.10258986260E+04  0.25500000920E-02 0. -1.
    10030    2    1    2    0    0  0.00000000000E+00  0.00000000000E+00  0.22798048695E+04  0.43316021215E+04  0.36831055776E+04 0.  0.
        4    1    3    3  502    0  0.25088330911E+03 -0.86907912100E+03 -0.74661375593E+03  0.11728915836E+04  0.12699999809E+01 0. -1.
       -4    1    3    3    0  502 -0.25088330911E+03  0.86907912100E+03  0.30264186254E+04  0.31587105380E+04  0.12699999809E+01 0.  1.
</event>
<event>
 5   0  0.7254493E-08  0.3693429E+04  0.7818609E-02  0.8069420E-01
       -2   -1    0    0    0  501  0.00000000000E+00  0.00000000000E+00  0.17037132694E+04  0.17037132694E+04  0.25500000920E-02 0. -1.
        2   -1    0    0  501    0  0.00000000000E+00  0.00000000000E+00 -0.20017184603E+04  0.20017184603E+04  0.25500000920E-02 0.  1.
    10030    2    1    2    0    0  0.00000000000E+00  0.00000000000E+00 -0.29800519091E+03  0.37054317296E+04  0.36934289230E+04 0.  0.
        3    1    3    3  502    0 -0.13280930543E+04  0.16089993092E+03 -0.14261810667E+04  0.19554315109E+04  0.10100000352E+00 0.  1.
       -3    1    3    3    0  502  0.13280930543E+04 -0.16089993092E+03  0.11281758758E+04  0.17500002187E+04  0.10100000352E+00 0. -1.
</event>
<event>
 5   0  0.2282000E-08  0.3696616E+04  0.7818609E-02  0.8068712E-01
       -1   -1    0    0    0  501  0.00000000000E+00  0.00000000000E+00  0.16613864025E+04  0.16613864025E+04  0.50400001928E-02 0.  1.
        1   -1    0    0  501    0  0.00000000000E+00  0.00000000000E+00 -0.20562600819E+04  0.20562600819E+04  0.50400001928E-02 0. -1.
    10030    2    1    2    0    0  0.00000000000E+00  0.00000000000E+00 -0.39487367941E+03  0.37176464843E+04  0.36966160417E+04 0.  0.
        2    1    3    3  502    0  0.18214612135E+04 -0.23341330000E+03  0.13613720155E+02  0.18364062879E+04  0.25500000920E-02 0.  1.
       -2    1    3    3    0  502 -0.18214612135E+04  0.23341330000E+03 -0.40848739956E+03  0.18812401964E+04  0.25500000920E-02 0. -1.
</event>
<event>
 5   0  0.2282000E-08  0.3702484E+04  0.7818609E-02  0.8067412E-01
       -1   -1    0    0    0  501  0.00000000000E+00  0.00000000000E+00  0.18759633943E+04  0.18759633943E+04  0.50400001928E-02 0.  1.
        1   -1    0    0  501    0  0.00000000000E+00  0.00000000000E+00 -0.18268465128E+04  0.18268465128E+04  0.50400001928E-02 0. -1.
    10030    2    1    2    0    0  0.00000000000E+00  0.00000000000E+00  0.49116881510E+02  0.37028099071E+04  0.37024841309E+04 0.  0.
        1    1    3    3  502    0 -0.54157513959E+03 -0.14096895347E+04 -0.10463153835E+04  0.18372000702E+04  0.50400001928E-02 0. -1.
       -1    1    3    3    0  502  0.54157513959E+03  0.14096895347E+04  0.10954322650E+04  0.18656098369E+04  0.50400001928E-02 0.  1.
</event>
<event>
 5   0  0.2282000E-08  0.3666708E+04  0.7818609E-02  0.8075380E-01
        3   -1    0    0  501    0  0.00000000000E+00  0.00000000000E+00  0.25567028393E+04  0.25567028413E+04  0.10100000352E+00 0. -1.
       -3   -1    0    0    0  501  0.00000000000E+00  0.00000000000E+00 -0.13146568200E+04  0.13146568239E+04  0.10100000352E+00 0.  1.
    10030    2    1    2    0    0  0.00000000000E+00  0.00000000000E+00  0.12420460193E+04  0.38713596652E+04  0.36667079708E+04 0.  0.
        4    1    3    3  502    0  0.80684641291E+03 -0.10683379473E+04  0.19434638865E+04  0.23599577528E+04  0.12699999809E+01 0. -1.
       -4    1    3    3    0  502 -0.80684641291E+03  0.10683379473E+04 -0.70141786721E+03  0.15114019125E+04  0.12699999809E+01 0.  1.
</event>
<event>
 5   0  0.7362817E-08  0.3701958E+04  0.7818609E-02  0.8067528E-01
        2   -1    0    0  501    0  0.00000000000E+00  0.00000000000E+00  0.11924885846E+04  0.11924885846E+04  0.25500000920E-02 0. -1.
       -2   -1    0    0    0  501  0.00000000000E+00  0.00000000000E+00 -0.28730861618E+04  0.28730861618E+04  0.25500000920E-02 0.  1.
    10030    2    1    2    0    0  0.00000000000E+00  0.00000000000E+00 -0.16805975772E+04  0.40655747464E+04  0.37019575636E+04 0.  0.
        1    1    3    3  502    0  0.15633849314E+04  0.87306975448E+03 -0.13550587531E+04  0.22455750854E+04  0.50400001928E-02 0. -1.
       -1    1    3    3    0  502 -0.15633849314E+04 -0.87306975448E+03 -0.32553882409E+03  0.18199996610E+04  0.50400001928E-02 0.  1.
</event>
<event>
 5   0  0.7191801E-08  0.3700980E+04  0.7818609E-02  0.8067745E-01
        2   -1    0    0  501    0  0.00000000000E+00  0.00000000000E+00  0.15740627233E+04  0.15740627233E+04  0.25500000920E-02 0. -1.
       -2   -1    0    0    0  501  0.00000000000E+00  0.00000000000E+00 -0.21754611665E+04  0.21754611665E+04  0.25500000920E-02 0.  1.
    10030    2    1    2    0    0  0.00000000000E+00  0.00000000000E+00 -0.60139844317E+03  0.37495238898E+04  0.37009795072E+04 0.  0.
        5    1    3    3  502    0 -0.32519896668E+03  0.15132994603E+04 -0.13281316685E+04  0.20395552072E+04  0.46999998093E+01 0.  1.
       -5    1    3    3    0  502  0.32519896668E+03 -0.15132994603E+04  0.72673322528E+03  0.17099686826E+04  0.46999998093E+01 0. -1.
</event>
<event>
 5   0  0.7203049E-08  0.3696438E+04  0.7818609E-02  0.8068752E-01
       -2   -1    0    0    0  501  0.00000000000E+00  0.00000000000E+00  0.35314046490E+04  0.35314046490E+04  0.25500000920E-02 0.  1.
        2   -1    0    0  501    0  0.00000000000E+00  0.00000000000E+00 -0.96729586598E+03  0.96729586598E+03  0.25500000920E-02 0. -1.
    10030    2    1    2    0    0  0.00000000000E+00  0.00000000000E+00  0.25641087830E+04  0.44987005150E+04  0.36964378085E+04 0.  0.
        4    1    3    3  502    0  0.10518112875E+04  0.49142902344E+03 -0.46815358918E+03  0.12517902642E+04  0.12699999809E+01 0. -1.
       -4    1    3    3    0  502 -0.10518112875E+04 -0.49142902344E+03  0.30322623722E+04  0.32469102507E+04  0.12699999809E+01 0.  1.
</event>
<event>
 5   0  0.2282000E-08  0.3695374E+04  0.7818609E-02  0.8068988E-01
       -1   -1    0    0    0  501  0.00000000000E+00  0.00000000000E+00  0.30608456463E+04  0.30608456463E+04  0.50400001928E-02 0. -1.
        1   -1    0    0  501    0  0.00000000000E+00  0.00000000000E+00 -0.11153610397E+04  0.11153610397E+04  0.50400001928E-02 0.  1.
    10030    2    1    2    0    0  0.00000000000E+00  0.00000000000E+00  0.19454846066E+04  0.41762066859E+04  0.36953743963E+04 0.  0.
        5    1    3    3  502    0 -0.67599111509E+03 -0.14670968002E+04 -0.40960279028E+02  0.16158703052E+04  0.46999998093E+01 0.  1.
       -5    1    3    3    0  502  0.67599111509E+03  0.14670968002E+04  0.19864448856E+04  0.25603363807E+04  0.46999998093E+01 0. -1.
</event>
<event>
 5   0  0.2282000E-08  0.3696403E+04  0.7818609E-02  0.8068759E-01
       -1   -1    0    0    0  501  0.00000000000E+00  0.00000000000E+00  0.13925971401E+04  0.13925971402E+04  0.50400001928E-02 0.  1.
        1   -1    0    0  501    0  0.00000000000E+00  0.00000000000E+00 -0.24528619325E+04  0.24528619325E+04  0.50400001928E-02 0. -1.
    10030    2    1    2    0    0  0.00000000000E+00  0.00000000000E+00 -0.10602647923E+04  0.38454590726E+04  0.36964028527E+04 0.  0.
        3    1    3    3  502    0  0.17469592294E+04  0.26974948551E+01 -0.11577635332E+04  0.20957791475E+04  0.10100000352E+00 0. -1.
       -3    1    3    3    0  502 -0.17469592294E+04 -0.26974948551E+01  0.97498740922E+02  0.17496799252E+04  0.10100000352E+00 0.  1.
</event>
<event>
 5   0  0.2282000E-08  0.3705295E+04  0.7818609E-02  0.8066789E-01
        1   -1    0    0  501    0  0.00000000000E+00  0.00000000000E+00  0.22806452005E+04  0.22806452005E+04  0.50400001928E-02 0. -1.
       -1   -1    0    0    0  501  0.00000000000E+00  0.00000000000E+00 -0.15049697289E+04  0.15049697289E+04  0.50400001928E-02 0.  1.
    10030    2    1    2    0    0  0.00000000000E+00  0.00000000000E+00  0.77567547161E+03  0.37856149294E+04  0.37052945843E+04 0.  0.
        2    1    3    3  502    0 -0.14400732588E+04 -0.10744647405E+04 -0.73635333317E+02  0.17982512705E+04  0.25500000920E-02 0. -1.
       -2    1    3    3    0  502  0.14400732588E+04  0.10744647405E+04  0.84931080492E+03  0.19873636589E+04  0.25500000920E-02 0.  1.
</event>
<event>
 5   0  0.2282000E-08  0.3702046E+04  0.7818609E-02  0.8067509E-01
        1   -1    0    0  501    0  0.00000000000E+00  0.00000000000E+00  0.14604135117E+04  0.14604135117E+04  0.50400001928E-02 0.  1.
       -1   -1    0    0    0  501  0.00000000000E+00  0.00000000000E+00 -0.23461069501E+04  0.23461069501E+04  0.50400001928E-02 0. -1.
    10030    2    1    2    0    0  0.00000000000E+00  0.00000000000E+00 -0.88569343834E+03  0.38065204618E+04  0.37020460774E+04 0.  0.
        2    1    3    3  502    0  0.13025715342E+04 -0.97985842565E+03  0.45910340052E+03  0.16933963117E+04  0.25500000920E-02 0.  1.
       -2    1    3    3    0  502 -0.13025715342E+04  0.97985842565E+03 -0.13447968389E+04  0.21131241501E+04  0.25500000920E-02 0. -1.
</event>
<event>
 5   0  0.2282000E-08  0.3692035E+04  0.7818609E-02  0.8069729E-01
        1   -1    0    0  501    0  0.00000000000E+00  0.00000000000E+00  0.21870424141E+04  0.21870424141E+04  0.50400001928E-02 0.  1.
       -1   -1    0    0    0  501  0.00000000000E+00  0.00000000000E+00 -0.15581683928E+04  0.15581683928E+04  0.50400001928E-02 0. -1.
    10030    2    1    2    0    0  0.00000000000E+00  0.00000000000E+00  0.62887402132E+03  0.37452108070E+04  0.36920348663E+04 0.  0.
        5    1    3    3  502    0 -0.10679450688E+04 -0.19286639391E+03  0.18292819461E+04  0.21269693566E+04  0.46999998093E+01 0.  1.
       -5    1    3    3    0  502  0.10679450688E+04  0.19286639391E+03 -0.12004079248E+04  0.16182414503E+04  0.46999998093E+01 0. -1.
</event>
<event>
 5   0  0.7362817E-08  0.3708659E+04  0.7818609E-02  0.8066046E-01
        2   -1    0    0  501    0  0.00000000000E+00  0.00000000000E+00  0.24824107729E+04  0.24824107729E+04  0.25500000920E-02 0. -1.
       -2   -1    0    0    0  501  0.00000000000E+00  0.00000000000E+00 -0.13851605204E+04  0.13851605204E+04  0.25500000920E-02 0.  1.
    10030    2    1    2    0    0  0.00000000000E+00  0.00000000000E+00  0.10972502525E+04  0.38675712933E+04  0.37086587322E+04 0.  0.
        1    1    3    3  502    0  0.15232412099E+04  0.54546287417E+03 -0.39614310118E+03  0.16657499474E+04  0.50400001928E-02 0.  1.
       -1    1    3    3    0  502 -0.15232412099E+04 -0.54546287417E+03  0.14933933537E+04  0.22018213459E+04  0.50400001928E-02 0. -1.
</event>
<event>
 5   0  0.2282000E-08  0.3704411E+04  0.7818609E-02  0.8066985E-01
        1   -1    0    0  501    0  0.00000000000E+00  0.00000000000E+00  0.24283226244E+04  0.24283226244E+04  0.50400001928E-02 0. -1.
       -1   -1    0    0    0  501  0.00000000000E+00  0.00000000000E+00 -0.14127712914E+04  0.14127712915E+04  0.50400001928E-02 0.  1.
    10030    2    1    2    0    0  0.00000000000E+00  0.00000000000E+00  0.10155513330E+04  0.38410939159E+04  0.37044106091E+04 0.  0.
        4    1    3    3  502    0 -0.67017187900E+03 -0.70287427211E+03 -0.11275994164E+04  0.14881682185E+04  0.12699999809E+01 0.  1.
       -4    1    3    3    0  502  0.67017187900E+03  0.70287427211E+03  0.21431507494E+04  0.23529256974E+04  0.12699999809E+01 0. -1.
</event>
<event>
 5   0  0.2282000E-08  0.3583232E+04  0.7818609E-02  0.8094344E-01
       -1   -1    0    0    0  501  0.00000000000E+00  0.00000000000E+00  0.25505060153E+04  0.25505060153E+04  0.50400001928E-02 0.  1.
        1   -1    0    0  501    0  0.00000000000E+00  0.00000000000E+00 -0.12585294911E+04  0.12585294911E+04  0.50400001928E-02 0. -1.
    10030    2    1    2    0    0  0.00000000000E+00  0.00000000000E+00  0.12919765242E+04  0.38090355064E+04  0.35832315234E+04 0.  0.
        1    1    3    3  502    0  0.96539459572E+03 -0.52819626817E+03  0.21489110315E+04  0.24142900912E+04  0.50400001928E-02 0.  1.
       -1    1    3    3    0  502 -0.96539459572E+03  0.52819626817E+03 -0.85693450737E+03  0.13947454152E+04  0.50400001928E-02 0. -1.
</event>
<event>
 5   0  0.7203049E-08  0.3699381E+04  0.7818609E-02  0.8068099E-01
       -2   -1    0    0    0  501  0.00000000000E+00  0.00000000000E+00  0.17436093409E+04  0.17436093409E+04  0.25500000920E-02 0. -1.
        2   -1    0    0  501    0  0.00000000000E+00  0.00000000000E+00 -0.19622251143E+04  0.19622251143E+04  0.25500000920E-02 0.  1.
    10030    2    1    2    0    0  0.00000000000E+00  0.00000000000E+00 -0.21861577339E+03  0.37058344552E+04  0.36993805094E+04 0.  0.
        4    1    3    3  502    0  0.11208294967E+04 -0.61515857438E+03  0.12296891629E+04  0.17739266847E+04  0.12699999809E+01 0. -1.
       -4    1    3    3    0  502 -0.11208294967E+04  0.61515857438E+03 -0.14483049363E+04  0.19319077705E+04  0.12699999809E+01 0.  1.
</event>
<event>
 5   0  0.2282000E-08  0.3698327E+04  0.7818609E-02  0.8068333E-01
       -1   -1    0    0    0  501  0.00000000000E+00  0.00000000000E+00  0.19643886794E+04  0.19643886794E+04  0.50400001928E-02 0. -1.
        1   -1    0    0  501    0  0.00000000000E+00  0.00000000000E+00 -0.17406969700E+04  0.17406969700E+04  0.50400001928E-02 0.  1.
    10030    2    1    2    0    0  0.00000000000E+00  0.00000000000E+00  0.22369170946E+03  0.37050856494E+04  0.36983268769E+04 0.  0.
        5    1    3    3  502    0 -0.13263194064E+04  0.19561822595E+03  0.13877484954E+04  0.19295744698E+04  0.46999998093E+01 0. -1.
       -5    1    3    3    0  502  0.13263194064E+04 -0.19561822595E+03 -0.11640567859E+04  0.17755111796E+04  0.46999998093E+01 0.  1.
</event>
<event>
 5   0  0.2282000E-08  0.3699368E+04  0.7818609E-02  0.8068102E-01
       -3   -1    0    0    0  501  0.00000000000E+00  0.00000000000E+00  0.12328956240E+04  0.12328956281E+04  0.10100000352E+00 0.  1.
        3   -1    0    0  501    0  0.00000000000E+00  0.00000000000E+00 -0.27750366860E+04  0.27750366878E+04  0.10100000352E+00 0. -1.
    10030    2    1    2    0    0  0.00000000000E+00  0.00000000000E+00 -0.15421410620E+04  0.40079323159E+04  0.36993678371E+04 0.  0.
        4    1    3    3  502    0 -0.11894522469E+04 -0.12954206781E+03 -0.22993129461E+04  0.25919914027E+04  0.12699999809E+01 0. -1.
       -4    1    3    3    0  502  0.11894522469E+04  0.12954206781E+03  0.75717188403E+03  0.14159409132E+04  0.12699999809E+01 0.  1.
</event>
<event>
 5   0  0.2282000E-08  0.3695762E+04  0.7818609E-02  0.8068902E-01
       -1   -1    0    0    0  501  0.00000000000E+00  0.00000000000E+00  0.36753954756E+04  0.36753954756E+04  0.50400001928E-02 0. -1.
        1   -1    0    0  501    0  0.00000000000E+00  0.00000000000E+00 -0.92906020495E+03  0.92906020497E+03  0.50400001928E-02 0.  1.
    10030    2    1    2    0    0  0.00000000000E+00  0.00000000000E+00  0.27463352706E+04  0.46044556805E+04  0.36957617206E+04 0.  0.
        4    1    3    3  502    0 -0.14210590208E+04 -0.11429653159E+04  0.10017306294E+04  0.20806836186E+04  0.12699999809E+01 0.  1.
       -4    1    3    3    0  502  0.14210590208E+04  0.11429653159E+04  0.17446046412E+04  0.25237720620E+04  0.12699999809E+01 0. -1.
</event>
<event>
 5   0  0.7362817E-08  0.3698432E+04  0.7818609E-02  0.8068309E-01
        2   -1    0    0  501    0  0.00000000000E+00  0.00000000000E+00  0.21538119577E+04  0.21538119577E+04  0.25500000920E-02 0.  1.
       -2   -1    0    0    0  501  0.00000000000E+00  0.00000000000E+00 -0.15876964972E+04  0.15876964972E+04  0.25500000920E-02 0. -1.
    10030    2    1    2    0    0  0.00000000000E+00  0.00000000000E+00  0.56611546050E+03  0.37415084549E+04  0.36984319385E+04 0.  0.
        1    1    3    3  502    0 -0.70218452737E+03  0.14062488804E+04 -0.70245527814E+03  0.17216394634E+04  0.50400001928E-02 0. -1.
       -1    1    3    3    0  502  0.70218452737E+03 -0.14062488804E+04  0.12685707386E+04  0.20198689915E+04  0.50400001928E-02 0.  1.
</event>
<event>
 5   0  0.2282000E-08  0.3672971E+04  0.7818609E-02  0.8073978E-01
       -1   -1    0    0    0  501  0.00000000000E+00  0.00000000000E+00  0.15736152991E+04  0.15736152992E+04  0.50400001928E-02 0. -1.
        1   -1    0    0  501    0  0.00000000000E+00  0.00000000000E+00 -0.21432679425E+04  0.21432679425E+04  0.50400001928E-02 0.  1.
    10030    2    1    2    0    0  0.00000000000E+00  0.00000000000E+00 -0.56965264339E+03  0.37168832417E+04  0.36729711268E+04 0.  0.
        4    1    3    3  502    0 -0.17480010909E+03  0.16292188345E+04  0.55440667735E+03  0.17298200675E+04  0.12699999809E+01 0. -1.
       -4    1    3    3    0  502  0.17480010909E+03 -0.16292188345E+04 -0.11240593207E+04  0.19870631742E+04  0.12699999809E+01 0.  1.
</event>
<event>
 5   0  0.7362817E-08  0.3698305E+04  0.7818609E-02  0.8068337E-01
       -2   -1    0    0    0  501  0.00000000000E+00  0.00000000000E+00  0.18257140633E+04  0.18257140633E+04  0.25500000920E-02 0. -1.
        2   -1    0    0  501    0  0.00000000000E+00  0.00000000000E+00 -0.18728921994E+04  0.18728921994E+04  0.25500000920E-02 0.  1.
    10030    2    1    2    0    0  0.00000000000E+00  0.00000000000E+00 -0.47178136115E+02  0.36986062627E+04  0.36983053565E+04 0.  0.
        1    1    3    3  502    0  0.11654614733E+04  0.45111437992E+03  0.13394455187E+04  0.18319167358E+04  0.50400001928E-02 0. -1.
       -1    1    3    3    0  502 -0.11654614733E+04 -0.45111437992E+03 -0.13866236548E+04  0.18666895268E+04  0.50400001928E-02 0.  1.
</event>
<event>
 5   0  0.7254493E-08  0.3700532E+04  0.7818609E-02  0.8067844E-01
       -2   -1    0    0    0  501  0.00000000000E+00  0.00000000000E+00  0.27247957456E+04  0.27247957456E+04  0.25500000920E-02 0. -1.
        2   -1    0    0  501    0  0.00000000000E+00  0.00000000000E+00 -0.12564183549E+04  0.12564183549E+04  0.25500000920E-02 0.  1.
    10030    2    1    2    0    0  0.00000000000E+00  0.00000000000E+00  0.14683773907E+04  0.39812141005E+04  0.37005315230E+04 0.  0.
        3    1    3    3  502    0 -0.57337684555E+03 -0.17433257731E+04  0.98772786143E+03  0.20841190217E+04  0.10100000352E+00 0. -1.
       -3    1    3    3    0  502  0.57337684555E+03  0.17433257731E+04  0.48064952929E+03  0.18970950789E+04  0.10100000352E+00 0.  1.
</event>
<event>
 5   0  0.7254493E-08  0.3700941E+04  0.7818609E-02  0.8067753E-01
       -2   -1    0    0    0  501  0.00000000000E+00  0.00000000000E+00  0.11279292355E+04  0.11279292355E+04  0.25500000920E-02 0. -1.
        2   -1    0    0  501    0  0.00000000000E+00  0.00000000000E+00 -0.30358657518E+04  0.30358657518E+04  0.25500000920E-02 0.  1.
    10030    2    1    2    0    0  0.00000000000E+00  0.00000000000E+00 -0.19079365163E+04  0.41637949873E+04  0.37009413594E+04 0.  0.
        3    1    3    3  502    0  0.15982721682E+04  0.50524120685E+00 -0.20032176686E+04  0.25626851575E+04  0.10100000352E+00 0.  1.
       -3    1    3    3    0  502 -0.15982721682E+04 -0.50524120685E+00  0.95281152214E+02  0.16011098298E+04  0.10100000352E+00 0. -1.
</event>
<event>
 5   0  0.2282000E-08  0.3695338E+04  0.7818609E-02  0.8068996E-01
       -1   -1    0    0    0  501  0.00000000000E+00  0.00000000000E+00  0.19427295773E+04  0.19427295773E+04  0.50400001928E-02 0. -1.
        1   -1    0    0  501    0  0.00000000000E+00  0.00000000000E+00 -0.17572597917E+04  0.17572597917E+04  0.50400001928E-02 0.  1.
    10030    2    1    2    0    0  0.00000000000E+00  0.00000000000E+00  0.18546978567E+03  0.36999893690E+04  0.36953379128E+04 0.  0.
        1    1    3    3  502    0 -0.17055487825E+04 -0.43753912906E+03  0.65338921341E+03  0.18780986671E+04  0.50400001928E-02 0. -1.
       -1    1    3    3    0  502  0.17055487825E+04  0.43753912906E+03 -0.46791942774E+03  0.18218907020E+04  0.50400001928E-02 0.  1.
</event>
<event>
 5   0  0.2282000E-08  0.3698325E+04  0.7818609E-02  0.8068333E-01
        1   -1    0    0  501    0  0.00000000000E+00  0.00000000000E+00  0.23332298641E+04  0.23332298641E+04  0.50400001928E-02 0.  1.
       -1   -1    0    0    0  501  0.00000000000E+00  0.00000000000E+00 -0.14655228855E+04  0.14655228855E+04  0.50400001928E-02 0. -1.
    10030    2    1    2    0    0  0.00000000000E+00  0.00000000000E+00  0.86770697857E+03  0.37987527496E+04  0.36983248981E+04 0.  0.
        5    1    3    3  502    0  0.16971047962E+04  0.68039725076E+03  0.71753160613E+03  0.19641738222E+04  0.46999998093E+01 0.  1.
       -5    1    3    3    0  502 -0.16971047962E+04 -0.68039725076E+03  0.15017537243E+03  0.18345789274E+04  0.46999998093E+01 0. -1.
</event>
<event>
 5   0  0.7254493E-08  0.3729713E+04  0.7818609E-02  0.8061409E-01
        2   -1    0    0  501    0  0.00000000000E+00  0.00000000000E+00  0.13841173405E+04  0.13841173405E+04  0.25500000920E-02 0.  1.
       -2   -1    0    0    0  501  0.00000000000E+00  0.00000000000E+00 -0.25125688437E+04  0.25125688437E+04  0.25500000920E-02 0. -1.
    10030    2    1    2    0    0  0.00000000000E+00  0.00000000000E+00 -0.11284515032E+04  0.38966861842E+04  0.37297131824E+04 0.  0.
        3    1    3    3  502    0 -0.20164714227E+03  0.17066665780E+04  0.19228875940E+03  0.17292620841E+04  0.10100000352E+00 0. -1.
       -3    1    3    3    0  502  0.20164714227E+03 -0.17066665780E+04 -0.13207402626E+04  0.21674241001E+04  0.10100000352E+00 0.  1.
</event>
<event>
 5   0  0.2282000E-08  0.3706083E+04  0.7818609E-02  0.8066615E-01
        1   -1    0    0  501    0  0.00000000000E+00  0.00000000000E+00  0.18823224490E+04  0.18823224491E+04  0.50400001928E-02 0.  1.
       -1   -1    0    0    0  501  0.00000000000E+00  0.00000000000E+00 -0.18242162338E+04  0.18242162339E+04  0.50400001928E-02 0. -1.
    10030    2    1    2    0    0  0.00000000000E+00  0.00000000000E+00  0.58106215196E+02  0.37065386829E+04  0.37060831987E+04 0.  0.
        5    1    3    3  502    0  0.10397123885E+04  0.12528670205E+04  0.91407059255E+03  0.18671434760E+04  0.46999998093E+01 0.  1.
       -5    1    3    3    0  502 -0.10397123885E+04 -0.12528670205E+04 -0.85596437736E+03  0.18393952069E+04  0.46999998093E+01 0. -1.
</event>
<event>
 5   0  0.7309833E-08  0.3693451E+04  0.7818609E-02  0.8069415E-01
       -2   -1    0    0    0  501  0.00000000000E+00  0.00000000000E+00  0.14420474698E+04  0.14420474698E+04  0.25500000920E-02 0. -1.
        2   -1    0    0  501    0  0.00000000000E+00  0.00000000000E+00 -0.23649675480E+04  0.23649675480E+04  0.25500000920E-02 0.  1.
    10030    2    1    2    0    0  0.00000000000E+00  0.00000000000E+00 -0.92292007823E+03  0.38070150178E+04  0.36934512147E+04 0.  0.
        2    1    3    3  502    0  0.48486595432E+03 -0.16151536242E+04  0.31439851695E+03  0.17154190890E+04  0.25500000920E-02 0. -1.
       -2    1    3    3    0  502 -0.48486595432E+03  0.16151536242E+04 -0.12373185952E+04  0.20915959288E+04  0.25500000920E-02 0.  1.
</event>
<event>
 5   0  0.2282000E-08  0.3696949E+04  0.7818609E-02  0.8068638E-01
        1   -1    0    0  501    0  0.00000000000E+00  0.00000000000E+00  0.17901131918E+04  0.17901131918E+04  0.50400001928E-02 0.  1.
       -1   -1    0    0    0  501  0.00000000000E+00  0.00000000000E+00 -0.19087387780E+04  0.19087387781E+04  0.50400001928E-02 0. -1.
    10030    2    1    2    0    0  0.00000000000E+00  0.00000000000E+00 -0.11862558623E+03  0.36988519699E+04  0.36969492646E+04 0.  0.
        3    1    3    3  502    0 -0.66564723901E+03 -0.12666905846E+04 -0.12300719373E+04  0.18869733080E+04  0.10100000352E+00 0. -1.
       -3    1    3    3    0  502  0.66564723901E+03  0.12666905846E+04  0.11114463511E+04  0.18118786619E+04  0.10100000352E+00 0.  1.
</event>
<event>
 5   0  0.2282000E-08  0.3694306E+04  0.7818609E-02  0.8069225E-01
       -1   -1    0    0    0  501  0.00000000000E+00  0.00000000000E+00  0.12438315291E+04  0.12438315291E+04  0.50400001928E-02 0.  1.
        1   -1    0    0  501    0  0.00000000000E+00  0.00000000000E+00 -0.27431155355E+04  0.27431155355E+04  0.50400001928E-02 0. -1.
    10030    2    1    2    0    0  0.00000000000E+00  0.00000000000E+00 -0.14992840064E+04  0.39869470646E+04  0.36943056674E+04 0.  0.
        3    1    3    3  502    0  0.76698304991E+02  0.64102451947E+03 -0.26173930965E+04  0.26958378468E+04  0.10100000352E+00 0. -1.
       -3    1    3    3    0  502 -0.76698304991E+02 -0.64102451947E+03  0.11181090901E+04  0.12911092178E+04  0.10100000352E+00 0.  1.
</event>
<event>
 5   0  0.2282000E-08  0.3694450E+04  0.7818609E-02  0.8069193E-01
        1   -1    0    0  501    0  0.00000000000E+00  0.00000000000E+00  0.20482889991E+04  0.20482889991E+04  0.50400001928E-02 0.  1.
       -1   -1    0    0    0  501  0.00000000000E+00  0.00000000000E+00 -0.16658980095E+04  0.16658980095E+04  0.50400001928E-02 0. -1.
    10030    2    1    2    0    0  0.00000000000E+00  0.00000000000E+00  0.38239098963E+03  0.37141870086E+04  0.36944501981E+04 0.  0.
        4    1    3    3  502    0 -0.69847257048E+03  0.12681441345E+04 -0.96218471969E+03  0.17383482175E+04  0.12699999809E+01 0. -1.
       -4    1    3    3    0  502  0.69847257048E+03 -0.12681441345E+04  0.13445757093E+04  0.19758387911E+04  0.12699999809E+01 0.  1.
</event>
<event>
 5   0  0.7203049E-08  0.3693484E+04  0.7818609E-02  0.8069407E-01
       -2   -1    0    0    0  501  0.00000000000E+00  0.00000000000E+00  0.14818524698E+04  0.14818524698E+04  0.25500000920E-02 0.  1.
        2   -1    0    0  501    0  0.00000000000E+00  0.00000000000E+00 -0.23014817071E+04  0.23014817071E+04  0.25500000920E-02 0. -1.
    10030    2    1    2    0    0  0.00000000000E+00  0.00000000000E+00 -0.81962923738E+03  0.37833341769E+04  0.36934841826E+04 0.  0.
        4    1    3    3  502    0  0.36811834119E+02  0.71412262958E+03  0.13342886364E+04  0.15138209998E+04  0.12699999809E+01 0.  1.
       -4    1    3    3    0  502 -0.36811834119E+02 -0.71412262958E+03 -0.21539178738E+04  0.22695131771E+04  0.12699999809E+01 0. -1.
</event>
<event>
 5   0  0.2282000E-08  0.3706585E+04  0.7818609E-02  0.8066504E-01
       -1   -1    0    0    0  501  0.00000000000E+00  0.00000000000E+00  0.14435991013E+04  0.14435991013E+04  0.50400001928E-02 0.  1.
        1   -1    0    0  501    0  0.00000000000E+00  0.00000000000E+00 -0.23792563479E+04  0.23792563479E+04  0.50400001928E-02 0. -1.
    10030    2    1    2    0    0  0.00000000000E+00  0.00000000000E+00 -0.93565724664E+03  0.38228554492E+04  0.37065845872E+04 0.  0.
        3    1    3    3  502    0  0.81346732192E+03  0.14068635916E+04  0.45101503498E+03  0.16865375244E+04  0.10100000352E+00 0.  1.
       -3    1    3    3    0  502 -0.81346732192E+03 -0.14068635916E+04 -0.13866722816E+04  0.21363179248E+04  0.10100000352E+00 0. -1.
</event>
<event>
 5   0  0.2282000E-08  0.3695157E+04  0.7818609E-02  0.8069036E-01
        1   -1    0    0  501    0  0.00000000000E+00  0.00000000000E+00  0.18335730428E+04  0.18335730428E+04  0.50400001928E-02 0. -1.
       -1   -1    0    0    0  501  0.00000000000E+00  0.00000000000E+00 -0.18616910768E+04  0.18616910768E+04  0.50400001928E-02 0.  1.
    10030    2    1    2    0    0  0.00000000000E+00  0.00000000000E+00 -0.28118034038E+02  0.36952641196E+04  0.36951571401E+04 0.  0.
        5    1    3    3  502    0  0.50384591082E+03  0.10119274459E+04 -0.14754933424E+04  0.18587524179E+04  0.46999998093E+01 0.  1.
       -5    1    3    3    0  502 -0.50384591082E+03 -0.10119274459E+04  0.14473753083E+04  0.18365117018E+04  0.46999998093E+01 0. -1.
</event>
<event>
 5   0  0.2282000E-08  0.3700786E+04  0.7818609E-02  0.8067788E-01
        1   -1    0    0  501    0  0.00000000000E+00  0.00000000000E+00  0.22260723057E+04  0.22260723057E+04  0.50400001928E-02 0. -1.
       -1   -1    0    0    0  501  0.00000000000E+00  0.00000000000E+00 -0.15381145495E+04  0.15381145495E+04  0.50400001928E-02 0.  1.
    10030    2    1    2    0    0  0.00000000000E+00  0.00000000000E+00  0.68795775627E+03  0.37641868552E+04  0.37007859715E+04 0.  0.
        4    1    3    3  502    0 -0.14121218687E+04  0.11948174592E+04  0.39249996143E+03  0.18909613337E+04  0.12699999809E+01 0.  1.
       -4    1    3    3    0  502  0.14121218687E+04 -0.11948174592E+04  0.29545779484E+03  0.18732255215E+04  0.12699999809E+01 0. -1.
</event>
<event>
 5   0  0.7309833E-08  0.3704315E+04  0.7818609E-02  0.8067006E-01
        2   -1    0    0  501    0  0.00000000000E+00  0.00000000000E+00  0.20091523825E+04  0.20091523825E+04  0.25500000920E-02 0. -1.
       -2   -1    0    0    0  501  0.00000000000E+00  0.00000000000E+00 -0.17074301222E+04  0.17074301222E+04  0.25500000920E-02 0.  1.
    10030    2    1    2    0    0  0.00000000000E+00  0.00000000000E+00  0.30172226030E+03  0.37165825047E+04  0.37043149423E+04 0.  0.
        2    1    3    3  502    0  0.28561376242E+03  0.11357236467E+04 -0.12888278325E+04  0.17414133928E+04  0.25500000920E-02 0.  1.
       -2    1    3    3    0  502 -0.28561376242E+03 -0.11357236467E+04  0.15905500928E+04  0.19751691119E+04  0.25500000920E-02 0. -1.
</event>
<event>
 5   0  0.7203049E-08  0.3689839E+04  0.7818609E-02  0.8070217E-01
        2   -1    0    0  501    0  0.00000000000E+00  0.00000000000E+00  0.13273182605E+04  0.13273182605E+04  0.25500000920E-02 0.  1.
       -2   -1    0    0    0  501  0.00000000000E+00  0.00000000000E+00 -0.25643640820E+04  0.25643640820E+04  0.25500000920E-02 0. -1.
    10030    2    1    2    0    0  0.00000000000E+00  0.00000000000E+00 -0.12370458215E+04  0.38916823425E+04  0.36898386266E+04 0.  0.
        4    1    3    3  502    0  0.16813745199E+04 -0.27934380120E+03 -0.13633195143E+04  0.21825890466E+04  0.12699999809E+01 0. -1.
       -4    1    3    3    0  502 -0.16813745199E+04  0.27934380120E+03  0.12627369276E+03  0.17090932958E+04  0.12699999809E+01 0.  1.
</event>
<event>
 5   0  0.7203049E-08  0.3741021E+04  0.7818609E-02  0.8058931E-01
        2   -1    0    0  501    0  0.00000000000E+00  0.00000000000E+00  0.22375032911E+04  0.22375032911E+04  0.25500000920E-02 0.  1.
       -2   -1    0    0    0  501  0.00000000000E+00  0.00000000000E+00 -0.15637116680E+04  0.15637116680E+04  0.25500000920E-02 0. -1.
    10030    2    1    2    0    0  0.00000000000E+00  0.00000000000E+00  0.67379162306E+03  0.38012149591E+04  0.37410212528E+04 0.  0.
        4    1    3    3  502    0  0.76681230643E+03 -0.70090574002E+03 -0.12436188019E+04  0.16204503408E+04  0.12699999809E+01 0. -1.
       -4    1    3    3    0  502 -0.76681230643E+03  0.70090574002E+03  0.19174104250E+04  0.21807646183E+04  0.12699999809E+01 0.  1.
</event>
<event>
 5   0  0.2282000E-08  0.3703037E+04  0.7818609E-02  0.8067289E-01
        1   -1    0    0  501    0  0.00000000000E+00  0.00000000000E+00  0.20914803849E+04  0.20914803849E+04  0.50400001928E-02 0.  1.
       -1   -1    0    0    0  501  0.00000000000E+00  0.00000000000E+00 -0.16390878807E+04  0.16390878807E+04  0.50400001928E-02 0. -1.
    10030    2    1    2    0    0  0.00000000000E+00  0.00000000000E+00  0.45239250420E+03  0.37305682655E+04  0.37030366736E+04 0.  0.
        4    1    3    3  502    0  0.47136614964E+03 -0.81468083781E+03 -0.13800946336E+04  0.16704950539E+04  0.12699999809E+01 0. -1.
       -4    1    3    3    0  502 -0.47136614964E+03  0.81468083781E+03  0.18324871378E+04  0.20600732117E+04  0.12699999809E+01 0.  1.
</event>
<event>
 5   0  0.7309833E-08  0.3691548E+04  0.7818609E-02  0.8069837E-01
        2   -1    0    0  501    0  0.00000000000E+00  0.00000000000E+00  0.12517925966E+04  0.12517925966E+04  0.25500000920E-02 0. -1.
       -2   -1    0    0    0  501  0.00000000000E+00  0.00000000000E+00 -0.27216022410E+04  0.27216022410E+04  0.25500000920E-02 0.  1.
    10030    2    1    2    0    0  0.00000000000E+00  0.00000000000E+00 -0.14698096444E+04  0.39733948376E+04  0.36915479334E+04 0.  0.
        2    1    3    3  502    0  0.15670032894E+04  0.76504573885E+03 -0.83658160766E+02  0.17457929371E+04  0.25500000920E-02 0.  1.
       -2    1    3    3    0  502 -0.15670032894E+04 -0.76504573885E+03 -0.13861514836E+04  0.22276019005E+04  0.25500000920E-02 0. -1.
</event>
<event>
 5   0  0.7203049E-08  0.3697886E+04  0.7818609E-02  0.8068430E-01
        2   -1    0    0  501    0  0.00000000000E+00  0.00000000000E+00  0.17634167422E+04  0.17634167422E+04  0.25500000920E-02 0.  1.
       -2   -1    0    0    0  501  0.00000000000E+00  0.00000000000E+00 -0.19386176478E+04  0.19386176478E+04  0.25500000920E-02 0. -1.
    10030    2    1    2    0    0  0.00000000000E+00  0.00000000000E+00 -0.17520090563E+03  0.37020343900E+04  0.36978863243E+04 0.  0.
        4    1    3    3  502    0 -0.66029767578E+02  0.73450139803E+03  0.16098063930E+04  0.17706864402E+04  0.12699999809E+01 0.  1.
       -4    1    3    3    0  502  0.66029767578E+02 -0.73450139803E+03 -0.17850072986E+04  0.19313479497E+04  0.12699999809E+01 0. -1.
</event>
<event>
 5   0  0.7191801E-08  0.3700753E+04  0.7818609E-02  0.8067795E-01
       -2   -1    0    0    0  501  0.00000000000E+00  0.00000000000E+00  0.17870457545E+04  0.17870457545E+04  0.25500000920E-02 0.  1.
        2   -1    0    0  501    0  0.00000000000E+00  0.00000000000E+00 -0.19159514375E+04  0.19159514375E+04  0.25500000920E-02 0. -1.
    10030    2    1    2    0    0  0.00000000000E+00  0.00000000000E+00 -0.12890568307E+03  0.37029971920E+04  0.37007528327E+04 0.  0.
        5    1    3    3  502    0  0.40050259833E+03 -0.11458335347E+04 -0.14619150169E+04  0.19001458963E+04  0.46999998093E+01 0. -1.
       -5    1    3    3    0  502 -0.40050259833E+03  0.11458335347E+04  0.13330093338E+04  0.18028512957E+04  0.46999998093E+01 0.  1.
</event>
<event>
 5   0  0.2282000E-08  0.3699866E+04  0.7818609E-02  0.8067991E-01
       -1   -1    0    0    0  501  0.00000000000E+00  0.00000000000E+00  0.12921411990E+04  0.12921411990E+04  0.50400001928E-02 0.  1.
        1   -1    0    0  501    0  0.00000000000E+00  0.00000000000E+00 -0.26485131863E+04  0.26485131863E+04  0.50400001928E-02 0. -1.
    10030    2    1    2    0    0  0.00000000000E+00  0.00000000000E+00 -0.13563719873E+04  0.39406543853E+04  0.36998664863E+04 0.  0.
        2    1    3    3  502    0  0.76682154992E+03  0.16040141772E+04 -0.12227078828E+04  0.21577514538E+04  0.25500000920E-02 0. -1.
       -2    1    3    3    0  502 -0.76682154992E+03 -0.16040141772E+04 -0.13366410450E+03  0.17829029314E+04  0.25500000920E-02 0.  1.
</event>
<event>
 5   0  0.7191801E-08  0.3688031E+04  0.7818609E-02  0.8070620E-01
        2   -1    0    0  501    0  0.00000000000E+00  0.00000000000E+00  0.19518217829E+04  0.19518217829E+04  0.25500000920E-02 0.  1.
       -2   -1    0    0    0  501  0.00000000000E+00  0.00000000000E+00 -0.17421635186E+04  0.17421635186E+04  0.25500000920E-02 0. -1.
    10030    2    1    2    0    0  0.00000000000E+00  0.00000000000E+00  0.20965826426E+03  0.36939853015E+04  0.36880307510E+04 0.  0.
        5    1    3    3  502    0 -0.12298631487E+04  0.72259025336E+03  0.12753350283E+04  0.19134266548E+04  0.46999998093E+01 0.  1.
       -5    1    3    3    0  502  0.12298631487E+04 -0.72259025336E+03 -0.10656767641E+04  0.17805586467E+04  0.46999998093E+01 0. -1.
</event>
<event>
 5   0  0.2282000E-08  0.3700517E+04  0.7818609E-02  0.8067847E-01
       -3   -1    0    0    0  501  0.00000000000E+00  0.00000000000E+00  0.17485434392E+04  0.17485434421E+04  0.10100000352E+00 0.  1.
        3   -1    0    0  501    0  0.00000000000E+00  0.00000000000E+00 -0.19578899984E+04  0.19578900010E+04  0.10100000352E+00 0. -1.
    10030    2    1    2    0    0  0.00000000000E+00  0.00000000000E+00 -0.20934655921E+03  0.37064334431E+04  0.37005165702E+04 0.  0.
        1    1    3    3  502    0 -0.79466899027E+03 -0.14678808709E+04 -0.90424956638E+03  0.18983783431E+04  0.50400001928E-02 0. -1.
       -1    1    3    3    0  502  0.79466899027E+03  0.14678808709E+04  0.69490300716E+03  0.18080551000E+04  0.50400001928E-02 0.  1.
</event>
<event>
 5   0  0.2282000E-08  0.3697759E+04  0.7818609E-02  0.8068459E-01
       -1   -1    0    0    0  501  0.00000000000E+00  0.00000000000E+00  0.22771974025E+04  0.22771974025E+04  0.50400001928E-02 0.  1.
        1   -1    0    0  501    0  0.00000000000E+00  0.00000000000E+00 -0.15011236164E+04  0.15011236164E+04  0.50400001928E-02 0. -1.
    10030    2    1    2    0    0  0.00000000000E+00  0.00000000000E+00  0.77607378606E+03  0.37783210189E+04  0.36977586725E+04 0.  0.
        2    1    3    3  502    0 -0.11895047024E+04  0.13299645706E+04  0.88297380308E+03  0.19908214217E+04  0.25500000920E-02 0.  1.
       -2    1    3    3    0  502  0.11895047024E+04 -0.13299645706E+04 -0.10690001702E+03  0.17874995972E+04  0.25500000920E-02 0. -1.
</event>
<event>
 5   0  0.7362817E-08  0.3702216E+04  0.7818609E-02  0.8067471E-01
       -2   -1    0    0    0  501  0.00000000000E+00  0.00000000000E+00  0.24074300193E+04  0.24074300193E+04  0.25500000920E-02 0. -1.
        2   -1    0    0  501    0  0.00000000000E+00  0.00000000000E+00 -0.14233436389E+04  0.14233436389E+04  0.25500000920E-02 0.  1.
    10030    2    1    2    0    0  0.00000000000E+00  0.00000000000E+00  0.98408638043E+03  0.38307736582E+04  0.37022156632E+04 0.  0.
        1    1    3    3  502    0 -0.65261481751E+03  0.27605076723E+03 -0.12774539075E+04  0.14608212115E+04  0.50400001928E-02 0.  1.
       -1    1    3    3    0  502  0.65261481751E+03 -0.27605076723E+03  0.22615402879E+04  0.23699524468E+04  0.50400001928E-02 0. -1.
</event>
<event>
 5   0  0.2282000E-08  0.3695738E+04  0.7818609E-02  0.8068907E-01
        1   -1    0    0  501    0  0.00000000000E+00  0.00000000000E+00  0.22761619451E+04  0.22761619451E+04  0.50400001928E-02 0.  1.
       -1   -1    0    0    0  501  0.00000000000E+00  0.00000000000E+00 -0.15001652524E+04  0.15001652524E+04  0.50400001928E-02 0. -1.
    10030    2    1    2    0    0  0.00000000000E+00  0.00000000000E+00  0.77599669272E+03  0.37763271976E+04  0.36957375767E+04 0.  0.
        4    1    3    3  502    0 -0.10171955647E+04  0.15125279058E+04  0.69824729082E+03  0.19519165901E+04  0.12699999809E+01 0.  1.
       -4    1    3    3    0  502  0.10171955647E+04 -0.15125279058E+04  0.77749401894E+02  0.18244106075E+04  0.12699999809E+01 0. -1.
</event>
<event>
 5   0  0.7254493E-08  0.3700377E+04  0.7818609E-02  0.8067878E-01
        2   -1    0    0  501    0  0.00000000000E+00  0.00000000000E+00  0.32754392470E+04  0.32754392470E+04  0.25500000920E-02 0.  1.
       -2   -1    0    0    0  501  0.00000000000E+00  0.00000000000E+00 -0.10451110320E+04  0.10451110320E+04  0.25500000920E-02 0. -1.
    10030    2    1    2    0    0  0.00000000000E+00  0.00000000000E+00  0.22303282150E+04  0.43205502790E+04  0.37003771115E+04 0.  0.
        3    1    3    3  502    0 -0.32419598114E+02  0.18249273324E+04  0.76142474600E+03  0.19776699555E+04  0.10100000352E+00 0.  1.
       -3    1    3    3    0  502  0.32419598114E+02 -0.18249273324E+04  0.14689034690E+04  0.23428803235E+04  0.10100000352E+00 0. -1.
</event>
<event>
 5   0  0.2282000E-08  0.3696621E+04  0.7818609E-02  0.8068711E-01
       -1   -1    0    0    0  501  0.00000000000E+00  0.00000000000E+00  0.14630078210E+04  0.14630078210E+04  0.50400001928E-02 0. -1.
        1   -1    0    0  501    0  0.00000000000E+00  0.00000000000E+00 -0.23350875682E+04  0.23350875682E+04  0.50400001928E-02 0.  1.
    10030    2    1    2    0    0  0.00000000000E+00  0.00000000000E+00 -0.87207974714E+03  0.37980953892E+04  0.36966208218E+04 0.  0.
        5    1    3    3  502    0  0.18376668444E+03 -0.80057313682E+03 -0.21372517029E+04  0.22896625238E+04  0.46999998093E+01 0.  1.
       -5    1    3    3    0  502 -0.18376668444E+03  0.80057313682E+03  0.12651719557E+04  0.15084328653E+04  0.46999998093E+01 0. -1.
</event>
<event>
 5   0  0.2282000E-08  0.3702671E+04  0.7818609E-02  0.8067370E-01
       -1   -1    0    0    0  501  0.00000000000E+00  0.00000000000E+00  0.34375729070E+04  0.34375729070E+04  0.50400001928E-02 0. -1.
        1   -1    0    0  501    0  0.00000000000E+00  0.00000000000E+00 -0.99705342948E+03  0.99705342950E+03  0.50400001928E-02 0.  1.
    10030    2    1    2    0    0  0.00000000000E+00  0.00000000000E+00  0.24405194775E+04  0.44346263365E+04  0.37026713903E+04 0.  0.
        3    1    3    3  502    0 -0.10680555041E+04 -0.13700187200E+04  0.19869171510E+04  0.26392297414E+04  0.10100000352E+00 0. -1.
       -3    1    3    3    0  502  0.10680555041E+04  0.13700187200E+04  0.45360232649E+03  0.17953965951E+04  0.10100000352E+00 0.  1.
</event>
<event>
 5   0  0.7309833E-08  0.3698879E+04  0.7818609E-02  0.8068210E-01
        2   -1    0    0  501    0  0.00000000000E+00  0.00000000000E+00  0.26974406160E+04  0.26974406160E+04  0.25500000920E-02 0.  1.
       -2   -1    0    0    0  501  0.00000000000E+00  0.00000000000E+00 -0.12680264388E+04  0.12680264388E+04  0.25500000920E-02 0. -1.
    10030    2    1    2    0    0  0.00000000000E+00  0.00000000000E+00  0.14294141773E+04  0.39654670548E+04  0.36988787588E+04 0.  0.
        2    1    3    3  502    0  0.32004047147E+03  0.16775193828E+04 -0.46335313467E+02  0.17084039758E+04  0.25500000920E-02 0.  1.
       -2    1    3    3    0  502 -0.32004047147E+03 -0.16775193828E+04  0.14757494907E+04  0.22570630790E+04  0.25500000920E-02 0. -1.
</event>
<event>
 5   0  0.7191801E-08  0.3695783E+04  0.7818609E-02  0.8068897E-01
       -2   -1    0    0    0  501  0.00000000000E+00  0.00000000000E+00  0.18785914053E+04  0.18785914053E+04  0.25500000920E-02 0.  1.
        2   -1    0    0  501    0  0.00000000000E+00  0.00000000000E+00 -0.18176933554E+04  0.18176933554E+04  0.25500000920E-02 0. -1.
    10030    2    1    2    0    0  0.00000000000E+00  0.00000000000E+00  0.60898049866E+02  0.36962847608E+04  0.36957830645E+04 0.  0.
        5    1    3    3  502    0  0.12648799748E+03 -0.17680629510E+04 -0.49176667523E+03  0.18395386283E+04  0.46999998093E+01 0. -1.
       -5    1    3    3    0  502 -0.12648799748E+03  0.17680629510E+04  0.55266472510E+03  0.18567461325E+04  0.46999998093E+01 0.  1.
</event>
<event>
 5   0  0.2282000E-08  0.3699703E+04  0.7818609E-02  0.8068028E-01
        1   -1    0    0  501    0  0.00000000000E+00  0.00000000000E+00  0.17288236735E+04  0.17288236735E+04  0.50400001928E-02 0. -1.
       -1   -1    0    0    0  501  0.00000000000E+00  0.00000000000E+00 -0.19793519822E+04  0.19793519822E+04  0.50400001928E-02 0.  1.
    10030    2    1    2    0    0  0.00000000000E+00  0.00000000000E+00 -0.25052830867E+03  0.37081756558E+04  0.36997029963E+04 0.  0.
        4    1    3    3  502    0  0.33346446890E+03  0.93162602328E+03  0.14412685596E+04  0.17482512042E+04  0.12699999809E+01 0. -1.
       -4    1    3    3    0  502 -0.33346446890E+03 -0.93162602328E+03 -0.16917968683E+04  0.19599244515E+04  0.12699999809E+01 0.  1.
</event>
<event>
 5   0  0.7203049E-08  0.3713074E+04  0.7818609E-02  0.8065071E-01
       -2   -1    0    0    0  501  0.00000000000E+00  0.00000000000E+00  0.16740364400E+04  0.16740364400E+04  0.25500000920E-02 0. -1.
        2   -1    0    0  501    0  0.00000000000E+00  0.00000000000E+00 -0.20589335882E+04  0.20589335882E+04  0.25500000920E-02 0.  1.
    10030    2    1    2    0    0  0.00000000000E+00  0.00000000000E+00 -0.38489714823E+03  0.37329700282E+04  0.37130741195E+04 0.  0.
        4    1    3    3  502    0 -0.15121190935E+04 -0.96644103809E+03  0.28572146389E+03  0.18171821045E+04  0.12699999809E+01 0.  1.
       -4    1    3    3    0  502  0.15121190935E+04  0.96644103809E+03 -0.67061861212E+03  0.19157879238E+04  0.12699999809E+01 0. -1.
</event>
<event>
 5   0  0.2282000E-08  0.3700960E+04  0.7818609E-02  0.8067749E-01
        1   -1    0    0  501    0  0.00000000000E+00  0.00000000000E+00  0.18824243958E+04  0.18824243958E+04  0.50400001928E-02 0. -1.
       -1   -1    0    0    0  501  0.00000000000E+00  0.00000000000E+00 -0.18190781676E+04  0.18190781676E+04  0.50400001928E-02 0.  1.
    10030    2    1    2    0    0  0.00000000000E+00  0.00000000000E+00  0.63346228196E+02  0.37015025635E+04  0.37009604811E+04 0.  0.
        5    1    3    3  502    0  0.35718922534E+03 -0.17692849658E+04  0.43953377394E+03  0.18577312673E+04  0.46999998093E+01 0.  1.
       -5    1    3    3    0  502 -0.35718922534E+03  0.17692849658E+04 -0.37618754574E+03  0.18437712962E+04  0.46999998093E+01 0. -1.
</event>
<event>
 5   0  0.7309833E-08  0.3696237E+04  0.7818609E-02  0.8068796E-01
        2   -1    0    0  501    0  0.00000000000E+00  0.00000000000E+00  0.15126122849E+04  0.15126122849E+04  0.25500000920E-02 0.  1.
       -2   -1    0    0    0  501  0.00000000000E+00  0.00000000000E+00 -0.22580415999E+04  0.22580415999E+04  0.25500000920E-02 0. -1.
    10030    2    1    2    0    0  0.00000000000E+00  0.00000000000E+00 -0.74542931501E+03  0.37706538847E+04  0.36962367152E+04 0.  0.
        2    1    3    3  502    0 -0.10633907770E+04 -0.52050627106E+03 -0.18203749109E+04  0.21715182567E+04  0.25500000920E-02 0. -1.
       -2    1    3    3    0  502  0.10633907770E+04  0.52050627106E+03  0.10749455959E+04  0.15991356281E+04  0.25500000920E-02 0.  1.
</event>
<event>
 5   0  0.7254493E-08  0.3702315E+04  0.7818609E-02  0.8067449E-01
        2   -1    0    0  501    0  0.00000000000E+00  0.00000000000E+00  0.13628425174E+04  0.13628425174E+04  0.25500000920E-02 0.  1.
       -2   -1    0    0    0  501  0.00000000000E+00  0.00000000000E+00 -0.25144386925E+04  0.25144386925E+04  0.25500000920E-02 0. -1.
    10030    2    1    2    0    0  0.00000000000E+00  0.00000000000E+00 -0.11515961751E+04  0.38772812098E+04  0.37023149285E+04 0.  0.
        3    1    3    3  502    0  0.14283930136E+04 -0.11309909548E+04 -0.23269211622E+03  0.18367342683E+04  0.10100000352E+00 0.  1.
       -3    1    3    3    0  502 -0.14283930136E+04  0.11309909548E+04 -0.91890405889E+03  0.20405469416E+04  0.10100000352E+00 0. -1.
</event>
<event>
 5   0  0.2282000E-08  0.3697109E+04  0.7818609E-02  0.8068603E-01
        1   -1    0    0  501    0  0.00000000000E+00  0.00000000000E+00  0.23265702088E+04  0.23265702088E+04  0.50400001928E-02 0. -1.
       -1   -1    0    0    0  501  0.00000000000E+00  0.00000000000E+00 -0.14687519033E+04  0.14687519034E+04  0.50400001928E-02 0.  1.
    10030    2    1    2    0    0  0.00000000000E+00  0.00000000000E+00  0.85781830541E+03  0.37953221121E+04  0.36971093694E+04 0.  0.
        2    1    3    3  502    0  0.59583119498E+03  0.10100889465E+04  0.18958051236E+04  0.22292087294E+04  0.25500000920E-02 0. -1.
       -2    1    3    3    0  502 -0.59583119498E+03 -0.10100889465E+04 -0.10379868182E+04  0.15661133827E+04  0.25500000920E-02 0.  1.
</event>
<event>
 5   0  0.2282000E-08  0.3701476E+04  0.7818609E-02  0.8067635E-01
       -1   -1    0    0    0  501  0.00000000000E+00  0.00000000000E+00  0.16885220444E+04  0.16885220444E+04  0.50400001928E-02 0.  1.
        1   -1    0    0  501    0  0.00000000000E+00  0.00000000000E+00 -0.20285374661E+04  0.20285374661E+04  0.50400001928E-02 0. -1.
    10030    2    1    2    0    0  0.00000000000E+00  0.00000000000E+00 -0.34001542176E+03  0.37170595105E+04  0.37014755055E+04 0.  0.
        5    1    3    3  502    0  0.48132758501E+03  0.47270375471E+02  0.16239337785E+04  0.16944302109E+04  0.46999998093E+01 0.  1.
       -5    1    3    3    0  502 -0.48132758501E+03 -0.47270375471E+02 -0.19639492003E+04  0.20226292996E+04  0.46999998093E+01 0. -1.
</event>
<event>
 5   0  0.7254493E-08  0.3692917E+04  0.7818609E-02  0.8069533E-01
       -2   -1    0    0    0  501  0.00000000000E+00  0.00000000000E+00  0.22870697535E+04  0.22870697535E+04  0.25500000920E-02 0. -1.
        2   -1    0    0  501    0  0.00000000000E+00  0.00000000000E+00 -0.14907324270E+04  0.14907324270E+04  0.25500000920E-02 0.  1.
    10030    2    1    2    0    0  0.00000000000E+00  0.00000000000E+00  0.79633732649E+03  0.37778021805E+04  0.36929170282E+04 0.  0.
        3    1    3    3  502    0  0.15087235973E+04  0.43140505398E+03  0.13937036663E+04  0.20987537095E+04  0.10100000352E+00 0. -1.
       -3    1    3    3    0  502 -0.15087235973E+04 -0.43140505398E+03 -0.59736633984E+03  0.16790484709E+04  0.10100000352E+00 0.  1.
</event>
<event>
 5   0  0.7254493E-08  0.3694792E+04  0.7818609E-02  0.8069117E-01
       -2   -1    0    0    0  501  0.00000000000E+00  0.00000000000E+00  0.13723080360E+04  0.13723080360E+04  0.25500000920E-02 0. -1.
        2   -1    0    0  501    0  0.00000000000E+00  0.00000000000E+00 -0.24869570518E+04  0.24869570518E+04  0.25500000920E-02 0.  1.
    10030    2    1    2    0    0  0.00000000000E+00  0.00000000000E+00 -0.11146490158E+04  0.38592650877E+04  0.36947915488E+04 0.  0.
        3    1    3    3  502    0  0.65454904611E+03 -0.15123180894E+04 -0.14295606045E+04  0.21815554060E+04  0.10100000352E+00 0.  1.
       -3    1    3    3    0  502 -0.65454904611E+03  0.15123180894E+04  0.31491158867E+03  0.16777096817E+04  0.10100000352E+00 0. -1.
</event>
<event>
 5   0  0.7309833E-08  0.3699809E+04  0.7818609E-02  0.8068004E-01
        2   -1    0    0  501    0  0.00000000000E+00  0.00000000000E+00  0.20779179804E+04  0.20779179804E+04  0.25500000920E-02 0.  1.
       -2   -1    0    0    0  501  0.00000000000E+00  0.00000000000E+00 -0.16469110741E+04  0.16469110741E+04  0.25500000920E-02 0. -1.
    10030    2    1    2    0    0  0.00000000000E+00  0.00000000000E+00  0.43100690626E+03  0.37248290545E+04  0.36998087156E+04 0.  0.
        2    1    3    3  502    0  0.96582995064E+03  0.10410324727E+04  0.14090883626E+04  0.20005264598E+04  0.25500000920E-02 0.  1.
       -2    1    3    3    0  502 -0.96582995064E+03 -0.10410324727E+04 -0.97808145633E+03  0.17243025947E+04  0.25500000920E-02 0. -1.
</event>
<event>
 5   0  0.2282000E-08  0.3719366E+04  0.7818609E-02  0.8063684E-01
       -1   -1    0    0    0  501  0.00000000000E+00  0.00000000000E+00  0.15517048933E+04  0.15517048933E+04  0.50400001928E-02 0. -1.
        1   -1    0    0  501    0  0.00000000000E+00  0.00000000000E+00 -0.22287876891E+04  0.22287876891E+04  0.50400001928E-02 0.  1.
    10030    2    1    2    0    0  0.00000000000E+00  0.00000000000E+00 -0.67708279579E+03  0.37804925824E+04  0.37193659477E+04 0.  0.
        1    1    3    3  502    0 -0.62836018396E+03 -0.94334623088E+03 -0.18371129959E+04  0.21586391065E+04  0.50400001928E-02 0.  1.
       -1    1    3    3    0  502  0.62836018396E+03  0.94334623088E+03  0.11600302001E+04  0.16218534759E+04  0.50400001928E-02 0. -1.
</event>
<event>
 5   0  0.7203049E-08  0.3701204E+04  0.7818609E-02  0.8067695E-01
       -2   -1    0    0    0  501  0.00000000000E+00  0.00000000000E+00  0.19378284605E+04  0.19378284605E+04  0.25500000920E-02 0. -1.
        2   -1    0    0  501    0  0.00000000000E+00  0.00000000000E+00 -0.17673019481E+04  0.17673019481E+04  0.25500000920E-02 0.  1.
    10030    2    1    2    0    0  0.00000000000E+00  0.00000000000E+00  0.17052651244E+03  0.37051304086E+04  0.37012041356E+04 0.  0.
        4    1    3    3  502    0  0.62233044165E+03 -0.47992381795E+03 -0.15919556074E+04  0.17753721633E+04  0.12699999809E+01 0.  1.
       -4    1    3    3    0  502 -0.62233044165E+03  0.47992381795E+03  0.17624821198E+04  0.19297582453E+04  0.12699999809E+01 0. -1.
</event>
<event>
 5   0  0.7254493E-08  0.3700229E+04  0.7818609E-02  0.8067911E-01
       -2   -1    0    0    0  501  0.00000000000E+00  0.00000000000E+00  0.20503791007E+04  0.20503791007E+04  0.25500000920E-02 0. -1.
        2   -1    0    0  501    0  0.00000000000E+00  0.00000000000E+00 -0.16694099164E+04  0.16694099164E+04  0.25500000920E-02 0.  1.
    10030    2    1    2    0    0  0.00000000000E+00  0.00000000000E+00  0.38096918427E+03  0.37197890171E+04  0.37002287513E+04 0.  0.
        3    1    3    3  502    0  0.14204886393E+04  0.10688859306E+04  0.70565635433E+03  0.19126567929E+04  0.10100000352E+00 0. -1.
       -3    1    3    3    0  502 -0.14204886393E+04 -0.10688859306E+04 -0.32468717005E+03  0.18071322241E+04  0.10100000352E+00 0.  1.
</event>
<event>
 5   0  0.2282000E-08  0.3696848E+04  0.7818609E-02  0.8068661E-01
        1   -1    0    0  501    0  0.00000000000E+00  0.00000000000E+00  0.10894372398E+04  0.10894372398E+04  0.50400001928E-02 0. -1.
       -1   -1    0    0    0  501  0.00000000000E+00  0.00000000000E+00 -0.31361802508E+04  0.31361802508E+04  0.50400001928E-02 0.  1.
    10030    2    1    2    0    0  0.00000000000E+00  0.00000000000E+00 -0.20467430110E+04  0.42256174906E+04  0.36968481473E+04 0.  0.
        2    1    3    3  502    0  0.98199229781E+03  0.73108318478E+03 -0.26063291397E+04  0.28795386923E+04  0.25500000920E-02 0. -1.
       -2    1    3    3    0  502 -0.98199229781E+03 -0.73108318478E+03  0.55958612869E+03  0.13460787984E+04  0.25500000920E-02 0.  1.
</event>
<event>
 5   0  0.2282000E-08  0.3699830E+04  0.7818609E-02  0.8067999E-01
       -1   -1    0    0    0  501  0.00000000000E+00  0.00000000000E+00  0.18253482637E+04  0.18253482637E+04  0.50400001928E-02 0.  1.
        1   -1    0    0  501    0  0.00000000000E+00  0.00000000000E+00 -0.18748124889E+04  0.18748124889E+04  0.50400001928E-02 0. -1.
    10030    2    1    2    0    0  0.00000000000E+00  0.00000000000E+00 -0.49464225201E+02  0.37001607526E+04  0.36998301158E+04 0.  0.
        1    1    3    3  502    0 -0.13272266351E+04  0.26000095648E+03  0.12375433818E+04  0.18332061150E+04  0.50400001928E-02 0.  1.
       -1    1    3    3    0  502  0.13272266351E+04 -0.26000095648E+03 -0.12870076070E+04  0.18669546376E+04  0.50400001928E-02 0. -1.
</event>
<event>
 5   0  0.7362817E-08  0.3693886E+04  0.7818609E-02  0.8069318E-01
       -2   -1    0    0    0  501  0.00000000000E+00  0.00000000000E+00  0.14191082975E+04  0.14191082975E+04  0.25500000920E-02 0. -1.
        2   -1    0    0  501    0  0.00000000000E+00  0.00000000000E+00 -0.24037617265E+04  0.24037617265E+04  0.25500000920E-02 0.  1.
    10030    2    1    2    0    0  0.00000000000E+00  0.00000000000E+00 -0.98465342909E+03  0.38228700240E+04  0.36938858733E+04 0.  0.
        1    1    3    3  502    0 -0.37514536060E+02 -0.18415420772E+04 -0.35151069388E+03  0.18751651475E+04  0.50400001928E-02 0. -1.
       -1    1    3    3    0  502  0.37514536060E+02  0.18415420772E+04 -0.63314273521E+03  0.19477048765E+04  0.50400001928E-02 0.  1.
</event>
<event>
 5   0  0.2282000E-08  0.3712866E+04  0.7818609E-02  0.8065117E-01
       -1   -1    0    0    0  501  0.00000000000E+00  0.00000000000E+00  0.31076629490E+04  0.31076629490E+04  0.50400001928E-02 0.  1.
        1   -1    0    0  501    0  0.00000000000E+00  0.00000000000E+00 -0.11089821321E+04  0.11089821321E+04  0.50400001928E-02 0. -1.
    10030    2    1    2    0    0  0.00000000000E+00  0.00000000000E+00  0.19986808169E+04  0.42166450812E+04  0.37128655689E+04 0.  0.
        5    1    3    3  502    0 -0.71249721318E+03 -0.15317831715E+04  0.18733815040E+04  0.25226161643E+04  0.46999998093E+01 0. -1.
       -5    1    3    3    0  502  0.71249721318E+03  0.15317831715E+04  0.12529931295E+03  0.16940289168E+04  0.46999998093E+01 0.  1.
</event>
<event>
 5   0  0.2282000E-08  0.3703463E+04  0.7818609E-02  0.8067195E-01
        1   -1    0    0  501    0  0.00000000000E+00  0.00000000000E+00  0.22353419571E+04  0.22353419571E+04  0.50400001928E-02 0. -1.
       -1   -1    0    0    0  501  0.00000000000E+00  0.00000000000E+00 -0.15339528733E+04  0.15339528734E+04  0.50400001928E-02 0.  1.
    10030    2    1    2    0    0  0.00000000000E+00  0.00000000000E+00  0.70138908378E+03  0.37692948305E+04  0.37034628218E+04 0.  0.
        1    1    3    3  502    0 -0.31872061302E+03 -0.15327861520E+04  0.13571574834E+04  0.20719296927E+04  0.50400001928E-02 0. -1.
       -1    1    3    3    0  502  0.31872061302E+03  0.15327861520E+04 -0.65576839958E+03  0.16973651378E+04  0.50400001928E-02 0.  1.
</event>
<event>
 5   0  0.7254493E-08  0.3711253E+04  0.7818609E-02  0.8065473E-01
       -2   -1    0    0    0  501  0.00000000000E+00  0.00000000000E+00  0.23515388193E+04  0.23515388193E+04  0.25500000920E-02 0. -1.
        2   -1    0    0  501    0  0.00000000000E+00  0.00000000000E+00 -0.14642960839E+04  0.14642960839E+04  0.25500000920E-02 0.  1.
    10030    2    1    2    0    0  0.00000000000E+00  0.00000000000E+00  0.88724273545E+03  0.38158349032E+04  0.37112526641E+04 0.  0.
        3    1    3    3  502    0 -0.85750360478E+02  0.10180681474E+04 -0.11490729665E+04  0.15375905078E+04  0.10100000352E+00 0.  1.
       -3    1    3    3    0  502  0.85750360478E+02 -0.10180681474E+04  0.20363157019E+04  0.22782443954E+04  0.10100000352E+00 0. -1.
</event>
<event>
 5   0  0.2282000E-08  0.3701807E+04  0.7818609E-02  0.8067561E-01
        1   -1    0    0  501    0  0.00000000000E+00  0.00000000000E+00  0.15356883325E+04  0.15356883325E+04  0.50400001928E-02 0. -1.
       -1   -1    0    0    0  501  0.00000000000E+00  0.00000000000E+00 -0.22308200956E+04  0.22308200956E+04  0.50400001928E-02 0.  1.
    10030    2    1    2    0    0  0.00000000000E+00  0.00000000000E+00 -0.69513176307E+03  0.37665084282E+04  0.37018073385E+04 0.  0.
        1    1    3    3  502    0 -0.98386657238E+03  0.19841362033E+03 -0.19298943824E+04  0.21752824470E+04  0.50400001928E-02 0.  1.
       -1    1    3    3    0  502  0.98386657238E+03 -0.19841362033E+03  0.12347626193E+04  0.15912259812E+04  0.50400001928E-02 0. -1.
</event>
<event>
 5   0  0.2282000E-08  0.3703921E+04  0.7818609E-02  0.8067094E-01
       -1   -1    0    0    0  501  0.00000000000E+00  0.00000000000E+00  0.16122826856E+04  0.16122826856E+04  0.50400001928E-02 0. -1.
        1   -1    0    0  501    0  0.00000000000E+00  0.00000000000E+00 -0.21272678349E+04  0.21272678349E+04  0.50400001928E-02 0.  1.
    10030    2    1    2    0    0  0.00000000000E+00  0.00000000000E+00 -0.51498514930E+03  0.37395505206E+04  0.37039206784E+04 0.  0.
        1    1    3    3  502    0 -0.99203875583E+03  0.13815929315E+04 -0.99721865209E+03  0.19716452423E+04  0.50400001928E-02 0.  1.
       -1    1    3    3    0  502  0.99203875583E+03 -0.13815929315E+04  0.48223350279E+03  0.17679052782E+04  0.50400001928E-02 0. -1.
</event>
<event>
 5   0  0.2282000E-08  0.3713819E+04  0.7818609E-02  0.8064906E-01
        1   -1    0    0  501    0  0.00000000000E+00  0.00000000000E+00  0.19540538693E+04  0.19540538694E+04  0.50400001928E-02 0.  1.
       -1   -1    0    0    0  501  0.00000000000E+00  0.00000000000E+00 -0.17645948990E+04  0.17645948990E+04  0.50400001928E-02 0. -1.
    10030    2    1    2    0    0  0.00000000000E+00  0.00000000000E+00  0.18945897034E+03  0.37186487684E+04  0.37138193226E+04 0.  0.
        2    1    3    3  502    0 -0.39891041643E+02  0.98527644326E+03  0.16702280230E+04  0.19395934145E+04  0.25500000920E-02 0.  1.
       -2    1    3    3    0  502  0.39891041643E+02 -0.98527644326E+03 -0.14807690526E+04  0.17790553539E+04  0.25500000920E-02 0. -1.
</event>
<event>
 5   0  0.7362817E-08  0.3699118E+04  0.7818609E-02  0.8068157E-01
       -2   -1    0    0    0  501  0.00000000000E+00  0.00000000000E+00  0.10795844275E+04  0.10795844275E+04  0.25500000920E-02 0.  1.
        2   -1    0    0  501    0  0.00000000000E+00  0.00000000000E+00 -0.31686901799E+04  0.31686901799E+04  0.25500000920E-02 0. -1.
    10030    2    1    2    0    0  0.00000000000E+00  0.00000000000E+00 -0.20891057524E+04  0.42482746074E+04  0.36991180429E+04 0.  0.
        1    1    3    3  502    0  0.31426454449E+03 -0.11943950262E+04 -0.26257257909E+04  0.29016853054E+04  0.50400001928E-02 0. -1.
       -1    1    3    3    0  502 -0.31426454449E+03  0.11943950262E+04  0.53662003853E+03  0.13465893020E+04  0.50400001928E-02 0.  1.
</event>
<event>
 5   0  0.7254493E-08  0.3688129E+04  0.7818609E-02  0.8070598E-01
        2   -1    0    0  501    0  0.00000000000E+00  0.00000000000E+00  0.10534781901E+04  0.10534781901E+04  0.25500000920E-02 0. -1.
       -2   -1    0    0    0  501  0.00000000000E+00  0.00000000000E+00 -0.32279483503E+04  0.32279483503E+04  0.25500000920E-02 0.  1.
    10030    2    1    2    0    0  0.00000000000E+00  0.00000000000E+00 -0.21744701603E+04  0.42814265404E+04  0.36881286234E+04 0.  0.
        3    1    3    3  502    0  0.14051765231E+04  0.74290285219E+03 -0.21725975241E+04  0.26919520280E+04  0.10100000352E+00 0.  1.
       -3    1    3    3    0  502 -0.14051765231E+04 -0.74290285219E+03 -0.18726361668E+01  0.15894745125E+04  0.10100000352E+00 0. -1.
</event>
<event>
 5   0  0.7309833E-08  0.3702552E+04  0.7818609E-02  0.8067396E-01
        2   -1    0    0  501    0  0.00000000000E+00  0.00000000000E+00  0.19224546283E+04  0.19224546283E+04  0.25500000920E-02 0.  1.
       -2   -1    0    0    0  501  0.00000000000E+00  0.00000000000E+00 -0.17827331249E+04  0.17827331249E+04  0.25500000920E-02 0. -1.
    10030    2    1    2    0    0  0.00000000000E+00  0.00000000000E+00  0.13972150339E+03  0.37051877533E+04  0.37025523884E+04 0.  0.
        2    1    3    3  502    0 -0.17587970506E+04 -0.51127834693E+03 -0.19949794484E+03  0.18424364421E+04  0.25500000920E-02 0. -1.
       -2    1    3    3    0  502  0.17587970506E+04  0.51127834693E+03  0.33921944822E+03  0.18627513112E+04  0.25500000920E-02 0.  1.
</event>
<event>
 5   0  0.7203049E-08  0.3701616E+04  0.7818609E-02  0.8067604E-01
       -2   -1    0    0    0  501  0.00000000000E+00  0.00000000000E+00  0.12430485289E+04  0.12430485289E+04  0.25500000920E-02 0.  1.
        2   -1    0    0  501    0  0.00000000000E+00  0.00000000000E+00 -0.27557173630E+04  0.27557173630E+04  0.25500000920E-02 0. -1.
    10030    2    1    2    0    0  0.00000000000E+00  0.00000000000E+00 -0.15126688341E+04  0.39987658919E+04  0.37016160871E+04 0.  0.
        4    1    3    3  502    0  0.12145826459E+03 -0.36872955020E+03 -0.27112380433E+04  0.27388915516E+04  0.12699999809E+01 0. -1.
       -4    1    3    3    0  502 -0.12145826459E+03  0.36872955020E+03  0.11985692092E+04  0.12598743403E+04  0.12699999809E+01 0.  1.
</event>
<event>
 5   0  0.7254493E-08  0.3733901E+04  0.7818609E-02  0.8060490E-01
        2   -1    0    0  501    0  0.00000000000E+00  0.00000000000E+00  0.28477416749E+04  0.28477416749E+04  0.25500000920E-02 0.  1.
       -2   -1    0    0    0  501  0.00000000000E+00  0.00000000000E+00 -0.12239534771E+04  0.12239534771E+04  0.25500000920E-02 0. -1.
    10030    2    1    2    0    0  0.00000000000E+00  0.00000000000E+00  0.16237881977E+04  0.40716951520E+04  0.37339005477E+04 0.  0.
        3    1    3    3  502    0  0.13534048021E+04 -0.12226248847E+04  0.37709011190E+03  0.18624481549E+04  0.10100000352E+00 0. -1.
       -3    1    3    3    0  502 -0.13534048021E+04  0.12226248847E+04  0.12466980858E+04  0.22092469971E+04  0.10100000352E+00 0.  1.
</event>
<event>
 5   0  0.2282000E-08  0.3701871E+04  0.7818609E-02  0.8067547E-01
        1   -1    0    0  501    0  0.00000000000E+00  0.00000000000E+00  0.22898902526E+04  0.22898902526E+04  0.50400001928E-02 0.  1.
       -1   -1    0    0    0  501  0.00000000000E+00  0.00000000000E+00 -0.14961253315E+04  0.14961253315E+04  0.50400001928E-02 0. -1.
    10030    2    1    2    0    0  0.00000000000E+00  0.00000000000E+00  0.79376492107E+03  0.37860155841E+04  0.37018713177E+04 0.  0.
        3    1    3    3  502    0  0.11256631553E+03 -0.16878952142E+04  0.11651573398E+04  0.20540820495E+04  0.10100000352E+00 0.  1.
       -3    1    3    3    0  502 -0.11256631553E+03  0.16878952142E+04 -0.37139241869E+03  0.17319335346E+04  0.10100000352E+00 0. -1.
</event>
<event>
 5   0  0.7203049E-08  0.3708235E+04  0.7818609E-02  0.8066139E-01
        2   -1    0    0  501    0  0.00000000000E+00  0.00000000000E+00  0.17707732298E+04  0.17707732298E+04  0.25500000920E-02 0. -1.
       -2   -1    0    0    0  501  0.00000000000E+00  0.00000000000E+00 -0.19413847520E+04  0.19413847520E+04  0.25500000920E-02 0.  1.
    10030    2    1    2    0    0  0.00000000000E+00  0.00000000000E+00 -0.17061152224E+03  0.37121579818E+04  0.37082352394E+04 0.  0.
        4    1    3    3  502    0  0.15520775711E+04 -0.10045188758E+04 -0.22598048498E+03  0.18625444293E+04  0.12699999809E+01 0.  1.
       -4    1    3    3    0  502 -0.15520775711E+04  0.10045188758E+04  0.55368962742E+02  0.18496135525E+04  0.12699999809E+01 0. -1.
</event>
<event>
 5   0  0.7309833E-08  0.3700464E+04  0.7818609E-02  0.8067859E-01
        2   -1    0    0  501    0  0.00000000000E+00  0.00000000000E+00  0.18433347267E+04  0.18433347267E+04  0.25500000920E-02 0.  1.
       -2   -1    0    0    0  501  0.00000000000E+00  0.00000000000E+00 -0.18571550278E+04  0.18571550278E+04  0.25500000920E-02 0. -1.
    10030    2    1    2    0    0  0.00000000000E+00  0.00000000000E+00 -0.13820301156E+02  0.37004897545E+04  0.37004639469E+04 0.  0.
        2    1    3    3  502    0  0.16972396915E+04 -0.13000937661E+03  0.71823858018E+03  0.18475366482E+04  0.25500000920E-02 0.  1.
       -2    1    3    3    0  502 -0.16972396915E+04  0.13000937661E+03 -0.73205888133E+03  0.18529531063E+04  0.25500000920E-02 0. -1.
</event>
<event>
 5   0  0.2282000E-08  0.3696763E+04  0.7818609E-02  0.8068679E-01
       -1   -1    0    0    0  501  0.00000000000E+00  0.00000000000E+00  0.27256357040E+04  0.27256357040E+04  0.50400001928E-02 0. -1.
        1   -1    0    0  501    0  0.00000000000E+00  0.00000000000E+00 -0.12534744668E+04  0.12534744668E+04  0.50400001928E-02 0.  1.
    10030    2    1    2    0    0  0.00000000000E+00  0.00000000000E+00  0.14721612372E+04  0.39791101708E+04  0.36967633199E+04 0.  0.
        2    1    3    3  502    0 -0.61607080332E+03  0.46108706178E+03 -0.10728634183E+04  0.13202955834E+04  0.25500000920E-02 0.  1.
       -2    1    3    3    0  502  0.61607080332E+03 -0.46108706178E+03  0.25450246555E+04  0.26588145874E+04  0.25500000920E-02 0. -1.
</event>
<event>
 5   0  0.2282000E-08  0.3696486E+04  0.7818609E-02  0.8068741E-01
        1   -1    0    0  501    0  0.00000000000E+00  0.00000000000E+00  0.11398095532E+04  0.11398095532E+04  0.50400001928E-02 0. -1.
       -1   -1    0    0    0  501  0.00000000000E+00  0.00000000000E+00 -0.29969932498E+04  0.29969932498E+04  0.50400001928E-02 0.  1.
    10030    2    1    2    0    0  0.00000000000E+00  0.00000000000E+00 -0.18571836966E+04  0.41368028031E+04  0.36964856483E+04 0.  0.
        2    1    3    3  502    0  0.36037641471E+02  0.16770817736E+04 -0.17969721153E+04  0.24582536017E+04  0.25500000920E-02 0.  1.
       -2    1    3    3    0  502 -0.36037641471E+02 -0.16770817736E+04 -0.60211581341E+02  0.16785492014E+04  0.25500000920E-02 0. -1.
</event>
<event>
 5   0  0.7362817E-08  0.3700713E+04  0.7818609E-02  0.8067804E-01
        2   -1    0    0  501    0  0.00000000000E+00  0.00000000000E+00  0.30856752927E+04  0.30856752927E+04  0.25500000920E-02 0. -1.
       -2   -1    0    0    0  501  0.00000000000E+00  0.00000000000E+00 -0.11095850270E+04  0.11095850270E+04  0.25500000920E-02 0.  1.
    10030    2    1    2    0    0  0.00000000000E+00  0.00000000000E+00  0.19760902657E+04  0.41952603197E+04  0.37007129599E+04 0.  0.
        1    1    3    3  502    0  0.25899348775E+03 -0.82062475836E+03  0.28450346943E+04  0.29723265353E+04  0.50400001928E-02 0. -1.
       -1    1    3    3    0  502 -0.25899348775E+03  0.82062475836E+03 -0.86894442867E+03  0.12229337843E+04  0.50400001928E-02 0.  1.
</event>
<event>
 5   0  0.2282000E-08  0.3692678E+04  0.7818609E-02  0.8069586E-01
        1   -1    0    0  501    0  0.00000000000E+00  0.00000000000E+00  0.20648176371E+04  0.20648176371E+04  0.50400001928E-02 0.  1.
       -1   -1    0    0    0  501  0.00000000000E+00  0.00000000000E+00 -0.16509773940E+04  0.16509773940E+04  0.50400001928E-02 0. -1.
    10030    2    1    2    0    0  0.00000000000E+00  0.00000000000E+00  0.41384024312E+03  0.37157950311E+04  0.36926777501E+04 0.  0.
        1    1    3    3  502    0 -0.46023798707E+03  0.17880363935E+04  0.19825854385E+03  0.18569328473E+04  0.50400001928E-02 0.  1.
       -1    1    3    3    0  502  0.46023798707E+03 -0.17880363935E+04  0.21558169927E+03  0.18588621838E+04  0.50400001928E-02 0. -1.
</event>
<event>
 5   0  0.2282000E-08  0.3708746E+04  0.7818609E-02  0.8066026E-01
       -1   -1    0    0    0  501  0.00000000000E+00  0.00000000000E+00  0.14961568413E+04  0.14961568413E+04  0.50400001928E-02 0.  1.
        1   -1    0    0  501    0  0.00000000000E+00  0.00000000000E+00 -0.22983543123E+04  0.22983543123E+04  0.50400001928E-02 0. -1.
    10030    2    1    2    0    0  0.00000000000E+00  0.00000000000E+00 -0.80219747104E+03  0.37945111536E+04  0.37087456252E+04 0.  0.
        5    1    3    3  502    0 -0.45226087271E+03  0.17981329050E+04 -0.37118921421E+03  0.18909324059E+04  0.46999998093E+01 0. -1.
       -5    1    3    3    0  502  0.45226087271E+03 -0.17981329050E+04 -0.43100825683E+03  0.19035787477E+04  0.46999998093E+01 0.  1.
</event>
<event>
 5   0  0.2282000E-08  0.3690271E+04  0.7818609E-02  0.8070121E-01
       -1   -1    0    0    0  501  0.00000000000E+00  0.00000000000E+00  0.19874222838E+04  0.19874222838E+04  0.50400001928E-02 0. -1.
        1   -1    0    0  501    0  0.00000000000E+00  0.00000000000E+00 -0.17130360019E+04  0.17130360019E+04  0.50400001928E-02 0.  1.
    10030    2    1    2    0    0  0.00000000000E+00  0.00000000000E+00  0.27438628190E+03  0.37004582858E+04  0.36902714931E+04 0.  0.
        1    1    3    3  502    0 -0.12953058232E+04  0.12691438321E+04 -0.20430926390E+03  0.18249069887E+04  0.50400001928E-02 0. -1.
       -1    1    3    3    0  502  0.12953058232E+04 -0.12691438321E+04  0.47869554580E+03  0.18755512970E+04  0.50400001928E-02 0.  1.
</event>
<event>
 5   0  0.2282000E-08  0.3704422E+04  0.7818609E-02  0.8066983E-01
       -1   -1    0    0    0  501  0.00000000000E+00  0.00000000000E+00  0.23415773903E+04  0.23415773903E+04  0.50400001928E-02 0.  1.
        1   -1    0    0  501    0  0.00000000000E+00  0.00000000000E+00 -0.14651172316E+04  0.14651172316E+04  0.50400001928E-02 0. -1.
    10030    2    1    2    0    0  0.00000000000E+00  0.00000000000E+00  0.87646015869E+03  0.38066946219E+04  0.37044218894E+04 0.  0.
        3    1    3    3  502    0  0.48834500303E+03 -0.16107515387E+04 -0.35621415247E+03  0.17204330542E+04  0.10100000352E+00 0. -1.
       -3    1    3    3    0  502 -0.48834500303E+03  0.16107515387E+04  0.12326743112E+04  0.20862615677E+04  0.10100000352E+00 0.  1.
</event>
<event>
 5   0  0.7254493E-08  0.3689367E+04  0.7818609E-02  0.8070322E-01
        2   -1    0    0  501    0  0.00000000000E+00  0.00000000000E+00  0.11214794461E+04  0.11214794461E+04  0.25500000920E-02 0.  1.
       -2   -1    0    0    0  501  0.00000000000E+00  0.00000000000E+00 -0.30342572841E+04  0.30342572841E+04  0.25500000920E-02 0. -1.
    10030    2    1    2    0    0  0.00000000000E+00  0.00000000000E+00 -0.19127778379E+04  0.41557367302E+04  0.36893669800E+04 0.  0.
        3    1    3    3  502    0  0.59703399222E+03  0.95133505097E+03  0.69193266789E+03  0.13191886879E+04  0.10100000352E+00 0.  1.
       -3    1    3    3    0  502 -0.59703399222E+03 -0.95133505097E+03 -0.26047105058E+04  0.28365480423E+04  0.10100000352E+00 0. -1.
</event>
<event>
 5   0  0.7362817E-08  0.3701873E+04  0.7818609E-02  0.8067547E-01
        2   -1    0    0  501    0  0.00000000000E+00  0.00000000000E+00  0.91094358455E+03  0.91094358456E+03  0.25500000920E-02 0.  1.
       -2   -1    0    0    0  501  0.00000000000E+00  0.00000000000E+00 -0.37608986382E+04  0.37608986382E+04  0.25500000920E-02 0. -1.
    10030    2    1    2    0    0  0.00000000000E+00  0.00000000000E+00 -0.28499550537E+04  0.46718422228E+04  0.37018733024E+04 0.  0.
        1    1    3    3  502    0 -0.96086732423E+03 -0.13876745198E+04 -0.23836650256E+04  0.29207474286E+04  0.50400001928E-02 0. -1.
       -1    1    3    3    0  502  0.96086732423E+03  0.13876745198E+04 -0.46629002812E+03  0.17510947942E+04  0.50400001928E-02 0.  1.
</event>
<event>
 5   0  0.7203049E-08  0.3699486E+04  0.7818609E-02  0.8068076E-01
        2   -1    0    0  501    0  0.00000000000E+00  0.00000000000E+00  0.21001947913E+04  0.21001947913E+04  0.25500000920E-02 0. -1.
       -2   -1    0    0    0  501  0.00000000000E+00  0.00000000000E+00 -0.16291576242E+04  0.16291576242E+04  0.25500000920E-02 0.  1.
    10030    2    1    2    0    0  0.00000000000E+00  0.00000000000E+00  0.47103716709E+03  0.37293524156E+04  0.36994855625E+04 0.  0.
        4    1    3    3  502    0 -0.10648368839E+04 -0.62850159163E+03 -0.11513260347E+04  0.16895103110E+04  0.12699999809E+01 0.  1.
       -4    1    3    3    0  502  0.10648368839E+04  0.62850159163E+03  0.16223632018E+04  0.20398421045E+04  0.12699999809E+01 0. -1.
</event>
<event>
 5   0  0.2282000E-08  0.3700616E+04  0.7818609E-02  0.8067825E-01
        1   -1    0    0  501    0  0.00000000000E+00  0.00000000000E+00  0.29555749608E+04  0.29555749608E+04  0.50400001928E-02 0.  1.
       -1   -1    0    0    0  501  0.00000000000E+00  0.00000000000E+00 -0.11583666507E+04  0.11583666507E+04  0.50400001928E-02 0. -1.
    10030    2    1    2    0    0  0.00000000000E+00  0.00000000000E+00  0.17972083101E+04  0.41139416115E+04  0.37006158775E+04 0.  0.
        2    1    3    3  502    0  0.36170437184E+03 -0.88081922480E+03 -0.86508834699E+03  0.12864876243E+04  0.25500000920E-02 0. -1.
       -2    1    3    3    0  502 -0.36170437184E+03  0.88081922480E+03  0.26622966571E+04  0.28274539872E+04  0.25500000920E-02 0.  1.
</event>
<event>
 5   0  0.7191801E-08  0.3701579E+04  0.7818609E-02  0.8067612E-01
        2   -1    0    0  501    0  0.00000000000E+00  0.00000000000E+00  0.18331619136E+04  0.18331619136E+04  0.25500000920E-02 0. -1.
       -2   -1    0    0    0  501  0.00000000000E+00  0.00000000000E+00 -0.18685861859E+04  0.18685861859E+04  0.25500000920E-02 0.  1.
    10030    2    1    2    0    0  0.00000000000E+00  0.00000000000E+00 -0.35424272379E+02  0.37017480995E+04  0.37015785975E+04 0.  0.
        5    1    3    3  502    0  0.10752257485E+04  0.82270421102E+02 -0.15219485938E+04  0.18652690006E+04  0.46999998093E+01 0.  1.
       -5    1    3    3    0  502 -0.10752257485E+04 -0.82270421102E+02  0.14865243214E+04  0.18364790989E+04  0.46999998093E+01 0. -1.
</event>
<event>
 5   0  0.7191801E-08  0.3735941E+04  0.7818609E-02  0.8060043E-01
       -2   -1    0    0    0  501  0.00000000000E+00  0.00000000000E+00  0.15217051583E+04  0.15217051583E+04  0.25500000920E-02 0. -1.
        2   -1    0    0  501    0  0.00000000000E+00  0.00000000000E+00 -0.22930286896E+04  0.22930286896E+04  0.25500000920E-02 0.  1.
    10030    2    1    2    0    0  0.00000000000E+00  0.00000000000E+00 -0.77132353129E+03  0.38147338479E+04  0.37359408909E+04 0.  0.
        5    1    3    3  502    0  0.37568029940E+03  0.16770890183E+04 -0.11328937141E+04  0.20584541578E+04  0.46999998093E+01 0.  1.
       -5    1    3    3    0  502 -0.37568029940E+03 -0.16770890183E+04  0.36157018276E+03  0.17562796900E+04  0.46999998093E+01 0. -1.
</event>
<event>
 5   0  0.7254493E-08  0.3700898E+04  0.7818609E-02  0.8067763E-01
        2   -1    0    0  501    0  0.00000000000E+00  0.00000000000E+00  0.15397806209E+04  0.15397806209E+04  0.25500000920E-02 0. -1.
       -2   -1    0    0    0  501  0.00000000000E+00  0.00000000000E+00 -0.22237982375E+04  0.22237982375E+04  0.25500000920E-02 0.  1.
    10030    2    1    2    0    0  0.00000000000E+00  0.00000000000E+00 -0.68401761661E+03  0.37635788584E+04  0.37008979618E+04 0.  0.
        3    1    3    3  502    0 -0.11455955941E+04 -0.93252435874E+03  0.79139458965E+03  0.16757972286E+04  0.10100000352E+00 0. -1.
       -3    1    3    3    0  502  0.11455955941E+04  0.93252435874E+03 -0.14754122063E+04  0.20877816297E+04  0.10100000352E+00 0.  1.
</event>
<event>
 5   0  0.7191801E-08  0.3698147E+04  0.7818609E-02  0.8068373E-01
       -2   -1    0    0    0  501  0.00000000000E+00  0.00000000000E+00  0.12357611931E+04  0.12357611931E+04  0.25500000920E-02 0.  1.
        2   -1    0    0  501    0  0.00000000000E+00  0.00000000000E+00 -0.27667750683E+04  0.27667750683E+04  0.25500000920E-02 0. -1.
    10030    2    1    2    0    0  0.00000000000E+00  0.00000000000E+00 -0.15310138752E+04  0.40025362613E+04  0.36981472439E+04 0.  0.
        5    1    3    3  502    0 -0.16719080729E+04 -0.30445060123E+03  0.23231211910E+02  0.16995671661E+04  0.46999998093E+01 0.  1.
       -5    1    3    3    0  502  0.16719080729E+04  0.30445060123E+03 -0.15542450871E+04  0.23029690953E+04  0.46999998093E+01 0. -1.
</event>
<event>
 5   0  0.7309833E-08  0.3699121E+04  0.7818609E-02  0.8068157E-01
       -2   -1    0    0    0  501  0.00000000000E+00  0.00000000000E+00  0.29333193945E+04  0.29333193945E+04  0.25500000920E-02 0.  1.
        2   -1    0    0  501    0  0.00000000000E+00  0.00000000000E+00 -0.11662125886E+04  0.11662125886E+04  0.25500000920E-02 0. -1.
    10030    2    1    2    0    0  0.00000000000E+00  0.00000000000E+00  0.17671068060E+04  0.40995319831E+04  0.36991209789E+04 0.  0.
        2    1    3    3  502    0 -0.93463380337E+03  0.69570019542E+03 -0.70836427493E+03  0.13635685000E+04  0.25500000920E-02 0. -1.
       -2    1    3    3    0  502  0.93463380337E+03 -0.69570019542E+03  0.24754710809E+04  0.27359634831E+04  0.25500000920E-02 0.  1.
</event>
<event>
 5   0  0.7191801E-08  0.3699786E+04  0.7818609E-02  0.8068009E-01
        2   -1    0    0  501    0  0.00000000000E+00  0.00000000000E+00  0.19700787624E+04  0.19700787625E+04  0.25500000920E-02 0. -1.
       -2   -1    0    0    0  501  0.00000000000E+00  0.00000000000E+00 -0.17370393398E+04  0.17370393398E+04  0.25500000920E-02 0.  1.
    10030    2    1    2    0    0  0.00000000000E+00  0.00000000000E+00  0.23303942269E+03  0.37071181022E+04  0.36997861088E+04 0.  0.
        5    1    3    3  502    0 -0.76267430908E+03 -0.14279645004E+04  0.10134626807E+04  0.19099433005E+04  0.46999998093E+01 0. -1.
       -5    1    3    3    0  502  0.76267430908E+03  0.14279645004E+04 -0.78042325798E+03  0.17971748017E+04  0.46999998093E+01 0.  1.
</event>
<event>
 5   0  0.7309833E-08  0.3698985E+04  0.7818609E-02  0.8068187E-01
        2   -1    0    0  501    0  0.00000000000E+00  0.00000000000E+00  0.16490442973E+04  0.16490442973E+04  0.25500000920E-02 0. -1.
       -2   -1    0    0    0  501  0.00000000000E+00  0.00000000000E+00 -0.20743062571E+04  0.20743062571E+04  0.25500000920E-02 0.  1.
    10030    2    1    2    0    0  0.00000000000E+00  0.00000000000E+00 -0.42526195977E+03  0.37233505544E+04  0.36989852144E+04 0.  0.
        2    1    3    3  502    0 -0.80466651102E+03 -0.11970539193E+04 -0.13779251979E+04  0.19947691924E+04  0.25500000920E-02 0.  1.
       -2    1    3    3    0  502  0.80466651102E+03  0.11970539193E+04  0.95266323817E+03  0.17285813620E+04  0.25500000920E-02 0. -1.
</event>
<event>
 5   0  0.7203049E-08  0.3702691E+04  0.7818609E-02  0.8067366E-01
        2   -1    0    0  501    0  0.00000000000E+00  0.00000000000E+00  0.15122319501E+04  0.15122319501E+04  0.25500000920E-02 0. -1.
       -2   -1    0    0    0  501  0.00000000000E+00  0.00000000000E+00 -0.22665048125E+04  0.22665048125E+04  0.25500000920E-02 0.  1.
    10030    2    1    2    0    0  0.00000000000E+00  0.00000000000E+00 -0.75427286237E+03  0.37787367625E+04  0.37026914494E+04 0.  0.
        4    1    3    3  502    0  0.10395849940E+04 -0.10813935632E+04 -0.14844695551E+04  0.21104029167E+04  0.12699999809E+01 0.  1.
       -4    1    3    3    0  502 -0.10395849940E+04  0.10813935632E+04  0.73019669268E+03  0.16683338458E+04  0.12699999809E+01 0. -1.
</event>
<event>
 5   0  0.7362817E-08  0.3697890E+04  0.7818609E-02  0.8068430E-01
       -2   -1    0    0    0  501  0.00000000000E+00  0.00000000000E+00  0.14505787435E+04  0.14505787435E+04  0.25500000920E-02 0. -1.
        2   -1    0    0  501    0  0.00000000000E+00  0.00000000000E+00 -0.23567130028E+04  0.23567130028E+04  0.25500000920E-02 0.  1.
    10030    2    1    2    0    0  0.00000000000E+00  0.00000000000E+00 -0.90613425935E+03  0.38072917463E+04  0.36978900938E+04 0.  0.
        1    1    3    3  502    0  0.77685196218E+03 -0.13588406508E+04 -0.14663852328E+04  0.21448152686E+04  0.50400001928E-02 0. -1.
       -1    1    3    3    0  502 -0.77685196218E+03  0.13588406508E+04  0.56025097349E+03  0.16624764777E+04  0.50400001928E-02 0.  1.
</event>
<event>
 5   0  0.2282000E-08  0.3694822E+04  0.7818609E-02  0.8069110E-01
        1   -1    0    0  501    0  0.00000000000E+00  0.00000000000E+00  0.25473442550E+04  0.25473442550E+04  0.50400001928E-02 0.  1.
       -1   -1    0    0    0  501  0.00000000000E+00  0.00000000000E+00 -0.13397985755E+04  0.13397985755E+04  0.50400001928E-02 0. -1.
    10030    2    1    2    0    0  0.00000000000E+00  0.00000000000E+00  0.12075456795E+04  0.38871428306E+04  0.36948224338E+04 0.  0.
        1    1    3    3  502    0 -0.17344887722E+04  0.12415921845E+03 -0.52441920788E+02  0.17397174965E+04  0.50400001928E-02 0. -1.
       -1    1    3    3    0  502  0.17344887722E+04 -0.12415921845E+03  0.12599876003E+04  0.21474253341E+04  0.50400001928E-02 0.  1.
</event>
<event>
 5   0  0.2282000E-08  0.3700616E+04  0.7818609E-02  0.8067825E-01
        1   -1    0    0  501    0  0.00000000000E+00  0.00000000000E+00  0.20518922305E+04  0.20518922305E+04  0.50400001928E-02 0. -1.
       -1   -1    0    0    0  501  0.00000000000E+00  0.00000000000E+00 -0.16685280617E+04  0.16685280617E+04  0.50400001928E-02 0.  1.
    10030    2    1    2    0    0  0.00000000000E+00  0.00000000000E+00  0.38336416875E+03  0.37204202922E+04  0.37006160385E+04 0.  0.
        5    1    3    3  502    0 -0.17269055871E+04 -0.37829193332E+03 -0.35741845591E+03  0.18036290462E+04  0.46999998093E+01 0.  1.
       -5    1    3    3    0  502  0.17269055871E+04  0.37829193332E+03  0.74078262467E+03  0.19167912460E+04  0.46999998093E+01 0. -1.
</event>
<event>
 5   0  0.2282000E-08  0.3693367E+04  0.7818609E-02  0.8069433E-01
        1   -1    0    0  501    0  0.00000000000E+00  0.00000000000E+00  0.20258442393E+04  0.20258442393E+04  0.50400001928E-02 0. -1.
       -1   -1    0    0    0  501  0.00000000000E+00  0.00000000000E+00 -0.16833672516E+04  0.16833672516E+04  0.50400001928E-02 0.  1.
    10030    2    1    2    0    0  0.00000000000E+00  0.00000000000E+00  0.34247698770E+03  0.37092114910E+04  0.36933669460E+04 0.  0.
        2    1    3    3  502    0  0.92327872749E+03 -0.14180502882E+04  0.91395805262E+03  0.19231821418E+04  0.25500000920E-02 0. -1.
       -2    1    3    3    0  502 -0.92327872749E+03  0.14180502882E+04 -0.57148106492E+03  0.17860293492E+04  0.25500000920E-02 0.  1.
</event>
<event>
 5   0  0.2282000E-08  0.3705140E+04  0.7818609E-02  0.8066824E-01
        3   -1    0    0  501    0  0.00000000000E+00  0.00000000000E+00  0.27501636918E+04  0.27501636936E+04  0.10100000352E+00 0.  1.
       -3   -1    0    0    0  501  0.00000000000E+00  0.00000000000E+00 -0.12479311193E+04  0.12479311234E+04  0.10100000352E+00 0. -1.
    10030    2    1    2    0    0  0.00000000000E+00  0.00000000000E+00  0.15022325725E+04  0.39980948170E+04  0.37051396012E+04 0.  0.
        2    1    3    3  502    0 -0.61777269619E+03 -0.12699323479E+04 -0.54270451828E+03  0.15129109249E+04  0.25500000920E-02 0. -1.
       -2    1    3    3    0  502  0.61777269619E+03  0.12699323479E+04  0.20449370908E+04  0.24851838921E+04  0.25500000920E-02 0.  1.
</event>
<event>
 5   0  0.7362817E-08  0.3689271E+04  0.7818609E-02  0.8070344E-01
        2   -1    0    0  501    0  0.00000000000E+00  0.00000000000E+00  0.11864678460E+04  0.11864678460E+04  0.25500000920E-02 0. -1.
       -2   -1    0    0    0  501  0.00000000000E+00  0.00000000000E+00 -0.28679073973E+04  0.28679073973E+04  0.25500000920E-02 0.  1.
    10030    2    1    2    0    0  0.00000000000E+00  0.00000000000E+00 -0.16814395514E+04  0.40543752433E+04  0.36892708830E+04 0.  0.
        1    1    3    3  502    0 -0.94618937783E+02  0.12544660510E+03 -0.28605394458E+04  0.28648517440E+04  0.50400001928E-02 0.  1.
       -1    1    3    3    0  502  0.94618937783E+02 -0.12544660510E+03  0.11790998945E+04  0.11895234992E+04  0.50400001928E-02 0. -1.
</event>
<event>
 5   0  0.7203049E-08  0.3702699E+04  0.7818609E-02  0.8067364E-01
       -2   -1    0    0    0  501  0.00000000000E+00  0.00000000000E+00  0.18515945372E+04  0.18515945372E+04  0.25500000920E-02 0.  1.
        2   -1    0    0  501    0  0.00000000000E+00  0.00000000000E+00 -0.18511046519E+04  0.18511046519E+04  0.25500000920E-02 0. -1.
    10030    2    1    2    0    0  0.00000000000E+00  0.00000000000E+00  0.48988527759E+00  0.37026991892E+04  0.37026991568E+04 0.  0.
        4    1    3    3  502    0  0.73678977806E+03  0.62717785949E+03 -0.15781347479E+04  0.18511407672E+04  0.12699999809E+01 0. -1.
       -4    1    3    3    0  502 -0.73678977806E+03 -0.62717785949E+03  0.15786246332E+04  0.18515584220E+04  0.12699999809E+01 0.  1.
</event>
<event>
 5   0  0.2282000E-08  0.3735671E+04  0.7818609E-02  0.8060102E-01
        1   -1    0    0  501    0  0.00000000000E+00  0.00000000000E+00  0.23082658499E+04  0.23082658499E+04  0.50400001928E-02 0.  1.
       -1   -1    0    0    0  501  0.00000000000E+00  0.00000000000E+00 -0.15114418885E+04  0.15114418885E+04  0.50400001928E-02 0. -1.
    10030    2    1    2    0    0  0.00000000000E+00  0.00000000000E+00  0.79682396142E+03  0.38197077384E+04  0.37356711287E+04 0.  0.
        4    1    3    3  502    0 -0.10748314944E+04 -0.92784297124E+03  0.16392402426E+04  0.21687013410E+04  0.12699999809E+01 0.  1.
       -4    1    3    3    0  502  0.10748314944E+04  0.92784297124E+03 -0.84241628119E+03  0.16510063974E+04  0.12699999809E+01 0. -1.
</event>
<event>
 5   0  0.2282000E-08  0.3699162E+04  0.7818609E-02  0.8068148E-01
        1   -1    0    0  501    0  0.00000000000E+00  0.00000000000E+00  0.21020413704E+04  0.21020413704E+04  0.50400001928E-02 0. -1.
       -1   -1    0    0    0  501  0.00000000000E+00  0.00000000000E+00 -0.16274413109E+04  0.16274413109E+04  0.50400001928E-02 0.  1.
    10030    2    1    2    0    0  0.00000000000E+00  0.00000000000E+00  0.47460005952E+03  0.37294826813E+04  0.36991615068E+04 0.  0.
        2    1    3    3  502    0 -0.13556089295E+04 -0.70689119905E+03  0.12867830981E+04  0.19982946426E+04  0.25500000920E-02 0. -1.
       -2    1    3    3    0  502  0.13556089295E+04  0.70689119905E+03 -0.81218303857E+03  0.17311880387E+04  0.25500000920E-02 0.  1.
</event>
<event>
 5   0  0.2282000E-08  0.3704553E+04  0.7818609E-02  0.8066954E-01
       -1   -1    0    0    0  501  0.00000000000E+00  0.00000000000E+00  0.15800009380E+04  0.15800009380E+04  0.50400001928E-02 0. -1.
        1   -1    0    0  501    0  0.00000000000E+00  0.00000000000E+00 -0.21714721874E+04  0.21714721874E+04  0.50400001928E-02 0.  1.
    10030    2    1    2    0    0  0.00000000000E+00  0.00000000000E+00 -0.59147124942E+03  0.37514731254E+04  0.37045529247E+04 0.  0.
        2    1    3    3  502    0  0.69578347100E+03  0.55378151215E+03  0.13496946079E+04  0.16163118933E+04  0.25500000920E-02 0. -1.
       -2    1    3    3    0  502 -0.69578347100E+03 -0.55378151215E+03 -0.19411658573E+04  0.21351612322E+04  0.25500000920E-02 0.  1.
</event>
<event>
 5   0  0.7309833E-08  0.3709692E+04  0.7818609E-02  0.8065817E-01
        2   -1    0    0  501    0  0.00000000000E+00  0.00000000000E+00  0.20143110130E+04  0.20143110130E+04  0.25500000920E-02 0. -1.
       -2   -1    0    0    0  501  0.00000000000E+00  0.00000000000E+00 -0.17080054534E+04  0.17080054534E+04  0.25500000920E-02 0.  1.
    10030    2    1    2    0    0  0.00000000000E+00  0.00000000000E+00  0.30630555966E+03  0.37223164664E+04  0.37096922757E+04 0.  0.
        2    1    3    3  502    0 -0.91576592210E+03  0.77785146197E+03 -0.12647285123E+04  0.17444822529E+04  0.25500000920E-02 0.  1.
       -2    1    3    3    0  502  0.91576592210E+03 -0.77785146197E+03  0.15710340719E+04  0.19778342135E+04  0.25500000920E-02 0. -1.
</event>
<event>
 5   0  0.2282000E-08  0.3679151E+04  0.7818609E-02  0.8072598E-01
       -1   -1    0    0    0  501  0.00000000000E+00  0.00000000000E+00  0.14375907558E+04  0.14375907558E+04  0.50400001928E-02 0.  1.
        1   -1    0    0  501    0  0.00000000000E+00  0.00000000000E+00 -0.23539649552E+04  0.23539649552E+04  0.50400001928E-02 0. -1.
    10030    2    1    2    0    0  0.00000000000E+00  0.00000000000E+00 -0.91637419943E+03  0.37915557110E+04  0.36791511298E+04 0.  0.
        1    1    3    3  502    0 -0.81395837270E+03  0.13836026108E+04  0.46767855249E+03  0.16720070710E+04  0.50400001928E-02 0.  1.
       -1    1    3    3    0  502  0.81395837270E+03 -0.13836026108E+04 -0.13840527519E+04  0.21195486400E+04  0.50400001928E-02 0. -1.
</event>
<event>
 5   0  0.2282000E-08  0.3696474E+04  0.7818609E-02  0.8068744E-01
       -1   -1    0    0    0  501  0.00000000000E+00  0.00000000000E+00  0.19355005636E+04  0.19355005636E+04  0.50400001928E-02 0.  1.
        1   -1    0    0  501    0  0.00000000000E+00  0.00000000000E+00 -0.17649081946E+04  0.17649081946E+04  0.50400001928E-02 0. -1.
    10030    2    1    2    0    0  0.00000000000E+00  0.00000000000E+00  0.17059236901E+03  0.37004087582E+04  0.36964744313E+04 0.  0.
        4    1    3    3  502    0  0.57556131070E+03  0.85065506350E+03  0.16235169259E+04  0.19211178207E+04  0.12699999809E+01 0.  1.
       -4    1    3    3    0  502 -0.57556131070E+03 -0.85065506350E+03 -0.14529245569E+04  0.17792909375E+04  0.12699999809E+01 0. -1.
</event>
<event>
 5   0  0.2282000E-08  0.3701352E+04  0.7818609E-02  0.8067662E-01
        1   -1    0    0  501    0  0.00000000000E+00  0.00000000000E+00  0.18733165832E+04  0.18733165832E+04  0.50400001928E-02 0.  1.
       -1   -1    0    0    0  501  0.00000000000E+00  0.00000000000E+00 -0.18283089183E+04  0.18283089183E+04  0.50400001928E-02 0. -1.
    10030    2    1    2    0    0  0.00000000000E+00  0.00000000000E+00  0.45007664850E+02  0.37016255015E+04  0.37013518697E+04 0.  0.
        3    1    3    3  502    0  0.29486096072E+03 -0.16067945256E+04  0.89220584711E+03  0.18613873637E+04  0.10100000352E+00 0.  1.
       -3    1    3    3    0  502 -0.29486096072E+03  0.16067945256E+04 -0.84719818226E+03  0.18402381378E+04  0.10100000352E+00 0. -1.
</event>
<event>
 5   0  0.2282000E-08  0.3685951E+04  0.7818609E-02  0.8071082E-01
        1   -1    0    0  501    0  0.00000000000E+00  0.00000000000E+00  0.19728922717E+04  0.19728922717E+04  0.50400001928E-02 0.  1.
       -1   -1    0    0    0  501  0.00000000000E+00  0.00000000000E+00 -0.17216135630E+04  0.17216135630E+04  0.50400001928E-02 0. -1.
    10030    2    1    2    0    0  0.00000000000E+00  0.00000000000E+00  0.25127870870E+03  0.36945058347E+04  0.36859506743E+04 0.  0.
        4    1    3    3  502    0 -0.71801090628E+03 -0.22135836299E+03  0.18124051592E+04  0.19619768756E+04  0.12699999809E+01 0.  1.
       -4    1    3    3    0  502  0.71801090628E+03  0.22135836299E+03 -0.15611264505E+04  0.17325289590E+04  0.12699999809E+01 0. -1.
</event>
<event>
 5   0  0.7203049E-08  0.3700230E+04  0.7818609E-02  0.8067911E-01
        2   -1    0    0  501    0  0.00000000000E+00  0.00000000000E+00  0.17982021532E+04  0.17982021532E+04  0.25500000920E-02 0. -1.
       -2   -1    0    0    0  501  0.00000000000E+00  0.00000000000E+00 -0.19035266018E+04  0.19035266018E+04  0.25500000920E-02 0.  1.
    10030    2    1    2    0    0  0.00000000000E+00  0.00000000000E+00 -0.10532444863E+03  0.37017287550E+04  0.37002300653E+04 0.  0.
        4    1    3    3  502    0  0.11845952930E+04 -0.11739426507E+04 -0.85393398419E+03  0.18736627812E+04  0.12699999809E+01 0.  1.
       -4    1    3    3    0  502 -0.11845952930E+04  0.11739426507E+04  0.74860953556E+03  0.18280659739E+04  0.12699999809E+01 0. -1.
</event>
<event>
 5   0  0.7309833E-08  0.3639229E+04  0.7818609E-02  0.8081564E-01
        2   -1    0    0  501    0  0.00000000000E+00  0.00000000000E+00  0.20985524363E+04  0.20985524363E+04  0.25500000920E-02 0. -1.
       -2   -1    0    0    0  501  0.00000000000E+00  0.00000000000E+00 -0.15777530700E+04  0.15777530700E+04  0.25500000920E-02 0.  1.
    10030    2    1    2    0    0  0.00000000000E+00  0.00000000000E+00  0.52079936635E+03  0.36763055063E+04  0.36392293409E+04 0.  0.
        2    1    3    3  502    0  0.28528011666E+03 -0.15469779681E+04  0.11843058495E+04  0.19690368010E+04  0.25500000920E-02 0. -1.
       -2    1    3    3    0  502 -0.28528011666E+03  0.15469779681E+04 -0.66350648316E+03  0.17072687052E+04  0.25500000920E-02 0.  1.
</event>
<event>
 5   0  0.7191801E-08  0.3698267E+04  0.7818609E-02  0.8068346E-01
       -2   -1    0    0    0  501  0.00000000000E+00  0.00000000000E+00  0.13562544472E+04  0.13562544472E+04  0.25500000920E-02 0.  1.
        2   -1    0    0  501    0  0.00000000000E+00  0.00000000000E+00 -0.25211313165E+04  0.25211313165E+04  0.25500000920E-02 0. -1.
    10030    2    1    2    0    0  0.00000000000E+00  0.00000000000E+00 -0.11648768693E+04  0.38773857638E+04  0.36982674647E+04 0.  0.
        5    1    3    3  502    0  0.85075419033E+03 -0.50937351238E+03 -0.22188101251E+04  0.24303054394E+04  0.46999998093E+01 0. -1.
       -5    1    3    3    0  502 -0.85075419033E+03  0.50937351238E+03  0.10539332558E+04  0.14470803244E+04  0.46999998093E+01 0.  1.
</event>
<event>
 5   0  0.7254493E-08  0.3696190E+04  0.7818609E-02  0.8068807E-01
       -2   -1    0    0    0  501  0.00000000000E+00  0.00000000000E+00  0.21153563451E+04  0.21153563451E+04  0.25500000920E-02 0. -1.
        2   -1    0    0  501    0  0.00000000000E+00  0.00000000000E+00 -0.16146000717E+04  0.16146000717E+04  0.25500000920E-02 0.  1.
    10030    2    1    2    0    0  0.00000000000E+00  0.00000000000E+00  0.50075627338E+03  0.37299564168E+04  0.36961896631E+04 0.  0.
        3    1    3    3  502    0  0.84991102043E+03  0.78262487372E+03  0.17059854536E+04  0.20603972466E+04  0.10100000352E+00 0. -1.
       -3    1    3    3    0  502 -0.84991102043E+03 -0.78262487372E+03 -0.12052291803E+04  0.16695591702E+04  0.10100000352E+00 0.  1.
</event>
<event>
 5   0  0.7362817E-08  0.3705117E+04  0.7818609E-02  0.8066829E-01
       -2   -1    0    0    0  501  0.00000000000E+00  0.00000000000E+00  0.19209271170E+04  0.19209271170E+04  0.25500000920E-02 0.  1.
        2   -1    0    0  501    0  0.00000000000E+00  0.00000000000E+00 -0.17866236212E+04  0.17866236212E+04  0.25500000920E-02 0. -1.
    10030    2    1    2    0    0  0.00000000000E+00  0.00000000000E+00  0.13430349588E+03  0.37075507382E+04  0.37051174134E+04 0.  0.
        1    1    3    3  502    0  0.12911516624E+04  0.94583357857E+03 -0.86635963243E+03  0.18199595563E+04  0.50400001928E-02 0. -1.
       -1    1    3    3    0  502 -0.12911516624E+04 -0.94583357857E+03  0.10006631283E+04  0.18875911819E+04  0.50400001928E-02 0.  1.
</event>
<event>
 5   0  0.2282000E-08  0.3701164E+04  0.7818609E-02  0.8067704E-01
        1   -1    0    0  501    0  0.00000000000E+00  0.00000000000E+00  0.11201233589E+04  0.11201233589E+04  0.50400001928E-02 0.  1.
       -1   -1    0    0    0  501  0.00000000000E+00  0.00000000000E+00 -0.30573895605E+04  0.30573895605E+04  0.50400001928E-02 0. -1.
    10030    2    1    2    0    0  0.00000000000E+00  0.00000000000E+00 -0.19372662016E+04  0.41775129194E+04  0.37011638516E+04 0.  0.
        3    1    3    3  502    0 -0.10581317611E+04  0.24627923939E+03 -0.26595625022E+04  0.28729025394E+04  0.10100000352E+00 0. -1.
       -3    1    3    3    0  502  0.10581317611E+04 -0.24627923939E+03  0.72229630060E+03  0.13046103800E+04  0.10100000352E+00 0.  1.
</event>
<event>
 5   0  0.2282000E-08  0.3702335E+04  0.7818609E-02  0.8067444E-01
        1   -1    0    0  501    0  0.00000000000E+00  0.00000000000E+00  0.12131285979E+04  0.12131285979E+04  0.50400001928E-02 0. -1.
       -1   -1    0    0    0  501  0.00000000000E+00  0.00000000000E+00 -0.28247804651E+04  0.28247804651E+04  0.50400001928E-02 0.  1.
    10030    2    1    2    0    0  0.00000000000E+00  0.00000000000E+00 -0.16116518672E+04  0.40379090630E+04  0.37023354602E+04 0.  0.
        3    1    3    3  502    0 -0.18452936056E+04  0.12536115484E+03 -0.72135921581E+03  0.19852413048E+04  0.10100000352E+00 0. -1.
       -3    1    3    3    0  502  0.18452936056E+04 -0.12536115484E+03 -0.89029265136E+03  0.20526677581E+04  0.10100000352E+00 0.  1.
</event>
<event>
 5   0  0.7191801E-08  0.3677652E+04  0.7818609E-02  0.8072932E-01
        2   -1    0    0  501    0  0.00000000000E+00  0.00000000000E+00  0.17586672539E+04  0.17586672540E+04  0.25500000920E-02 0. -1.
       -2   -1    0    0    0  501  0.00000000000E+00  0.00000000000E+00 -0.19226384739E+04  0.19226384739E+04  0.25500000920E-02 0.  1.
    10030    2    1    2    0    0  0.00000000000E+00  0.00000000000E+00 -0.16397121997E+03  0.36813057279E+04  0.36776521452E+04 0.  0.
        5    1    3    3  502    0 -0.10033349208E+04 -0.86044127671E+03 -0.13616213946E+04  0.18976498797E+04  0.46999998093E+01 0.  1.
       -5    1    3    3    0  502  0.10033349208E+04  0.86044127671E+03  0.11976501746E+04  0.17836558481E+04  0.46999998093E+01 0. -1.
</event>
<event>
 5   0  0.2282000E-08  0.3708304E+04  0.7818609E-02  0.8066124E-01
       -1   -1    0    0    0  501  0.00000000000E+00  0.00000000000E+00  0.16651136863E+04  0.16651136863E+04  0.50400001928E-02 0.  1.
        1   -1    0    0  501    0  0.00000000000E+00  0.00000000000E+00 -0.20646513193E+04  0.20646513193E+04  0.50400001928E-02 0. -1.
    10030    2    1    2    0    0  0.00000000000E+00  0.00000000000E+00 -0.39953763303E+03  0.37297650056E+04  0.37083037466E+04 0.  0.
        4    1    3    3  502    0 -0.11271721308E+03 -0.15008888539E+04 -0.12888582087E+04  0.19815472785E+04  0.12699999809E+01 0. -1.
       -4    1    3    3    0  502  0.11271721308E+03  0.15008888539E+04  0.88932057570E+03  0.17482177271E+04  0.12699999809E+01 0.  1.
</event>
<event>
 5   0  0.7362817E-08  0.3706311E+04  0.7818609E-02  0.8066565E-01
       -2   -1    0    0    0  501  0.00000000000E+00  0.00000000000E+00  0.11575865894E+04  0.11575865894E+04  0.25500000920E-02 0.  1.
        2   -1    0    0  501    0  0.00000000000E+00  0.00000000000E+00 -0.29666775192E+04  0.29666775192E+04  0.25500000920E-02 0. -1.
    10030    2    1    2    0    0  0.00000000000E+00  0.00000000000E+00 -0.18090909298E+04  0.41242641086E+04  0.37063114339E+04 0.  0.
        1    1    3    3  502    0  0.55340455337E+03 -0.89830311524E+03  0.79073030291E+03  0.13185065409E+04  0.50400001928E-02 0.  1.
       -1    1    3    3    0  502 -0.55340455337E+03  0.89830311524E+03 -0.25998212327E+04  0.28057575676E+04  0.50400001928E-02 0. -1.
</event>
<event>
 5   0  0.7254493E-08  0.3697092E+04  0.7818609E-02  0.8068607E-01
       -2   -1    0    0    0  501  0.00000000000E+00  0.00000000000E+00  0.12748906312E+04  0.12748906312E+04  0.25500000920E-02 0. -1.
        2   -1    0    0  501    0  0.00000000000E+00  0.00000000000E+00 -0.26803254792E+04  0.26803254792E+04  0.25500000920E-02 0.  1.
    10030    2    1    2    0    0  0.00000000000E+00  0.00000000000E+00 -0.14054348480E+04  0.39552161104E+04  0.36970917446E+04 0.  0.
        3    1    3    3  502    0  0.98551057394E+03  0.15426843007E+04 -0.42784306596E+03  0.18799350101E+04  0.10100000352E+00 0.  1.
       -3    1    3    3    0  502 -0.98551057394E+03 -0.15426843007E+04 -0.97759178206E+03  0.20752811003E+04  0.10100000352E+00 0. -1.
</event>
<event>
 5   0  0.2282000E-08  0.3698684E+04  0.7818609E-02  0.8068253E-01
       -1   -1    0    0    0  501  0.00000000000E+00  0.00000000000E+00  0.19580513955E+04  0.19580513955E+04  0.50400001928E-02 0. -1.
        1   -1    0    0  501    0  0.00000000000E+00  0.00000000000E+00 -0.17466682153E+04  0.17466682153E+04  0.50400001928E-02 0.  1.
    10030    2    1    2    0    0  0.00000000000E+00  0.00000000000E+00  0.21138318023E+03  0.37047196108E+04  0.36986841641E+04 0.  0.
        3    1    3    3  502    0  0.23658557784E+03  0.17886084464E+04  0.51252331942E+03  0.18755727321E+04  0.10100000352E+00 0.  1.
       -3    1    3    3    0  502 -0.23658557784E+03 -0.17886084464E+04 -0.30114013919E+03  0.18291468787E+04  0.10100000352E+00 0. -1.
</event>
<event>
 5   0  0.7254493E-08  0.3701322E+04  0.7818609E-02  0.8067669E-01
       -2   -1    0    0    0  501  0.00000000000E+00  0.00000000000E+00  0.22126032325E+04  0.22126032325E+04  0.25500000920E-02 0. -1.
        2   -1    0    0  501    0  0.00000000000E+00  0.00000000000E+00 -0.15479261646E+04  0.15479261646E+04  0.25500000920E-02 0.  1.
    10030    2    1    2    0    0  0.00000000000E+00  0.00000000000E+00  0.66467706792E+03  0.37605293971E+04  0.37013221613E+04 0.  0.
        3    1    3    3  502    0  0.15744550541E+04  0.30580899294E+03  0.12704274916E+04  0.20460727942E+04  0.10100000352E+00 0. -1.
       -3    1    3    3    0  502 -0.15744550541E+04 -0.30580899294E+03 -0.60575042369E+03  0.17144566029E+04  0.10100000352E+00 0.  1.
</event>
<event>
 5   0  0.7362817E-08  0.3695344E+04  0.7818609E-02  0.8068994E-01
        2   -1    0    0  501    0  0.00000000000E+00  0.00000000000E+00  0.20879209506E+04  0.20879209506E+04  0.25500000920E-02 0.  1.
       -2   -1    0    0    0  501  0.00000000000E+00  0.00000000000E+00 -0.16350678158E+04  0.16350678158E+04  0.25500000920E-02 0. -1.
    10030    2    1    2    0    0  0.00000000000E+00  0.00000000000E+00  0.45285313479E+03  0.37229887665E+04  0.36953442862E+04 0.  0.
        1    1    3    3  502    0  0.56194557958E+03 -0.78216464930E+03 -0.13621788064E+04  0.16682612126E+04  0.50400001928E-02 0. -1.
       -1    1    3    3    0  502 -0.56194557958E+03  0.78216464930E+03  0.18150319412E+04  0.20547275538E+04  0.50400001928E-02 0.  1.
</event>
<event>
 5   0  0.2282000E-08  0.3709415E+04  0.7818609E-02  0.8065878E-01
       -1   -1    0    0    0  501  0.00000000000E+00  0.00000000000E+00  0.23017297662E+04  0.23017297662E+04  0.50400001928E-02 0.  1.
        1   -1    0    0  501    0  0.00000000000E+00  0.00000000000E+00 -0.14945022995E+04  0.14945022995E+04  0.50400001928E-02 0. -1.
    10030    2    1    2    0    0  0.00000000000E+00  0.00000000000E+00  0.80722746674E+03  0.37962320657E+04  0.37094152792E+04 0.  0.
        4    1    3    3  502    0  0.97177755058E+03  0.15458485164E+04  0.70512375001E+02  0.18272856513E+04  0.12699999809E+01 0. -1.
       -4    1    3    3    0  502 -0.97177755058E+03 -0.15458485164E+04  0.73671509173E+03  0.19689464144E+04  0.12699999809E+01 0.  1.
</event>
<event>
 5   0  0.7203049E-08  0.3691890E+04  0.7818609E-02  0.8069761E-01
        2   -1    0    0  501    0  0.00000000000E+00  0.00000000000E+00  0.25563276741E+04  0.25563276741E+04  0.25500000920E-02 0.  1.
       -2   -1    0    0    0  501  0.00000000000E+00  0.00000000000E+00 -0.13329720439E+04  0.13329720439E+04  0.25500000920E-02 0. -1.
    10030    2    1    2    0    0  0.00000000000E+00  0.00000000000E+00  0.12233556302E+04  0.38892997180E+04  0.36918902067E+04 0.  0.
        4    1    3    3  502    0 -0.11945965959E+04  0.47157598308E+03  0.20084974093E+04  0.23840109879E+04  0.12699999809E+01 0.  1.
       -4    1    3    3    0  502  0.11945965959E+04 -0.47157598308E+03 -0.78514177910E+03  0.15052887301E+04  0.12699999809E+01 0. -1.
</event>
<event>
 5   0  0.7309833E-08  0.3686955E+04  0.7818609E-02  0.8070859E-01
       -2   -1    0    0    0  501  0.00000000000E+00  0.00000000000E+00  0.15627992301E+04  0.15627992301E+04  0.25500000920E-02 0. -1.
        2   -1    0    0  501    0  0.00000000000E+00  0.00000000000E+00 -0.21745651634E+04  0.21745651634E+04  0.25500000920E-02 0.  1.
    10030    2    1    2    0    0  0.00000000000E+00  0.00000000000E+00 -0.61176593325E+03  0.37373643935E+04  0.36869547126E+04 0.  0.
        2    1    3    3  502    0  0.14881874756E+04 -0.10475575893E+04 -0.60371969565E+03  0.19174348324E+04  0.25500000920E-02 0.  1.
       -2    1    3    3    0  502 -0.14881874756E+04  0.10475575893E+04 -0.80462376023E+01  0.18199295611E+04  0.25500000920E-02 0. -1.
</event>
<event>
 5   0  0.2282000E-08  0.3701056E+04  0.7818609E-02  0.8067728E-01
        1   -1    0    0  501    0  0.00000000000E+00  0.00000000000E+00  0.18093221118E+04  0.18093221118E+04  0.50400001928E-02 0. -1.
       -1   -1    0    0    0  501  0.00000000000E+00  0.00000000000E+00 -0.18926721309E+04  0.18926721309E+04  0.50400001928E-02 0.  1.
    10030    2    1    2    0    0  0.00000000000E+00  0.00000000000E+00 -0.83350019119E+02  0.37019942427E+04  0.37010558152E+04 0.  0.
        3    1    3    3  502    0 -0.15772144286E+04 -0.16175939108E+02 -0.10096943934E+04  0.18727919781E+04  0.10100000352E+00 0.  1.
       -3    1    3    3    0  502  0.15772144286E+04  0.16175939108E+02  0.92634437430E+03  0.18292022646E+04  0.10100000352E+00 0. -1.
</event>
<event>
 5   0  0.2282000E-08  0.3685980E+04  0.7818609E-02  0.8071076E-01
       -1   -1    0    0    0  501  0.00000000000E+00  0.00000000000E+00  0.20366721790E+04  0.20366721790E+04  0.50400001928E-02 0. -1.
        1   -1    0    0  501    0  0.00000000000E+00  0.00000000000E+00 -0.16677263409E+04  0.16677263409E+04  0.50400001928E-02 0.  1.
    10030    2    1    2    0    0  0.00000000000E+00  0.00000000000E+00  0.36894583817E+03  0.37043985199E+04  0.36859798375E+04 0.  0.
        4    1    3    3  502    0  0.34658245169E+03  0.17955953456E+04  0.41436954109E+03  0.18750962030E+04  0.12699999809E+01 0. -1.
       -4    1    3    3    0  502 -0.34658245169E+03 -0.17955953456E+04 -0.45423702926E+02  0.18293023169E+04  0.12699999809E+01 0.  1.
</event>
<event>
 5   0  0.2282000E-08  0.3689599E+04  0.7818609E-02  0.8070271E-01
       -1   -1    0    0    0  501  0.00000000000E+00  0.00000000000E+00  0.15462906973E+04  0.15462906973E+04  0.50400001928E-02 0.  1.
        1   -1    0    0  501    0  0.00000000000E+00  0.00000000000E+00 -0.22009351628E+04  0.22009351628E+04  0.50400001928E-02 0. -1.
    10030    2    1    2    0    0  0.00000000000E+00  0.00000000000E+00 -0.65464446545E+03  0.37472258601E+04  0.36895992019E+04 0.  0.
        5    1    3    3  502    0  0.71773167820E+03 -0.10848339731E+04 -0.16559051808E+04  0.21057178275E+04  0.46999998093E+01 0. -1.
       -5    1    3    3    0  502 -0.71773167820E+03  0.10848339731E+04  0.10012607154E+04  0.16415080326E+04  0.46999998093E+01 0.  1.
</event>
<event>
 5   0  0.2282000E-08  0.3670106E+04  0.7818609E-02  0.8074619E-01
        1   -1    0    0  501    0  0.00000000000E+00  0.00000000000E+00  0.32823083833E+04  0.32823083833E+04  0.50400001928E-02 0. -1.
       -1   -1    0    0    0  501  0.00000000000E+00  0.00000000000E+00 -0.10259300756E+04  0.10259300756E+04  0.50400001928E-02 0.  1.
    10030    2    1    2    0    0  0.00000000000E+00  0.00000000000E+00  0.22563783077E+04  0.43082384589E+04  0.36701056595E+04 0.  0.
        4    1    3    3  502    0 -0.18040618771E+04 -0.25645918539E+03  0.87368136935E+03  0.20208244155E+04  0.12699999809E+01 0. -1.
       -4    1    3    3    0  502  0.18040618771E+04  0.25645918539E+03  0.13826969383E+04  0.22874140435E+04  0.12699999809E+01 0.  1.
</event>
<event>
 5   0  0.2282000E-08  0.3702019E+04  0.7818609E-02  0.8067515E-01
       -1   -1    0    0    0  501  0.00000000000E+00  0.00000000000E+00  0.15002694478E+04  0.15002694478E+04  0.50400001928E-02 0.  1.
        1   -1    0    0  501    0  0.00000000000E+00  0.00000000000E+00 -0.22837469601E+04  0.22837469601E+04  0.50400001928E-02 0. -1.
    10030    2    1    2    0    0  0.00000000000E+00  0.00000000000E+00 -0.78347751231E+03  0.37840164079E+04  0.37020187956E+04 0.  0.
        1    1    3    3  502    0  0.19592882847E+03 -0.88792337632E+02  0.14874499924E+04  0.15029237056E+04  0.50400001928E-02 0.  1.
       -1    1    3    3    0  502 -0.19592882847E+03  0.88792337632E+02 -0.22709275047E+04  0.22810927023E+04  0.50400001928E-02 0. -1.
</event>
<event>
 5   0  0.7191801E-08  0.3684916E+04  0.7818609E-02  0.8071313E-01
        2   -1    0    0  501    0  0.00000000000E+00  0.00000000000E+00  0.16756184833E+04  0.16756184833E+04  0.25500000920E-02 0. -1.
       -2   -1    0    0    0  501  0.00000000000E+00  0.00000000000E+00 -0.20259096432E+04  0.20259096432E+04  0.25500000920E-02 0.  1.
    10030    2    1    2    0    0  0.00000000000E+00  0.00000000000E+00 -0.35029115988E+03  0.37015281264E+04  0.36849160878E+04 0.  0.
        5    1    3    3  502    0  0.17795541944E+04 -0.11493576097E+03 -0.64049007108E+03  0.18948015677E+04  0.46999998093E+01 0.  1.
       -5    1    3    3    0  502 -0.17795541944E+04  0.11493576097E+03  0.29019891119E+03  0.18067265587E+04  0.46999998093E+01 0. -1.
</event>
<event>
 5   0  0.2282000E-08  0.3692407E+04  0.7818609E-02  0.8069647E-01
        1   -1    0    0  501    0  0.00000000000E+00  0.00000000000E+00  0.17656708314E+04  0.17656708314E+04  0.50400001928E-02 0. -1.
       -1   -1    0    0    0  501  0.00000000000E+00  0.00000000000E+00 -0.19304089761E+04  0.19304089761E+04  0.50400001928E-02 0.  1.
    10030    2    1    2    0    0  0.00000000000E+00  0.00000000000E+00 -0.16473814474E+03  0.36960798075E+04  0.36924067066E+04 0.  0.
        4    1    3    3  502    0 -0.79990350771E+03 -0.98518091034E+03  0.12598742791E+04  0.17882147130E+04  0.12699999809E+01 0. -1.
       -4    1    3    3    0  502  0.79990350771E+03  0.98518091034E+03 -0.14246124238E+04  0.19078650945E+04  0.12699999809E+01 0.  1.
</event>
<event>
 5   0  0.2282000E-08  0.3705562E+04  0.7818609E-02  0.8066730E-01
        1   -1    0    0  501    0  0.00000000000E+00  0.00000000000E+00  0.11807094601E+04  0.11807094602E+04  0.50400001928E-02 0.  1.
       -1   -1    0    0    0  501  0.00000000000E+00  0.00000000000E+00 -0.29074022277E+04  0.29074022277E+04  0.50400001928E-02 0. -1.
    10030    2    1    2    0    0  0.00000000000E+00  0.00000000000E+00 -0.17266927675E+04  0.40881116878E+04  0.37055619356E+04 0.  0.
        2    1    3    3  502    0 -0.48531671169E+03  0.17475704619E+04 -0.44577097458E+03  0.18676848213E+04  0.25500000920E-02 0. -1.
       -2    1    3    3    0  502  0.48531671169E+03 -0.17475704619E+04 -0.12809217929E+04  0.22204268665E+04  0.25500000920E-02 0.  1.
</event>
<event>
 5   0  0.7254493E-08  0.3700873E+04  0.7818609E-02  0.8067768E-01
       -2   -1    0    0    0  501  0.00000000000E+00  0.00000000000E+00  0.15894368720E+04  0.15894368720E+04  0.25500000920E-02 0.  1.
        2   -1    0    0  501    0  0.00000000000E+00  0.00000000000E+00 -0.21542950807E+04  0.21542950807E+04  0.25500000920E-02 0. -1.
    10030    2    1    2    0    0  0.00000000000E+00  0.00000000000E+00 -0.56485820869E+03  0.37437319527E+04  0.37008734290E+04 0.  0.
        3    1    3    3  502    0  0.10353065785E+04  0.62086399387E+03  0.11362326824E+04  0.16578167961E+04  0.10100000352E+00 0.  1.
       -3    1    3    3    0  502 -0.10353065785E+04 -0.62086399387E+03 -0.17010908911E+04  0.20859151566E+04  0.10100000352E+00 0. -1.
</event>
<event>
 5   0  0.7254493E-08  0.3709816E+04  0.7818609E-02  0.8065790E-01
       -2   -1    0    0    0  501  0.00000000000E+00  0.00000000000E+00  0.26311102186E+04  0.26311102186E+04  0.25500000920E-02 0. -1.
        2   -1    0    0  501    0  0.00000000000E+00  0.00000000000E+00 -0.13076924355E+04  0.13076924355E+04  0.25500000920E-02 0.  1.
    10030    2    1    2    0    0  0.00000000000E+00  0.00000000000E+00  0.13234177831E+04  0.39388026541E+04  0.37098155910E+04 0.  0.
        3    1    3    3  502    0  0.94757089506E+03  0.15536065945E+04  0.10431900711E+04  0.20975770751E+04  0.10100000352E+00 0.  1.
       -3    1    3    3    0  502 -0.94757089506E+03 -0.15536065945E+04  0.28022771204E+03  0.18412255789E+04  0.10100000352E+00 0. -1.
</event>
<event>
 5   0  0.2282000E-08  0.3699055E+04  0.7818609E-02  0.8068171E-01
       -1   -1    0    0    0  501  0.00000000000E+00  0.00000000000E+00  0.18785559707E+04  0.18785559707E+04  0.50400001928E-02 0.  1.
        1   -1    0    0  501    0  0.00000000000E+00  0.00000000000E+00 -0.18209475940E+04  0.18209475940E+04  0.50400001928E-02 0. -1.
    10030    2    1    2    0    0  0.00000000000E+00  0.00000000000E+00  0.57608376699E+02  0.36995035648E+04  0.36990550010E+04 0.  0.
        5    1    3    3  502    0  0.87892550348E+02  0.26981225486E+03 -0.17990405199E+04  0.18212887293E+04  0.46999998093E+01 0. -1.
       -5    1    3    3    0  502 -0.87892550348E+02 -0.26981225486E+03  0.18566488966E+04  0.18782148355E+04  0.46999998093E+01 0.  1.
</event>
<event>
 5   0  0.7191801E-08  0.3700239E+04  0.7818609E-02  0.8067909E-01
       -2   -1    0    0    0  501  0.00000000000E+00  0.00000000000E+00  0.20448683310E+04  0.20448683310E+04  0.25500000920E-02 0. -1.
        2   -1    0    0  501    0  0.00000000000E+00  0.00000000000E+00 -0.16739177450E+04  0.16739177450E+04  0.25500000920E-02 0.  1.
    10030    2    1    2    0    0  0.00000000000E+00  0.00000000000E+00  0.37095058603E+03  0.37187860759E+04  0.37002385790E+04 0.  0.
        5    1    3    3  502    0  0.54749089637E+03  0.58653796380E+03 -0.14899581062E+04  0.16922678018E+04  0.46999998093E+01 0.  1.
       -5    1    3    3    0  502 -0.54749089637E+03 -0.58653796380E+03  0.18609086923E+04  0.20265182742E+04  0.46999998093E+01 0. -1.
</event>
<event>
 5   0  0.7254493E-08  0.3699450E+04  0.7818609E-02  0.8068084E-01
        2   -1    0    0  501    0  0.00000000000E+00  0.00000000000E+00  0.25878442442E+04  0.25878442442E+04  0.25500000920E-02 0. -1.
       -2   -1    0    0    0  501  0.00000000000E+00  0.00000000000E+00 -0.13221361053E+04  0.13221361053E+04  0.25500000920E-02 0.  1.
    10030    2    1    2    0    0  0.00000000000E+00  0.00000000000E+00  0.12657081389E+04  0.39099803494E+04  0.36994498564E+04 0.  0.
        3    1    3    3  502    0 -0.18077446351E+04  0.29406514349E+03  0.35914264567E+03  0.18663864617E+04  0.10100000352E+00 0.  1.
       -3    1    3    3    0  502  0.18077446351E+04 -0.29406514349E+03  0.90656549320E+03  0.20435938877E+04  0.10100000352E+00 0. -1.
</event>
<event>
 5   0  0.2282000E-08  0.3724497E+04  0.7818609E-02  0.8062555E-01
        1   -1    0    0  501    0  0.00000000000E+00  0.00000000000E+00  0.15193179991E+04  0.15193179991E+04  0.50400001928E-02 0.  1.
       -1   -1    0    0    0  501  0.00000000000E+00  0.00000000000E+00 -0.22825830251E+04  0.22825830251E+04  0.50400001928E-02 0. -1.
    10030    2    1    2    0    0  0.00000000000E+00  0.00000000000E+00 -0.76326502601E+03  0.38019010242E+04  0.37244969993E+04 0.  0.
        3    1    3    3  502    0  0.78849018946E+03  0.16298681266E+04  0.63061564450E+02  0.18116742699E+04  0.10100000352E+00 0. -1.
       -3    1    3    3    0  502 -0.78849018946E+03 -0.16298681266E+04 -0.82632659046E+03  0.19902267543E+04  0.10100000352E+00 0.  1.
</event>
<event>
 5   0  0.2282000E-08  0.3694288E+04  0.7818609E-02  0.8069229E-01
       -1   -1    0    0    0  501  0.00000000000E+00  0.00000000000E+00  0.13797385696E+04  0.13797385696E+04  0.50400001928E-02 0. -1.
        1   -1    0    0  501    0  0.00000000000E+00  0.00000000000E+00 -0.24728893488E+04  0.24728893489E+04  0.50400001928E-02 0.  1.
    10030    2    1    2    0    0  0.00000000000E+00  0.00000000000E+00 -0.10931507793E+04  0.38526279184E+04  0.36942879221E+04 0.  0.
        3    1    3    3  502    0  0.95958765011E+03 -0.56653206496E+03  0.98971594797E+03  0.14904042092E+04  0.10100000352E+00 0. -1.
       -3    1    3    3    0  502 -0.95958765011E+03  0.56653206496E+03 -0.20828667272E+04  0.23622237093E+04  0.10100000352E+00 0.  1.
</event>
<event>
 5   0  0.2282000E-08  0.3680082E+04  0.7818609E-02  0.8072390E-01
        1   -1    0    0  501    0  0.00000000000E+00  0.00000000000E+00  0.22158392512E+04  0.22158392512E+04  0.50400001928E-02 0. -1.
       -1   -1    0    0    0  501  0.00000000000E+00  0.00000000000E+00 -0.15279771158E+04  0.15279771158E+04  0.50400001928E-02 0.  1.
    10030    2    1    2    0    0  0.00000000000E+00  0.00000000000E+00  0.68786213541E+03  0.37438163670E+04  0.36800824274E+04 0.  0.
        4    1    3    3  502    0 -0.11901504470E+03  0.61900731745E+03  0.21025732117E+04  0.21950285564E+04  0.12699999809E+01 0. -1.
       -4    1    3    3    0  502  0.11901504470E+03 -0.61900731745E+03 -0.14147110763E+04  0.15487878106E+04  0.12699999809E+01 0.  1.
</event>
<event>
 5   0  0.7362817E-08  0.3697747E+04  0.7818609E-02  0.8068461E-01
        2   -1    0    0  501    0  0.00000000000E+00  0.00000000000E+00  0.22647957299E+04  0.22647957299E+04  0.25500000920E-02 0.  1.
       -2   -1    0    0    0  501  0.00000000000E+00  0.00000000000E+00 -0.15093343579E+04  0.15093343579E+04  0.25500000920E-02 0. -1.
    10030    2    1    2    0    0  0.00000000000E+00  0.00000000000E+00  0.75546137193E+03  0.37741300878E+04  0.36977474272E+04 0.  0.
        1    1    3    3  502    0  0.90324743812E+01  0.98913722911E+03 -0.12165400426E+04  0.15679425113E+04  0.50400001928E-02 0. -1.
       -1    1    3    3    0  502 -0.90324743812E+01 -0.98913722911E+03  0.19720014145E+04  0.22061875765E+04  0.50400001928E-02 0.  1.
</event>
<event>
 5   0  0.2282000E-08  0.3678224E+04  0.7818609E-02  0.8072805E-01
        4   -1    0    0  501    0  0.00000000000E+00  0.00000000000E+00  0.16133695289E+04  0.16133700288E+04  0.12699999809E+01 0.  1.
       -4   -1    0    0    0  501  0.00000000000E+00  0.00000000000E+00 -0.20964387753E+04  0.20964391600E+04  0.12699999809E+01 0. -1.
    10030    2    1    2    0    0  0.00000000000E+00  0.00000000000E+00 -0.48306924642E+03  0.37098091888E+04  0.36782235278E+04 0.  0.
        1    1    3    3  502    0  0.14772400020E+04  0.81977000677E+03  0.49139064176E+03  0.17594674338E+04  0.50400001928E-02 0.  1.
       -1    1    3    3    0  502 -0.14772400020E+04 -0.81977000677E+03 -0.97445988818E+03  0.19503417550E+04  0.50400001928E-02 0. -1.
</event>
<event>
 5   0  0.7309833E-08  0.3702618E+04  0.7818609E-02  0.8067382E-01
       -2   -1    0    0    0  501  0.00000000000E+00  0.00000000000E+00  0.11165758609E+04  0.11165758609E+04  0.25500000920E-02 0. -1.
        2   -1    0    0  501    0  0.00000000000E+00  0.00000000000E+00 -0.30695139614E+04  0.30695139614E+04  0.25500000920E-02 0.  1.
    10030    2    1    2    0    0  0.00000000000E+00  0.00000000000E+00 -0.19529381004E+04  0.41860898223E+04  0.37026180975E+04 0.  0.
        2    1    3    3  502    0 -0.61687095697E+03 -0.12451062743E+04 -0.23595312918E+04  0.27382854725E+04  0.25500000920E-02 0.  1.
       -2    1    3    3    0  502  0.61687095697E+03  0.12451062743E+04  0.40659319140E+03  0.14478043498E+04  0.25500000920E-02 0. -1.
</event>
<event>
 5   0  0.7254493E-08  0.3725936E+04  0.7818609E-02  0.8062238E-01
       -2   -1    0    0    0  501  0.00000000000E+00  0.00000000000E+00  0.27385544300E+04  0.27385544300E+04  0.25500000920E-02 0.  1.
        2   -1    0    0  501    0  0.00000000000E+00  0.00000000000E+00 -0.12673290728E+04  0.12673290728E+04  0.25500000920E-02 0. -1.
    10030    2    1    2    0    0  0.00000000000E+00  0.00000000000E+00  0.14712253571E+04  0.40058835028E+04  0.37259359343E+04 0.  0.
        3    1    3    3  502    0 -0.20067314150E+03 -0.11281726487E+03 -0.12519775989E+04  0.12729671493E+04  0.10100000352E+00 0. -1.
       -3    1    3    3    0  502  0.20067314150E+03  0.11281726487E+03  0.27232029560E+04  0.27329163534E+04  0.10100000352E+00 0.  1.
</event>
<event>
 5   0  0.2282000E-08  0.3699589E+04  0.7818609E-02  0.8068053E-01
       -1   -1    0    0    0  501  0.00000000000E+00  0.00000000000E+00  0.12743961481E+04  0.12743961481E+04  0.50400001928E-02 0.  1.
        1   -1    0    0  501    0  0.00000000000E+00  0.00000000000E+00 -0.26849886454E+04  0.26849886454E+04  0.50400001928E-02 0. -1.
    10030    2    1    2    0    0  0.00000000000E+00  0.00000000000E+00 -0.14105924973E+04  0.39593847935E+04  0.36995887271E+04 0.  0.
        4    1    3    3  502    0 -0.89454864820E+02  0.74070651421E+02  0.12704898138E+04  0.12757878405E+04  0.12699999809E+01 0.  1.
       -4    1    3    3    0  502  0.89454864820E+02 -0.74070651421E+02 -0.26810823111E+04  0.26835969530E+04  0.12699999809E+01 0. -1.
</event>
<event>
 5   0  0.2282000E-08  0.3689506E+04  0.7818609E-02  0.8070291E-01
       -1   -1    0    0    0  501  0.00000000000E+00  0.00000000000E+00  0.17559224328E+04  0.17559224328E+04  0.50400001928E-02 0.  1.
        1   -1    0    0  501    0  0.00000000000E+00  0.00000000000E+00 -0.19380775733E+04  0.19380775734E+04  0.50400001928E-02 0. -1.
    10030    2    1    2    0    0  0.00000000000E+00  0.00000000000E+00 -0.18215514057E+03  0.36940000061E+04  0.36895061390E+04 0.  0.
        1    1    3    3  502    0 -0.64983074669E+03 -0.16793369170E+04  0.31023654750E+03  0.18272107693E+04  0.50400001928E-02 0.  1.
       -1    1    3    3    0  502  0.64983074669E+03  0.16793369170E+04 -0.49239168807E+03  0.18667892368E+04  0.50400001928E-02 0. -1.
</event>
<event>
 5   0  0.7254493E-08  0.3706134E+04  0.7818609E-02  0.8066604E-01
       -2   -1    0    0    0  501  0.00000000000E+00  0.00000000000E+00  0.21172926955E+04  0.21172926955E+04  0.25500000920E-02 0. -1.
        2   -1    0    0  501    0  0.00000000000E+00  0.00000000000E+00 -0.16218153203E+04  0.16218153203E+04  0.25500000920E-02 0.  1.
    10030    2    1    2    0    0  0.00000000000E+00  0.00000000000E+00  0.49547737520E+03  0.37391080158E+04  0.37061342292E+04 0.  0.
        3    1    3    3  502    0 -0.10929654368E+04  0.76060960398E+03  0.15479081232E+04  0.20418423014E+04  0.10100000352E+00 0. -1.
       -3    1    3    3    0  502  0.10929654368E+04 -0.76060960398E+03 -0.10524307480E+04  0.16972657144E+04  0.10100000352E+00 0.  1.
</event>
<event>
 5   0  0.7191801E-08  0.3696931E+04  0.7818609E-02  0.8068642E-01
       -2   -1    0    0    0  501  0.00000000000E+00  0.00000000000E+00  0.23862901138E+04  0.23862901138E+04  0.25500000920E-02 0. -1.
        2   -1    0    0  501    0  0.00000000000E+00  0.00000000000E+00 -0.14318563675E+04  0.14318563675E+04  0.25500000920E-02 0.  1.
    10030    2    1    2    0    0  0.00000000000E+00  0.00000000000E+00  0.95443374627E+03  0.38181464812E+04  0.36969309942E+04 0.  0.
        5    1    3    3  502    0 -0.67176870653E+03  0.16764304093E+04  0.88397086994E+03  0.20107507805E+04  0.46999998093E+01 0.  1.
       -5    1    3    3    0  502  0.67176870653E+03 -0.16764304093E+04  0.70462876327E+02  0.18073957008E+04  0.46999998093E+01 0. -1.
</event>
<event>
 5   0  0.2282000E-08  0.3743719E+04  0.7818609E-02  0.8058342E-01
       -1   -1    0    0    0  501  0.00000000000E+00  0.00000000000E+00  0.16936008490E+04  0.16936008490E+04  0.50400001928E-02 0. -1.
        1   -1    0    0  501    0  0.00000000000E+00  0.00000000000E+00 -0.20688810471E+04  0.20688810471E+04  0.50400001928E-02 0.  1.
    10030    2    1    2    0    0  0.00000000000E+00  0.00000000000E+00 -0.37528019815E+03  0.37624818961E+04  0.37437193793E+04 0.  0.
        3    1    3    3  502    0  0.17057217970E+04  0.75928450221E+03 -0.53333211982E+02  0.18678448131E+04  0.10100000352E+00 0. -1.
       -3    1    3    3    0  502 -0.17057217970E+04 -0.75928450221E+03 -0.32194698617E+03  0.18946370830E+04  0.10100000352E+00 0.  1.
</event>
<event>
 5   0  0.2282000E-08  0.3712895E+04  0.7818609E-02  0.8065110E-01
        1   -1    0    0  501    0  0.00000000000E+00  0.00000000000E+00  0.27327334725E+04  0.27327334725E+04  0.50400001928E-02 0.  1.
       -1   -1    0    0    0  501  0.00000000000E+00  0.00000000000E+00 -0.12611540071E+04  0.12611540071E+04  0.50400001928E-02 0. -1.
    10030    2    1    2    0    0  0.00000000000E+00  0.00000000000E+00  0.14715794654E+04  0.39938874796E+04  0.37128952418E+04 0.  0.
        4    1    3    3  502    0 -0.94733184897E+03  0.77081764689E+02 -0.97958004715E+03  0.13649021621E+04  0.12699999809E+01 0. -1.
       -4    1    3    3    0  502  0.94733184897E+03 -0.77081764689E+02  0.24511595126E+04  0.26289853175E+04  0.12699999809E+01 0.  1.
</event>
<event>
 5   0  0.2282000E-08  0.3694626E+04  0.7818609E-02  0.8069154E-01
       -1   -1    0    0    0  501  0.00000000000E+00  0.00000000000E+00  0.15060525384E+04  0.15060525384E+04  0.50400001928E-02 0. -1.
        1   -1    0    0  501    0  0.00000000000E+00  0.00000000000E+00 -0.22659002920E+04  0.22659002920E+04  0.50400001928E-02 0.  1.
    10030    2    1    2    0    0  0.00000000000E+00  0.00000000000E+00 -0.75984775358E+03  0.37719528305E+04  0.36946257654E+04 0.  0.
        2    1    3    3  502    0  0.10254358780E+04 -0.88861995606E+03  0.89986777384E+03  0.16281665076E+04  0.25500000920E-02 0. -1.
       -2    1    3    3    0  502 -0.10254358780E+04  0.88861995606E+03 -0.16597155274E+04  0.21437863229E+04  0.25500000920E-02 0.  1.
</event>
<event>
 5   0  0.7203049E-08  0.3679435E+04  0.7818609E-02  0.8072535E-01
        2   -1    0    0  501    0  0.00000000000E+00  0.00000000000E+00  0.19821251922E+04  0.19821251922E+04  0.25500000920E-02 0.  1.
       -2   -1    0    0    0  501  0.00000000000E+00  0.00000000000E+00 -0.17075414882E+04  0.17075414882E+04  0.25500000920E-02 0. -1.
    10030    2    1    2    0    0  0.00000000000E+00  0.00000000000E+00  0.27458370397E+03  0.36896666804E+04  0.36794352831E+04 0.  0.
        4    1    3    3  502    0 -0.30171848247E+03 -0.78772241345E+03 -0.15021913371E+04  0.17228235747E+04  0.12699999809E+01 0. -1.
       -4    1    3    3    0  502  0.30171848247E+03  0.78772241345E+03  0.17767750411E+04  0.19668431058E+04  0.12699999809E+01 0.  1.
</event>
<event>
 5   0  0.2282000E-08  0.3690046E+04  0.7818609E-02  0.8070171E-01
       -1   -1    0    0    0  501  0.00000000000E+00  0.00000000000E+00  0.15086503097E+04  0.15086503097E+04  0.50400001928E-02 0.  1.
        1   -1    0    0  501    0  0.00000000000E+00  0.00000000000E+00 -0.22563946692E+04  0.22563946692E+04  0.50400001928E-02 0. -1.
    10030    2    1    2    0    0  0.00000000000E+00  0.00000000000E+00 -0.74774435953E+03  0.37650449789E+04  0.36900463502E+04 0.  0.
        5    1    3    3  502    0  0.13604571250E+04  0.84259458667E+03 -0.13108386327E+04  0.20686056264E+04  0.46999998093E+01 0. -1.
       -5    1    3    3    0  502 -0.13604571250E+04 -0.84259458667E+03  0.56309427320E+03  0.16964393526E+04  0.46999998093E+01 0.  1.
</event>
<event>
 5   0  0.7191801E-08  0.3700720E+04  0.7818609E-02  0.8067802E-01
        2   -1    0    0  501    0  0.00000000000E+00  0.00000000000E+00  0.23701688407E+04  0.23701688407E+04  0.25500000920E-02 0. -1.
       -2   -1    0    0    0  501  0.00000000000E+00  0.00000000000E+00 -0.14445521608E+04  0.14445521608E+04  0.25500000920E-02 0.  1.
    10030    2    1    2    0    0  0.00000000000E+00  0.00000000000E+00  0.92561667990E+03  0.38147210015E+04  0.37007202111E+04 0.  0.
        5    1    3    3  502    0  0.17389774608E+04  0.30869912033E+03 -0.10598000552E+03  0.17693477916E+04  0.46999998093E+01 0. -1.
       -5    1    3    3    0  502 -0.17389774608E+04 -0.30869912033E+03  0.10315966854E+04  0.20453732098E+04  0.46999998093E+01 0.  1.
</event>
<event>
 5   0  0.2282000E-08  0.3700534E+04  0.7818609E-02  0.8067843E-01
       -1   -1    0    0    0  501  0.00000000000E+00  0.00000000000E+00  0.26082464970E+04  0.26082464970E+04  0.50400001928E-02 0. -1.
        1   -1    0    0  501    0  0.00000000000E+00  0.00000000000E+00 -0.13125633029E+04  0.13125633029E+04  0.50400001928E-02 0.  1.
    10030    2    1    2    0    0  0.00000000000E+00  0.00000000000E+00  0.12956831941E+04  0.39208097999E+04  0.37005343597E+04 0.  0.
        2    1    3    3  502    0  0.16955756298E+04  0.64758908934E+03  0.10285936168E+04  0.20862294154E+04  0.25500000920E-02 0. -1.
       -2    1    3    3    0  502 -0.16955756298E+04 -0.64758908934E+03  0.26708957728E+03  0.18345803845E+04  0.25500000920E-02 0.  1.
</event>
<event>
 5   0  0.7362817E-08  0.3692346E+04  0.7818609E-02  0.8069660E-01
       -2   -1    0    0    0  501  0.00000000000E+00  0.00000000000E+00  0.13588176797E+04  0.13588176797E+04  0.25500000920E-02 0. -1.
        2   -1    0    0  501    0  0.00000000000E+00  0.00000000000E+00 -0.25083241492E+04  0.25083241492E+04  0.25500000920E-02 0.  1.
    10030    2    1    2    0    0  0.00000000000E+00  0.00000000000E+00 -0.11495064695E+04  0.38671418289E+04  0.36923462461E+04 0.  0.
        1    1    3    3  502    0  0.46634677169E+03  0.65029681633E+03 -0.23172417893E+04  0.24515249888E+04  0.50400001928E-02 0.  1.
       -1    1    3    3    0  502 -0.46634677169E+03 -0.65029681633E+03  0.11677353197E+04  0.14156168400E+04  0.50400001928E-02 0. -1.
</event>
<event>
 5   0  0.2282000E-08  0.3700051E+04  0.7818609E-02  0.8067951E-01
       -1   -1    0    0    0  501  0.00000000000E+00  0.00000000000E+00  0.12855298318E+04  0.12855298318E+04  0.50400001928E-02 0. -1.
        1   -1    0    0  501    0  0.00000000000E+00  0.00000000000E+00 -0.26623992453E+04  0.26623992453E+04  0.50400001928E-02 0.  1.
    10030    2    1    2    0    0  0.00000000000E+00  0.00000000000E+00 -0.13768694135E+04  0.39479290772E+04  0.37000506235E+04 0.  0.
        5    1    3    3  502    0  0.90698750466E+03 -0.92758344809E+03 -0.20957070707E+04  0.24647611655E+04  0.46999998093E+01 0.  1.
       -5    1    3    3    0  502 -0.90698750466E+03  0.92758344809E+03  0.71883765720E+03  0.14831679117E+04  0.46999998093E+01 0. -1.
</event>
<event>
 5   0  0.2282000E-08  0.3703768E+04  0.7818609E-02  0.8067127E-01
       -1   -1    0    0    0  501  0.00000000000E+00  0.00000000000E+00  0.14188827189E+04  0.14188827189E+04  0.50400001928E-02 0.  1.
        1   -1    0    0  501    0  0.00000000000E+00  0.00000000000E+00 -0.24170245681E+04  0.24170245681E+04  0.50400001928E-02 0. -1.
    10030    2    1    2    0    0  0.00000000000E+00  0.00000000000E+00 -0.99814184921E+03  0.38359072869E+04  0.37037680223E+04 0.  0.
        2    1    3    3  502    0  0.62921885553E+03  0.11160339858E+04  0.88580625515E+03  0.15575946030E+04  0.25500000920E-02 0.  1.
       -2    1    3    3    0  502 -0.62921885553E+03 -0.11160339858E+04 -0.18839481044E+04  0.22783126839E+04  0.25500000920E-02 0. -1.
</event>
<event>
 5   0  0.7309833E-08  0.3693046E+04  0.7818609E-02  0.8069505E-01
        2   -1    0    0  501    0  0.00000000000E+00  0.00000000000E+00  0.24360366086E+04  0.24360366086E+04  0.25500000920E-02 0.  1.
       -2   -1    0    0    0  501  0.00000000000E+00  0.00000000000E+00 -0.13996701948E+04  0.13996701948E+04  0.25500000920E-02 0. -1.
    10030    2    1    2    0    0  0.00000000000E+00  0.00000000000E+00  0.10363664139E+04  0.38357068034E+04  0.36930463493E+04 0.  0.
        2    1    3    3  502    0  0.37975011938E+03  0.18039359543E+04  0.40800643228E+03  0.18880848311E+04  0.25500000920E-02 0. -1.
       -2    1    3    3    0  502 -0.37975011938E+03 -0.18039359543E+04  0.62835998159E+03  0.19476219723E+04  0.25500000920E-02 0.  1.
</event>
<event>
 5   0  0.7309833E-08  0.3693518E+04  0.7818609E-02  0.8069400E-01
       -2   -1    0    0    0  501  0.00000000000E+00  0.00000000000E+00  0.17678107868E+04  0.17678107868E+04  0.25500000920E-02 0.  1.
        2   -1    0    0  501    0  0.00000000000E+00  0.00000000000E+00 -0.19292328821E+04  0.19292328821E+04  0.25500000920E-02 0. -1.
    10030    2    1    2    0    0  0.00000000000E+00  0.00000000000E+00 -0.16142209532E+03  0.36970436689E+04  0.36935179433E+04 0.  0.
        2    1    3    3  502    0 -0.86483673732E+03  0.11149347347E+04 -0.12732746598E+04  0.19005921194E+04  0.25500000920E-02 0. -1.
       -2    1    3    3    0  502  0.86483673732E+03 -0.11149347347E+04  0.11118525644E+04  0.17964515496E+04  0.25500000920E-02 0.  1.
</event>
<event>
 5   0  0.7203049E-08  0.3701423E+04  0.7818609E-02  0.8067646E-01
       -2   -1    0    0    0  501  0.00000000000E+00  0.00000000000E+00  0.27179991016E+04  0.27179991016E+04  0.25500000920E-02 0. -1.
        2   -1    0    0  501    0  0.00000000000E+00  0.00000000000E+00 -0.12601672805E+04  0.12601672805E+04  0.25500000920E-02 0.  1.
    10030    2    1    2    0    0  0.00000000000E+00  0.00000000000E+00  0.14578318211E+04  0.39781663822E+04  0.37014232595E+04 0.  0.
        4    1    3    3  502    0 -0.15087179263E+04 -0.10499467356E+03 -0.41755250174E+03  0.15689504031E+04  0.12699999809E+01 0.  1.
       -4    1    3    3    0  502  0.15087179263E+04  0.10499467356E+03  0.18753843229E+04  0.24092159791E+04  0.12699999809E+01 0. -1.
</event>
<event>
 5   0  0.7309833E-08  0.3702161E+04  0.7818609E-02  0.8067483E-01
       -2   -1    0    0    0  501  0.00000000000E+00  0.00000000000E+00  0.17578789144E+04  0.17578789145E+04  0.25500000920E-02 0. -1.
        2   -1    0    0  501    0  0.00000000000E+00  0.00000000000E+00 -0.19492233780E+04  0.19492233780E+04  0.25500000920E-02 0.  1.
    10030    2    1    2    0    0  0.00000000000E+00  0.00000000000E+00 -0.19134446359E+03  0.37071022925E+04  0.37021608154E+04 0.  0.
        2    1    3    3  502    0 -0.13618491528E+04 -0.11668515890E+02 -0.13510319227E+04  0.19183473422E+04  0.25500000920E-02 0.  1.
       -2    1    3    3    0  502  0.13618491528E+04  0.11668515890E+02  0.11596874591E+04  0.17887549503E+04  0.25500000920E-02 0. -1.
</event>
<event>
 5   0  0.7309833E-08  0.3705730E+04  0.7818609E-02  0.8066693E-01
       -2   -1    0    0    0  501  0.00000000000E+00  0.00000000000E+00  0.13157862405E+04  0.13157862405E+04  0.25500000920E-02 0. -1.
        2   -1    0    0  501    0  0.00000000000E+00  0.00000000000E+00 -0.26091696565E+04  0.26091696565E+04  0.25500000920E-02 0.  1.
    10030    2    1    2    0    0  0.00000000000E+00  0.00000000000E+00 -0.12933834159E+04  0.39249558970E+04  0.37057304453E+04 0.  0.
        2    1    3    3  502    0 -0.23696646726E+03 -0.33706605886E+03 -0.25600324116E+04  0.25929775516E+04  0.25500000920E-02 0.  1.
       -2    1    3    3    0  502  0.23696646726E+03  0.33706605886E+03  0.12666489956E+04  0.13319783455E+04  0.25500000920E-02 0. -1.
</event>
<event>
 5   0  0.7254493E-08  0.3702245E+04  0.7818609E-02  0.8067465E-01
       -2   -1    0    0    0  501  0.00000000000E+00  0.00000000000E+00  0.28298895236E+04  0.28298895236E+04  0.25500000920E-02 0.  1.
        2   -1    0    0  501    0  0.00000000000E+00  0.00000000000E+00 -0.12108791929E+04  0.12108791929E+04  0.25500000920E-02 0. -1.
    10030    2    1    2    0    0  0.00000000000E+00  0.00000000000E+00  0.16190103308E+04  0.40407687165E+04  0.37022449094E+04 0.  0.
        3    1    3    3  502    0  0.74374307550E+03  0.92528542942E+03 -0.74070007176E+03  0.13992653411E+04  0.10100000352E+00 0. -1.
       -3    1    3    3    0  502 -0.74374307550E+03 -0.92528542942E+03  0.23597104025E+04  0.26415033754E+04  0.10100000352E+00 0.  1.
</event>
<event>
 5   0  0.2282000E-08  0.3706194E+04  0.7818609E-02  0.8066591E-01
        1   -1    0    0  501    0  0.00000000000E+00  0.00000000000E+00  0.28830862738E+04  0.28830862738E+04  0.50400001928E-02 0. -1.
       -1   -1    0    0    0  501  0.00000000000E+00  0.00000000000E+00 -0.11910735834E+04  0.11910735835E+04  0.50400001928E-02 0.  1.
    10030    2    1    2    0    0  0.00000000000E+00  0.00000000000E+00  0.16920126904E+04  0.40741598573E+04  0.37061936806E+04 0.  0.
        4    1    3    3  502    0 -0.13958756869E+04  0.16447628865E+03  0.21735688193E+04  0.25884212191E+04  0.12699999809E+01 0. -1.
       -4    1    3    3    0  502  0.13958756869E+04 -0.16447628865E+03 -0.48155612889E+03  0.14857386381E+04  0.12699999809E+01 0.  1.
</event>
<event>
 5   0  0.2282000E-08  0.3702331E+04  0.7818609E-02  0.8067445E-01
        1   -1    0    0  501    0  0.00000000000E+00  0.00000000000E+00  0.22594393490E+04  0.22594393490E+04  0.50400001928E-02 0. -1.
       -1   -1    0    0    0  501  0.00000000000E+00  0.00000000000E+00 -0.15166655340E+04  0.15166655340E+04  0.50400001928E-02 0.  1.
    10030    2    1    2    0    0  0.00000000000E+00  0.00000000000E+00  0.74277381506E+03  0.37761048830E+04  0.37023310424E+04 0.  0.
        1    1    3    3  502    0 -0.48639055388E+03 -0.12785237940E+04 -0.90070898583E+03  0.16378264682E+04  0.50400001928E-02 0.  1.
       -1    1    3    3    0  502  0.48639055388E+03  0.12785237940E+04  0.16434828009E+04  0.21382784149E+04  0.50400001928E-02 0. -1.
</event>
<event>
 5   0  0.2282000E-08  0.3703746E+04  0.7818609E-02  0.8067132E-01
       -1   -1    0    0    0  501  0.00000000000E+00  0.00000000000E+00  0.14509567199E+04  0.14509567199E+04  0.50400001928E-02 0. -1.
        1   -1    0    0  501    0  0.00000000000E+00  0.00000000000E+00 -0.23635666444E+04  0.23635666444E+04  0.50400001928E-02 0.  1.
    10030    2    1    2    0    0  0.00000000000E+00  0.00000000000E+00 -0.91260992447E+03  0.38145233643E+04  0.37037456206E+04 0.  0.
        3    1    3    3  502    0 -0.86786773092E+03 -0.98683920709E+03  0.88747530591E+03  0.15857674633E+04  0.10100000352E+00 0.  1.
       -3    1    3    3    0  502  0.86786773092E+03  0.98683920709E+03 -0.18000852304E+04  0.22287559009E+04  0.10100000352E+00 0. -1.
</event>
<event>
 5   0  0.2282000E-08  0.3702900E+04  0.7818609E-02  0.8067319E-01
       -1   -1    0    0    0  501  0.00000000000E+00  0.00000000000E+00  0.11230876190E+04  0.11230876190E+04  0.50400001928E-02 0.  1.
        1   -1    0    0  501    0  0.00000000000E+00  0.00000000000E+00 -0.30521816353E+04  0.30521816353E+04  0.50400001928E-02 0. -1.
    10030    2    1    2    0    0  0.00000000000E+00  0.00000000000E+00 -0.19290940164E+04  0.41752692543E+04  0.37029001636E+04 0.  0.
        2    1    3    3  502    0  0.46888185732E+03 -0.16252695999E+04 -0.11585805274E+03  0.16955160149E+04  0.25500000920E-02 0.  1.
       -2    1    3    3    0  502 -0.46888185732E+03  0.16252695999E+04 -0.18132359636E+04  0.24797532394E+04  0.25500000920E-02 0. -1.
</event>
<event>
 5   0  0.2282000E-08  0.3682955E+04  0.7818609E-02  0.8071750E-01
        1   -1    0    0  501    0  0.00000000000E+00  0.00000000000E+00  0.23830026790E+04  0.23830026790E+04  0.50400001928E-02 0. -1.
       -1   -1    0    0    0  501  0.00000000000E+00  0.00000000000E+00 -0.14230108811E+04  0.14230108811E+04  0.50400001928E-02 0.  1.
    10030    2    1    2    0    0  0.00000000000E+00  0.00000000000E+00  0.95999179790E+03  0.38060135601E+04  0.36829546519E+04 0.  0.
        3    1    3    3  502    0 -0.14153141929E+03 -0.10957219166E+04  0.20024491198E+04  0.22870155550E+04  0.10100000352E+00 0. -1.
       -3    1    3    3    0  502  0.14153141929E+03  0.10957219166E+04 -0.10424573219E+04  0.15189980051E+04  0.10100000352E+00 0.  1.
</event>
<event>
 5   0  0.7203049E-08  0.3691294E+04  0.7818609E-02  0.8069894E-01
        2   -1    0    0  501    0  0.00000000000E+00  0.00000000000E+00  0.27055699915E+04  0.27055699915E+04  0.25500000920E-02 0.  1.
       -2   -1    0    0    0  501  0.00000000000E+00  0.00000000000E+00 -0.12590368236E+04  0.12590368236E+04  0.25500000920E-02 0. -1.
    10030    2    1    2    0    0  0.00000000000E+00  0.00000000000E+00  0.14465331679E+04  0.39646068150E+04  0.36912936746E+04 0.  0.
        4    1    3    3  502    0  0.31937420975E+03 -0.76808999507E+03 -0.10462813385E+04  0.13366631508E+04  0.12699999809E+01 0. -1.
       -4    1    3    3    0  502 -0.31937420975E+03  0.76808999507E+03  0.24928145064E+04  0.26279436643E+04  0.12699999809E+01 0.  1.
</event>
<event>
 5   0  0.7203049E-08  0.3701728E+04  0.7818609E-02  0.8067579E-01
       -2   -1    0    0    0  501  0.00000000000E+00  0.00000000000E+00  0.20884213443E+04  0.20884213443E+04  0.25500000920E-02 0. -1.
        2   -1    0    0  501    0  0.00000000000E+00  0.00000000000E+00 -0.16403291573E+04  0.16403291573E+04  0.25500000920E-02 0.  1.
    10030    2    1    2    0    0  0.00000000000E+00  0.00000000000E+00  0.44809218698E+03  0.37287505016E+04  0.37017284739E+04 0.  0.
        4    1    3    3  502    0 -0.11275042753E+04 -0.42949155858E+02 -0.12538334921E+04  0.16867751954E+04  0.12699999809E+01 0.  1.
       -4    1    3    3    0  502  0.11275042753E+04  0.42949155858E+02  0.17019256791E+04  0.20419753062E+04  0.12699999809E+01 0. -1.
</event>
<event>
 5   0  0.7309833E-08  0.3696494E+04  0.7818609E-02  0.8068739E-01
        2   -1    0    0  501    0  0.00000000000E+00  0.00000000000E+00  0.17574533639E+04  0.17574533639E+04  0.25500000920E-02 0.  1.
       -2   -1    0    0    0  501  0.00000000000E+00  0.00000000000E+00 -0.19437312113E+04  0.19437312113E+04  0.25500000920E-02 0. -1.
    10030    2    1    2    0    0  0.00000000000E+00  0.00000000000E+00 -0.18627784740E+03  0.37011845752E+04  0.36964939907E+04 0.  0.
        2    1    3    3  502    0  0.14787194882E+04  0.18278582228E+03 -0.11881421944E+04  0.19057029820E+04  0.25500000920E-02 0. -1.
       -2    1    3    3    0  502 -0.14787194882E+04 -0.18278582228E+03  0.10018643470E+04  0.17954815932E+04  0.25500000920E-02 0.  1.
</event>
<event>
 5   0  0.2282000E-08  0.3690112E+04  0.7818609E-02  0.8070157E-01
        1   -1    0    0  501    0  0.00000000000E+00  0.00000000000E+00  0.16574140887E+04  0.16574140887E+04  0.50400001928E-02 0.  1.
       -1   -1    0    0    0  501  0.00000000000E+00  0.00000000000E+00 -0.20539412834E+04  0.20539412834E+04  0.50400001928E-02 0. -1.
    10030    2    1    2    0    0  0.00000000000E+00  0.00000000000E+00 -0.39652719471E+03  0.37113553721E+04  0.36901117709E+04 0.  0.
        4    1    3    3  502    0  0.10134263065E+04  0.10499564120E+04 -0.13338287278E+04  0.19770032963E+04  0.12699999809E+01 0. -1.
       -4    1    3    3    0  502 -0.10134263065E+04 -0.10499564120E+04  0.93730153308E+03  0.17343520757E+04  0.12699999809E+01 0.  1.
</event>
<event>
 5   0  0.2282000E-08  0.3681399E+04  0.7818609E-02  0.8072096E-01
        1   -1    0    0  501    0  0.00000000000E+00  0.00000000000E+00  0.27393723819E+04  0.27393723819E+04  0.50400001928E-02 0.  1.
       -1   -1    0    0    0  501  0.00000000000E+00  0.00000000000E+00 -0.12368436871E+04  0.12368436871E+04  0.50400001928E-02 0. -1.
    10030    2    1    2    0    0  0.00000000000E+00  0.00000000000E+00  0.15025286949E+04  0.39762160690E+04  0.36813994280E+04 0.  0.
        3    1    3    3  502    0 -0.81779312820E+03  0.42005461563E+03  0.24736302895E+04  0.26389540162E+04  0.10100000352E+00 0.  1.
       -3    1    3    3    0  502  0.81779312820E+03 -0.42005461563E+03 -0.97110159458E+03  0.13372620528E+04  0.10100000352E+00 0. -1.
</event>
<event>
 5   0  0.2282000E-08  0.3705097E+04  0.7818609E-02  0.8066833E-01
       -1   -1    0    0    0  501  0.00000000000E+00  0.00000000000E+00  0.17982495115E+04  0.17982495116E+04  0.50400001928E-02 0.  1.
        1   -1    0    0  501    0  0.00000000000E+00  0.00000000000E+00 -0.19084875694E+04  0.19084875694E+04  0.50400001928E-02 0. -1.
    10030    2    1    2    0    0  0.00000000000E+00  0.00000000000E+00 -0.11023805790E+03  0.37067370810E+04  0.37050974830E+04 0.  0.
        4    1    3    3  502    0 -0.11330672158E+04  0.11967474636E+04 -0.90159593803E+03  0.18785426946E+04  0.12699999809E+01 0. -1.
       -4    1    3    3    0  502  0.11330672158E+04 -0.11967474636E+04  0.79135788013E+03  0.18281943864E+04  0.12699999809E+01 0.  1.
</event>
<event>
 5   0  0.2282000E-08  0.3691969E+04  0.7818609E-02  0.8069744E-01
        1   -1    0    0  501    0  0.00000000000E+00  0.00000000000E+00  0.17168012027E+04  0.17168012027E+04  0.50400001928E-02 0. -1.
       -1   -1    0    0    0  501  0.00000000000E+00  0.00000000000E+00 -0.19848879521E+04  0.19848879521E+04  0.50400001928E-02 0.  1.
    10030    2    1    2    0    0  0.00000000000E+00  0.00000000000E+00 -0.26808674938E+03  0.37016891548E+04  0.36919685932E+04 0.  0.
        4    1    3    3  502    0  0.15224995707E+04  0.10337001694E+04  0.11650699380E+02  0.18402930024E+04  0.12699999809E+01 0. -1.
       -4    1    3    3    0  502 -0.15224995707E+04 -0.10337001694E+04 -0.27973744876E+03  0.18613961524E+04  0.12699999809E+01 0.  1.
</event>
<event>
 5   0  0.7362817E-08  0.3700048E+04  0.7818609E-02  0.8067951E-01
        2   -1    0    0  501    0  0.00000000000E+00  0.00000000000E+00  0.14921649159E+04  0.14921649159E+04  0.25500000920E-02 0.  1.
       -2   -1    0    0    0  501  0.00000000000E+00  0.00000000000E+00 -0.22937062830E+04  0.22937062830E+04  0.25500000920E-02 0. -1.
    10030    2    1    2    0    0  0.00000000000E+00  0.00000000000E+00 -0.80154136706E+03  0.37858711989E+04  0.37000475904E+04 0.  0.
        1    1    3    3  502    0  0.10858705147E+04  0.24016083703E+03  0.11119660117E+04  0.15726602982E+04  0.50400001928E-02 0.  1.
       -1    1    3    3    0  502 -0.10858705147E+04 -0.24016083703E+03 -0.19135073788E+04  0.22132109007E+04  0.50400001928E-02 0. -1.
</event>
<event>
 5   0  0.7309833E-08  0.3686632E+04  0.7818609E-02  0.8070931E-01
        2   -1    0    0  501    0  0.00000000000E+00  0.00000000000E+00  0.17602345174E+04  0.17602345174E+04  0.25500000920E-02 0. -1.
       -2   -1    0    0    0  501  0.00000000000E+00  0.00000000000E+00 -0.19303192345E+04  0.19303192345E+04  0.25500000920E-02 0.  1.
    10030    2    1    2    0    0  0.00000000000E+00  0.00000000000E+00 -0.17008471707E+03  0.36905537519E+04  0.36866323637E+04 0.  0.
        2    1    3    3  502    0 -0.14520264847E+03  0.12583890903E+04  0.12554815728E+04  0.17834968156E+04  0.25500000920E-02 0. -1.
       -2    1    3    3    0  502  0.14520264847E+03 -0.12583890903E+04 -0.14255662898E+04  0.19070569363E+04  0.25500000920E-02 0.  1.
</event>
<event>
 5   0  0.7254493E-08  0.3703662E+04  0.7818609E-02  0.8067151E-01
       -2   -1    0    0    0  501  0.00000000000E+00  0.00000000000E+00  0.23529924997E+04  0.23529924998E+04  0.25500000920E-02 0. -1.
        2   -1    0    0  501    0  0.00000000000E+00  0.00000000000E+00 -0.14574113027E+04  0.14574113027E+04  0.25500000920E-02 0.  1.
    10030    2    1    2    0    0  0.00000000000E+00  0.00000000000E+00  0.89558119702E+03  0.38104038025E+04  0.37036618984E+04 0.  0.
        3    1    3    3  502    0  0.17822696928E+03 -0.11736818815E+04  0.19100136158E+04  0.22488766160E+04  0.10100000352E+00 0. -1.
       -3    1    3    3    0  502 -0.17822696928E+03  0.11736818815E+04 -0.10144324187E+04  0.15615271864E+04  0.10100000352E+00 0.  1.
</event>
<event>
 5   0  0.7191801E-08  0.3700118E+04  0.7818609E-02  0.8067936E-01
        2   -1    0    0  501    0  0.00000000000E+00  0.00000000000E+00  0.18250531950E+04  0.18250531950E+04  0.25500000920E-02 0.  1.
       -2   -1    0    0    0  501  0.00000000000E+00  0.00000000000E+00 -0.18754069852E+04  0.18754069852E+04  0.25500000920E-02 0. -1.
    10030    2    1    2    0    0  0.00000000000E+00  0.00000000000E+00 -0.50353790136E+02  0.37004601802E+04  0.37001175713E+04 0.  0.
        5    1    3    3  502    0  0.57724146472E+03 -0.33045318545E+03 -0.17516879271E+04  0.18737234855E+04  0.46999998093E+01 0. -1.
       -5    1    3    3    0  502 -0.57724146472E+03  0.33045318545E+03  0.17013341369E+04  0.18267366947E+04  0.46999998093E+01 0.  1.
</event>
<event>
 5   0  0.2282000E-08  0.3694447E+04  0.7818609E-02  0.8069194E-01
        1   -1    0    0  501    0  0.00000000000E+00  0.00000000000E+00  0.19971133714E+04  0.19971133714E+04  0.50400001928E-02 0. -1.
       -1   -1    0    0    0  501  0.00000000000E+00  0.00000000000E+00 -0.17085832409E+04  0.17085832409E+04  0.50400001928E-02 0.  1.
    10030    2    1    2    0    0  0.00000000000E+00  0.00000000000E+00  0.28853013043E+03  0.37056966123E+04  0.36944468796E+04 0.  0.
        5    1    3    3  502    0 -0.54237779469E+03  0.60424450798E+03 -0.15199820058E+04  0.17232679668E+04  0.46999998093E+01 0.  1.
       -5    1    3    3    0  502  0.54237779469E+03 -0.60424450798E+03  0.18085121362E+04  0.19824286455E+04  0.46999998093E+01 0. -1.
</event>
<event>
 5   0  0.2282000E-08  0.3700944E+04  0.7818609E-02  0.8067753E-01
        1   -1    0    0  501    0  0.00000000000E+00  0.00000000000E+00  0.21238893862E+04  0.21238893862E+04  0.50400001928E-02 0. -1.
       -1   -1    0    0    0  501  0.00000000000E+00  0.00000000000E+00 -0.16122527409E+04  0.16122527409E+04  0.50400001928E-02 0.  1.
    10030    2    1    2    0    0  0.00000000000E+00  0.00000000000E+00  0.51163664526E+03  0.37361421272E+04  0.37009439252E+04 0.  0.
        2    1    3    3  502    0 -0.11850917502E+04  0.13853542464E+04 -0.64369477195E+02  0.18242237456E+04  0.25500000920E-02 0.  1.
       -2    1    3    3    0  502  0.11850917502E+04 -0.13853542464E+04  0.57600612246E+03  0.19119183815E+04  0.25500000920E-02 0. -1.
</event>
<event>
 5   0  0.2282000E-08  0.3746350E+04  0.7818609E-02  0.8057767E-01
        1   -1    0    0  501    0  0.00000000000E+00  0.00000000000E+00  0.20395725654E+04  0.20395725654E+04  0.50400001928E-02 0. -1.
       -1   -1    0    0    0  501  0.00000000000E+00  0.00000000000E+00 -0.17203527203E+04  0.17203527203E+04  0.50400001928E-02 0.  1.
    10030    2    1    2    0    0  0.00000000000E+00  0.00000000000E+00  0.31921984503E+03  0.37599252857E+04  0.37463498027E+04 0.  0.
        5    1    3    3  502    0 -0.43548702240E+02  0.38128743590E+03  0.19996891047E+04  0.20361864363E+04  0.46999998093E+01 0. -1.
       -5    1    3    3    0  502  0.43548702240E+02 -0.38128743590E+03 -0.16804692596E+04  0.17237388494E+04  0.46999998093E+01 0.  1.
</event>
<event>
 5   0  0.7309833E-08  0.3701756E+04  0.7818609E-02  0.8067573E-01
        2   -1    0    0  501    0  0.00000000000E+00  0.00000000000E+00  0.19087130038E+04  0.19087130038E+04  0.25500000920E-02 0. -1.
       -2   -1    0    0    0  501  0.00000000000E+00  0.00000000000E+00 -0.17947953096E+04  0.17947953096E+04  0.25500000920E-02 0.  1.
    10030    2    1    2    0    0  0.00000000000E+00  0.00000000000E+00  0.11391769419E+03  0.37035083135E+04  0.37017558789E+04 0.  0.
        2    1    3    3  502    0  0.13012599837E+04  0.11152204943E+02  0.13737685624E+04  0.18922584337E+04  0.25500000920E-02 0. -1.
       -2    1    3    3    0  502 -0.13012599837E+04 -0.11152204943E+02 -0.12598508682E+04  0.18112498798E+04  0.25500000920E-02 0.  1.
</event>
<event>
 5   0  0.7362817E-08  0.3696053E+04  0.7818609E-02  0.8068837E-01
        2   -1    0    0  501    0  0.00000000000E+00  0.00000000000E+00  0.28009723360E+04  0.28009723360E+04  0.25500000920E-02 0.  1.
       -2   -1    0    0    0  501  0.00000000000E+00  0.00000000000E+00 -0.12192916942E+04  0.12192916942E+04  0.25500000920E-02 0. -1.
    10030    2    1    2    0    0  0.00000000000E+00  0.00000000000E+00  0.15816806418E+04  0.40202640302E+04  0.36960531950E+04 0.  0.
        1    1    3    3  502    0 -0.52053921638E+03  0.13611310610E+04 -0.44531840454E+03  0.15237937270E+04  0.50400001928E-02 0. -1.
       -1    1    3    3    0  502  0.52053921638E+03 -0.13611310610E+04  0.20269990463E+04  0.24964703032E+04  0.50400001928E-02 0.  1.
</event>
<event>
 5   0  0.7362817E-08  0.3701715E+04  0.7818609E-02  0.8067582E-01
       -2   -1    0    0    0  501  0.00000000000E+00  0.00000000000E+00  0.14968269997E+04  0.14968269997E+04  0.25500000920E-02 0. -1.
        2   -1    0    0  501    0  0.00000000000E+00  0.00000000000E+00 -0.22886236590E+04  0.22886236590E+04  0.25500000920E-02 0.  1.
    10030    2    1    2    0    0  0.00000000000E+00  0.00000000000E+00 -0.79179665937E+03  0.37854506587E+04  0.37017151078E+04 0.  0.
        1    1    3    3  502    0  0.35625959948E+03  0.31715287316E+03 -0.22246938792E+04  0.22752515692E+04  0.50400001928E-02 0.  1.
       -1    1    3    3    0  502 -0.35625959948E+03 -0.31715287316E+03  0.14328972198E+04  0.15101990894E+04  0.50400001928E-02 0. -1.
</event>
<event>
 5   0  0.7254493E-08  0.3753503E+04  0.7818609E-02  0.8056207E-01
        2   -1    0    0  501    0  0.00000000000E+00  0.00000000000E+00  0.18980098833E+04  0.18980098833E+04  0.25500000920E-02 0. -1.
       -2   -1    0    0    0  501  0.00000000000E+00  0.00000000000E+00 -0.18557314790E+04  0.18557314790E+04  0.25500000920E-02 0.  1.
    10030    2    1    2    0    0  0.00000000000E+00  0.00000000000E+00  0.42278404294E+02  0.37537413623E+04  0.37535032638E+04 0.  0.
        3    1    3    3  502    0 -0.73183537115E+03  0.12917354611E+04  0.11692682831E+04  0.18898020637E+04  0.10100000352E+00 0. -1.
       -3    1    3    3    0  502  0.73183537115E+03 -0.12917354611E+04 -0.11269898788E+04  0.18639392986E+04  0.10100000352E+00 0.  1.
</event>
<event>
 5   0  0.2282000E-08  0.3693662E+04  0.7818609E-02  0.8069368E-01
       -1   -1    0    0    0  501  0.00000000000E+00  0.00000000000E+00  0.20977099873E+04  0.20977099873E+04  0.50400001928E-02 0.  1.
        1   -1    0    0  501    0  0.00000000000E+00  0.00000000000E+00 -0.16259560091E+04  0.16259560091E+04  0.50400001928E-02 0. -1.
    10030    2    1    2    0    0  0.00000000000E+00  0.00000000000E+00  0.47175397813E+03  0.37236659964E+04  0.36936616841E+04 0.  0.
        4    1    3    3  502    0  0.62138040000E+02 -0.12893949959E+04 -0.10956022443E+04  0.16931469169E+04  0.12699999809E+01 0. -1.
       -4    1    3    3    0  502 -0.62138040000E+02  0.12893949959E+04  0.15673562225E+04  0.20305190795E+04  0.12699999809E+01 0.  1.
</event>
<event>
 5   0  0.7254493E-08  0.3698750E+04  0.7818609E-02  0.8068239E-01
       -2   -1    0    0    0  501  0.00000000000E+00  0.00000000000E+00  0.13646386296E+04  0.13646386296E+04  0.25500000920E-02 0.  1.
        2   -1    0    0  501    0  0.00000000000E+00  0.00000000000E+00 -0.25062963132E+04  0.25062963132E+04  0.25500000920E-02 0. -1.
    10030    2    1    2    0    0  0.00000000000E+00  0.00000000000E+00 -0.11416576836E+04  0.38709349427E+04  0.36987504734E+04 0.  0.
        3    1    3    3  502    0 -0.58338572696E+03 -0.86022856632E+03  0.10300389445E+04  0.14633223603E+04  0.10100000352E+00 0.  1.
       -3    1    3    3    0  502  0.58338572696E+03  0.86022856632E+03 -0.21716966281E+04  0.24076125825E+04  0.10100000352E+00 0. -1.
</event>
<event>
 5   0  0.2282000E-08  0.3695278E+04  0.7818609E-02  0.8069009E-01
       -1   -1    0    0    0  501  0.00000000000E+00  0.00000000000E+00  0.16334566242E+04  0.16334566242E+04  0.50400001928E-02 0. -1.
        1   -1    0    0  501    0  0.00000000000E+00  0.00000000000E+00 -0.20899058663E+04  0.20899058663E+04  0.50400001928E-02 0.  1.
    10030    2    1    2    0    0  0.00000000000E+00  0.00000000000E+00 -0.45644924209E+03  0.37233624905E+04  0.36952783826E+04 0.  0.
        2    1    3    3  502    0  0.13394903276E+04 -0.73695526492E+03  0.81717345404E+03  0.17335252679E+04  0.25500000920E-02 0. -1.
       -2    1    3    3    0  502 -0.13394903276E+04  0.73695526492E+03 -0.12736226961E+04  0.19898372226E+04  0.25500000920E-02 0.  1.
</event>
<event>
 5   0  0.7191801E-08  0.3657884E+04  0.7818609E-02  0.8077360E-01
       -2   -1    0    0    0  501  0.00000000000E+00  0.00000000000E+00  0.20869575908E+04  0.20869575908E+04  0.25500000920E-02 0.  1.
        2   -1    0    0  501    0  0.00000000000E+00  0.00000000000E+00 -0.16028256019E+04  0.16028256019E+04  0.25500000920E-02 0. -1.
    10030    2    1    2    0    0  0.00000000000E+00  0.00000000000E+00  0.48413198889E+03  0.36897831927E+04  0.36578841188E+04 0.  0.
        5    1    3    3  502    0  0.16516762610E+03  0.92587886725E+03  0.18243352108E+04  0.20524992260E+04  0.46999998093E+01 0.  1.
       -5    1    3    3    0  502 -0.16516762610E+03 -0.92587886725E+03 -0.13402032219E+04  0.16372839667E+04  0.46999998093E+01 0. -1.
</event>
<event>
 5   0  0.7254493E-08  0.3705570E+04  0.7818609E-02  0.8066729E-01
        2   -1    0    0  501    0  0.00000000000E+00  0.00000000000E+00  0.22090709190E+04  0.22090709190E+04  0.25500000920E-02 0. -1.
       -2   -1    0    0    0  501  0.00000000000E+00  0.00000000000E+00 -0.15539616464E+04  0.15539616464E+04  0.25500000920E-02 0.  1.
    10030    2    1    2    0    0  0.00000000000E+00  0.00000000000E+00  0.65510927268E+03  0.37630325654E+04  0.37055695823E+04 0.  0.
        3    1    3    3  502    0  0.14145169874E+04  0.11917682387E+04  0.43712418992E+03  0.19005913317E+04  0.10100000352E+00 0. -1.
       -3    1    3    3    0  502 -0.14145169874E+04 -0.11917682387E+04  0.21798508276E+03  0.18624412337E+04  0.10100000352E+00 0.  1.
</event>
<event>
 5   0  0.2282000E-08  0.3697795E+04  0.7818609E-02  0.8068451E-01
       -1   -1    0    0    0  501  0.00000000000E+00  0.00000000000E+00  0.19501418455E+04  0.19501418455E+04  0.50400001928E-02 0. -1.
        1   -1    0    0  501    0  0.00000000000E+00  0.00000000000E+00 -0.17529097730E+04  0.17529097730E+04  0.50400001928E-02 0.  1.
    10030    2    1    2    0    0  0.00000000000E+00  0.00000000000E+00  0.19723207248E+03  0.37030516185E+04  0.36977953971E+04 0.  0.
        2    1    3    3  502    0  0.17180745786E+04  0.18536667655E+03  0.75703189403E+03  0.18865943791E+04  0.25500000920E-02 0.  1.
       -2    1    3    3    0  502 -0.17180745786E+04 -0.18536667655E+03 -0.55979982156E+03  0.18164572395E+04  0.25500000920E-02 0. -1.
</event>
<event>
 5   0  0.2282000E-08  0.3696520E+04  0.7818609E-02  0.8068733E-01
       -1   -1    0    0    0  501  0.00000000000E+00  0.00000000000E+00  0.15856569333E+04  0.15856569333E+04  0.50400001928E-02 0. -1.
        1   -1    0    0  501    0  0.00000000000E+00  0.00000000000E+00 -0.21543533170E+04  0.21543533170E+04  0.50400001928E-02 0.  1.
    10030    2    1    2    0    0  0.00000000000E+00  0.00000000000E+00 -0.56869638369E+03  0.37400102503E+04  0.36965201332E+04 0.  0.
        2    1    3    3  502    0 -0.93873076411E+03  0.11280671031E+04  0.85239795604E+03  0.16971544161E+04  0.25500000920E-02 0. -1.
       -2    1    3    3    0  502  0.93873076411E+03 -0.11280671031E+04 -0.14210943397E+04  0.20428558341E+04  0.25500000920E-02 0.  1.
</event>
<event>
 5   0  0.2282000E-08  0.3704811E+04  0.7818609E-02  0.8066896E-01
        3   -1    0    0  501    0  0.00000000000E+00  0.00000000000E+00  0.14687257810E+04  0.14687257845E+04  0.10100000352E+00 0. -1.
       -3   -1    0    0    0  501  0.00000000000E+00  0.00000000000E+00 -0.23363150832E+04  0.23363150854E+04  0.10100000352E+00 0.  1.
    10030    2    1    2    0    0  0.00000000000E+00  0.00000000000E+00 -0.86758930219E+03  0.38050408699E+04  0.37048110376E+04 0.  0.
        4    1    3    3  502    0 -0.13754915129E+04 -0.71469246610E+03  0.60786410423E+03  0.16650112928E+04  0.12699999809E+01 0. -1.
       -4    1    3    3    0  502  0.13754915129E+04  0.71469246610E+03 -0.14754534064E+04  0.21400295770E+04  0.12699999809E+01 0.  1.
</event>
<event>
 5   0  0.7309833E-08  0.3692387E+04  0.7818609E-02  0.8069651E-01
        2   -1    0    0  501    0  0.00000000000E+00  0.00000000000E+00  0.27881405751E+04  0.27881405751E+04  0.25500000920E-02 0. -1.
       -2   -1    0    0    0  501  0.00000000000E+00  0.00000000000E+00 -0.12224743206E+04  0.12224743206E+04  0.25500000920E-02 0.  1.
    10030    2    1    2    0    0  0.00000000000E+00  0.00000000000E+00  0.15656662545E+04  0.40106148958E+04  0.36923869003E+04 0.  0.
        2    1    3    3  502    0 -0.13530710522E+04 -0.12461461636E+04  0.95370876600E+03  0.20720139825E+04  0.25500000920E-02 0. -1.
       -2    1    3    3    0  502  0.13530710522E+04  0.12461461636E+04  0.61195748852E+03  0.19386009133E+04  0.25500000920E-02 0.  1.
</event>
<event>
 5   0  0.7309833E-08  0.3692468E+04  0.7818609E-02  0.8069633E-01
       -2   -1    0    0    0  501  0.00000000000E+00  0.00000000000E+00  0.11053605000E+04  0.11053605000E+04  0.25500000920E-02 0. -1.
        2   -1    0    0  501    0  0.00000000000E+00  0.00000000000E+00 -0.30836821439E+04  0.30836821439E+04  0.25500000920E-02 0.  1.
    10030    2    1    2    0    0  0.00000000000E+00  0.00000000000E+00 -0.19783216439E+04  0.41890426439E+04  0.36924682457E+04 0.  0.
        2    1    3    3  502    0  0.12980575444E+04  0.47265360257E+03  0.40039596943E+03  0.14382877838E+04  0.25500000920E-02 0. -1.
       -2    1    3    3    0  502 -0.12980575444E+04 -0.47265360257E+03 -0.23787176133E+04  0.27507548601E+04  0.25500000920E-02 0.  1.
</event>
<event>
 5   0  0.2282000E-08  0.3693855E+04  0.7818609E-02  0.8069325E-01
       -1   -1    0    0    0  501  0.00000000000E+00  0.00000000000E+00  0.17226077122E+04  0.17226077122E+04  0.50400001928E-02 0.  1.
        1   -1    0    0  501    0  0.00000000000E+00  0.00000000000E+00 -0.19802197571E+04  0.19802197571E+04  0.50400001928E-02 0. -1.
    10030    2    1    2    0    0  0.00000000000E+00  0.00000000000E+00 -0.25761204488E+03  0.37028274692E+04  0.36938553438E+04 0.  0.
        3    1    3    3  502    0 -0.80687881966E+03  0.93626107790E+03  0.12469354132E+04  0.17557010482E+04  0.10100000352E+00 0.  1.
       -3    1    3    3    0  502  0.80687881966E+03 -0.93626107790E+03 -0.15045474581E+04  0.19471264211E+04  0.10100000352E+00 0. -1.
</event>
<event>
 5   0  0.7203049E-08  0.3659140E+04  0.7818609E-02  0.8077078E-01
       -2   -1    0    0    0  501  0.00000000000E+00  0.00000000000E+00  0.12573171981E+04  0.12573171981E+04  0.25500000920E-02 0.  1.
        2   -1    0    0  501    0  0.00000000000E+00  0.00000000000E+00 -0.26622770838E+04  0.26622770838E+04  0.25500000920E-02 0. -1.
    10030    2    1    2    0    0  0.00000000000E+00  0.00000000000E+00 -0.14049598857E+04  0.39195942819E+04  0.36591402070E+04 0.  0.
        4    1    3    3  502    0  0.21186013190E+03  0.18037832805E+04 -0.46583345645E+03  0.18749723360E+04  0.12699999809E+01 0.  1.
       -4    1    3    3    0  502 -0.21186013190E+03 -0.18037832805E+04 -0.93912642920E+03  0.20446219459E+04  0.12699999809E+01 0. -1.
</event>
<event>
 5   0  0.2282000E-08  0.3706438E+04  0.7818609E-02  0.8066537E-01
        1   -1    0    0  501    0  0.00000000000E+00  0.00000000000E+00  0.24295300105E+04  0.24295300105E+04  0.50400001928E-02 0. -1.
       -1   -1    0    0    0  501  0.00000000000E+00  0.00000000000E+00 -0.14136153195E+04  0.14136153195E+04  0.50400001928E-02 0.  1.
    10030    2    1    2    0    0  0.00000000000E+00  0.00000000000E+00  0.10159146910E+04  0.38431453300E+04  0.37064380972E+04 0.  0.
        1    1    3    3  502    0  0.12833142105E+04  0.10553434326E+04 -0.34315665491E+03  0.16965852803E+04  0.50400001928E-02 0.  1.
       -1    1    3    3    0  502 -0.12833142105E+04 -0.10553434326E+04  0.13590713459E+04  0.21465600497E+04  0.50400001928E-02 0. -1.
</event>
<event>
 5   0  0.7309833E-08  0.3706202E+04  0.7818609E-02  0.8066589E-01
        2   -1    0    0  501    0  0.00000000000E+00  0.00000000000E+00  0.25724084034E+04  0.25724084034E+04  0.25500000920E-02 0.  1.
       -2   -1    0    0    0  501  0.00000000000E+00  0.00000000000E+00 -0.13349294567E+04  0.13349294567E+04  0.25500000920E-02 0. -1.
    10030    2    1    2    0    0  0.00000000000E+00  0.00000000000E+00  0.12374789468E+04  0.39073378601E+04  0.37062022354E+04 0.  0.
        2    1    3    3  502    0  0.11539892002E+04 -0.18822027408E+03 -0.89694217424E+03  0.14736428366E+04  0.25500000920E-02 0. -1.
       -2    1    3    3    0  502 -0.11539892002E+04  0.18822027408E+03  0.21344211210E+04  0.24336950235E+04  0.25500000920E-02 0.  1.
</event>
<event>
 5   0  0.2282000E-08  0.3688502E+04  0.7818609E-02  0.8070515E-01
       -1   -1    0    0    0  501  0.00000000000E+00  0.00000000000E+00  0.15565674114E+04  0.15565674114E+04  0.50400001928E-02 0.  1.
        1   -1    0    0  501    0  0.00000000000E+00  0.00000000000E+00 -0.21851041115E+04  0.21851041115E+04  0.50400001928E-02 0. -1.
    10030    2    1    2    0    0  0.00000000000E+00  0.00000000000E+00 -0.62853670012E+03  0.37416715229E+04  0.36885020539E+04 0.  0.
        5    1    3    3  502    0 -0.24385347706E+03 -0.28762989854E+03 -0.21455736817E+04  0.21784636767E+04  0.46999998093E+01 0. -1.
       -5    1    3    3    0  502  0.24385347706E+03  0.28762989854E+03  0.15170369816E+04  0.15632078462E+04  0.46999998093E+01 0.  1.
</event>
<event>
 5   0  0.7362817E-08  0.3711748E+04  0.7818609E-02  0.8065363E-01
        2   -1    0    0  501    0  0.00000000000E+00  0.00000000000E+00  0.24933823491E+04  0.24933823491E+04  0.25500000920E-02 0. -1.
       -2   -1    0    0    0  501  0.00000000000E+00  0.00000000000E+00 -0.13813635226E+04  0.13813635226E+04  0.25500000920E-02 0.  1.
    10030    2    1    2    0    0  0.00000000000E+00  0.00000000000E+00  0.11120188265E+04  0.38747458716E+04  0.37117475263E+04 0.  0.
        1    1    3    3  502    0 -0.77202133490E+03  0.16740460205E+04  0.77946656309E+03  0.20015032209E+04  0.50400001928E-02 0.  1.
       -1    1    3    3    0  502  0.77202133490E+03 -0.16740460205E+04  0.33255226340E+03  0.18732426507E+04  0.50400001928E-02 0. -1.
</event>
<event>
 5   0  0.7191801E-08  0.3703176E+04  0.7818609E-02  0.8067258E-01
        2   -1    0    0  501    0  0.00000000000E+00  0.00000000000E+00  0.28227415061E+04  0.28227415061E+04  0.25500000920E-02 0.  1.
       -2   -1    0    0    0  501  0.00000000000E+00  0.00000000000E+00 -0.12145562976E+04  0.12145562976E+04  0.25500000920E-02 0. -1.
    10030    2    1    2    0    0  0.00000000000E+00  0.00000000000E+00  0.16081852085E+04  0.40372978037E+04  0.37031761896E+04 0.  0.
        5    1    3    3  502    0  0.21692569008E+03  0.11835200894E+04 -0.73021552339E+03  0.14074847628E+04  0.46999998093E+01 0. -1.
       -5    1    3    3    0  502 -0.21692569008E+03 -0.11835200894E+04  0.23384007319E+04  0.26298130409E+04  0.46999998093E+01 0.  1.
</event>
<event>
 5   0  0.2282000E-08  0.3698220E+04  0.7818609E-02  0.8068356E-01
       -1   -1    0    0    0  501  0.00000000000E+00  0.00000000000E+00  0.16540352602E+04  0.16540352602E+04  0.50400001928E-02 0. -1.
        1   -1    0    0  501    0  0.00000000000E+00  0.00000000000E+00 -0.20671917149E+04  0.20671917149E+04  0.50400001928E-02 0.  1.
    10030    2    1    2    0    0  0.00000000000E+00  0.00000000000E+00 -0.41315645472E+03  0.37212269751E+04  0.36982201049E+04 0.  0.
        1    1    3    3  502    0 -0.13584133843E+04  0.10859339486E+04  0.42555650084E+03  0.17904295012E+04  0.50400001928E-02 0. -1.
       -1    1    3    3    0  502  0.13584133843E+04 -0.10859339486E+04 -0.83871295556E+03  0.19307974739E+04  0.50400001928E-02 0.  1.
</event>
<event>
 5   0  0.2282000E-08  0.3700135E+04  0.7818609E-02  0.8067932E-01
        1   -1    0    0  501    0  0.00000000000E+00  0.00000000000E+00  0.18964231782E+04  0.18964231782E+04  0.50400001928E-02 0. -1.
       -1   -1    0    0    0  501  0.00000000000E+00  0.00000000000E+00 -0.18048448796E+04  0.18048448796E+04  0.50400001928E-02 0.  1.
    10030    2    1    2    0    0  0.00000000000E+00  0.00000000000E+00  0.91578298561E+02  0.37012680579E+04  0.37001349504E+04 0.  0.
        4    1    3    3  502    0 -0.12958641357E+03  0.13613320098E+04 -0.12006785455E+04  0.18197934119E+04  0.12699999809E+01 0.  1.
       -4    1    3    3    0  502  0.12958641357E+03 -0.13613320098E+04  0.12922568441E+04  0.18814746460E+04  0.12699999809E+01 0. -1.
</event>
<event>
 5   0  0.2282000E-08  0.3691123E+04  0.7818609E-02  0.8069932E-01
        1   -1    0    0  501    0  0.00000000000E+00  0.00000000000E+00  0.15436666837E+04  0.15436666837E+04  0.50400001928E-02 0.  1.
       -1   -1    0    0    0  501  0.00000000000E+00  0.00000000000E+00 -0.22064980609E+04  0.22064980609E+04  0.50400001928E-02 0. -1.
    10030    2    1    2    0    0  0.00000000000E+00  0.00000000000E+00 -0.66283137721E+03  0.37501647446E+04  0.36911231593E+04 0.  0.
        4    1    3    3  502    0 -0.14303525825E+04  0.11066855256E+04 -0.70531664387E+03  0.19411683451E+04  0.12699999809E+01 0. -1.
       -4    1    3    3    0  502  0.14303525825E+04 -0.11066855256E+04  0.42485266660E+02  0.18089963996E+04  0.12699999809E+01 0.  1.
</event>
<event>
 5   0  0.7309833E-08  0.3696288E+04  0.7818609E-02  0.8068785E-01
       -2   -1    0    0    0  501  0.00000000000E+00  0.00000000000E+00  0.14686739623E+04  0.14686739623E+04  0.25500000920E-02 0. -1.
        2   -1    0    0  501    0  0.00000000000E+00  0.00000000000E+00 -0.23256597108E+04  0.23256597108E+04  0.25500000920E-02 0.  1.
    10030    2    1    2    0    0  0.00000000000E+00  0.00000000000E+00 -0.85698574853E+03  0.37943336731E+04  0.36962877932E+04 0.  0.
        2    1    3    3  502    0  0.13815487135E+04  0.11425585483E+04  0.32323304666E+02  0.17930871925E+04  0.25500000920E-02 0. -1.
       -2    1    3    3    0  502 -0.13815487135E+04 -0.11425585483E+04 -0.88930905319E+03  0.20012464806E+04  0.25500000920E-02 0.  1.
</event>
<event>
 5   0  0.7309833E-08  0.3695180E+04  0.7818609E-02  0.8069031E-01
        2   -1    0    0  501    0  0.00000000000E+00  0.00000000000E+00  0.21664273849E+04  0.21664273849E+04  0.25500000920E-02 0. -1.
       -2   -1    0    0    0  501  0.00000000000E+00  0.00000000000E+00 -0.15756763982E+04  0.15756763982E+04  0.25500000920E-02 0.  1.
    10030    2    1    2    0    0  0.00000000000E+00  0.00000000000E+00  0.59075098674E+03  0.37421037831E+04  0.36951798326E+04 0.  0.
        2    1    3    3  502    0 -0.10528948204E+04 -0.13038751772E+04  0.10830119635E+04  0.19953929171E+04  0.25500000920E-02 0. -1.
       -2    1    3    3    0  502  0.10528948204E+04  0.13038751772E+04 -0.49226097672E+03  0.17467108661E+04  0.25500000920E-02 0.  1.
</event>
<event>
 5   0  0.7203049E-08  0.3688423E+04  0.7818609E-02  0.8070532E-01
       -2   -1    0    0    0  501  0.00000000000E+00  0.00000000000E+00  0.13081183369E+04  0.13081183369E+04  0.25500000920E-02 0. -1.
        2   -1    0    0  501    0  0.00000000000E+00  0.00000000000E+00 -0.26000069349E+04  0.26000069349E+04  0.25500000920E-02 0.  1.
    10030    2    1    2    0    0  0.00000000000E+00  0.00000000000E+00 -0.12918885981E+04  0.39081252718E+04  0.36884233746E+04 0.  0.
        4    1    3    3  502    0  0.17456689740E+04 -0.20866031468E+03 -0.12360906092E+04  0.21491442252E+04  0.12699999809E+01 0. -1.
       -4    1    3    3    0  502 -0.17456689740E+04  0.20866031468E+03 -0.55797988839E+02  0.17589810466E+04  0.12699999809E+01 0.  1.
</event>
<event>
 5   0  0.7191801E-08  0.3699568E+04  0.7818609E-02  0.8068058E-01
        2   -1    0    0  501    0  0.00000000000E+00  0.00000000000E+00  0.24432751699E+04  0.24432751699E+04  0.25500000920E-02 0. -1.
       -2   -1    0    0    0  501  0.00000000000E+00  0.00000000000E+00 -0.14004564546E+04  0.14004564546E+04  0.25500000920E-02 0.  1.
    10030    2    1    2    0    0  0.00000000000E+00  0.00000000000E+00  0.10428187153E+04  0.38437316246E+04  0.36995678030E+04 0.  0.
        5    1    3    3  502    0  0.76890858141E+03  0.22440797162E+03 -0.12109269201E+04  0.14518765237E+04  0.46999998093E+01 0.  1.
       -5    1    3    3    0  502 -0.76890858141E+03 -0.22440797162E+03  0.22537456354E+04  0.23918551008E+04  0.46999998093E+01 0. -1.
</event>
<event>
 5   0  0.7309833E-08  0.3696286E+04  0.7818609E-02  0.8068785E-01
       -2   -1    0    0    0  501  0.00000000000E+00  0.00000000000E+00  0.11464038729E+04  0.11464038729E+04  0.25500000920E-02 0. -1.
        2   -1    0    0  501    0  0.00000000000E+00  0.00000000000E+00 -0.29794315703E+04  0.29794315703E+04  0.25500000920E-02 0.  1.
    10030    2    1    2    0    0  0.00000000000E+00  0.00000000000E+00 -0.18330276974E+04  0.41258354432E+04  0.36962856444E+04 0.  0.
        2    1    3    3  502    0  0.55430612566E+03 -0.10675729393E+04  0.64963215286E+03  0.13671097965E+04  0.25500000920E-02 0. -1.
       -2    1    3    3    0  502 -0.55430612566E+03  0.10675729393E+04 -0.24826598503E+04  0.27587256467E+04  0.25500000920E-02 0.  1.
</event>
<event>
 5   0  0.7362817E-08  0.3694706E+04  0.7818609E-02  0.8069136E-01
       -2   -1    0    0    0  501  0.00000000000E+00  0.00000000000E+00  0.17639978598E+04  0.17639978598E+04  0.25500000920E-02 0. -1.
        2   -1    0    0  501    0  0.00000000000E+00  0.00000000000E+00 -0.19346473595E+04  0.19346473595E+04  0.25500000920E-02 0.  1.
    10030    2    1    2    0    0  0.00000000000E+00  0.00000000000E+00 -0.17064949977E+03  0.36986452193E+04  0.36947063762E+04 0.  0.
        1    1    3    3  502    0  0.17029958253E+04 -0.24035615343E+03 -0.76039367233E+03  0.18804691963E+04  0.50400001928E-02 0. -1.
       -1    1    3    3    0  502 -0.17029958253E+04  0.24035615343E+03  0.58974417256E+03  0.18181760230E+04  0.50400001928E-02 0.  1.
</event>
<event>
 5   0  0.7203049E-08  0.3696354E+04  0.7818609E-02  0.8068770E-01
        2   -1    0    0  501    0  0.00000000000E+00  0.00000000000E+00  0.26683171480E+04  0.26683171480E+04  0.25500000920E-02 0.  1.
       -2   -1    0    0    0  501  0.00000000000E+00  0.00000000000E+00 -0.12801169605E+04  0.12801169605E+04  0.25500000920E-02 0. -1.
    10030    2    1    2    0    0  0.00000000000E+00  0.00000000000E+00  0.13882001874E+04  0.39484341085E+04  0.36963538993E+04 0.  0.
        4    1    3    3  502    0 -0.16990926192E+03 -0.15851969733E+04 -0.30455716510E+03  0.16231066759E+04  0.12699999809E+01 0. -1.
       -4    1    3    3    0  502  0.16990926192E+03  0.15851969733E+04  0.16927573525E+04  0.23253274326E+04  0.12699999809E+01 0.  1.
</event>
<event>
 5   0  0.7203049E-08  0.3741003E+04  0.7818609E-02  0.8058935E-01
       -2   -1    0    0    0  501  0.00000000000E+00  0.00000000000E+00  0.29256521523E+04  0.29256521523E+04  0.25500000920E-02 0.  1.
        2   -1    0    0  501    0  0.00000000000E+00  0.00000000000E+00 -0.11958963450E+04  0.11958963450E+04  0.25500000920E-02 0. -1.
    10030    2    1    2    0    0  0.00000000000E+00  0.00000000000E+00  0.17297558073E+04  0.41215484973E+04  0.37410034566E+04 0.  0.
        4    1    3    3  502    0 -0.11843633463E+04 -0.11294716555E+04  0.18627445744E+04  0.24795648245E+04  0.12699999809E+01 0.  1.
       -4    1    3    3    0  502  0.11843633463E+04  0.11294716555E+04 -0.13298876707E+03  0.16419836728E+04  0.12699999809E+01 0. -1.
</event>
<event>
 5   0  0.7191801E-08  0.3726102E+04  0.7818609E-02  0.8062202E-01
       -2   -1    0    0    0  501  0.00000000000E+00  0.00000000000E+00  0.12962186448E+04  0.12962186448E+04  0.25500000920E-02 0.  1.
        2   -1    0    0  501    0  0.00000000000E+00  0.00000000000E+00 -0.26777572025E+04  0.26777572025E+04  0.25500000920E-02 0. -1.
    10030    2    1    2    0    0  0.00000000000E+00  0.00000000000E+00 -0.13815385577E+04  0.39739758473E+04  0.37261018838E+04 0.  0.
        5    1    3    3  502    0  0.55100945923E+03  0.66462355967E+03  0.10699966391E+04  0.13748639198E+04  0.46999998093E+01 0.  1.
       -5    1    3    3    0  502 -0.55100945923E+03 -0.66462355967E+03 -0.24515351968E+04  0.25991119275E+04  0.46999998093E+01 0. -1.
</event>
<event>
 5   0  0.2282000E-08  0.3701144E+04  0.7818609E-02  0.8067708E-01
       -1   -1    0    0    0  501  0.00000000000E+00  0.00000000000E+00  0.18365727165E+04  0.18365727165E+04  0.50400001928E-02 0.  1.
        1   -1    0    0  501    0  0.00000000000E+00  0.00000000000E+00 -0.18646779330E+04  0.18646779330E+04  0.50400001928E-02 0. -1.
    10030    2    1    2    0    0  0.00000000000E+00  0.00000000000E+00 -0.28105216490E+02  0.37012506495E+04  0.37011439404E+04 0.  0.
        4    1    3    3  502    0  0.83182469340E+03  0.67820926600E+03  0.14935434676E+04  0.18391774878E+04  0.12699999809E+01 0.  1.
       -4    1    3    3    0  502 -0.83182469340E+03 -0.67820926600E+03 -0.15216486841E+04  0.18620731618E+04  0.12699999809E+01 0. -1.
</event>
<event>
 5   0  0.7191801E-08  0.3678339E+04  0.7818609E-02  0.8072779E-01
        2   -1    0    0  501    0  0.00000000000E+00  0.00000000000E+00  0.15901509069E+04  0.15901509069E+04  0.25500000920E-02 0.  1.
       -2   -1    0    0    0  501  0.00000000000E+00  0.00000000000E+00 -0.21271848925E+04  0.21271848925E+04  0.25500000920E-02 0. -1.
    10030    2    1    2    0    0  0.00000000000E+00  0.00000000000E+00 -0.53703398565E+03  0.37173357994E+04  0.36783392916E+04 0.  0.
        5    1    3    3  502    0  0.84968351678E+03  0.10493114479E+01 -0.19169318245E+04  0.20968101701E+04  0.46999998093E+01 0. -1.
       -5    1    3    3    0  502 -0.84968351678E+03 -0.10493114479E+01  0.13798978388E+04  0.16205256293E+04  0.46999998093E+01 0.  1.
</event>
<event>
 5   0  0.7254493E-08  0.3698425E+04  0.7818609E-02  0.8068311E-01
        2   -1    0    0  501    0  0.00000000000E+00  0.00000000000E+00  0.18211875791E+04  0.18211875791E+04  0.25500000920E-02 0. -1.
       -2   -1    0    0    0  501  0.00000000000E+00  0.00000000000E+00 -0.18776690745E+04  0.18776690745E+04  0.25500000920E-02 0.  1.
    10030    2    1    2    0    0  0.00000000000E+00  0.00000000000E+00 -0.56481495408E+02  0.36988566536E+04  0.36984253925E+04 0.  0.
        3    1    3    3  502    0  0.12800479981E+04 -0.13214660802E+04 -0.21478892296E+03  0.18522769151E+04  0.10100000352E+00 0.  1.
       -3    1    3    3    0  502 -0.12800479981E+04  0.13214660802E+04  0.15830742755E+03  0.18465797384E+04  0.10100000352E+00 0. -1.
</event>
<event>
 5   0  0.2282000E-08  0.3694458E+04  0.7818609E-02  0.8069191E-01
        1   -1    0    0  501    0  0.00000000000E+00  0.00000000000E+00  0.16508834414E+04  0.16508834414E+04  0.50400001928E-02 0.  1.
       -1   -1    0    0    0  501  0.00000000000E+00  0.00000000000E+00 -0.20669265241E+04  0.20669265241E+04  0.50400001928E-02 0. -1.
    10030    2    1    2    0    0  0.00000000000E+00  0.00000000000E+00 -0.41604308273E+03  0.37178099655E+04  0.36944578889E+04 0.  0.
        2    1    3    3  502    0  0.93822286441E+03 -0.15697333795E+04  0.54259237777E+02  0.18295543422E+04  0.25500000920E-02 0. -1.
       -2    1    3    3    0  502 -0.93822286441E+03  0.15697333795E+04 -0.47030232051E+03  0.18882556233E+04  0.25500000920E-02 0.  1.
</event>
<event>
 5   0  0.2282000E-08  0.3701985E+04  0.7818609E-02  0.8067522E-01
       -1   -1    0    0    0  501  0.00000000000E+00  0.00000000000E+00  0.15992231711E+04  0.15992231711E+04  0.50400001928E-02 0.  1.
        1   -1    0    0  501    0  0.00000000000E+00  0.00000000000E+00 -0.21423979752E+04  0.21423979752E+04  0.50400001928E-02 0. -1.
    10030    2    1    2    0    0  0.00000000000E+00  0.00000000000E+00 -0.54317480413E+03  0.37416211463E+04  0.37019845940E+04 0.  0.
        1    1    3    3  502    0 -0.17864571141E+04 -0.42930425084E+03 -0.44591279029E+02  0.18378573238E+04  0.50400001928E-02 0. -1.
       -1    1    3    3    0  502  0.17864571141E+04  0.42930425084E+03 -0.49858352510E+03  0.19037638225E+04  0.50400001928E-02 0.  1.
</event>
<event>
 5   0  0.2282000E-08  0.3701888E+04  0.7818609E-02  0.8067544E-01
       -1   -1    0    0    0  501  0.00000000000E+00  0.00000000000E+00  0.19096216713E+04  0.19096216713E+04  0.50400001928E-02 0.  1.
        1   -1    0    0  501    0  0.00000000000E+00  0.00000000000E+00 -0.17940692461E+04  0.17940692461E+04  0.50400001928E-02 0. -1.
    10030    2    1    2    0    0  0.00000000000E+00  0.00000000000E+00  0.11555242520E+03  0.37036909174E+04  0.37018879033E+04 0.  0.
        5    1    3    3  502    0  0.18234285273E+04 -0.31053535370E+03 -0.10430460884E+02  0.18497174608E+04  0.46999998093E+01 0.  1.
       -5    1    3    3    0  502 -0.18234285273E+04  0.31053535370E+03  0.12598288608E+03  0.18539734566E+04  0.46999998093E+01 0. -1.
</event>
<event>
 5   0  0.2282000E-08  0.3696258E+04  0.7818609E-02  0.8068792E-01
       -1   -1    0    0    0  501  0.00000000000E+00  0.00000000000E+00  0.18116806287E+04  0.18116806287E+04  0.50400001928E-02 0.  1.
        1   -1    0    0  501    0  0.00000000000E+00  0.00000000000E+00 -0.18853109793E+04  0.18853109793E+04  0.50400001928E-02 0. -1.
    10030    2    1    2    0    0  0.00000000000E+00  0.00000000000E+00 -0.73630350545E+02  0.36969916080E+04  0.36962583136E+04 0.  0.
        5    1    3    3  502    0  0.12646810890E+04 -0.13215558832E+04  0.22711419317E+03  0.18432393106E+04  0.46999998093E+01 0.  1.
       -5    1    3    3    0  502 -0.12646810890E+04  0.13215558832E+04 -0.30074454371E+03  0.18537522974E+04  0.46999998093E+01 0. -1.
</event>
<event>
 5   0  0.7362817E-08  0.3702022E+04  0.7818609E-02  0.8067514E-01
        2   -1    0    0  501    0  0.00000000000E+00  0.00000000000E+00  0.25056218922E+04  0.25056218922E+04  0.25500000920E-02 0.  1.
       -2   -1    0    0    0  501  0.00000000000E+00  0.00000000000E+00 -0.13674217230E+04  0.13674217230E+04  0.25500000920E-02 0. -1.
    10030    2    1    2    0    0  0.00000000000E+00  0.00000000000E+00  0.11382001692E+04  0.38730436152E+04  0.37020220448E+04 0.  0.
        1    1    3    3  502    0 -0.12739202590E+04 -0.28277450290E+03 -0.80433261731E+03  0.15329009117E+04  0.50400001928E-02 0. -1.
       -1    1    3    3    0  502  0.12739202590E+04  0.28277450290E+03  0.19425327865E+04  0.23401427035E+04  0.50400001928E-02 0.  1.
</event>
<event>
 5   0  0.7362817E-08  0.3700342E+04  0.7818609E-02  0.8067886E-01
        2   -1    0    0  501    0  0.00000000000E+00  0.00000000000E+00  0.28443499862E+04  0.28443499862E+04  0.25500000920E-02 0.  1.
       -2   -1    0    0    0  501  0.00000000000E+00  0.00000000000E+00 -0.12034849216E+04  0.12034849216E+04  0.25500000920E-02 0. -1.
    10030    2    1    2    0    0  0.00000000000E+00  0.00000000000E+00  0.16408650645E+04  0.40478349078E+04  0.37003417789E+04 0.  0.
        1    1    3    3  502    0  0.89634476350E+03 -0.15291872532E+04  0.14006008785E+04  0.22590994691E+04  0.50400001928E-02 0.  1.
       -1    1    3    3    0  502 -0.89634476350E+03  0.15291872532E+04  0.24026418605E+03  0.17887354387E+04  0.50400001928E-02 0. -1.
</event>
<event>
 5   0  0.2282000E-08  0.3700543E+04  0.7818609E-02  0.8067842E-01
        1   -1    0    0  501    0  0.00000000000E+00  0.00000000000E+00  0.23990057004E+04  0.23990057004E+04  0.50400001928E-02 0. -1.
       -1   -1    0    0    0  501  0.00000000000E+00  0.00000000000E+00 -0.14270511442E+04  0.14270511442E+04  0.50400001928E-02 0.  1.
    10030    2    1    2    0    0  0.00000000000E+00  0.00000000000E+00  0.97195455619E+03  0.38260568446E+04  0.37005425708E+04 0.  0.
        1    1    3    3  502    0 -0.16987211310E+04 -0.58612444018E+03  0.30221796106E+02  0.17972503157E+04  0.50400001928E-02 0.  1.
       -1    1    3    3    0  502  0.16987211310E+04  0.58612444018E+03  0.94173276008E+03  0.20288065289E+04  0.50400001928E-02 0. -1.
</event>
<event>
 5   0  0.7309833E-08  0.3697460E+04  0.7818609E-02  0.8068525E-01
        2   -1    0    0  501    0  0.00000000000E+00  0.00000000000E+00  0.19046234814E+04  0.19046234814E+04  0.25500000920E-02 0. -1.
       -2   -1    0    0    0  501  0.00000000000E+00  0.00000000000E+00 -0.17944768871E+04  0.17944768871E+04  0.25500000920E-02 0.  1.
    10030    2    1    2    0    0  0.00000000000E+00  0.00000000000E+00  0.11014659430E+03  0.36991003684E+04  0.36974601098E+04 0.  0.
        2    1    3    3  502    0 -0.34542659040E+03  0.80021372256E+03 -0.15760306863E+04  0.18009814700E+04  0.25500000920E-02 0.  1.
       -2    1    3    3    0  502  0.34542659040E+03 -0.80021372256E+03  0.16861772806E+04  0.18981188985E+04  0.25500000920E-02 0. -1.
</event>
<event>
 5   0  0.7191801E-08  0.3700358E+04  0.7818609E-02  0.8067883E-01
       -2   -1    0    0    0  501  0.00000000000E+00  0.00000000000E+00  0.18426563298E+04  0.18426563298E+04  0.25500000920E-02 0. -1.
        2   -1    0    0  501    0  0.00000000000E+00  0.00000000000E+00 -0.18577321165E+04  0.18577321165E+04  0.25500000920E-02 0.  1.
    10030    2    1    2    0    0  0.00000000000E+00  0.00000000000E+00 -0.15075786717E+02  0.37003884463E+04  0.37003577359E+04 0.  0.
        5    1    3    3  502    0  0.70014756653E+03 -0.11160476957E+04 -0.13065370033E+04  0.18554864874E+04  0.46999998093E+01 0.  1.
       -5    1    3    3    0  502 -0.70014756653E+03  0.11160476957E+04  0.12914612166E+04  0.18449019589E+04  0.46999998093E+01 0. -1.
</event>
<event>
 5   0  0.7191801E-08  0.3697921E+04  0.7818609E-02  0.8068423E-01
        2   -1    0    0  501    0  0.00000000000E+00  0.00000000000E+00  0.17120185310E+04  0.17120185310E+04  0.25500000920E-02 0.  1.
       -2   -1    0    0    0  501  0.00000000000E+00  0.00000000000E+00 -0.19968561193E+04  0.19968561193E+04  0.25500000920E-02 0. -1.
    10030    2    1    2    0    0  0.00000000000E+00  0.00000000000E+00 -0.28483758830E+03  0.37088746504E+04  0.36979208645E+04 0.  0.
        5    1    3    3  502    0  0.28214872288E+03  0.16147497683E+04 -0.10002932336E+04  0.19203211604E+04  0.46999998093E+01 0. -1.
       -5    1    3    3    0  502 -0.28214872288E+03 -0.16147497683E+04  0.71545564529E+03  0.17885534899E+04  0.46999998093E+01 0.  1.
</event>
<event>
 5   0  0.2282000E-08  0.3704589E+04  0.7818609E-02  0.8066946E-01
       -1   -1    0    0    0  501  0.00000000000E+00  0.00000000000E+00  0.22981176548E+04  0.22981176548E+04  0.50400001928E-02 0. -1.
        1   -1    0    0  501    0  0.00000000000E+00  0.00000000000E+00 -0.14929587831E+04  0.14929587831E+04  0.50400001928E-02 0.  1.
    10030    2    1    2    0    0  0.00000000000E+00  0.00000000000E+00  0.80515887174E+03  0.37910764380E+04  0.37045890122E+04 0.  0.
        1    1    3    3  502    0  0.72557206562E+03  0.22444846868E+02 -0.13413284051E+04  0.15251624451E+04  0.50400001928E-02 0.  1.
       -1    1    3    3    0  502 -0.72557206562E+03 -0.22444846868E+02  0.21464872768E+04  0.22659139929E+04  0.50400001928E-02 0. -1.
</event>
<event>
 5   0  0.2282000E-08  0.3718586E+04  0.7818609E-02  0.8063855E-01
        1   -1    0    0  501    0  0.00000000000E+00  0.00000000000E+00  0.16969335237E+04  0.16969335237E+04  0.50400001928E-02 0. -1.
       -1   -1    0    0    0  501  0.00000000000E+00  0.00000000000E+00 -0.20371872728E+04  0.20371872728E+04  0.50400001928E-02 0.  1.
    10030    2    1    2    0    0  0.00000000000E+00  0.00000000000E+00 -0.34025374909E+03  0.37341207965E+04  0.37185864934E+04 0.  0.
        4    1    3    3  502    0 -0.64387710366E+03 -0.13110023840E+04  0.98518565568E+03  0.17617881157E+04  0.12699999809E+01 0. -1.
       -4    1    3    3    0  502  0.64387710366E+03  0.13110023840E+04 -0.13254394048E+04  0.19723326809E+04  0.12699999809E+01 0.  1.
</event>
<event>
 5   0  0.7254493E-08  0.3699111E+04  0.7818609E-02  0.8068159E-01
       -2   -1    0    0    0  501  0.00000000000E+00  0.00000000000E+00  0.12885220490E+04  0.12885220490E+04  0.25500000920E-02 0. -1.
        2   -1    0    0  501    0  0.00000000000E+00  0.00000000000E+00 -0.26548677959E+04  0.26548677959E+04  0.25500000920E-02 0.  1.
    10030    2    1    2    0    0  0.00000000000E+00  0.00000000000E+00 -0.13663457469E+04  0.39433898449E+04  0.36991110782E+04 0.  0.
        3    1    3    3  502    0  0.61694594175E+03  0.16650524715E+04 -0.13147042112E+03  0.17805354559E+04  0.10100000352E+00 0. -1.
       -3    1    3    3    0  502 -0.61694594175E+03 -0.16650524715E+04 -0.12348753257E+04  0.21628543890E+04  0.10100000352E+00 0.  1.
</event>
<event>
 5   0  0.7362817E-08  0.3701436E+04  0.7818609E-02  0.8067644E-01
       -2   -1    0    0    0  501  0.00000000000E+00  0.00000000000E+00  0.11885242731E+04  0.11885242731E+04  0.25500000920E-02 0. -1.
        2   -1    0    0  501    0  0.00000000000E+00  0.00000000000E+00 -0.28818576837E+04  0.28818576837E+04  0.25500000920E-02 0.  1.
    10030    2    1    2    0    0  0.00000000000E+00  0.00000000000E+00 -0.16933334106E+04  0.40703819568E+04  0.37014363746E+04 0.  0.
        1    1    3    3  502    0  0.75829793707E+03 -0.14911510589E+04  0.23823187991E+02  0.16730555239E+04  0.50400001928E-02 0. -1.
       -1    1    3    3    0  502 -0.75829793707E+03  0.14911510589E+04 -0.17171565986E+04  0.23973264329E+04  0.50400001928E-02 0.  1.
</event>
<event>
 5   0  0.7191801E-08  0.3705871E+04  0.7818609E-02  0.8066662E-01
        2   -1    0    0  501    0  0.00000000000E+00  0.00000000000E+00  0.12388542842E+04  0.12388542842E+04  0.25500000920E-02 0.  1.
       -2   -1    0    0    0  501  0.00000000000E+00  0.00000000000E+00 -0.27714077361E+04  0.27714077361E+04  0.25500000920E-02 0. -1.
    10030    2    1    2    0    0  0.00000000000E+00  0.00000000000E+00 -0.15325534519E+04  0.40102620203E+04  0.37058712051E+04 0.  0.
        5    1    3    3  502    0  0.10168012356E+04  0.36983611221E+03 -0.23940520214E+04  0.26271982555E+04  0.46999998093E+01 0. -1.
       -5    1    3    3    0  502 -0.10168012356E+04 -0.36983611221E+03  0.86149856947E+03  0.13830637649E+04  0.46999998093E+01 0.  1.
</event>
<event>
 5   0  0.2282000E-08  0.3696772E+04  0.7818609E-02  0.8068677E-01
       -1   -1    0    0    0  501  0.00000000000E+00  0.00000000000E+00  0.12252208569E+04  0.12252208569E+04  0.50400001928E-02 0.  1.
        1   -1    0    0  501    0  0.00000000000E+00  0.00000000000E+00 -0.27885025720E+04  0.27885025720E+04  0.50400001928E-02 0. -1.
    10030    2    1    2    0    0  0.00000000000E+00  0.00000000000E+00 -0.15632817151E+04  0.40137234289E+04  0.36967723818E+04 0.  0.
        2    1    3    3  502    0  0.64332793564E+03  0.13217348464E+04  0.43500398320E+03  0.15329978155E+04  0.25500000920E-02 0.  1.
       -2    1    3    3    0  502 -0.64332793564E+03 -0.13217348464E+04 -0.19982856983E+04  0.24807256134E+04  0.25500000920E-02 0. -1.
</event>
<event>
 5   0  0.7254493E-08  0.3711716E+04  0.7818609E-02  0.8065370E-01
        2   -1    0    0  501    0  0.00000000000E+00  0.00000000000E+00  0.18101868400E+04  0.18101868400E+04  0.25500000920E-02 0. -1.
       -2   -1    0    0    0  501  0.00000000000E+00  0.00000000000E+00 -0.19026817506E+04  0.19026817506E+04  0.25500000920E-02 0.  1.
    10030    2    1    2    0    0  0.00000000000E+00  0.00000000000E+00 -0.92494910545E+02  0.37128685906E+04  0.37117162961E+04 0.  0.
        3    1    3    3  502    0  0.23090276534E+03 -0.18310774670E+04  0.14887380484E+03  0.18515734382E+04  0.10100000352E+00 0.  1.
       -3    1    3    3    0  502 -0.23090276534E+03  0.18310774670E+04 -0.24136871539E+03  0.18612951524E+04  0.10100000352E+00 0. -1.
</event>
<event>
 5   0  0.7203049E-08  0.3701732E+04  0.7818609E-02  0.8067578E-01
       -2   -1    0    0    0  501  0.00000000000E+00  0.00000000000E+00  0.29311845268E+04  0.29311845268E+04  0.25500000920E-02 0. -1.
        2   -1    0    0  501    0  0.00000000000E+00  0.00000000000E+00 -0.11687098680E+04  0.11687098680E+04  0.25500000920E-02 0.  1.
    10030    2    1    2    0    0  0.00000000000E+00  0.00000000000E+00  0.17624746587E+04  0.40998943948E+04  0.37017316388E+04 0.  0.
        4    1    3    3  502    0 -0.10512010784E+02  0.80962110578E+03 -0.96214712274E+03  0.12575076684E+04  0.12699999809E+01 0.  1.
       -4    1    3    3    0  502  0.10512010784E+02 -0.80962110578E+03  0.27246217815E+04  0.28423867264E+04  0.12699999809E+01 0. -1.
</event>
<event>
 5   0  0.2282000E-08  0.3649314E+04  0.7818609E-02  0.8079288E-01
        3   -1    0    0  501    0  0.00000000000E+00  0.00000000000E+00  0.22727042624E+04  0.22727042647E+04  0.10100000352E+00 0.  1.
       -3   -1    0    0    0  501  0.00000000000E+00  0.00000000000E+00 -0.14649389289E+04  0.14649389324E+04  0.10100000352E+00 0. -1.
    10030    2    1    2    0    0  0.00000000000E+00  0.00000000000E+00  0.80776533351E+03  0.37376431970E+04  0.36493138854E+04 0.  0.
        5    1    3    3  502    0  0.17723456383E+04 -0.43362298761E+03  0.39299948697E+03  0.18664695668E+04  0.46999998093E+01 0. -1.
       -5    1    3    3    0  502 -0.17723456383E+04  0.43362298761E+03  0.41476584654E+03  0.18711736302E+04  0.46999998093E+01 0.  1.
</event>
<event>
 5   0  0.7254493E-08  0.3751920E+04  0.7818609E-02  0.8056552E-01
        2   -1    0    0  501    0  0.00000000000E+00  0.00000000000E+00  0.12696240751E+04  0.12696240751E+04  0.25500000920E-02 0. -1.
       -2   -1    0    0    0  501  0.00000000000E+00  0.00000000000E+00 -0.27718639465E+04  0.27718639465E+04  0.25500000920E-02 0.  1.
    10030    2    1    2    0    0  0.00000000000E+00  0.00000000000E+00 -0.15022398714E+04  0.40414880217E+04  0.37519196151E+04 0.  0.
        3    1    3    3  502    0 -0.48949944150E+03  0.18073007346E+04 -0.62698920915E+03  0.19746040432E+04  0.10100000352E+00 0.  1.
       -3    1    3    3    0  502  0.48949944150E+03 -0.18073007346E+04 -0.87525066224E+03  0.20668839785E+04  0.10100000352E+00 0. -1.
</event>
<event>
 5   0  0.7203049E-08  0.3693366E+04  0.7818609E-02  0.8069434E-01
        2   -1    0    0  501    0  0.00000000000E+00  0.00000000000E+00  0.16369546045E+04  0.16369546045E+04  0.25500000920E-02 0.  1.
       -2   -1    0    0    0  501  0.00000000000E+00  0.00000000000E+00 -0.20832817716E+04  0.20832817716E+04  0.25500000920E-02 0. -1.
    10030    2    1    2    0    0  0.00000000000E+00  0.00000000000E+00 -0.44632716705E+03  0.37202363761E+04  0.36933657758E+04 0.  0.
        4    1    3    3  502    0 -0.58052572222E+03 -0.45578614032E+03 -0.19282534790E+04  0.20646825935E+04  0.12699999809E+01 0. -1.
       -4    1    3    3    0  502  0.58052572222E+03  0.45578614032E+03  0.14819263120E+04  0.16555537825E+04  0.12699999809E+01 0.  1.
</event>
<event>
 5   0  0.7362817E-08  0.3764498E+04  0.7818609E-02  0.8053817E-01
        2   -1    0    0  501    0  0.00000000000E+00  0.00000000000E+00  0.22557994881E+04  0.22557994881E+04  0.25500000920E-02 0. -1.
       -2   -1    0    0    0  501  0.00000000000E+00  0.00000000000E+00 -0.15705566015E+04  0.15705566015E+04  0.25500000920E-02 0.  1.
    10030    2    1    2    0    0  0.00000000000E+00  0.00000000000E+00  0.68524288661E+03  0.38263560895E+04  0.37644977235E+04 0.  0.
        1    1    3    3  502    0  0.44968005937E+03 -0.47705384129E+03 -0.14507599788E+04  0.15920103767E+04  0.50400001928E-02 0.  1.
       -1    1    3    3    0  502 -0.44968005937E+03  0.47705384129E+03  0.21360028654E+04  0.22343457128E+04  0.50400001928E-02 0. -1.
</event>
<event>
 5   0  0.2282000E-08  0.3678050E+04  0.7818609E-02  0.8072844E-01
       -1   -1    0    0    0  501  0.00000000000E+00  0.00000000000E+00  0.20210748499E+04  0.20210748499E+04  0.50400001928E-02 0.  1.
        1   -1    0    0  501    0  0.00000000000E+00  0.00000000000E+00 -0.16733736221E+04  0.16733736221E+04  0.50400001928E-02 0. -1.
    10030    2    1    2    0    0  0.00000000000E+00  0.00000000000E+00  0.34770122775E+03  0.36944484720E+04  0.36780502129E+04 0.  0.
        4    1    3    3  502    0  0.96173422743E+03 -0.88823034790E+03 -0.11234671549E+04  0.17251278028E+04  0.12699999809E+01 0. -1.
       -4    1    3    3    0  502 -0.96173422743E+03  0.88823034790E+03  0.14711683826E+04  0.19693206692E+04  0.12699999809E+01 0.  1.
</event>
<event>
 5   0  0.7254493E-08  0.3682022E+04  0.7818609E-02  0.8071958E-01
       -2   -1    0    0    0  501  0.00000000000E+00  0.00000000000E+00  0.17767786059E+04  0.17767786059E+04  0.25500000920E-02 0. -1.
        2   -1    0    0  501    0  0.00000000000E+00  0.00000000000E+00 -0.19075659733E+04  0.19075659733E+04  0.25500000920E-02 0.  1.
    10030    2    1    2    0    0  0.00000000000E+00  0.00000000000E+00 -0.13078736741E+03  0.36843445792E+04  0.36820224935E+04 0.  0.
        3    1    3    3  502    0 -0.29852825564E+03 -0.16557562057E+04 -0.81331049222E+03  0.18687219427E+04  0.10100000352E+00 0.  1.
       -3    1    3    3    0  502  0.29852825564E+03  0.16557562057E+04  0.68252312480E+03  0.18156226365E+04  0.10100000352E+00 0. -1.
</event>
<event>
 5   0  0.7191801E-08  0.3707211E+04  0.7818609E-02  0.8066366E-01
       -2   -1    0    0    0  501  0.00000000000E+00  0.00000000000E+00  0.19399365082E+04  0.19399365082E+04  0.25500000920E-02 0. -1.
        2   -1    0    0  501    0  0.00000000000E+00  0.00000000000E+00 -0.17711160396E+04  0.17711160396E+04  0.25500000920E-02 0.  1.
    10030    2    1    2    0    0  0.00000000000E+00  0.00000000000E+00  0.16882046857E+03  0.37110525478E+04  0.37072106309E+04 0.  0.
        5    1    3    3  502    0  0.20897794735E+03  0.18381773458E+04  0.19969397989E+03  0.18607706771E+04  0.46999998093E+01 0.  1.
       -5    1    3    3    0  502 -0.20897794735E+03 -0.18381773458E+04 -0.30873511323E+02  0.18502818707E+04  0.46999998093E+01 0. -1.
</event>
<event>
 5   0  0.2282000E-08  0.3696630E+04  0.7818609E-02  0.8068709E-01
        1   -1    0    0  501    0  0.00000000000E+00  0.00000000000E+00  0.15633075400E+04  0.15633075400E+04  0.50400001928E-02 0. -1.
       -1   -1    0    0    0  501  0.00000000000E+00  0.00000000000E+00 -0.21852821542E+04  0.21852821542E+04  0.50400001928E-02 0.  1.
    10030    2    1    2    0    0  0.00000000000E+00  0.00000000000E+00 -0.62197461421E+03  0.37485896942E+04  0.36966298536E+04 0.  0.
        3    1    3    3  502    0 -0.11230707304E+04 -0.45639429190E+03  0.11038604788E+04  0.16395400519E+04  0.10100000352E+00 0. -1.
       -3    1    3    3    0  502  0.11230707304E+04  0.45639429190E+03 -0.17258350930E+04  0.21090496423E+04  0.10100000352E+00 0.  1.
</event>
<event>
 5   0  0.2282000E-08  0.3699250E+04  0.7818609E-02  0.8068128E-01
        1   -1    0    0  501    0  0.00000000000E+00  0.00000000000E+00  0.10990182733E+04  0.10990182733E+04  0.50400001928E-02 0. -1.
       -1   -1    0    0    0  501  0.00000000000E+00  0.00000000000E+00 -0.31128803375E+04  0.31128803375E+04  0.50400001928E-02 0.  1.
    10030    2    1    2    0    0  0.00000000000E+00  0.00000000000E+00 -0.20138620643E+04  0.42118986108E+04  0.36992498556E+04 0.  0.
        4    1    3    3  502    0 -0.17987518083E+04 -0.12486992171E+03 -0.53746764675E+03  0.18814817696E+04  0.12699999809E+01 0. -1.
       -4    1    3    3    0  502  0.17987518083E+04  0.12486992171E+03 -0.14763944175E+04  0.23304168413E+04  0.12699999809E+01 0.  1.
</event>
<event>
 5   0  0.7203049E-08  0.3696453E+04  0.7818609E-02  0.8068748E-01
        2   -1    0    0  501    0  0.00000000000E+00  0.00000000000E+00  0.20393638787E+04  0.20393638787E+04  0.25500000920E-02 0. -1.
       -2   -1    0    0    0  501  0.00000000000E+00  0.00000000000E+00 -0.16750034937E+04  0.16750034937E+04  0.25500000920E-02 0.  1.
    10030    2    1    2    0    0  0.00000000000E+00  0.00000000000E+00  0.36436038492E+03  0.37143673724E+04  0.36964532307E+04 0.  0.
        4    1    3    3  502    0 -0.10430689958E+04  0.13513147054E+04 -0.52969909000E+03  0.17873519804E+04  0.12699999809E+01 0.  1.
       -4    1    3    3    0  502  0.10430689958E+04 -0.13513147054E+04  0.89405947492E+03  0.19270153919E+04  0.12699999809E+01 0. -1.
</event>
<event>
 5   0  0.2282000E-08  0.3695557E+04  0.7818609E-02  0.8068947E-01
        1   -1    0    0  501    0  0.00000000000E+00  0.00000000000E+00  0.16256355249E+04  0.16256355249E+04  0.50400001928E-02 0. -1.
       -1   -1    0    0    0  501  0.00000000000E+00  0.00000000000E+00 -0.21002769507E+04  0.21002769507E+04  0.50400001928E-02 0.  1.
    10030    2    1    2    0    0  0.00000000000E+00  0.00000000000E+00 -0.47464142584E+03  0.37259124756E+04  0.36955566959E+04 0.  0.
        3    1    3    3  502    0 -0.11644520120E+03 -0.14036058498E+04  0.96858765886E+03  0.17093364003E+04  0.10100000352E+00 0. -1.
       -3    1    3    3    0  502  0.11644520120E+03  0.14036058498E+04 -0.14432290847E+04  0.20165760753E+04  0.10100000352E+00 0.  1.
</event>
<event>
 5   0  0.7191801E-08  0.3678865E+04  0.7818609E-02  0.8072662E-01
        2   -1    0    0  501    0  0.00000000000E+00  0.00000000000E+00  0.29592989078E+04  0.29592989078E+04  0.25500000920E-02 0. -1.
       -2   -1    0    0    0  501  0.00000000000E+00  0.00000000000E+00 -0.11433489976E+04  0.11433489976E+04  0.25500000920E-02 0.  1.
    10030    2    1    2    0    0  0.00000000000E+00  0.00000000000E+00  0.18159499103E+04  0.41026479054E+04  0.36788647378E+04 0.  0.
        5    1    3    3  502    0 -0.50382197294E+03  0.15176630935E+04 -0.10577964410E+03  0.16026070226E+04  0.46999998093E+01 0.  1.
       -5    1    3    3    0  502  0.50382197294E+03 -0.15176630935E+04  0.19217295544E+04  0.25000408828E+04  0.46999998093E+01 0. -1.
</event>
<event>
 5   0  0.7309833E-08  0.3700212E+04  0.7818609E-02  0.8067915E-01
        2   -1    0    0  501    0  0.00000000000E+00  0.00000000000E+00  0.13726848247E+04  0.13726848247E+04  0.25500000920E-02 0.  1.
       -2   -1    0    0    0  501  0.00000000000E+00  0.00000000000E+00 -0.24935748316E+04  0.24935748316E+04  0.25500000920E-02 0. -1.
    10030    2    1    2    0    0  0.00000000000E+00  0.00000000000E+00 -0.11208900069E+04  0.38662596562E+04  0.37002120644E+04 0.  0.
        2    1    3    3  502    0 -0.62174676525E+03  0.17170818185E+04 -0.25056716414E+03  0.18432913267E+04  0.25500000920E-02 0.  1.
       -2    1    3    3    0  502  0.62174676525E+03 -0.17170818185E+04 -0.87032284278E+03  0.20229683295E+04  0.25500000920E-02 0. -1.
</event>
<event>
 5   0  0.7191801E-08  0.3704660E+04  0.7818609E-02  0.8066930E-01
        2   -1    0    0  501    0  0.00000000000E+00  0.00000000000E+00  0.24104111321E+04  0.24104111321E+04  0.25500000920E-02 0. -1.
       -2   -1    0    0    0  501  0.00000000000E+00  0.00000000000E+00 -0.14234613780E+04  0.14234613780E+04  0.25500000920E-02 0.  1.
    10030    2    1    2    0    0  0.00000000000E+00  0.00000000000E+00  0.98694975410E+03  0.38338725102E+04  0.37046603903E+04 0.  0.
        5    1    3    3  502    0  0.98636257183E+03 -0.59540600166E+03 -0.10075216430E+04  0.15305363051E+04  0.46999998093E+01 0.  1.
       -5    1    3    3    0  502 -0.98636257183E+03  0.59540600166E+03  0.19944713971E+04  0.23033362051E+04  0.46999998093E+01 0. -1.
</event>
<event>
 5   0  0.2282000E-08  0.3702719E+04  0.7818609E-02  0.8067360E-01
       -1   -1    0    0    0  501  0.00000000000E+00  0.00000000000E+00  0.18077341407E+04  0.18077341407E+04  0.50400001928E-02 0. -1.
        1   -1    0    0  501    0  0.00000000000E+00  0.00000000000E+00 -0.18960377820E+04  0.18960377820E+04  0.50400001928E-02 0.  1.
    10030    2    1    2    0    0  0.00000000000E+00  0.00000000000E+00 -0.88303641238E+02  0.37037719227E+04  0.37027191255E+04 0.  0.
        5    1    3    3  502    0  0.63946516958E+03  0.11271323768E+02 -0.17820195156E+04  0.18933194105E+04  0.46999998093E+01 0.  1.
       -5    1    3    3    0  502 -0.63946516958E+03 -0.11271323768E+02  0.16937158744E+04  0.18104525122E+04  0.46999998093E+01 0. -1.
</event>
<event>
 5   0  0.2282000E-08  0.3696004E+04  0.7818609E-02  0.8068848E-01
        1   -1    0    0  501    0  0.00000000000E+00  0.00000000000E+00  0.25109750088E+04  0.25109750088E+04  0.50400001928E-02 0.  1.
       -1   -1    0    0    0  501  0.00000000000E+00  0.00000000000E+00 -0.13600741638E+04  0.13600741638E+04  0.50400001928E-02 0. -1.
    10030    2    1    2    0    0  0.00000000000E+00  0.00000000000E+00  0.11509008450E+04  0.38710491726E+04  0.36960044564E+04 0.  0.
        4    1    3    3  502    0  0.18175048486E+04 -0.49651103500E+02  0.92174765790E+03  0.20384821472E+04  0.12699999809E+01 0.  1.
       -4    1    3    3    0  502 -0.18175048486E+04  0.49651103500E+02  0.22915318712E+03  0.18325670254E+04  0.12699999809E+01 0. -1.
</event>
<event>
 5   0  0.7254493E-08  0.3680100E+04  0.7818609E-02  0.8072386E-01
       -2   -1    0    0    0  501  0.00000000000E+00  0.00000000000E+00  0.14021641549E+04  0.14021641549E+04  0.25500000920E-02 0.  1.
        2   -1    0    0  501    0  0.00000000000E+00  0.00000000000E+00 -0.24146850769E+04  0.24146850769E+04  0.25500000920E-02 0. -1.
    10030    2    1    2    0    0  0.00000000000E+00  0.00000000000E+00 -0.10125209220E+04  0.38168492318E+04  0.36801004661E+04 0.  0.
        3    1    3    3  502    0  0.68581585878E+03  0.14328856538E+04  0.45683542432E+03  0.16529377799E+04  0.10100000352E+00 0.  1.
       -3    1    3    3    0  502 -0.68581585878E+03 -0.14328856538E+04 -0.14693563463E+04  0.21639114519E+04  0.10100000352E+00 0. -1.
</event>
<event>
 5   0  0.2282000E-08  0.3699228E+04  0.7818609E-02  0.8068133E-01
        1   -1    0    0  501    0  0.00000000000E+00  0.00000000000E+00  0.26099755024E+04  0.26099755024E+04  0.50400001928E-02 0. -1.
       -1   -1    0    0    0  501  0.00000000000E+00  0.00000000000E+00 -0.13107679598E+04  0.13107679598E+04  0.50400001928E-02 0.  1.
    10030    2    1    2    0    0  0.00000000000E+00  0.00000000000E+00  0.12992075426E+04  0.39207434623E+04  0.36992281706E+04 0.  0.
        2    1    3    3  502    0  0.55806479396E+03  0.93325489072E+03  0.22354185802E+04  0.24858594558E+04  0.25500000920E-02 0. -1.
       -2    1    3    3    0  502 -0.55806479396E+03 -0.93325489072E+03 -0.93621103751E+03  0.14348840065E+04  0.25500000920E-02 0.  1.
</event>
<event>
 5   0  0.7203049E-08  0.3688768E+04  0.7818609E-02  0.8070456E-01
       -2   -1    0    0    0  501  0.00000000000E+00  0.00000000000E+00  0.10862023963E+04  0.10862023963E+04  0.25500000920E-02 0. -1.
        2   -1    0    0  501    0  0.00000000000E+00  0.00000000000E+00 -0.31317848127E+04  0.31317848127E+04  0.25500000920E-02 0.  1.
    10030    2    1    2    0    0  0.00000000000E+00  0.00000000000E+00 -0.20455824164E+04  0.42179872089E+04  0.36887679071E+04 0.  0.
        4    1    3    3  502    0  0.68652005923E+03  0.14127634630E+04  0.82617578439E+02  0.15729073944E+04  0.12699999809E+01 0. -1.
       -4    1    3    3    0  502 -0.68652005923E+03 -0.14127634630E+04 -0.21281999948E+04  0.26450798145E+04  0.12699999809E+01 0.  1.
</event>
<event>
 5   0  0.2282000E-08  0.3697693E+04  0.7818609E-02  0.8068473E-01
        1   -1    0    0  501    0  0.00000000000E+00  0.00000000000E+00  0.21877101665E+04  0.21877101665E+04  0.50400001928E-02 0.  1.
       -1   -1    0    0    0  501  0.00000000000E+00  0.00000000000E+00 -0.15624708421E+04  0.15624708421E+04  0.50400001928E-02 0. -1.
    10030    2    1    2    0    0  0.00000000000E+00  0.00000000000E+00  0.62523932445E+03  0.37501810087E+04  0.36976929814E+04 0.  0.
        4    1    3    3  502    0 -0.11271936531E+04 -0.91615585004E+03  0.14726761703E+04  0.20684979547E+04  0.12699999809E+01 0.  1.
       -4    1    3    3    0  502  0.11271936531E+04  0.91615585004E+03 -0.84743684588E+03  0.16816830539E+04  0.12699999809E+01 0. -1.
</event>
<event>
 5   0  0.2282000E-08  0.3694748E+04  0.7818609E-02  0.8069127E-01
        1   -1    0    0  501    0  0.00000000000E+00  0.00000000000E+00  0.16088727592E+04  0.16088727592E+04  0.50400001928E-02 0. -1.
       -1   -1    0    0    0  501  0.00000000000E+00  0.00000000000E+00 -0.21212307680E+04  0.21212307680E+04  0.50400001928E-02 0.  1.
    10030    2    1    2    0    0  0.00000000000E+00  0.00000000000E+00 -0.51235800882E+03  0.37301035272E+04  0.36947478391E+04 0.  0.
        1    1    3    3  502    0  0.10960148635E+04  0.25157892523E+03 -0.17358953733E+04  0.20683020291E+04  0.50400001928E-02 0.  1.
       -1    1    3    3    0  502 -0.10960148635E+04 -0.25157892523E+03  0.12235373645E+04  0.16618014980E+04  0.50400001928E-02 0. -1.
</event>
<event>
 5   0  0.2282000E-08  0.3702082E+04  0.7818609E-02  0.8067501E-01
        1   -1    0    0  501    0  0.00000000000E+00  0.00000000000E+00  0.20966166743E+04  0.20966166743E+04  0.50400001928E-02 0. -1.
       -1   -1    0    0    0  501  0.00000000000E+00  0.00000000000E+00 -0.16342291456E+04  0.16342291456E+04  0.50400001928E-02 0.  1.
    10030    2    1    2    0    0  0.00000000000E+00  0.00000000000E+00  0.46238752872E+03  0.37308458200E+04  0.37020816179E+04 0.  0.
        5    1    3    3  502    0 -0.39318292308E+03 -0.17007140801E+04 -0.38947196783E+03  0.17884998454E+04  0.46999998093E+01 0.  1.
       -5    1    3    3    0  502  0.39318292308E+03  0.17007140801E+04  0.85185949655E+03  0.19423459746E+04  0.46999998093E+01 0. -1.
</event>
<event>
 5   0  0.2282000E-08  0.3699850E+04  0.7818609E-02  0.8067995E-01
        1   -1    0    0  501    0  0.00000000000E+00  0.00000000000E+00  0.20544973883E+04  0.20544973883E+04  0.50400001928E-02 0. -1.
       -1   -1    0    0    0  501  0.00000000000E+00  0.00000000000E+00 -0.16657227795E+04  0.16657227795E+04  0.50400001928E-02 0.  1.
    10030    2    1    2    0    0  0.00000000000E+00  0.00000000000E+00  0.38877460877E+03  0.37202201678E+04  0.36998503214E+04 0.  0.
        3    1    3    3  502    0  0.17944707885E+04  0.16128066735E+03 -0.22754927712E+03  0.18160163954E+04  0.10100000352E+00 0.  1.
       -3    1    3    3    0  502 -0.17944707885E+04 -0.16128066735E+03  0.61632388588E+03  0.19042037724E+04  0.10100000352E+00 0. -1.
</event>
<event>
 5   0  0.7309833E-08  0.3661385E+04  0.7818609E-02  0.8076574E-01
        2   -1    0    0  501    0  0.00000000000E+00  0.00000000000E+00  0.27243106479E+04  0.27243106479E+04  0.25500000920E-02 0.  1.
       -2   -1    0    0    0  501  0.00000000000E+00  0.00000000000E+00 -0.12301953461E+04  0.12301953461E+04  0.25500000920E-02 0. -1.
    10030    2    1    2    0    0  0.00000000000E+00  0.00000000000E+00  0.14941153018E+04  0.39545059940E+04  0.36613845908E+04 0.  0.
        2    1    3    3  502    0  0.12151201920E+04  0.92052234331E+03 -0.34777968526E+03  0.15635949524E+04  0.25500000920E-02 0. -1.
       -2    1    3    3    0  502 -0.12151201920E+04 -0.92052234331E+03  0.18418949871E+04  0.23909110416E+04  0.25500000920E-02 0.  1.
</event>
<event>
 5   0  0.2282000E-08  0.3692345E+04  0.7818609E-02  0.8069660E-01
       -1   -1    0    0    0  501  0.00000000000E+00  0.00000000000E+00  0.10528410494E+04  0.10528410495E+04  0.50400001928E-02 0.  1.
        1   -1    0    0  501    0  0.00000000000E+00  0.00000000000E+00 -0.32372902693E+04  0.32372902693E+04  0.50400001928E-02 0. -1.
    10030    2    1    2    0    0  0.00000000000E+00  0.00000000000E+00 -0.21844492199E+04  0.42901313188E+04  0.36923445584E+04 0.  0.
        4    1    3    3  502    0 -0.56169274747E+03  0.17513013225E+04 -0.90561261474E+03  0.20500465569E+04  0.12699999809E+01 0.  1.
       -4    1    3    3    0  502  0.56169274747E+03 -0.17513013225E+04 -0.12788366051E+04  0.22400847618E+04  0.12699999809E+01 0. -1.
</event>
<event>
 5   0  0.7191801E-08  0.3724204E+04  0.7818609E-02  0.8062619E-01
       -2   -1    0    0    0  501  0.00000000000E+00  0.00000000000E+00  0.14782302077E+04  0.14782302077E+04  0.25500000920E-02 0.  1.
        2   -1    0    0  501    0  0.00000000000E+00  0.00000000000E+00 -0.23456587715E+04  0.23456587715E+04  0.25500000920E-02 0. -1.
    10030    2    1    2    0    0  0.00000000000E+00  0.00000000000E+00 -0.86742856384E+03  0.38238889792E+04  0.37242038896E+04 0.  0.
        5    1    3    3  502    0  0.35632236778E+03 -0.17606541115E+04 -0.93728351639E+03  0.20261764509E+04  0.46999998093E+01 0. -1.
       -5    1    3    3    0  502 -0.35632236778E+03  0.17606541115E+04  0.69854952548E+02  0.17977125283E+04  0.46999998093E+01 0.  1.
</event>
<event>
 5   0  0.7203049E-08  0.3696063E+04  0.7818609E-02  0.8068835E-01
        2   -1    0    0  501    0  0.00000000000E+00  0.00000000000E+00  0.13478036807E+04  0.13478036808E+04  0.25500000920E-02 0. -1.
       -2   -1    0    0    0  501  0.00000000000E+00  0.00000000000E+00 -0.25339152859E+04  0.25339152859E+04  0.25500000920E-02 0.  1.
    10030    2    1    2    0    0  0.00000000000E+00  0.00000000000E+00 -0.11861116052E+04  0.38817189667E+04  0.36960629589E+04 0.  0.
        4    1    3    3  502    0 -0.37153774102E+03 -0.54128750005E+03 -0.24073081525E+04  0.24952287681E+04  0.12699999809E+01 0.  1.
       -4    1    3    3    0  502  0.37153774102E+03  0.54128750005E+03  0.12211965474E+04  0.13864901986E+04  0.12699999809E+01 0. -1.
</event>
<event>
 5   0  0.2282000E-08  0.3704350E+04  0.7818609E-02  0.8066998E-01
        1   -1    0    0  501    0  0.00000000000E+00  0.00000000000E+00  0.15378246780E+04  0.15378246780E+04  0.50400001928E-02 0.  1.
       -1   -1    0    0    0  501  0.00000000000E+00  0.00000000000E+00 -0.22307826057E+04  0.22307826057E+04  0.50400001928E-02 0. -1.
    10030    2    1    2    0    0  0.00000000000E+00  0.00000000000E+00 -0.69295792771E+03  0.37686072837E+04  0.37043501682E+04 0.  0.
        1    1    3    3  502    0  0.10004748618E+04  0.11550615418E+04 -0.14112647400E+04  0.20800926136E+04  0.50400001928E-02 0.  1.
       -1    1    3    3    0  502 -0.10004748618E+04 -0.11550615418E+04  0.71830681234E+03  0.16885146701E+04  0.50400001928E-02 0. -1.
</event>
<event>
 5   0  0.7191801E-08  0.3710444E+04  0.7818609E-02  0.8065651E-01
       -2   -1    0    0    0  501  0.00000000000E+00  0.00000000000E+00  0.25603571082E+04  0.25603571082E+04  0.25500000920E-02 0. -1.
        2   -1    0    0  501    0  0.00000000000E+00  0.00000000000E+00 -0.13442848579E+04  0.13442848579E+04  0.25500000920E-02 0.  1.
    10030    2    1    2    0    0  0.00000000000E+00  0.00000000000E+00  0.12160722503E+04  0.39046419660E+04  0.37104443352E+04 0.  0.
        5    1    3    3  502    0 -0.15704337600E+04 -0.91919005606E+03  0.98841617267E+03  0.20707875734E+04  0.46999998093E+01 0. -1.
       -5    1    3    3    0  502  0.15704337600E+04  0.91919005606E+03  0.22765607763E+03  0.18338543926E+04  0.46999998093E+01 0.  1.
</event>
<event>
 5   0  0.7362817E-08  0.3699186E+04  0.7818609E-02  0.8068142E-01
        2   -1    0    0  501    0  0.00000000000E+00  0.00000000000E+00  0.26193414328E+04  0.26193414328E+04  0.25500000920E-02 0. -1.
       -2   -1    0    0    0  501  0.00000000000E+00  0.00000000000E+00 -0.13060511766E+04  0.13060511766E+04  0.25500000920E-02 0.  1.
    10030    2    1    2    0    0  0.00000000000E+00  0.00000000000E+00  0.13132902563E+04  0.39253926094E+04  0.36991858348E+04 0.  0.
        1    1    3    3  502    0  0.67659183167E+03  0.17205479190E+04  0.59918295722E+03  0.19434716012E+04  0.50400001928E-02 0. -1.
       -1    1    3    3    0  502 -0.67659183167E+03 -0.17205479190E+04  0.71410729905E+03  0.19819210082E+04  0.50400001928E-02 0.  1.
</event>
<event>
 5   0  0.7254493E-08  0.3696343E+04  0.7818609E-02  0.8068773E-01
       -2   -1    0    0    0  501  0.00000000000E+00  0.00000000000E+00  0.17114390663E+04  0.17114390663E+04  0.25500000920E-02 0.  1.
        2   -1    0    0  501    0  0.00000000000E+00  0.00000000000E+00 -0.19958282548E+04  0.19958282548E+04  0.25500000920E-02 0. -1.
    10030    2    1    2    0    0  0.00000000000E+00  0.00000000000E+00 -0.28438918843E+03  0.37072673211E+04  0.36963432984E+04 0.  0.
        3    1    3    3  502    0  0.55370448552E+03 -0.17609940227E+04 -0.23218059389E+03  0.18605366010E+04  0.10100000352E+00 0. -1.
       -3    1    3    3    0  502 -0.55370448552E+03  0.17609940227E+04 -0.52208594540E+02  0.18467307201E+04  0.10100000352E+00 0.  1.
</event>
<event>
 5   0  0.2282000E-08  0.3702284E+04  0.7818609E-02  0.8067456E-01
       -1   -1    0    0    0  501  0.00000000000E+00  0.00000000000E+00  0.13820157237E+04  0.13820157237E+04  0.50400001928E-02 0.  1.
        1   -1    0    0  501    0  0.00000000000E+00  0.00000000000E+00 -0.24795136994E+04  0.24795136994E+04  0.50400001928E-02 0. -1.
    10030    2    1    2    0    0  0.00000000000E+00  0.00000000000E+00 -0.10974979757E+04  0.38615294231E+04  0.37022841165E+04 0.  0.
        1    1    3    3  502    0  0.13274392406E+04  0.12196885603E+04 -0.98754853960E+03  0.20554773751E+04  0.50400001928E-02 0. -1.
       -1    1    3    3    0  502 -0.13274392406E+04 -0.12196885603E+04 -0.10994943608E+03  0.18060520480E+04  0.50400001928E-02 0.  1.
</event>
<event>
 5   0  0.2282000E-08  0.3694732E+04  0.7818609E-02  0.8069130E-01
        1   -1    0    0  501    0  0.00000000000E+00  0.00000000000E+00  0.22374109318E+04  0.22374109318E+04  0.50400001928E-02 0. -1.
       -1   -1    0    0    0  501  0.00000000000E+00  0.00000000000E+00 -0.15253174383E+04  0.15253174383E+04  0.50400001928E-02 0.  1.
    10030    2    1    2    0    0  0.00000000000E+00  0.00000000000E+00  0.71209349354E+03  0.37627283701E+04  0.36947324184E+04 0.  0.
        2    1    3    3  502    0  0.16951393017E+03 -0.41145597169E+03 -0.14699171675E+04  0.15358018975E+04  0.25500000920E-02 0.  1.
       -2    1    3    3    0  502 -0.16951393017E+03  0.41145597169E+03  0.21820106610E+04  0.22269264725E+04  0.25500000920E-02 0. -1.
</event>
<event>
 5   0  0.7362817E-08  0.3697693E+04  0.7818609E-02  0.8068473E-01
        2   -1    0    0  501    0  0.00000000000E+00  0.00000000000E+00  0.27682295997E+04  0.27682295997E+04  0.25500000920E-02 0. -1.
       -2   -1    0    0    0  501  0.00000000000E+00  0.00000000000E+00 -0.12348083485E+04  0.12348083485E+04  0.25500000920E-02 0.  1.
    10030    2    1    2    0    0  0.00000000000E+00  0.00000000000E+00  0.15334212512E+04  0.40030379482E+04  0.36976928051E+04 0.  0.
        1    1    3    3  502    0  0.16116770038E+04  0.30385383433E+02 -0.21348934657E+03  0.16260392791E+04  0.50400001928E-02 0.  1.
       -1    1    3    3    0  502 -0.16116770038E+04 -0.30385383433E+02  0.17469105977E+04  0.23769986691E+04  0.50400001928E-02 0. -1.
</event>
<event>
 5   0  0.7254493E-08  0.3702495E+04  0.7818609E-02  0.8067409E-01
       -2   -1    0    0    0  501  0.00000000000E+00  0.00000000000E+00  0.17424745776E+04  0.17424745776E+04  0.25500000920E-02 0.  1.
        2   -1    0    0  501    0  0.00000000000E+00  0.00000000000E+00 -0.19668099881E+04  0.19668099881E+04  0.25500000920E-02 0. -1.
    10030    2    1    2    0    0  0.00000000000E+00  0.00000000000E+00 -0.22433541054E+03  0.37092845657E+04  0.37024945122E+04 0.  0.
        3    1    3    3  502    0  0.56926739508E+03  0.16131219954E+04  0.59686495297E+03  0.18117603929E+04  0.10100000352E+00 0.  1.
       -3    1    3    3    0  502 -0.56926739508E+03 -0.16131219954E+04 -0.82120036351E+03  0.18975241728E+04  0.10100000352E+00 0. -1.
</event>
<event>
 5   0  0.2282000E-08  0.3668047E+04  0.7818609E-02  0.8075080E-01
       -1   -1    0    0    0  501  0.00000000000E+00  0.00000000000E+00  0.19860259327E+04  0.19860259327E+04  0.50400001928E-02 0. -1.
        1   -1    0    0  501    0  0.00000000000E+00  0.00000000000E+00 -0.16936548049E+04  0.16936548049E+04  0.50400001928E-02 0.  1.
    10030    2    1    2    0    0  0.00000000000E+00  0.00000000000E+00  0.29237112777E+03  0.36796807376E+04  0.36680470900E+04 0.  0.
        5    1    3    3  502    0 -0.72315081893E+02  0.15675703831E+04  0.10984664788E+04  0.19155043910E+04  0.46999998093E+01 0. -1.
       -5    1    3    3    0  502  0.72315081893E+02 -0.15675703831E+04 -0.80609535103E+03  0.17641763466E+04  0.46999998093E+01 0.  1.
</event>
<event>
 5   0  0.7254493E-08  0.3702999E+04  0.7818609E-02  0.8067297E-01
       -2   -1    0    0    0  501  0.00000000000E+00  0.00000000000E+00  0.18490399026E+04  0.18490399026E+04  0.25500000920E-02 0. -1.
        2   -1    0    0  501    0  0.00000000000E+00  0.00000000000E+00 -0.18539626015E+04  0.18539626015E+04  0.25500000920E-02 0.  1.
    10030    2    1    2    0    0  0.00000000000E+00  0.00000000000E+00 -0.49226989190E+01  0.37030025041E+04  0.37029992320E+04 0.  0.
        3    1    3    3  502    0  0.11170791900E+04  0.65328635481E+03  0.13217006265E+04  0.18497409371E+04  0.10100000352E+00 0. -1.
       -3    1    3    3    0  502 -0.11170791900E+04 -0.65328635481E+03 -0.13266233254E+04  0.18532615670E+04  0.10100000352E+00 0.  1.
</event>
<event>
 5   0  0.2282000E-08  0.3706693E+04  0.7818609E-02  0.8066480E-01
       -1   -1    0    0    0  501  0.00000000000E+00  0.00000000000E+00  0.18519915348E+04  0.18519915348E+04  0.50400001928E-02 0.  1.
        1   -1    0    0  501    0  0.00000000000E+00  0.00000000000E+00 -0.18547027925E+04  0.18547027925E+04  0.50400001928E-02 0. -1.
    10030    2    1    2    0    0  0.00000000000E+00  0.00000000000E+00 -0.27112577619E+01  0.37066943273E+04  0.37066933357E+04 0.  0.
        4    1    3    3  502    0  0.16622990096E+04  0.69397682065E+03  0.43459222922E+03  0.18530282900E+04  0.12699999809E+01 0.  1.
       -4    1    3    3    0  502 -0.16622990096E+04 -0.69397682065E+03 -0.43730348699E+03  0.18536660373E+04  0.12699999809E+01 0. -1.
</event>
<event>
 5   0  0.2282000E-08  0.3698710E+04  0.7818609E-02  0.8068248E-01
       -1   -1    0    0    0  501  0.00000000000E+00  0.00000000000E+00  0.30115959600E+04  0.30115959600E+04  0.50400001928E-02 0. -1.
        1   -1    0    0  501    0  0.00000000000E+00  0.00000000000E+00 -0.11356480924E+04  0.11356480925E+04  0.50400001928E-02 0.  1.
    10030    2    1    2    0    0  0.00000000000E+00  0.00000000000E+00  0.18759478676E+04  0.41472440525E+04  0.36987096167E+04 0.  0.
        4    1    3    3  502    0  0.42470234968E+03 -0.14312137081E+04  0.21618349708E+04  0.26272184564E+04  0.12699999809E+01 0. -1.
       -4    1    3    3    0  502 -0.42470234968E+03  0.14312137081E+04 -0.28588710321E+03  0.15200255961E+04  0.12699999809E+01 0.  1.
</event>
<event>
 5   0  0.7254493E-08  0.3697824E+04  0.7818609E-02  0.8068444E-01
       -2   -1    0    0    0  501  0.00000000000E+00  0.00000000000E+00  0.17803014425E+04  0.17803014425E+04  0.25500000920E-02 0.  1.
        2   -1    0    0  501    0  0.00000000000E+00  0.00000000000E+00 -0.19201662218E+04  0.19201662218E+04  0.25500000920E-02 0. -1.
    10030    2    1    2    0    0  0.00000000000E+00  0.00000000000E+00 -0.13986477932E+03  0.37004676642E+04  0.36978235190E+04 0.  0.
        3    1    3    3  502    0  0.98090581604E+03  0.11732422272E+04  0.96994545222E+03  0.18109300743E+04  0.10100000352E+00 0.  1.
       -3    1    3    3    0  502 -0.98090581604E+03 -0.11732422272E+04 -0.11098102315E+04  0.18895375899E+04  0.10100000352E+00 0. -1.
</event>
<event>
 5   0  0.2282000E-08  0.3641318E+04  0.7818609E-02  0.8081092E-01
       -1   -1    0    0    0  501  0.00000000000E+00  0.00000000000E+00  0.30975958926E+04  0.30975958926E+04  0.50400001928E-02 0. -1.
        1   -1    0    0  501    0  0.00000000000E+00  0.00000000000E+00 -0.10701198048E+04  0.10701198048E+04  0.50400001928E-02 0.  1.
    10030    2    1    2    0    0  0.00000000000E+00  0.00000000000E+00  0.20274760878E+04  0.41677156974E+04  0.36413177351E+04 0.  0.
        5    1    3    3  502    0  0.22573505540E+03 -0.75186642274E+03  0.28939296251E+04  0.29985180002E+04  0.46999998093E+01 0. -1.
       -5    1    3    3    0  502 -0.22573505540E+03  0.75186642274E+03 -0.86645353727E+03  0.11691976972E+04  0.46999998093E+01 0.  1.
</event>
<event>
 5   0  0.2282000E-08  0.3698144E+04  0.7818609E-02  0.8068373E-01
        1   -1    0    0  501    0  0.00000000000E+00  0.00000000000E+00  0.11958372738E+04  0.11958372738E+04  0.50400001928E-02 0. -1.
       -1   -1    0    0    0  501  0.00000000000E+00  0.00000000000E+00 -0.28591413704E+04  0.28591413704E+04  0.50400001928E-02 0.  1.
    10030    2    1    2    0    0  0.00000000000E+00  0.00000000000E+00 -0.16633040966E+04  0.40549786442E+04  0.36981443031E+04 0.  0.
        1    1    3    3  502    0  0.11398459479E+04 -0.12364388026E+04  0.11318624321E+02  0.16817127604E+04  0.50400001928E-02 0.  1.
       -1    1    3    3    0  502 -0.11398459479E+04  0.12364388026E+04 -0.16746227209E+04  0.23732658837E+04  0.50400001928E-02 0. -1.
</event>
<event>
 5   0  0.2282000E-08  0.3706026E+04  0.7818609E-02  0.8066628E-01
       -1   -1    0    0    0  501  0.00000000000E+00  0.00000000000E+00  0.31978375137E+04  0.31978375138E+04  0.50400001928E-02 0. -1.
        1   -1    0    0  501    0  0.00000000000E+00  0.00000000000E+00 -0.10737436098E+04  0.10737436098E+04  0.50400001928E-02 0.  1.
    10030    2    1    2    0    0  0.00000000000E+00  0.00000000000E+00  0.21240939039E+04  0.42715811236E+04  0.37060262253E+04 0.  0.
        4    1    3    3  502    0 -0.18474430416E+04  0.13276217133E+03  0.11250132897E+04  0.21671013131E+04  0.12699999809E+01 0. -1.
       -4    1    3    3    0  502  0.18474430416E+04 -0.13276217133E+03  0.99908061422E+03  0.21044798105E+04  0.12699999809E+01 0.  1.
</event>
<event>
 5   0  0.7309833E-08  0.3696378E+04  0.7818609E-02  0.8068765E-01
        2   -1    0    0  501    0  0.00000000000E+00  0.00000000000E+00  0.29729954624E+04  0.29729954624E+04  0.25500000920E-02 0. -1.
       -2   -1    0    0    0  501  0.00000000000E+00  0.00000000000E+00 -0.11489432720E+04  0.11489432720E+04  0.25500000920E-02 0.  1.
    10030    2    1    2    0    0  0.00000000000E+00  0.00000000000E+00  0.18240521905E+04  0.41219387344E+04  0.36963783000E+04 0.  0.
        2    1    3    3  502    0 -0.56547285655E+03 -0.34264474651E+02  0.28737879828E+04  0.29290938831E+04  0.25500000920E-02 0. -1.
       -2    1    3    3    0  502  0.56547285655E+03  0.34264474651E+02 -0.10497357923E+04  0.11928448513E+04  0.25500000920E-02 0.  1.
</event>
<event>
 5   0  0.7309833E-08  0.3701589E+04  0.7818609E-02  0.8067610E-01
       -2   -1    0    0    0  501  0.00000000000E+00  0.00000000000E+00  0.18136653825E+04  0.18136653825E+04  0.25500000920E-02 0. -1.
        2   -1    0    0  501    0  0.00000000000E+00  0.00000000000E+00 -0.18886835812E+04  0.18886835812E+04  0.25500000920E-02 0.  1.
    10030    2    1    2    0    0  0.00000000000E+00  0.00000000000E+00 -0.75018198748E+02  0.37023489637E+04  0.37015888641E+04 0.  0.
        2    1    3    3  502    0  0.29188295596E+03 -0.12975988596E+04 -0.13248171187E+04  0.18772583356E+04  0.25500000920E-02 0. -1.
       -2    1    3    3    0  502 -0.29188295596E+03  0.12975988596E+04  0.12497989199E+04  0.18250906281E+04  0.25500000920E-02 0.  1.
</event>
<event>
 5   0  0.7309833E-08  0.3701682E+04  0.7818609E-02  0.8067589E-01
        2   -1    0    0  501    0  0.00000000000E+00  0.00000000000E+00  0.15024206506E+04  0.15024206506E+04  0.25500000920E-02 0.  1.
       -2   -1    0    0    0  501  0.00000000000E+00  0.00000000000E+00 -0.22800616921E+04  0.22800616921E+04  0.25500000920E-02 0. -1.
    10030    2    1    2    0    0  0.00000000000E+00  0.00000000000E+00 -0.77764104154E+03  0.37824823427E+04  0.37016816561E+04 0.  0.
        2    1    3    3  502    0  0.42382761591E+03 -0.67074859950E+02  0.14508909196E+04  0.15130146547E+04  0.25500000920E-02 0.  1.
       -2    1    3    3    0  502 -0.42382761591E+03  0.67074859950E+02 -0.22285319611E+04  0.22694676880E+04  0.25500000920E-02 0. -1.
</event>
<event>
 5   0  0.2282000E-08  0.3687296E+04  0.7818609E-02  0.8070783E-01
       -1   -1    0    0    0  501  0.00000000000E+00  0.00000000000E+00  0.21279978971E+04  0.21279978971E+04  0.50400001928E-02 0. -1.
        1   -1    0    0  501    0  0.00000000000E+00  0.00000000000E+00 -0.15972935970E+04  0.15972935970E+04  0.50400001928E-02 0.  1.
    10030    2    1    2    0    0  0.00000000000E+00  0.00000000000E+00  0.53070430012E+03  0.37252914941E+04  0.36872957112E+04 0.  0.
        2    1    3    3  502    0 -0.10212540665E+04  0.13308525625E+04 -0.50732211188E+03  0.17525707223E+04  0.25500000920E-02 0.  1.
       -2    1    3    3    0  502  0.10212540665E+04 -0.13308525625E+04  0.10380264120E+04  0.19727207718E+04  0.25500000920E-02 0. -1.
</event>
<event>
 5   0  0.2282000E-08  0.3698509E+04  0.7818609E-02  0.8068292E-01
       -1   -1    0    0    0  501  0.00000000000E+00  0.00000000000E+00  0.18194091944E+04  0.18194091945E+04  0.50400001928E-02 0. -1.
        1   -1    0    0  501    0  0.00000000000E+00  0.00000000000E+00 -0.18795891169E+04  0.18795891169E+04  0.50400001928E-02 0.  1.
    10030    2    1    2    0    0  0.00000000000E+00  0.00000000000E+00 -0.60179922441E+02  0.36989983113E+04  0.36985087379E+04 0.  0.
        4    1    3    3  502    0  0.82280978395E+03 -0.12009022242E+04 -0.11706610241E+04  0.18680553896E+04  0.12699999809E+01 0. -1.
       -4    1    3    3    0  502 -0.82280978395E+03  0.12009022242E+04  0.11104811016E+04  0.18309429217E+04  0.12699999809E+01 0.  1.
</event>
<event>
 5   0  0.2282000E-08  0.3698979E+04  0.7818609E-02  0.8068188E-01
       -1   -1    0    0    0  501  0.00000000000E+00  0.00000000000E+00  0.11439522118E+04  0.11439522118E+04  0.50400001928E-02 0. -1.
        1   -1    0    0  501    0  0.00000000000E+00  0.00000000000E+00 -0.29901691927E+04  0.29901691928E+04  0.50400001928E-02 0.  1.
    10030    2    1    2    0    0  0.00000000000E+00  0.00000000000E+00 -0.18462169809E+04  0.41341214046E+04  0.36989785951E+04 0.  0.
        3    1    3    3  502    0  0.10423838655E+04 -0.13984349154E+04 -0.16106391551E+04  0.23740983201E+04  0.10100000352E+00 0.  1.
       -3    1    3    3    0  502 -0.10423838655E+04  0.13984349154E+04 -0.23557782586E+03  0.17600230844E+04  0.10100000352E+00 0. -1.
</event>
<event>
 5   0  0.7191801E-08  0.3697034E+04  0.7818609E-02  0.8068620E-01
        2   -1    0    0  501    0  0.00000000000E+00  0.00000000000E+00  0.11513056683E+04  0.11513056683E+04  0.25500000920E-02 0. -1.
       -2   -1    0    0    0  501  0.00000000000E+00  0.00000000000E+00 -0.29679470336E+04  0.29679470336E+04  0.25500000920E-02 0.  1.
    10030    2    1    2    0    0  0.00000000000E+00  0.00000000000E+00 -0.18166413653E+04  0.41192527020E+04  0.36970335368E+04 0.  0.
        5    1    3    3  502    0 -0.20447065224E+03 -0.13473688030E+03 -0.29497890193E+04  0.29599391248E+04  0.46999998093E+01 0.  1.
       -5    1    3    3    0  502  0.20447065224E+03  0.13473688030E+03  0.11331476539E+04  0.11593135771E+04  0.46999998093E+01 0. -1.
</event>
<event>
 5   0  0.2282000E-08  0.3700189E+04  0.7818609E-02  0.8067920E-01
        1   -1    0    0  501    0  0.00000000000E+00  0.00000000000E+00  0.30375981722E+04  0.30375981723E+04  0.50400001928E-02 0. -1.
       -1   -1    0    0    0  501  0.00000000000E+00  0.00000000000E+00 -0.11268275721E+04  0.11268275722E+04  0.50400001928E-02 0.  1.
    10030    2    1    2    0    0  0.00000000000E+00  0.00000000000E+00  0.19107706001E+04  0.41644257444E+04  0.37001888458E+04 0.  0.
        4    1    3    3  502    0  0.67954516724E+03 -0.11190653613E+04  0.24265849761E+04  0.27572459405E+04  0.12699999809E+01 0. -1.
       -4    1    3    3    0  502 -0.67954516724E+03  0.11190653613E+04 -0.51581437601E+03  0.14071798039E+04  0.12699999809E+01 0.  1.
</event>
<event>
 5   0  0.7191801E-08  0.3698973E+04  0.7818609E-02  0.8068189E-01
        2   -1    0    0  501    0  0.00000000000E+00  0.00000000000E+00  0.14131562279E+04  0.14131562279E+04  0.25500000920E-02 0.  1.
       -2   -1    0    0    0  501  0.00000000000E+00  0.00000000000E+00 -0.24205394493E+04  0.24205394493E+04  0.25500000920E-02 0. -1.
    10030    2    1    2    0    0  0.00000000000E+00  0.00000000000E+00 -0.10073832214E+04  0.38336956772E+04  0.36989730454E+04 0.  0.
        5    1    3    3  502    0 -0.25520868725E+03  0.18820427118E+03  0.13847658659E+04  0.14206163856E+04  0.46999998093E+01 0.  1.
       -5    1    3    3    0  502  0.25520868725E+03 -0.18820427118E+03 -0.23921490873E+04  0.24130792916E+04  0.46999998093E+01 0. -1.
</event>
<event>
 5   0  0.2282000E-08  0.3698122E+04  0.7818609E-02  0.8068378E-01
        1   -1    0    0  501    0  0.00000000000E+00  0.00000000000E+00  0.20296537024E+04  0.20296537025E+04  0.50400001928E-02 0.  1.
       -1   -1    0    0    0  501  0.00000000000E+00  0.00000000000E+00 -0.16845367463E+04  0.16845367463E+04  0.50400001928E-02 0. -1.
    10030    2    1    2    0    0  0.00000000000E+00  0.00000000000E+00  0.34511695611E+03  0.37141904488E+04  0.36981218174E+04 0.  0.
        4    1    3    3  502    0  0.14819007324E+04 -0.11778920669E+03  0.12769365066E+04  0.19597123596E+04  0.12699999809E+01 0.  1.
       -4    1    3    3    0  502 -0.14819007324E+04  0.11778920669E+03 -0.93181955045E+03  0.17544780892E+04  0.12699999809E+01 0. -1.
</event>
<event>
 5   0  0.2282000E-08  0.3660810E+04  0.7818609E-02  0.8076703E-01
        3   -1    0    0  501    0  0.00000000000E+00  0.00000000000E+00  0.17564476710E+04  0.17564476739E+04  0.10100000352E+00 0.  1.
       -3   -1    0    0    0  501  0.00000000000E+00  0.00000000000E+00 -0.19074768473E+04  0.19074768500E+04  0.10100000352E+00 0. -1.
    10030    2    1    2    0    0  0.00000000000E+00  0.00000000000E+00 -0.15102917630E+03  0.36639245239E+04  0.36608104437E+04 0.  0.
        1    1    3    3  502    0 -0.66385349397E+03 -0.58567838610E+03 -0.16789581262E+04  0.18980571706E+04  0.50400001928E-02 0. -1.
       -1    1    3    3    0  502  0.66385349397E+03  0.58567838610E+03  0.15279289499E+04  0.17658673533E+04  0.50400001928E-02 0.  1.
</event>
<event>
 5   0  0.2282000E-08  0.3718637E+04  0.7818609E-02  0.8063844E-01
       -1   -1    0    0    0  501  0.00000000000E+00  0.00000000000E+00  0.20944992443E+04  0.20944992443E+04  0.50400001928E-02 0. -1.
        1   -1    0    0  501    0  0.00000000000E+00  0.00000000000E+00 -0.16505452046E+04  0.16505452046E+04  0.50400001928E-02 0.  1.
    10030    2    1    2    0    0  0.00000000000E+00  0.00000000000E+00  0.44395403966E+03  0.37450444489E+04  0.37186372148E+04 0.  0.
        3    1    3    3  502    0  0.10383666206E+04  0.68558489155E+03 -0.11694397157E+04  0.17075775652E+04  0.10100000352E+00 0.  1.
       -3    1    3    3    0  502 -0.10383666206E+04 -0.68558489155E+03  0.16133937554E+04  0.20374668837E+04  0.10100000352E+00 0. -1.
</event>
<event>
 5   0  0.2282000E-08  0.3699137E+04  0.7818609E-02  0.8068153E-01
       -1   -1    0    0    0  501  0.00000000000E+00  0.00000000000E+00  0.17996634753E+04  0.17996634753E+04  0.50400001928E-02 0.  1.
        1   -1    0    0  501    0  0.00000000000E+00  0.00000000000E+00 -0.19008574125E+04  0.19008574125E+04  0.50400001928E-02 0. -1.
    10030    2    1    2    0    0  0.00000000000E+00  0.00000000000E+00 -0.10119393717E+03  0.37005208878E+04  0.36991370113E+04 0.  0.
        3    1    3    3  502    0  0.18143947595E+04  0.14418745703E+03 -0.37948322115E+03  0.18592541223E+04  0.10100000352E+00 0.  1.
       -3    1    3    3    0  502 -0.18143947595E+04 -0.14418745703E+03  0.27828928397E+03  0.18412667655E+04  0.10100000352E+00 0. -1.
</event>
<event>
 5   0  0.7203049E-08  0.3693256E+04  0.7818609E-02  0.8069458E-01
       -2   -1    0    0    0  501  0.00000000000E+00  0.00000000000E+00  0.14213948132E+04  0.14213948132E+04  0.25500000920E-02 0. -1.
        2   -1    0    0  501    0  0.00000000000E+00  0.00000000000E+00 -0.23990759552E+04  0.23990759552E+04  0.25500000920E-02 0.  1.
    10030    2    1    2    0    0  0.00000000000E+00  0.00000000000E+00 -0.97768114205E+03  0.38204707684E+04  0.36932555390E+04 0.  0.
        4    1    3    3  502    0  0.66771307617E+03  0.61550211535E+03  0.11744460860E+04  0.14845904579E+04  0.12699999809E+01 0. -1.
       -4    1    3    3    0  502 -0.66771307617E+03 -0.61550211535E+03 -0.21521272280E+04  0.23358803104E+04  0.12699999809E+01 0.  1.
</event>
<event>
 5   0  0.7309833E-08  0.3706904E+04  0.7818609E-02  0.8066434E-01
        2   -1    0    0  501    0  0.00000000000E+00  0.00000000000E+00  0.23337792729E+04  0.23337792729E+04  0.25500000920E-02 0.  1.
       -2   -1    0    0    0  501  0.00000000000E+00  0.00000000000E+00 -0.14719831039E+04  0.14719831039E+04  0.25500000920E-02 0. -1.
    10030    2    1    2    0    0  0.00000000000E+00  0.00000000000E+00  0.86179616905E+03  0.38057623768E+04  0.37069036448E+04 0.  0.
        2    1    3    3  502    0 -0.11350193292E+04  0.10170438776E+04  0.15138446508E+04  0.21481091111E+04  0.25500000920E-02 0.  1.
       -2    1    3    3    0  502  0.11350193292E+04 -0.10170438776E+04 -0.65204848174E+03  0.16576532657E+04  0.25500000920E-02 0. -1.
</event>
<event>
 5   0  0.2282000E-08  0.3691717E+04  0.7818609E-02  0.8069800E-01
        1   -1    0    0  501    0  0.00000000000E+00  0.00000000000E+00  0.24152743861E+04  0.24152743861E+04  0.50400001928E-02 0. -1.
       -1   -1    0    0    0  501  0.00000000000E+00  0.00000000000E+00 -0.14106860604E+04  0.14106860604E+04  0.50400001928E-02 0.  1.
    10030    2    1    2    0    0  0.00000000000E+00  0.00000000000E+00  0.10045883258E+04  0.38259604465E+04  0.36917171661E+04 0.  0.
        3    1    3    3  502    0 -0.99365756024E+02  0.13673297417E+04 -0.77866510119E+03  0.15766367768E+04  0.10100000352E+00 0.  1.
       -3    1    3    3    0  502  0.99365756024E+02 -0.13673297417E+04  0.17832534269E+04  0.22493236697E+04  0.10100000352E+00 0. -1.
</event>
<event>
 5   0  0.7254493E-08  0.3696916E+04  0.7818609E-02  0.8068646E-01
       -2   -1    0    0    0  501  0.00000000000E+00  0.00000000000E+00  0.16893854168E+04  0.16893854168E+04  0.25500000920E-02 0.  1.
        2   -1    0    0  501    0  0.00000000000E+00  0.00000000000E+00 -0.20225083890E+04  0.20225083890E+04  0.25500000920E-02 0. -1.
    10030    2    1    2    0    0  0.00000000000E+00  0.00000000000E+00 -0.33312297225E+03  0.37118938058E+04  0.36969155672E+04 0.  0.
        3    1    3    3  502    0  0.15027095939E+04  0.76096839297E+03 -0.93095216861E+03  0.19245469517E+04  0.10100000352E+00 0. -1.
       -3    1    3    3    0  502 -0.15027095939E+04 -0.76096839297E+03  0.59782919636E+03  0.17873468541E+04  0.10100000352E+00 0.  1.
</event>
<event>
 5   0  0.2282000E-08  0.3676995E+04  0.7818609E-02  0.8073079E-01
        1   -1    0    0  501    0  0.00000000000E+00  0.00000000000E+00  0.15659748749E+04  0.15659748750E+04  0.50400001928E-02 0. -1.
       -1   -1    0    0    0  501  0.00000000000E+00  0.00000000000E+00 -0.21584466683E+04  0.21584466683E+04  0.50400001928E-02 0.  1.
    10030    2    1    2    0    0  0.00000000000E+00  0.00000000000E+00 -0.59247179335E+03  0.37244215433E+04  0.36769951055E+04 0.  0.
        1    1    3    3  502    0 -0.20213044373E+03  0.10090520601E+04  0.12469071978E+04  0.16167313741E+04  0.50400001928E-02 0. -1.
       -1    1    3    3    0  502  0.20213044373E+03 -0.10090520601E+04 -0.18393789911E+04  0.21076901692E+04  0.50400001928E-02 0.  1.
</event>
<event>
 5   0  0.2282000E-08  0.3727816E+04  0.7818609E-02  0.8061825E-01
        1   -1    0    0  501    0  0.00000000000E+00  0.00000000000E+00  0.25345112654E+04  0.25345112654E+04  0.50400001928E-02 0.  1.
       -1   -1    0    0    0  501  0.00000000000E+00  0.00000000000E+00 -0.13707384957E+04  0.13707384957E+04  0.50400001928E-02 0. -1.
    10030    2    1    2    0    0  0.00000000000E+00  0.00000000000E+00  0.11637727697E+04  0.39052497611E+04  0.37278155315E+04 0.  0.
        4    1    3    3  502    0 -0.12405626093E+04 -0.24444336910E+03 -0.85274931776E+03  0.15251003770E+04  0.12699999809E+01 0. -1.
       -4    1    3    3    0  502  0.12405626093E+04  0.24444336910E+03  0.20165220875E+04  0.23801493840E+04  0.12699999809E+01 0.  1.
</event>
<event>
 5   0  0.2282000E-08  0.3702379E+04  0.7818609E-02  0.8067435E-01
       -1   -1    0    0    0  501  0.00000000000E+00  0.00000000000E+00  0.18784031773E+04  0.18784031773E+04  0.50400001928E-02 0.  1.
        1   -1    0    0  501    0  0.00000000000E+00  0.00000000000E+00 -0.18243698391E+04  0.18243698391E+04  0.50400001928E-02 0. -1.
    10030    2    1    2    0    0  0.00000000000E+00  0.00000000000E+00  0.54033338250E+02  0.37027730164E+04  0.37023787502E+04 0.  0.
        5    1    3    3  502    0 -0.17886928522E+04 -0.26848521881E+03  0.42123320016E+03  0.18571391793E+04  0.46999998093E+01 0.  1.
       -5    1    3    3    0  502  0.17886928522E+04  0.26848521881E+03 -0.36719986191E+03  0.18456338372E+04  0.46999998093E+01 0. -1.
</event>
<event>
 5   0  0.7254493E-08  0.3702470E+04  0.7818609E-02  0.8067415E-01
        2   -1    0    0  501    0  0.00000000000E+00  0.00000000000E+00  0.15332151216E+04  0.15332151216E+04  0.25500000920E-02 0.  1.
       -2   -1    0    0    0  501  0.00000000000E+00  0.00000000000E+00 -0.22352181782E+04  0.22352181782E+04  0.25500000920E-02 0. -1.
    10030    2    1    2    0    0  0.00000000000E+00  0.00000000000E+00 -0.70200305658E+03  0.37684332998E+04  0.37024696142E+04 0.  0.
        3    1    3    3  502    0 -0.38149254579E+03  0.17640751210E+04 -0.77013013621E+03  0.19622940737E+04  0.10100000352E+00 0. -1.
       -3    1    3    3    0  502  0.38149254579E+03 -0.17640751210E+04  0.68127079632E+02  0.18061392261E+04  0.10100000352E+00 0.  1.
</event>
<event>
 5   0  0.2282000E-08  0.3700093E+04  0.7818609E-02  0.8067941E-01
        1   -1    0    0  501    0  0.00000000000E+00  0.00000000000E+00  0.11518115947E+04  0.11518115947E+04  0.50400001928E-02 0. -1.
       -1   -1    0    0    0  501  0.00000000000E+00  0.00000000000E+00 -0.29715555851E+04  0.29715555852E+04  0.50400001928E-02 0.  1.
    10030    2    1    2    0    0  0.00000000000E+00  0.00000000000E+00 -0.18197439904E+04  0.41233671799E+04  0.37000930677E+04 0.  0.
        1    1    3    3  502    0  0.73187061686E+02 -0.39967869171E+03 -0.29212163238E+04  0.29493396232E+04  0.50400001928E-02 0.  1.
       -1    1    3    3    0  502 -0.73187061686E+02  0.39967869171E+03  0.11014723334E+04  0.11740275567E+04  0.50400001928E-02 0. -1.
</event>
<event>
 5   0  0.7362817E-08  0.3698166E+04  0.7818609E-02  0.8068368E-01
       -2   -1    0    0    0  501  0.00000000000E+00  0.00000000000E+00  0.16920365055E+04  0.16920365055E+04  0.25500000920E-02 0. -1.
        2   -1    0    0  501    0  0.00000000000E+00  0.00000000000E+00 -0.20207052401E+04  0.20207052401E+04  0.25500000920E-02 0.  1.
    10030    2    1    2    0    0  0.00000000000E+00  0.00000000000E+00 -0.32866873463E+03  0.37127417456E+04  0.36981655091E+04 0.  0.
        1    1    3    3  502    0 -0.13262856980E+04 -0.89952400489E+03 -0.10904288044E+04  0.19383529517E+04  0.50400001928E-02 0.  1.
       -1    1    3    3    0  502  0.13262856980E+04  0.89952400489E+03  0.76176006976E+03  0.17743887939E+04  0.50400001928E-02 0. -1.
</event>
<event>
 5   0  0.2282000E-08  0.3700400E+04  0.7818609E-02  0.8067873E-01
       -1   -1    0    0    0  501  0.00000000000E+00  0.00000000000E+00  0.19388607822E+04  0.19388607822E+04  0.50400001928E-02 0. -1.
        1   -1    0    0  501    0  0.00000000000E+00  0.00000000000E+00 -0.17655935252E+04  0.17655935252E+04  0.50400001928E-02 0.  1.
    10030    2    1    2    0    0  0.00000000000E+00  0.00000000000E+00  0.17326725696E+03  0.37044543074E+04  0.37004000018E+04 0.  0.
        4    1    3    3  502    0 -0.43964108275E+03  0.10672177635E+04 -0.13609798803E+04  0.17845183899E+04  0.12699999809E+01 0.  1.
       -4    1    3    3    0  502  0.43964108275E+03 -0.10672177635E+04  0.15342471373E+04  0.19199359175E+04  0.12699999809E+01 0. -1.
</event>
<event>
 5   0  0.2282000E-08  0.3700469E+04  0.7818609E-02  0.8067858E-01
       -1   -1    0    0    0  501  0.00000000000E+00  0.00000000000E+00  0.15772301882E+04  0.15772301882E+04  0.50400001928E-02 0.  1.
        1   -1    0    0  501    0  0.00000000000E+00  0.00000000000E+00 -0.21704939036E+04  0.21704939036E+04  0.50400001928E-02 0. -1.
    10030    2    1    2    0    0  0.00000000000E+00  0.00000000000E+00 -0.59326371539E+03  0.37477240919E+04  0.37004694341E+04 0.  0.
        5    1    3    3  502    0 -0.10477969275E+04  0.48469300314E+03  0.11677019992E+04  0.16420583904E+04  0.46999998093E+01 0.  1.
       -5    1    3    3    0  502  0.10477969275E+04 -0.48469300314E+03 -0.17609657146E+04  0.21056657015E+04  0.46999998093E+01 0. -1.
</event>
<event>
 5   0  0.2282000E-08  0.3693238E+04  0.7818609E-02  0.8069462E-01
        1   -1    0    0  501    0  0.00000000000E+00  0.00000000000E+00  0.12440626496E+04  0.12440626496E+04  0.50400001928E-02 0. -1.
       -1   -1    0    0    0  501  0.00000000000E+00  0.00000000000E+00 -0.27410203697E+04  0.27410203697E+04  0.50400001928E-02 0.  1.
    10030    2    1    2    0    0  0.00000000000E+00  0.00000000000E+00 -0.14969577201E+04  0.39850830193E+04  0.36932376386E+04 0.  0.
        2    1    3    3  502    0 -0.10781636275E+04  0.18908198230E+03  0.85625956159E+03  0.13897371120E+04  0.25500000920E-02 0. -1.
       -2    1    3    3    0  502  0.10781636275E+04 -0.18908198230E+03 -0.23532172817E+04  0.25953459073E+04  0.25500000920E-02 0.  1.
</event>
<event>
 5   0  0.2282000E-08  0.3702203E+04  0.7818609E-02  0.8067474E-01
       -1   -1    0    0    0  501  0.00000000000E+00  0.00000000000E+00  0.12878582781E+04  0.12878582781E+04  0.50400001928E-02 0.  1.
        1   -1    0    0  501    0  0.00000000000E+00  0.00000000000E+00 -0.26606788210E+04  0.26606788210E+04  0.50400001928E-02 0. -1.
    10030    2    1    2    0    0  0.00000000000E+00  0.00000000000E+00 -0.13728205429E+04  0.39485370990E+04  0.37022032602E+04 0.  0.
        4    1    3    3  502    0 -0.10394640029E+04 -0.40365661183E+03  0.88945072673E+03  0.14263759258E+04  0.12699999809E+01 0.  1.
       -4    1    3    3    0  502  0.10394640029E+04  0.40365661183E+03 -0.22622712696E+04  0.25221611732E+04  0.12699999809E+01 0. -1.
</event>
<event>
 5   0  0.2282000E-08  0.3704984E+04  0.7818609E-02  0.8066858E-01
        1   -1    0    0  501    0  0.00000000000E+00  0.00000000000E+00  0.15333266019E+04  0.15333266019E+04  0.50400001928E-02 0.  1.
       -1   -1    0    0    0  501  0.00000000000E+00  0.00000000000E+00 -0.22380924777E+04  0.22380924777E+04  0.50400001928E-02 0. -1.
    10030    2    1    2    0    0  0.00000000000E+00  0.00000000000E+00 -0.70476587578E+03  0.37714190796E+04  0.37049840666E+04 0.  0.
        5    1    3    3  502    0  0.14715729406E+04 -0.40461414172E+03  0.71642797216E+03  0.16859806205E+04  0.46999998093E+01 0.  1.
       -5    1    3    3    0  502 -0.14715729406E+04  0.40461414172E+03 -0.14211938479E+04  0.20854384591E+04  0.46999998093E+01 0. -1.
</event>
<event>
 5   0  0.7309833E-08  0.3700621E+04  0.7818609E-02  0.8067824E-01
        2   -1    0    0  501    0  0.00000000000E+00  0.00000000000E+00  0.13561779588E+04  0.13561779588E+04  0.25500000920E-02 0. -1.
       -2   -1    0    0    0  501  0.00000000000E+00  0.00000000000E+00 -0.25244838530E+04  0.25244838530E+04  0.25500000920E-02 0.  1.
    10030    2    1    2    0    0  0.00000000000E+00  0.00000000000E+00 -0.11683058943E+04  0.38806618118E+04  0.37006212228E+04 0.  0.
        2    1    3    3  502    0 -0.64352904150E+03  0.16936574807E+04 -0.19032314557E+03  0.18217651300E+04  0.25500000920E-02 0. -1.
       -2    1    3    3    0  502  0.64352904150E+03 -0.16936574807E+04 -0.97798274870E+03  0.20588966817E+04  0.25500000920E-02 0.  1.
</event>
<event>
 5   0  0.2282000E-08  0.3700323E+04  0.7818609E-02  0.8067890E-01
       -1   -1    0    0    0  501  0.00000000000E+00  0.00000000000E+00  0.17418482609E+04  0.17418482609E+04  0.50400001928E-02 0. -1.
        1   -1    0    0  501    0  0.00000000000E+00  0.00000000000E+00 -0.19652098189E+04  0.19652098189E+04  0.50400001928E-02 0.  1.
    10030    2    1    2    0    0  0.00000000000E+00  0.00000000000E+00 -0.22336155799E+03  0.37070580797E+04  0.37003228536E+04 0.  0.
        1    1    3    3  502    0  0.21543532621E+03 -0.45122049370E+03  0.16728770454E+04  0.17460039870E+04  0.50400001928E-02 0. -1.
       -1    1    3    3    0  502 -0.21543532621E+03  0.45122049370E+03 -0.18962386034E+04  0.19610540927E+04  0.50400001928E-02 0.  1.
</event>
<event>
 5   0  0.2282000E-08  0.3696807E+04  0.7818609E-02  0.8068670E-01
        1   -1    0    0  501    0  0.00000000000E+00  0.00000000000E+00  0.22485088790E+04  0.22485088790E+04  0.50400001928E-02 0. -1.
       -1   -1    0    0    0  501  0.00000000000E+00  0.00000000000E+00 -0.15194935345E+04  0.15194935345E+04  0.50400001928E-02 0.  1.
    10030    2    1    2    0    0  0.00000000000E+00  0.00000000000E+00  0.72901534449E+03  0.37680024134E+04  0.36968065699E+04 0.  0.
        1    1    3    3  502    0 -0.66754037958E+02  0.87729656260E+03 -0.12923723720E+04  0.15634358663E+04  0.50400001928E-02 0.  1.
       -1    1    3    3    0  502  0.66754037958E+02 -0.87729656260E+03  0.20213877164E+04  0.22045665471E+04  0.50400001928E-02 0. -1.
</event>
<event>
 5   0  0.2282000E-08  0.3708323E+04  0.7818609E-02  0.8066120E-01
       -1   -1    0    0    0  501  0.00000000000E+00  0.00000000000E+00  0.22141998352E+04  0.22141998352E+04  0.50400001928E-02 0.  1.
        1   -1    0    0  501    0  0.00000000000E+00  0.00000000000E+00 -0.15526672526E+04  0.15526672527E+04  0.50400001928E-02 0. -1.
    10030    2    1    2    0    0  0.00000000000E+00  0.00000000000E+00  0.66153258251E+03  0.37668670878E+04  0.37083233812E+04 0.  0.
        1    1    3    3  502    0 -0.10855961159E+03  0.12050991472E+04  0.17578898576E+04  0.21340632360E+04  0.50400001928E-02 0.  1.
       -1    1    3    3    0  502  0.10855961159E+03 -0.12050991472E+04 -0.10963572751E+04  0.16328038518E+04  0.50400001928E-02 0. -1.
</event>
<event>
 5   0  0.7203049E-08  0.3681407E+04  0.7818609E-02  0.8072095E-01
       -2   -1    0    0    0  501  0.00000000000E+00  0.00000000000E+00  0.14538221475E+04  0.14538221475E+04  0.25500000920E-02 0. -1.
        2   -1    0    0  501    0  0.00000000000E+00  0.00000000000E+00 -0.23305388377E+04  0.23305388377E+04  0.25500000920E-02 0.  1.
    10030    2    1    2    0    0  0.00000000000E+00  0.00000000000E+00 -0.87671669015E+03  0.37843609852E+04  0.36814067843E+04 0.  0.
        4    1    3    3  502    0 -0.61923076922E+03  0.14702522836E+04  0.50552428620E+03  0.16735127546E+04  0.12699999809E+01 0. -1.
       -4    1    3    3    0  502  0.61923076922E+03 -0.14702522836E+04 -0.13822409763E+04  0.21108482306E+04  0.12699999809E+01 0.  1.
</event>
<event>
 5   0  0.2282000E-08  0.3701351E+04  0.7818609E-02  0.8067662E-01
       -1   -1    0    0    0  501  0.00000000000E+00  0.00000000000E+00  0.31559864957E+04  0.31559864957E+04  0.50400001928E-02 0. -1.
        1   -1    0    0  501    0  0.00000000000E+00  0.00000000000E+00 -0.10852392466E+04  0.10852392466E+04  0.50400001928E-02 0.  1.
    10030    2    1    2    0    0  0.00000000000E+00  0.00000000000E+00  0.20707472491E+04  0.42412257423E+04  0.37013513245E+04 0.  0.
        3    1    3    3  502    0 -0.12229640582E+04  0.13304638160E+04  0.14926062128E+04  0.23438533167E+04  0.10100000352E+00 0. -1.
       -3    1    3    3    0  502  0.12229640582E+04 -0.13304638160E+04  0.57814103628E+03  0.18973724256E+04  0.10100000352E+00 0.  1.
</event>
<event>
 5   0  0.7203049E-08  0.3705590E+04  0.7818609E-02  0.8066724E-01
       -2   -1    0    0    0  501  0.00000000000E+00  0.00000000000E+00  0.17952080359E+04  0.17952080359E+04  0.25500000920E-02 0. -1.
        2   -1    0    0  501    0  0.00000000000E+00  0.00000000000E+00 -0.19122295469E+04  0.19122295469E+04  0.25500000920E-02 0.  1.
    10030    2    1    2    0    0  0.00000000000E+00  0.00000000000E+00 -0.11702151098E+03  0.37074375827E+04  0.37055902898E+04 0.  0.
        4    1    3    3  502    0 -0.48274468153E+03 -0.15545305829E+03 -0.18414317167E+04  0.19099948851E+04  0.12699999809E+01 0.  1.
       -4    1    3    3    0  502  0.48274468153E+03  0.15545305829E+03  0.17244102057E+04  0.17974426977E+04  0.12699999809E+01 0. -1.
</event>
<event>
 5   0  0.7254493E-08  0.3690188E+04  0.7818609E-02  0.8070140E-01
        2   -1    0    0  501    0  0.00000000000E+00  0.00000000000E+00  0.21692623614E+04  0.21692623614E+04  0.25500000920E-02 0. -1.
       -2   -1    0    0    0  501  0.00000000000E+00  0.00000000000E+00 -0.15693685015E+04  0.15693685015E+04  0.25500000920E-02 0.  1.
    10030    2    1    2    0    0  0.00000000000E+00  0.00000000000E+00  0.59989385991E+03  0.37386308628E+04  0.36901880827E+04 0.  0.
        3    1    3    3  502    0  0.12515474061E+04 -0.13549337613E+04  0.25290895961E+03  0.18617678049E+04  0.10100000352E+00 0. -1.
       -3    1    3    3    0  502 -0.12515474061E+04  0.13549337613E+04  0.34698490030E+03  0.18768630580E+04  0.10100000352E+00 0.  1.
</event>
<event>
 5   0  0.7362817E-08  0.3675312E+04  0.7818609E-02  0.8073455E-01
       -2   -1    0    0    0  501  0.00000000000E+00  0.00000000000E+00  0.20611275056E+04  0.20611275056E+04  0.25500000920E-02 0.  1.
        2   -1    0    0  501    0  0.00000000000E+00  0.00000000000E+00 -0.16384135553E+04  0.16384135553E+04  0.25500000920E-02 0. -1.
    10030    2    1    2    0    0  0.00000000000E+00  0.00000000000E+00  0.42271395032E+03  0.36995410610E+04  0.36753118205E+04 0.  0.
        1    1    3    3  502    0  0.15806862577E+04 -0.29825413599E+03  0.11057270500E+04  0.19519623162E+04  0.50400001928E-02 0.  1.
       -1    1    3    3    0  502 -0.15806862577E+04  0.29825413599E+03 -0.68301309967E+03  0.17475787448E+04  0.50400001928E-02 0. -1.
</event>
<event>
 5   0  0.7203049E-08  0.3687427E+04  0.7818609E-02  0.8070754E-01
       -2   -1    0    0    0  501  0.00000000000E+00  0.00000000000E+00  0.13368320014E+04  0.13368320014E+04  0.25500000920E-02 0. -1.
        2   -1    0    0  501    0  0.00000000000E+00  0.00000000000E+00 -0.25427869598E+04  0.25427869598E+04  0.25500000920E-02 0.  1.
    10030    2    1    2    0    0  0.00000000000E+00  0.00000000000E+00 -0.12059549584E+04  0.38796189613E+04  0.36874267346E+04 0.  0.
        4    1    3    3  502    0  0.55173514339E+03 -0.99864399801E+03 -0.21267653481E+04  0.24134692793E+04  0.12699999809E+01 0.  1.
       -4    1    3    3    0  502 -0.55173514339E+03  0.99864399801E+03  0.92081038972E+03  0.14661496820E+04  0.12699999809E+01 0. -1.
</event>
<event>
 5   0  0.2282000E-08  0.3701147E+04  0.7818609E-02  0.8067708E-01
       -1   -1    0    0    0  501  0.00000000000E+00  0.00000000000E+00  0.13229783104E+04  0.13229783104E+04  0.50400001928E-02 0.  1.
        1   -1    0    0  501    0  0.00000000000E+00  0.00000000000E+00 -0.25885701318E+04  0.25885701318E+04  0.50400001928E-02 0. -1.
    10030    2    1    2    0    0  0.00000000000E+00  0.00000000000E+00 -0.12655918214E+04  0.39115484421E+04  0.37011469245E+04 0.  0.
        3    1    3    3  502    0  0.54704948452E+03  0.36501901211E+03  0.11953122993E+04  0.13642849852E+04  0.10100000352E+00 0.  1.
       -3    1    3    3    0  502 -0.54704948452E+03 -0.36501901211E+03 -0.24609041207E+04  0.25472634570E+04  0.10100000352E+00 0. -1.
</event>
<event>
 5   0  0.7254493E-08  0.3700721E+04  0.7818609E-02  0.8067802E-01
       -2   -1    0    0    0  501  0.00000000000E+00  0.00000000000E+00  0.17247718812E+04  0.17247718812E+04  0.25500000920E-02 0. -1.
        2   -1    0    0  501    0  0.00000000000E+00  0.00000000000E+00 -0.19850934460E+04  0.19850934460E+04  0.25500000920E-02 0.  1.
    10030    2    1    2    0    0  0.00000000000E+00  0.00000000000E+00 -0.26032156482E+03  0.37098653271E+04  0.37007206634E+04 0.  0.
        3    1    3    3  502    0 -0.72455210384E+03  0.15405469978E+03  0.15696484574E+04  0.17356569050E+04  0.10100000352E+00 0. -1.
       -3    1    3    3    0  502  0.72455210384E+03 -0.15405469978E+03 -0.18299700222E+04  0.19742084222E+04  0.10100000352E+00 0.  1.
</event>
<event>
 5   0  0.2282000E-08  0.3690371E+04  0.7818609E-02  0.8070099E-01
        1   -1    0    0  501    0  0.00000000000E+00  0.00000000000E+00  0.16963160049E+04  0.16963160049E+04  0.50400001928E-02 0. -1.
       -1   -1    0    0    0  501  0.00000000000E+00  0.00000000000E+00 -0.20071201051E+04  0.20071201051E+04  0.50400001928E-02 0.  1.
    10030    2    1    2    0    0  0.00000000000E+00  0.00000000000E+00 -0.31080410019E+03  0.37034361100E+04  0.36903712323E+04 0.  0.
        3    1    3    3  502    0 -0.32737093820E+03 -0.20927080118E+03  0.16547976448E+04  0.16998003573E+04  0.10100000352E+00 0. -1.
       -3    1    3    3    0  502  0.32737093820E+03  0.20927080118E+03 -0.19656017449E+04  0.20036357527E+04  0.10100000352E+00 0.  1.
</event>
<event>
 5   0  0.7203049E-08  0.3699110E+04  0.7818609E-02  0.8068159E-01
       -2   -1    0    0    0  501  0.00000000000E+00  0.00000000000E+00  0.18762051308E+04  0.18762051308E+04  0.25500000920E-02 0.  1.
        2   -1    0    0  501    0  0.00000000000E+00  0.00000000000E+00 -0.18232830411E+04  0.18232830411E+04  0.25500000920E-02 0. -1.
    10030    2    1    2    0    0  0.00000000000E+00  0.00000000000E+00  0.52922089686E+02  0.36994881720E+04  0.36991096209E+04 0.  0.
        4    1    3    3  502    0  0.13540528702E+04  0.10838459866E+04 -0.61599872212E+03  0.18405535408E+04  0.12699999809E+01 0. -1.
       -4    1    3    3    0  502 -0.13540528702E+04 -0.10838459866E+04  0.66892081181E+03  0.18589346312E+04  0.12699999809E+01 0.  1.
</event>
<event>
 5   0  0.7309833E-08  0.3702737E+04  0.7818609E-02  0.8067356E-01
       -2   -1    0    0    0  501  0.00000000000E+00  0.00000000000E+00  0.13953345138E+04  0.13953345138E+04  0.25500000920E-02 0.  1.
        2   -1    0    0  501    0  0.00000000000E+00  0.00000000000E+00 -0.24564466202E+04  0.24564466202E+04  0.25500000920E-02 0. -1.
    10030    2    1    2    0    0  0.00000000000E+00  0.00000000000E+00 -0.10611121064E+04  0.38517811339E+04  0.37027366908E+04 0.  0.
        2    1    3    3  502    0 -0.96793707730E+03  0.11862408040E+03  0.11065088876E+04  0.14749019549E+04  0.25500000920E-02 0.  1.
       -2    1    3    3    0  502  0.96793707730E+03 -0.11862408040E+03 -0.21676209940E+04  0.23768791791E+04  0.25500000920E-02 0. -1.
</event>
<event>
 5   0  0.7362817E-08  0.3700680E+04  0.7818609E-02  0.8067811E-01
       -2   -1    0    0    0  501  0.00000000000E+00  0.00000000000E+00  0.15160231989E+04  0.15160231989E+04  0.25500000920E-02 0. -1.
        2   -1    0    0  501    0  0.00000000000E+00  0.00000000000E+00 -0.22583811644E+04  0.22583811644E+04  0.25500000920E-02 0.  1.
    10030    2    1    2    0    0  0.00000000000E+00  0.00000000000E+00 -0.74235796549E+03  0.37744043633E+04  0.37006800657E+04 0.  0.
        1    1    3    3  502    0 -0.14575560521E+04  0.11225256151E+04 -0.57317715935E+03  0.19269316173E+04  0.50400001928E-02 0. -1.
       -1    1    3    3    0  502  0.14575560521E+04 -0.11225256151E+04 -0.16918080614E+03  0.18474727459E+04  0.50400001928E-02 0.  1.
</event>
<event>
 5   0  0.7254493E-08  0.3699268E+04  0.7818609E-02  0.8068124E-01
       -2   -1    0    0    0  501  0.00000000000E+00  0.00000000000E+00  0.19460811032E+04  0.19460811032E+04  0.25500000920E-02 0. -1.
        2   -1    0    0  501    0  0.00000000000E+00  0.00000000000E+00 -0.17579663367E+04  0.17579663367E+04  0.25500000920E-02 0.  1.
    10030    2    1    2    0    0  0.00000000000E+00  0.00000000000E+00  0.18811476643E+03  0.37040474399E+04  0.36992675318E+04 0.  0.
        3    1    3    3  502    0  0.96561121476E+03  0.60167506855E+03 -0.13661572201E+04  0.17778648617E+04  0.10100000352E+00 0.  1.
       -3    1    3    3    0  502 -0.96561121476E+03 -0.60167506855E+03  0.15542719865E+04  0.19261825782E+04  0.10100000352E+00 0. -1.
</event>
<event>
 5   0  0.7309833E-08  0.3727123E+04  0.7818609E-02  0.8061977E-01
        2   -1    0    0  501    0  0.00000000000E+00  0.00000000000E+00  0.13835213702E+04  0.13835213702E+04  0.25500000920E-02 0.  1.
       -2   -1    0    0    0  501  0.00000000000E+00  0.00000000000E+00 -0.25101612942E+04  0.25101612942E+04  0.25500000920E-02 0. -1.
    10030    2    1    2    0    0  0.00000000000E+00  0.00000000000E+00 -0.11266399240E+04  0.38936826644E+04  0.37271231765E+04 0.  0.
        2    1    3    3  502    0  0.21451641962E+03  0.17214126580E+04  0.14797632181E+03  0.17410272328E+04  0.25500000920E-02 0.  1.
       -2    1    3    3    0  502 -0.21451641962E+03 -0.17214126580E+04 -0.12746162458E+04  0.21526554316E+04  0.25500000920E-02 0. -1.
</event>
<event>
 5   0  0.2282000E-08  0.3700574E+04  0.7818609E-02  0.8067835E-01
       -1   -1    0    0    0  501  0.00000000000E+00  0.00000000000E+00  0.16084772208E+04  0.16084772208E+04  0.50400001928E-02 0. -1.
        1   -1    0    0  501    0  0.00000000000E+00  0.00000000000E+00 -0.21284494569E+04  0.21284494569E+04  0.50400001928E-02 0.  1.
    10030    2    1    2    0    0  0.00000000000E+00  0.00000000000E+00 -0.51997223613E+03  0.37369266778E+04  0.37005742620E+04 0.  0.
        2    1    3    3  502    0 -0.10683368502E+04  0.19046720582E+03 -0.17733544177E+04  0.20790399883E+04  0.25500000920E-02 0.  1.
       -2    1    3    3    0  502  0.10683368502E+04 -0.19046720582E+03  0.12533821816E+04  0.16578866895E+04  0.25500000920E-02 0. -1.
</event>
<event>
 5   0  0.2282000E-08  0.3696708E+04  0.7818609E-02  0.8068692E-01
       -1   -1    0    0    0  501  0.00000000000E+00  0.00000000000E+00  0.15452522007E+04  0.15452522007E+04  0.50400001928E-02 0. -1.
        1   -1    0    0  501    0  0.00000000000E+00  0.00000000000E+00 -0.22109093931E+04  0.22109093931E+04  0.50400001928E-02 0.  1.
    10030    2    1    2    0    0  0.00000000000E+00  0.00000000000E+00 -0.66565719240E+03  0.37561615937E+04  0.36967080518E+04 0.  0.
        2    1    3    3  502    0  0.64589269082E+02 -0.15172097553E+04  0.73783316996E+03  0.16883409022E+04  0.25500000920E-02 0. -1.
       -2    1    3    3    0  502 -0.64589269082E+02  0.15172097553E+04 -0.14034903624E+04  0.20678206916E+04  0.25500000920E-02 0.  1.
</event>
<event>
 5   0  0.2282000E-08  0.3699210E+04  0.7818609E-02  0.8068137E-01
        1   -1    0    0  501    0  0.00000000000E+00  0.00000000000E+00  0.24591574727E+04  0.24591574727E+04  0.50400001928E-02 0. -1.
       -1   -1    0    0    0  501  0.00000000000E+00  0.00000000000E+00 -0.13911427316E+04  0.13911427316E+04  0.50400001928E-02 0.  1.
    10030    2    1    2    0    0  0.00000000000E+00  0.00000000000E+00  0.10680147411E+04  0.38503002043E+04  0.36992102098E+04 0.  0.
        4    1    3    3  502    0  0.65745354323E+03  0.40213110471E+03 -0.12160603276E+04  0.14397079287E+04  0.12699999809E+01 0.  1.
       -4    1    3    3    0  502 -0.65745354323E+03 -0.40213110471E+03  0.22840750686E+04  0.24105922755E+04  0.12699999809E+01 0. -1.
</event>
<event>
 5   0  0.2282000E-08  0.3713461E+04  0.7818609E-02  0.8064985E-01
        1   -1    0    0  501    0  0.00000000000E+00  0.00000000000E+00  0.25912552979E+04  0.25912552979E+04  0.50400001928E-02 0. -1.
       -1   -1    0    0    0  501  0.00000000000E+00  0.00000000000E+00 -0.13304160783E+04  0.13304160784E+04  0.50400001928E-02 0.  1.
    10030    2    1    2    0    0  0.00000000000E+00  0.00000000000E+00  0.12608392196E+04  0.39216713763E+04  0.37134607640E+04 0.  0.
        5    1    3    3  502    0  0.22146166209E+03  0.16087963368E+04 -0.32013339004E+03  0.16552275972E+04  0.46999998093E+01 0.  1.
       -5    1    3    3    0  502 -0.22146166209E+03 -0.16087963368E+04  0.15809726096E+04  0.22664437791E+04  0.46999998093E+01 0. -1.
</event>
<event>
 5   0  0.2282000E-08  0.3763330E+04  0.7818609E-02  0.8054070E-01
       -1   -1    0    0    0  501  0.00000000000E+00  0.00000000000E+00  0.15975909621E+04  0.15975909621E+04  0.50400001928E-02 0. -1.
        1   -1    0    0  501    0  0.00000000000E+00  0.00000000000E+00 -0.22162513495E+04  0.22162513495E+04  0.50400001928E-02 0.  1.
    10030    2    1    2    0    0  0.00000000000E+00  0.00000000000E+00 -0.61866038743E+03  0.38138423116E+04  0.37633299753E+04 0.  0.
        5    1    3    3  502    0 -0.14539088906E+04 -0.10966062039E+04 -0.78923116655E+03  0.19847680350E+04  0.46999998093E+01 0.  1.
       -5    1    3    3    0  502  0.14539088906E+04  0.10966062039E+04  0.17057077912E+03  0.18290742766E+04  0.46999998093E+01 0. -1.
</event>
<event>
 5   0  0.7254493E-08  0.3703023E+04  0.7818609E-02  0.8067292E-01
        2   -1    0    0  501    0  0.00000000000E+00  0.00000000000E+00  0.13073465873E+04  0.13073465873E+04  0.25500000920E-02 0. -1.
       -2   -1    0    0    0  501  0.00000000000E+00  0.00000000000E+00 -0.26221769130E+04  0.26221769130E+04  0.25500000920E-02 0.  1.
    10030    2    1    2    0    0  0.00000000000E+00  0.00000000000E+00 -0.13148303257E+04  0.39295235003E+04  0.37030225700E+04 0.  0.
        3    1    3    3  502    0  0.13110774205E+04  0.27285353152E+03  0.69935207794E+03  0.15107833701E+04  0.10100000352E+00 0. -1.
       -3    1    3    3    0  502 -0.13110774205E+04 -0.27285353152E+03 -0.20141824036E+04  0.24187401302E+04  0.10100000352E+00 0.  1.
</event>
<event>
 5   0  0.7254493E-08  0.3700015E+04  0.7818609E-02  0.8067958E-01
       -2   -1    0    0    0  501  0.00000000000E+00  0.00000000000E+00  0.22007799060E+04  0.22007799060E+04  0.25500000920E-02 0.  1.
        2   -1    0    0  501    0  0.00000000000E+00  0.00000000000E+00 -0.15551434496E+04  0.15551434496E+04  0.25500000920E-02 0. -1.
    10030    2    1    2    0    0  0.00000000000E+00  0.00000000000E+00  0.64563645639E+03  0.37559233556E+04  0.37000153810E+04 0.  0.
        3    1    3    3  502    0  0.90766877016E+03 -0.14812525983E+04  0.96847666609E+03  0.19889491998E+04  0.10100000352E+00 0.  1.
       -3    1    3    3    0  502 -0.90766877016E+03  0.14812525983E+04 -0.32284020970E+03  0.17669741559E+04  0.10100000352E+00 0. -1.
</event>
<event>
 5   0  0.2282000E-08  0.3715361E+04  0.7818609E-02  0.8064566E-01
        3   -1    0    0  501    0  0.00000000000E+00  0.00000000000E+00  0.15778454134E+04  0.15778454166E+04  0.10100000352E+00 0.  1.
       -3   -1    0    0    0  501  0.00000000000E+00  0.00000000000E+00 -0.21871451933E+04  0.21871451956E+04  0.10100000352E+00 0. -1.
    10030    2    1    2    0    0  0.00000000000E+00  0.00000000000E+00 -0.60929977986E+03  0.37649906122E+04  0.37153610980E+04 0.  0.
        1    1    3    3  502    0  0.82091961151E+03 -0.12616218024E+04  0.79864442509E+03  0.17039458614E+04  0.50400001928E-02 0.  1.
       -1    1    3    3    0  502 -0.82091961151E+03  0.12616218024E+04 -0.14079442050E+04  0.20610447509E+04  0.50400001928E-02 0. -1.
</event>
<event>
 5   0  0.7362817E-08  0.3697780E+04  0.7818609E-02  0.8068454E-01
       -2   -1    0    0    0  501  0.00000000000E+00  0.00000000000E+00  0.15502728060E+04  0.15502728060E+04  0.25500000920E-02 0. -1.
        2   -1    0    0  501    0  0.00000000000E+00  0.00000000000E+00 -0.22050271269E+04  0.22050271269E+04  0.25500000920E-02 0.  1.
    10030    2    1    2    0    0  0.00000000000E+00  0.00000000000E+00 -0.65475432090E+03  0.37552999329E+04  0.36977796535E+04 0.  0.
        1    1    3    3  502    0  0.11400159049E+04  0.77638112575E+03 -0.15777851006E+04  0.20956645103E+04  0.50400001928E-02 0.  1.
       -1    1    3    3    0  502 -0.11400159049E+04 -0.77638112575E+03  0.92303077970E+03  0.16596354227E+04  0.50400001928E-02 0. -1.
</event>
<event>
 5   0  0.2282000E-08  0.3699490E+04  0.7818609E-02  0.8068075E-01
        1   -1    0    0  501    0  0.00000000000E+00  0.00000000000E+00  0.12850836307E+04  0.12850836307E+04  0.50400001928E-02 0. -1.
       -1   -1    0    0    0  501  0.00000000000E+00  0.00000000000E+00 -0.26625162009E+04  0.26625162009E+04  0.50400001928E-02 0.  1.
    10030    2    1    2    0    0  0.00000000000E+00  0.00000000000E+00 -0.13774325702E+04  0.39475998317E+04  0.36994896872E+04 0.  0.
        2    1    3    3  502    0 -0.11524673366E+04 -0.13645278345E+04 -0.12020613578E+04  0.21529209648E+04  0.25500000920E-02 0.  1.
       -2    1    3    3    0  502  0.11524673366E+04  0.13645278345E+04 -0.17537121243E+03  0.17946788668E+04  0.25500000920E-02 0. -1.
</event>
<event>
 5   0  0.7254493E-08  0.3700566E+04  0.7818609E-02  0.8067836E-01
       -2   -1    0    0    0  501  0.00000000000E+00  0.00000000000E+00  0.19907700458E+04  0.19907700458E+04  0.25500000920E-02 0.  1.
        2   -1    0    0  501    0  0.00000000000E+00  0.00000000000E+00 -0.17197099768E+04  0.17197099768E+04  0.25500000920E-02 0. -1.
    10030    2    1    2    0    0  0.00000000000E+00  0.00000000000E+00  0.27106006895E+03  0.37104800226E+04  0.37005659617E+04 0.  0.
        3    1    3    3  502    0  0.17689923719E+03  0.16430869402E+04  0.96993679688E+03  0.19161955624E+04  0.10100000352E+00 0.  1.
       -3    1    3    3    0  502 -0.17689923719E+03 -0.16430869402E+04 -0.69887672792E+03  0.17942844602E+04  0.10100000352E+00 0. -1.
</event>
<event>
 5   0  0.7203049E-08  0.3712434E+04  0.7818609E-02  0.8065212E-01
       -2   -1    0    0    0  501  0.00000000000E+00  0.00000000000E+00  0.11794945973E+04  0.11794945973E+04  0.25500000920E-02 0.  1.
        2   -1    0    0  501    0  0.00000000000E+00  0.00000000000E+00 -0.29212017539E+04  0.29212017539E+04  0.25500000920E-02 0. -1.
    10030    2    1    2    0    0  0.00000000000E+00  0.00000000000E+00 -0.17417071566E+04  0.41006963511E+04  0.37124340728E+04 0.  0.
        4    1    3    3  502    0 -0.32418524252E+03  0.14009798912E+04 -0.21673642264E+04  0.26010209592E+04  0.12699999809E+01 0. -1.
       -4    1    3    3    0  502  0.32418524252E+03 -0.14009798912E+04  0.42565706984E+03  0.14996753919E+04  0.12699999809E+01 0.  1.
</event>
<event>
 5   0  0.7191801E-08  0.3698284E+04  0.7818609E-02  0.8068342E-01
       -2   -1    0    0    0  501  0.00000000000E+00  0.00000000000E+00  0.13792090837E+04  0.13792090837E+04  0.25500000920E-02 0. -1.
        2   -1    0    0  501    0  0.00000000000E+00  0.00000000000E+00 -0.24791940917E+04  0.24791940917E+04  0.25500000920E-02 0.  1.
    10030    2    1    2    0    0  0.00000000000E+00  0.00000000000E+00 -0.10999850080E+04  0.38584031755E+04  0.36982844735E+04 0.  0.
        5    1    3    3  502    0 -0.46092187231E+03  0.17847720977E+04 -0.70277209443E+03  0.19727572379E+04  0.46999998093E+01 0.  1.
       -5    1    3    3    0  502  0.46092187231E+03 -0.17847720977E+04 -0.39721291357E+03  0.18856459375E+04  0.46999998093E+01 0. -1.
</event>
<event>
 5   0  0.2282000E-08  0.3699620E+04  0.7818609E-02  0.8068046E-01
        1   -1    0    0  501    0  0.00000000000E+00  0.00000000000E+00  0.22748565386E+04  0.22748565386E+04  0.50400001928E-02 0.  1.
       -1   -1    0    0    0  501  0.00000000000E+00  0.00000000000E+00 -0.15041813028E+04  0.15041813028E+04  0.50400001928E-02 0. -1.
    10030    2    1    2    0    0  0.00000000000E+00  0.00000000000E+00  0.77067523582E+03  0.37790378413E+04  0.36996198031E+04 0.  0.
        1    1    3    3  502    0 -0.14682771754E+04  0.34249934484E+03 -0.70942150300E+03  0.16662600439E+04  0.50400001928E-02 0. -1.
       -1    1    3    3    0  502  0.14682771754E+04 -0.34249934484E+03  0.14800967388E+04  0.21127777974E+04  0.50400001928E-02 0.  1.
</event>
<event>
 5   0  0.2282000E-08  0.3701001E+04  0.7818609E-02  0.8067740E-01
       -1   -1    0    0    0  501  0.00000000000E+00  0.00000000000E+00  0.20664108174E+04  0.20664108174E+04  0.50400001928E-02 0.  1.
        1   -1    0    0  501    0  0.00000000000E+00  0.00000000000E+00 -0.16571492823E+04  0.16571492823E+04  0.50400001928E-02 0. -1.
    10030    2    1    2    0    0  0.00000000000E+00  0.00000000000E+00  0.40926153512E+03  0.37235600997E+04  0.37010005150E+04 0.  0.
        3    1    3    3  502    0  0.11415794707E+04 -0.92432672223E+03  0.13369990557E+04  0.19862401825E+04  0.10100000352E+00 0.  1.
       -3    1    3    3    0  502 -0.11415794707E+04  0.92432672223E+03 -0.92773752062E+03  0.17373199172E+04  0.10100000352E+00 0. -1.
</event>
<event>
 5   0  0.2282000E-08  0.3701188E+04  0.7818609E-02  0.8067699E-01
        1   -1    0    0  501    0  0.00000000000E+00  0.00000000000E+00  0.23913546410E+04  0.23913546410E+04  0.50400001928E-02 0. -1.
       -1   -1    0    0    0  501  0.00000000000E+00  0.00000000000E+00 -0.14321163261E+04  0.14321163261E+04  0.50400001928E-02 0.  1.
    10030    2    1    2    0    0  0.00000000000E+00  0.00000000000E+00  0.95923831488E+03  0.38234709670E+04  0.37011879297E+04 0.  0.
        4    1    3    3  502    0 -0.65994378622E+03 -0.36266657797E+03  0.22259265337E+04  0.23498517813E+04  0.12699999809E+01 0. -1.
       -4    1    3    3    0  502  0.65994378622E+03  0.36266657797E+03 -0.12666882189E+04  0.14736191857E+04  0.12699999809E+01 0.  1.
</event>
<event>
 5   0  0.2282000E-08  0.3702622E+04  0.7818609E-02  0.8067381E-01
        1   -1    0    0  501    0  0.00000000000E+00  0.00000000000E+00  0.21053505259E+04  0.21053505259E+04  0.50400001928E-02 0.  1.
       -1   -1    0    0    0  501  0.00000000000E+00  0.00000000000E+00 -0.16279248591E+04  0.16279248591E+04  0.50400001928E-02 0. -1.
    10030    2    1    2    0    0  0.00000000000E+00  0.00000000000E+00  0.47742566682E+03  0.37332753851E+04  0.37026220214E+04 0.  0.
        5    1    3    3  502    0  0.39872197040E+03 -0.17939235872E+04  0.12828395795E+02  0.18377507187E+04  0.46999998093E+01 0.  1.
       -5    1    3    3    0  502 -0.39872197040E+03  0.17939235872E+04  0.46459727102E+03  0.18955246663E+04  0.46999998093E+01 0. -1.
</event>
<event>
 5   0  0.7254493E-08  0.3714377E+04  0.7818609E-02  0.8064783E-01
        2   -1    0    0  501    0  0.00000000000E+00  0.00000000000E+00  0.29478232176E+04  0.29478232176E+04  0.25500000920E-02 0.  1.
       -2   -1    0    0    0  501  0.00000000000E+00  0.00000000000E+00 -0.11700665629E+04  0.11700665629E+04  0.25500000920E-02 0. -1.
    10030    2    1    2    0    0  0.00000000000E+00  0.00000000000E+00  0.17777566547E+04  0.41178897805E+04  0.37143771377E+04 0.  0.
        3    1    3    3  502    0  0.37741530369E+03  0.18010778867E+04  0.11667579587E+04  0.21789098214E+04  0.10100000352E+00 0. -1.
       -3    1    3    3    0  502 -0.37741530369E+03 -0.18010778867E+04  0.61099869597E+03  0.19389799591E+04  0.10100000352E+00 0.  1.
</event>
<event>
 5   0  0.2282000E-08  0.3710394E+04  0.7818609E-02  0.8065662E-01
       -1   -1    0    0    0  501  0.00000000000E+00  0.00000000000E+00  0.16566640713E+04  0.16566640713E+04  0.50400001928E-02 0. -1.
        1   -1    0    0  501    0  0.00000000000E+00  0.00000000000E+00 -0.20775219554E+04  0.20775219554E+04  0.50400001928E-02 0.  1.
    10030    2    1    2    0    0  0.00000000000E+00  0.00000000000E+00 -0.42085788415E+03  0.37341860267E+04  0.37103940389E+04 0.  0.
        2    1    3    3  502    0 -0.37922257694E+03 -0.18062319076E+04 -0.20879766260E+02  0.18457300538E+04  0.25500000920E-02 0.  1.
       -2    1    3    3    0  502  0.37922257694E+03  0.18062319076E+04 -0.39997811789E+03  0.18884559729E+04  0.25500000920E-02 0. -1.
</event>
<event>
 5   0  0.2282000E-08  0.3690605E+04  0.7818609E-02  0.8070047E-01
       -1   -1    0    0    0  501  0.00000000000E+00  0.00000000000E+00  0.15750291163E+04  0.15750291163E+04  0.50400001928E-02 0.  1.
        1   -1    0    0  501    0  0.00000000000E+00  0.00000000000E+00 -0.21619548080E+04  0.21619548080E+04  0.50400001928E-02 0. -1.
    10030    2    1    2    0    0  0.00000000000E+00  0.00000000000E+00 -0.58692569171E+03  0.37369839243E+04  0.36906052462E+04 0.  0.
        4    1    3    3  502    0 -0.43808217059E+03  0.13905149804E+04 -0.14389135573E+04  0.20483949173E+04  0.12699999809E+01 0. -1.
       -4    1    3    3    0  502  0.43808217059E+03 -0.13905149804E+04  0.85198786557E+03  0.16885890071E+04  0.12699999809E+01 0.  1.
</event>
<event>
 5   0  0.2282000E-08  0.3706278E+04  0.7818609E-02  0.8066572E-01
       -1   -1    0    0    0  501  0.00000000000E+00  0.00000000000E+00  0.11800130819E+04  0.11800130819E+04  0.50400001928E-02 0.  1.
        1   -1    0    0  501    0  0.00000000000E+00  0.00000000000E+00 -0.29102423534E+04  0.29102423534E+04  0.50400001928E-02 0. -1.
    10030    2    1    2    0    0  0.00000000000E+00  0.00000000000E+00 -0.17302292715E+04  0.40902554353E+04  0.37062779434E+04 0.  0.
        3    1    3    3  502    0 -0.13522116091E+04 -0.22723865084E+03 -0.22408642685E+04  0.26270870408E+04  0.10100000352E+00 0. -1.
       -3    1    3    3    0  502  0.13522116091E+04  0.22723865084E+03  0.51063499694E+03  0.14631683945E+04  0.10100000352E+00 0.  1.
</event>
<event>
 5   0  0.2282000E-08  0.3699542E+04  0.7818609E-02  0.8068063E-01
        1   -1    0    0  501    0  0.00000000000E+00  0.00000000000E+00  0.19564765380E+04  0.19564765380E+04  0.50400001928E-02 0. -1.
       -1   -1    0    0    0  501  0.00000000000E+00  0.00000000000E+00 -0.17488848680E+04  0.17488848680E+04  0.50400001928E-02 0.  1.
    10030    2    1    2    0    0  0.00000000000E+00  0.00000000000E+00  0.20759167005E+03  0.37053614060E+04  0.36995417078E+04 0.  0.
        4    1    3    3  502    0  0.16350007398E+04 -0.74637322376E+03  0.54191988704E+03  0.18772264608E+04  0.12699999809E+01 0. -1.
       -4    1    3    3    0  502 -0.16350007398E+04  0.74637322376E+03 -0.33432821699E+03  0.18281349452E+04  0.12699999809E+01 0.  1.
</event>
<event>
 5   0  0.7309833E-08  0.3700254E+04  0.7818609E-02  0.8067906E-01
        2   -1    0    0  501    0  0.00000000000E+00  0.00000000000E+00  0.13456970480E+04  0.13456970480E+04  0.25500000920E-02 0.  1.
       -2   -1    0    0    0  501  0.00000000000E+00  0.00000000000E+00 -0.25436409975E+04  0.25436409975E+04  0.25500000920E-02 0. -1.
    10030    2    1    2    0    0  0.00000000000E+00  0.00000000000E+00 -0.11979439495E+04  0.38893380455E+04  0.37002541435E+04 0.  0.
        2    1    3    3  502    0 -0.26565769827E+03  0.17872505846E+04 -0.10169499104E+04  0.20734092179E+04  0.25500000920E-02 0. -1.
       -2    1    3    3    0  502  0.26565769827E+03 -0.17872505846E+04 -0.18099403908E+03  0.18159288276E+04  0.25500000920E-02 0.  1.
</event>
<event>
 5   0  0.7191801E-08  0.3700947E+04  0.7818609E-02  0.8067752E-01
       -2   -1    0    0    0  501  0.00000000000E+00  0.00000000000E+00  0.16267204642E+04  0.16267204642E+04  0.25500000920E-02 0.  1.
        2   -1    0    0  501    0  0.00000000000E+00  0.00000000000E+00 -0.21050038964E+04  0.21050038964E+04  0.25500000920E-02 0. -1.
    10030    2    1    2    0    0  0.00000000000E+00  0.00000000000E+00 -0.47828343223E+03  0.37317243607E+04  0.37009474007E+04 0.  0.
        5    1    3    3  502    0 -0.76857413344E+03 -0.16109831313E+04  0.25303421365E+03  0.18027815318E+04  0.46999998093E+01 0.  1.
       -5    1    3    3    0  502  0.76857413344E+03  0.16109831313E+04 -0.73131764588E+03  0.19289428289E+04  0.46999998093E+01 0. -1.
</event>
<event>
 5   0  0.7254493E-08  0.3685927E+04  0.7818609E-02  0.8071088E-01
        2   -1    0    0  501    0  0.00000000000E+00  0.00000000000E+00  0.21849832992E+04  0.21849832992E+04  0.25500000920E-02 0.  1.
       -2   -1    0    0    0  501  0.00000000000E+00  0.00000000000E+00 -0.15544803361E+04  0.15544803361E+04  0.25500000920E-02 0. -1.
    10030    2    1    2    0    0  0.00000000000E+00  0.00000000000E+00  0.63050296315E+03  0.37394636353E+04  0.36859265176E+04 0.  0.
        3    1    3    3  502    0  0.96254632306E+03  0.15432160755E+04  0.61706582754E+03  0.19206200888E+04  0.10100000352E+00 0. -1.
       -3    1    3    3    0  502 -0.96254632306E+03 -0.15432160755E+04  0.13437135609E+02  0.18188435465E+04  0.10100000352E+00 0.  1.
</event>
<event>
 5   0  0.7191801E-08  0.3699563E+04  0.7818609E-02  0.8068059E-01
        2   -1    0    0  501    0  0.00000000000E+00  0.00000000000E+00  0.17528823819E+04  0.17528823819E+04  0.25500000920E-02 0. -1.
       -2   -1    0    0    0  501  0.00000000000E+00  0.00000000000E+00 -0.19520373123E+04  0.19520373123E+04  0.25500000920E-02 0.  1.
    10030    2    1    2    0    0  0.00000000000E+00  0.00000000000E+00 -0.19915493040E+03  0.37049196942E+04  0.36995631167E+04 0.  0.
        5    1    3    3  502    0 -0.17604872814E+04 -0.54860821382E+03  0.46864501146E+02  0.18445879789E+04  0.46999998093E+01 0.  1.
       -5    1    3    3    0  502  0.17604872814E+04  0.54860821382E+03 -0.24601943155E+03  0.18603317153E+04  0.46999998093E+01 0. -1.
</event>
<event>
 5   0  0.2282000E-08  0.3701380E+04  0.7818609E-02  0.8067656E-01
       -1   -1    0    0    0  501  0.00000000000E+00  0.00000000000E+00  0.17564696719E+04  0.17564696719E+04  0.50400001928E-02 0.  1.
        1   -1    0    0  501    0  0.00000000000E+00  0.00000000000E+00 -0.19499649096E+04  0.19499649096E+04  0.50400001928E-02 0. -1.
    10030    2    1    2    0    0  0.00000000000E+00  0.00000000000E+00 -0.19349523766E+03  0.37064345816E+04  0.37013804047E+04 0.  0.
        4    1    3    3  502    0  0.48081007909E+03  0.12606495404E+03  0.16883761309E+04  0.17600245103E+04  0.12699999809E+01 0.  1.
       -4    1    3    3    0  502 -0.48081007909E+03 -0.12606495404E+03 -0.18818713685E+04  0.19464100712E+04  0.12699999809E+01 0. -1.
</event>
<event>
 5   0  0.2282000E-08  0.3691723E+04  0.7818609E-02  0.8069799E-01
       -1   -1    0    0    0  501  0.00000000000E+00  0.00000000000E+00  0.29737583767E+04  0.29737583767E+04  0.50400001928E-02 0. -1.
        1   -1    0    0  501    0  0.00000000000E+00  0.00000000000E+00 -0.11457570617E+04  0.11457570617E+04  0.50400001928E-02 0.  1.
    10030    2    1    2    0    0  0.00000000000E+00  0.00000000000E+00  0.18280013150E+04  0.41195154384E+04  0.36917229906E+04 0.  0.
        5    1    3    3  502    0  0.12876240410E+03 -0.78789869830E+02 -0.11388509119E+04  0.11488216093E+04  0.46999998093E+01 0.  1.
       -5    1    3    3    0  502 -0.12876240410E+03  0.78789869830E+02  0.29668522269E+04  0.29706938291E+04  0.46999998093E+01 0. -1.
</event>
<event>
 5   0  0.2282000E-08  0.3715248E+04  0.7818609E-02  0.8064591E-01
        1   -1    0    0  501    0  0.00000000000E+00  0.00000000000E+00  0.23175703763E+04  0.23175703763E+04  0.50400001928E-02 0. -1.
       -1   -1    0    0    0  501  0.00000000000E+00  0.00000000000E+00 -0.14889591936E+04  0.14889591937E+04  0.50400001928E-02 0.  1.
    10030    2    1    2    0    0  0.00000000000E+00  0.00000000000E+00  0.82861118263E+03  0.38065295699E+04  0.37152484271E+04 0.  0.
        3    1    3    3  502    0 -0.12068606277E+04 -0.76403008874E+03 -0.80252444030E+03  0.16383833613E+04  0.10100000352E+00 0.  1.
       -3    1    3    3    0  502  0.12068606277E+04  0.76403008874E+03  0.16311356229E+04  0.21681462086E+04  0.10100000352E+00 0. -1.
</event>
<event>
 5   0  0.2282000E-08  0.3689061E+04  0.7818609E-02  0.8070390E-01
       -1   -1    0    0    0  501  0.00000000000E+00  0.00000000000E+00  0.16804999525E+04  0.16804999525E+04  0.50400001928E-02 0. -1.
        1   -1    0    0  501    0  0.00000000000E+00  0.00000000000E+00 -0.20245720642E+04  0.20245720642E+04  0.50400001928E-02 0.  1.
    10030    2    1    2    0    0  0.00000000000E+00  0.00000000000E+00 -0.34407211165E+03  0.37050720167E+04  0.36890612669E+04 0.  0.
        5    1    3    3  502    0  0.12724177828E+04  0.44682459916E+03 -0.14358981355E+04  0.19699047646E+04  0.46999998093E+01 0.  1.
       -5    1    3    3    0  502 -0.12724177828E+04 -0.44682459916E+03  0.10918260238E+04  0.17351672520E+04  0.46999998093E+01 0. -1.
</event>
<event>
 5   0  0.7309833E-08  0.3688620E+04  0.7818609E-02  0.8070488E-01
        2   -1    0    0  501    0  0.00000000000E+00  0.00000000000E+00  0.27996050295E+04  0.27996050295E+04  0.25500000920E-02 0.  1.
       -2   -1    0    0    0  501  0.00000000000E+00  0.00000000000E+00 -0.12149854754E+04  0.12149854754E+04  0.25500000920E-02 0. -1.
    10030    2    1    2    0    0  0.00000000000E+00  0.00000000000E+00  0.15846195542E+04  0.40145905049E+04  0.36886200388E+04 0.  0.
        2    1    3    3  502    0  0.62120326236E+03 -0.42035320055E+02  0.26817619971E+04  0.27530906034E+04  0.25500000920E-02 0.  1.
       -2    1    3    3    0  502 -0.62120326236E+03  0.42035320055E+02 -0.10971424430E+04  0.12614999015E+04  0.25500000920E-02 0. -1.
</event>
<event>
 5   0  0.7254493E-08  0.3700878E+04  0.7818609E-02  0.8067767E-01
       -2   -1    0    0    0  501  0.00000000000E+00  0.00000000000E+00  0.17969411965E+04  0.17969411965E+04  0.25500000920E-02 0.  1.
        2   -1    0    0  501    0  0.00000000000E+00  0.00000000000E+00 -0.19055294920E+04  0.19055294920E+04  0.25500000920E-02 0. -1.
    10030    2    1    2    0    0  0.00000000000E+00  0.00000000000E+00 -0.10858829545E+03  0.37024706885E+04  0.37008779744E+04 0.  0.
        3    1    3    3  502    0 -0.31557643018E+02  0.11555551639E+04 -0.14998453346E+04  0.18936313421E+04  0.10100000352E+00 0. -1.
       -3    1    3    3    0  502  0.31557643018E+02 -0.11555551639E+04  0.13912570392E+04  0.18088393464E+04  0.10100000352E+00 0.  1.
</event>
<event>
 5   0  0.7254493E-08  0.3695839E+04  0.7818609E-02  0.8068885E-01
        2   -1    0    0  501    0  0.00000000000E+00  0.00000000000E+00  0.14614968327E+04  0.14614968327E+04  0.25500000920E-02 0. -1.
       -2   -1    0    0    0  501  0.00000000000E+00  0.00000000000E+00 -0.23365128717E+04  0.23365128717E+04  0.25500000920E-02 0.  1.
    10030    2    1    2    0    0  0.00000000000E+00  0.00000000000E+00 -0.87501603907E+03  0.37980097044E+04  0.36958388285E+04 0.  0.
        3    1    3    3  502    0  0.10237515417E+04  0.14336412405E+04 -0.10109777863E+04  0.20311254319E+04  0.10100000352E+00 0.  1.
       -3    1    3    3    0  502 -0.10237515417E+04 -0.14336412405E+04  0.13596174724E+03  0.17668842725E+04  0.10100000352E+00 0. -1.
</event>
<event>
 5   0  0.2282000E-08  0.3700236E+04  0.7818609E-02  0.8067910E-01
       -1   -1    0    0    0  501  0.00000000000E+00  0.00000000000E+00  0.17195897145E+04  0.17195897145E+04  0.50400001928E-02 0.  1.
        1   -1    0    0  501    0  0.00000000000E+00  0.00000000000E+00 -0.19905541282E+04  0.19905541282E+04  0.50400001928E-02 0. -1.
    10030    2    1    2    0    0  0.00000000000E+00  0.00000000000E+00 -0.27096441369E+03  0.37101438428E+04  0.37002358872E+04 0.  0.
        2    1    3    3  502    0  0.15179195233E+04  0.10433447681E+04 -0.30998390269E+03  0.18678163733E+04  0.25500000920E-02 0. -1.
       -2    1    3    3    0  502 -0.15179195233E+04 -0.10433447681E+04  0.39019489000E+02  0.18423274695E+04  0.25500000920E-02 0.  1.
</event>
<event>
 5   0  0.7203049E-08  0.3694703E+04  0.7818609E-02  0.8069137E-01
       -2   -1    0    0    0  501  0.00000000000E+00  0.00000000000E+00  0.13449648958E+04  0.13449648958E+04  0.25500000920E-02 0.  1.
        2   -1    0    0  501    0  0.00000000000E+00  0.00000000000E+00 -0.25373955515E+04  0.25373955515E+04  0.25500000920E-02 0. -1.
    10030    2    1    2    0    0  0.00000000000E+00  0.00000000000E+00 -0.11924306557E+04  0.38823604473E+04  0.36947032051E+04 0.  0.
        4    1    3    3  502    0 -0.11295523998E+04  0.10435045580E+04 -0.16718864774E+04  0.22715625443E+04  0.12699999809E+01 0. -1.
       -4    1    3    3    0  502  0.11295523998E+04 -0.10435045580E+04  0.47945582169E+03  0.16107979030E+04  0.12699999809E+01 0.  1.
</event>
<event>
 5   0  0.7254493E-08  0.3700921E+04  0.7818609E-02  0.8067758E-01
       -2   -1    0    0    0  501  0.00000000000E+00  0.00000000000E+00  0.13487884488E+04  0.13487884488E+04  0.25500000920E-02 0.  1.
        2   -1    0    0  501    0  0.00000000000E+00  0.00000000000E+00 -0.25387258586E+04  0.25387258586E+04  0.25500000920E-02 0. -1.
    10030    2    1    2    0    0  0.00000000000E+00  0.00000000000E+00 -0.11899374098E+04  0.38875143073E+04  0.37009210273E+04 0.  0.
        3    1    3    3  502    0 -0.94372064774E+03  0.58007408460E+03  0.96202921797E+03  0.14671723931E+04  0.10100000352E+00 0.  1.
       -3    1    3    3    0  502  0.94372064774E+03 -0.58007408460E+03 -0.21519666278E+04  0.24203419143E+04  0.10100000352E+00 0. -1.
</event>
<event>
 5   0  0.7254493E-08  0.3691869E+04  0.7818609E-02  0.8069766E-01
        2   -1    0    0  501    0  0.00000000000E+00  0.00000000000E+00  0.15003091913E+04  0.15003091913E+04  0.25500000920E-02 0. -1.
       -2   -1    0    0    0  501  0.00000000000E+00  0.00000000000E+00 -0.22711818315E+04  0.22711818315E+04  0.25500000920E-02 0.  1.
    10030    2    1    2    0    0  0.00000000000E+00  0.00000000000E+00 -0.77087264025E+03  0.37714910228E+04  0.36918694326E+04 0.  0.
        3    1    3    3  502    0 -0.13255915126E+04  0.63616180482E+03  0.75468903655E+03  0.16527099722E+04  0.10100000352E+00 0. -1.
       -3    1    3    3    0  502  0.13255915126E+04 -0.63616180482E+03 -0.15255616768E+04  0.21187810505E+04  0.10100000352E+00 0.  1.
</event>
<event>
 5   0  0.7254493E-08  0.3700575E+04  0.7818609E-02  0.8067834E-01
        2   -1    0    0  501    0  0.00000000000E+00  0.00000000000E+00  0.17242736089E+04  0.17242736089E+04  0.25500000920E-02 0.  1.
       -2   -1    0    0    0  501  0.00000000000E+00  0.00000000000E+00 -0.19855109622E+04  0.19855109622E+04  0.25500000920E-02 0. -1.
    10030    2    1    2    0    0  0.00000000000E+00  0.00000000000E+00 -0.26123735330E+03  0.37097845711E+04  0.37005751728E+04 0.  0.
        3    1    3    3  502    0  0.54288475611E+03 -0.13907408761E+04 -0.12263530217E+04  0.19320522216E+04  0.10100000352E+00 0. -1.
       -3    1    3    3    0  502 -0.54288475611E+03  0.13907408761E+04  0.96511566841E+03  0.17777323495E+04  0.10100000352E+00 0.  1.
</event>
<event>
 5   0  0.7191801E-08  0.3739979E+04  0.7818609E-02  0.8059159E-01
       -2   -1    0    0    0  501  0.00000000000E+00  0.00000000000E+00  0.13830607024E+04  0.13830607024E+04  0.25500000920E-02 0. -1.
        2   -1    0    0  501    0  0.00000000000E+00  0.00000000000E+00 -0.25283495600E+04  0.25283495600E+04  0.25500000920E-02 0.  1.
    10030    2    1    2    0    0  0.00000000000E+00  0.00000000000E+00 -0.11452888576E+04  0.39114102624E+04  0.37399791006E+04 0.  0.
        5    1    3    3  502    0 -0.57928512930E+03  0.24549502686E+03 -0.24143282028E+04  0.24949632923E+04  0.46999998093E+01 0.  1.
       -5    1    3    3    0  502  0.57928512930E+03 -0.24549502686E+03  0.12690393452E+04  0.14164469700E+04  0.46999998093E+01 0. -1.
</event>
<event>
 5   0  0.2282000E-08  0.3701984E+04  0.7818609E-02  0.8067522E-01
        1   -1    0    0  501    0  0.00000000000E+00  0.00000000000E+00  0.20084128555E+04  0.20084128555E+04  0.50400001928E-02 0.  1.
       -1   -1    0    0    0  501  0.00000000000E+00  0.00000000000E+00 -0.17059102925E+04  0.17059102925E+04  0.50400001928E-02 0. -1.
    10030    2    1    2    0    0  0.00000000000E+00  0.00000000000E+00  0.30250256295E+03  0.37143231480E+04  0.37019844202E+04 0.  0.
        3    1    3    3  502    0 -0.15998377036E+03 -0.84038821673E+03 -0.14956595575E+04  0.17230335701E+04  0.10100000352E+00 0. -1.
       -3    1    3    3    0  502  0.15998377036E+03  0.84038821673E+03  0.17981621204E+04  0.19912895779E+04  0.10100000352E+00 0.  1.
</event>
<event>
 5   0  0.2282000E-08  0.3719913E+04  0.7818609E-02  0.8063563E-01
       -1   -1    0    0    0  501  0.00000000000E+00  0.00000000000E+00  0.12597892781E+04  0.12597892781E+04  0.50400001928E-02 0. -1.
        1   -1    0    0  501    0  0.00000000000E+00  0.00000000000E+00 -0.27460446212E+04  0.27460446212E+04  0.50400001928E-02 0.  1.
    10030    2    1    2    0    0  0.00000000000E+00  0.00000000000E+00 -0.14862553431E+04  0.40058338993E+04  0.37199126716E+04 0.  0.
        2    1    3    3  502    0  0.14980520190E+04  0.55969332193E+03 -0.17658754443E+04  0.23823795984E+04  0.25500000920E-02 0.  1.
       -2    1    3    3    0  502 -0.14980520190E+04 -0.55969332193E+03  0.27962010123E+03  0.16234543009E+04  0.25500000920E-02 0. -1.
</event>
<event>
 5   0  0.2282000E-08  0.3702972E+04  0.7818609E-02  0.8067304E-01
       -1   -1    0    0    0  501  0.00000000000E+00  0.00000000000E+00  0.22418569970E+04  0.22418569970E+04  0.50400001928E-02 0.  1.
        1   -1    0    0  501    0  0.00000000000E+00  0.00000000000E+00 -0.15290893643E+04  0.15290893644E+04  0.50400001928E-02 0. -1.
    10030    2    1    2    0    0  0.00000000000E+00  0.00000000000E+00  0.71276763266E+03  0.37709463614E+04  0.37029716124E+04 0.  0.
        4    1    3    3  502    0  0.62652512322E+03 -0.11932038909E+04  0.16492273229E+04  0.21298407525E+04  0.12699999809E+01 0.  1.
       -4    1    3    3    0  502 -0.62652512322E+03  0.11932038909E+04 -0.93645969024E+03  0.16411056089E+04  0.12699999809E+01 0. -1.
</event>
<event>
 5   0  0.7254493E-08  0.3699129E+04  0.7818609E-02  0.8068155E-01
       -2   -1    0    0    0  501  0.00000000000E+00  0.00000000000E+00  0.14392137379E+04  0.14392137379E+04  0.25500000920E-02 0. -1.
        2   -1    0    0  501    0  0.00000000000E+00  0.00000000000E+00 -0.23769152300E+04  0.23769152300E+04  0.25500000920E-02 0.  1.
    10030    2    1    2    0    0  0.00000000000E+00  0.00000000000E+00 -0.93770149210E+03  0.38161289679E+04  0.36991291152E+04 0.  0.
        3    1    3    3  502    0  0.53430531133E+03  0.17439712967E+04 -0.78509341118E+03  0.19857718207E+04  0.10100000352E+00 0.  1.
       -3    1    3    3    0  502 -0.53430531133E+03 -0.17439712967E+04 -0.15260808092E+03  0.18303571471E+04  0.10100000352E+00 0. -1.
</event>
<event>
 5   0  0.7254493E-08  0.3698553E+04  0.7818609E-02  0.8068282E-01
        2   -1    0    0  501    0  0.00000000000E+00  0.00000000000E+00  0.19221460720E+04  0.19221460720E+04  0.25500000920E-02 0. -1.
       -2   -1    0    0    0  501  0.00000000000E+00  0.00000000000E+00 -0.17791699211E+04  0.17791699211E+04  0.25500000920E-02 0.  1.
    10030    2    1    2    0    0  0.00000000000E+00  0.00000000000E+00  0.14297615092E+03  0.37013159931E+04  0.36985534877E+04 0.  0.
        3    1    3    3  502    0 -0.17010117781E+04  0.36178607358E+03 -0.55786496917E+03  0.18263470552E+04  0.10100000352E+00 0. -1.
       -3    1    3    3    0  502  0.17010117781E+04 -0.36178607358E+03  0.70084112010E+03  0.18749689379E+04  0.10100000352E+00 0.  1.
</event>
<event>
 5   0  0.7362817E-08  0.3704344E+04  0.7818609E-02  0.8067000E-01
       -2   -1    0    0    0  501  0.00000000000E+00  0.00000000000E+00  0.15875835028E+04  0.15875835028E+04  0.25500000920E-02 0.  1.
        2   -1    0    0  501    0  0.00000000000E+00  0.00000000000E+00 -0.21608567248E+04  0.21608567248E+04  0.25500000920E-02 0. -1.
    10030    2    1    2    0    0  0.00000000000E+00  0.00000000000E+00 -0.57327322197E+03  0.37484402276E+04  0.37043436602E+04 0.  0.
        1    1    3    3  502    0 -0.17196806167E+02 -0.17208452859E+04 -0.97957756124E+03  0.19801960577E+04  0.50400001928E-02 0.  1.
       -1    1    3    3    0  502  0.17196806167E+02  0.17208452859E+04  0.40630433927E+03  0.17682441699E+04  0.50400001928E-02 0. -1.
</event>
<event>
 5   0  0.2282000E-08  0.3708310E+04  0.7818609E-02  0.8066123E-01
        1   -1    0    0  501    0  0.00000000000E+00  0.00000000000E+00  0.25248032755E+04  0.25248032755E+04  0.50400001928E-02 0. -1.
       -1   -1    0    0    0  501  0.00000000000E+00  0.00000000000E+00 -0.13616469418E+04  0.13616469418E+04  0.50400001928E-02 0.  1.
    10030    2    1    2    0    0  0.00000000000E+00  0.00000000000E+00  0.11631563337E+04  0.38864502173E+04  0.37083099432E+04 0.  0.
        1    1    3    3  502    0 -0.95438979062E+03  0.53528866889E+03 -0.98715561896E+03  0.14737265851E+04  0.50400001928E-02 0.  1.
       -1    1    3    3    0  502  0.95438979062E+03 -0.53528866889E+03  0.21503119527E+04  0.24127236322E+04  0.50400001928E-02 0. -1.
</event>
<event>
 5   0  0.7309833E-08  0.3716962E+04  0.7818609E-02  0.8064213E-01
        2   -1    0    0  501    0  0.00000000000E+00  0.00000000000E+00  0.17562405191E+04  0.17562405191E+04  0.25500000920E-02 0. -1.
       -2   -1    0    0    0  501  0.00000000000E+00  0.00000000000E+00 -0.19666732012E+04  0.19666732012E+04  0.25500000920E-02 0.  1.
    10030    2    1    2    0    0  0.00000000000E+00  0.00000000000E+00 -0.21043268210E+03  0.37229137202E+04  0.37169617505E+04 0.  0.
        2    1    3    3  502    0 -0.61790183868E+03 -0.10634416008E+04 -0.15007314561E+04  0.19403364718E+04  0.25500000920E-02 0.  1.
       -2    1    3    3    0  502  0.61790183868E+03  0.10634416008E+04  0.12902987740E+04  0.17825772484E+04  0.25500000920E-02 0. -1.
</event>
<event>
 5   0  0.7254493E-08  0.3693800E+04  0.7818609E-02  0.8069337E-01
       -2   -1    0    0    0  501  0.00000000000E+00  0.00000000000E+00  0.21871169951E+04  0.21871169951E+04  0.25500000920E-02 0. -1.
        2   -1    0    0  501    0  0.00000000000E+00  0.00000000000E+00 -0.15596055996E+04  0.15596055996E+04  0.25500000920E-02 0.  1.
    10030    2    1    2    0    0  0.00000000000E+00  0.00000000000E+00  0.62751139543E+03  0.37467225947E+04  0.36938001638E+04 0.  0.
        3    1    3    3  502    0  0.10227841032E+04  0.19549487502E+03 -0.12334624204E+04  0.16142289555E+04  0.10100000352E+00 0.  1.
       -3    1    3    3    0  502 -0.10227841032E+04 -0.19549487502E+03  0.18609738158E+04  0.21324936392E+04  0.10100000352E+00 0. -1.
</event>
<event>
 5   0  0.2282000E-08  0.3699691E+04  0.7818609E-02  0.8068030E-01
       -1   -1    0    0    0  501  0.00000000000E+00  0.00000000000E+00  0.11375900875E+04  0.11375900876E+04  0.50400001928E-02 0. -1.
        1   -1    0    0  501    0  0.00000000000E+00  0.00000000000E+00 -0.30080512270E+04  0.30080512270E+04  0.50400001928E-02 0.  1.
    10030    2    1    2    0    0  0.00000000000E+00  0.00000000000E+00 -0.18704611395E+04  0.41456413146E+04  0.36996914783E+04 0.  0.
        1    1    3    3  502    0 -0.64702390523E+03  0.83000442359E+03 -0.26399139783E+04  0.28419523378E+04  0.50400001928E-02 0.  1.
       -1    1    3    3    0  502  0.64702390523E+03 -0.83000442359E+03  0.76945283883E+03  0.13036889768E+04  0.50400001928E-02 0. -1.
</event>
<event>
 5   0  0.7203049E-08  0.3697142E+04  0.7818609E-02  0.8068596E-01
       -2   -1    0    0    0  501  0.00000000000E+00  0.00000000000E+00  0.30774271611E+04  0.30774271611E+04  0.25500000920E-02 0.  1.
        2   -1    0    0  501    0  0.00000000000E+00  0.00000000000E+00 -0.11104126073E+04  0.11104126073E+04  0.25500000920E-02 0. -1.
    10030    2    1    2    0    0  0.00000000000E+00  0.00000000000E+00  0.19670145537E+04  0.41878397684E+04  0.36971415542E+04 0.  0.
        4    1    3    3  502    0  0.11636714619E+04 -0.11823315118E+04  0.19073357834E+04  0.25278390927E+04  0.12699999809E+01 0.  1.
       -4    1    3    3    0  502 -0.11636714619E+04  0.11823315118E+04  0.59678770320E+02  0.16600006757E+04  0.12699999809E+01 0. -1.
</event>
<event>
 5   0  0.2282000E-08  0.3683806E+04  0.7818609E-02  0.8071560E-01
        3   -1    0    0  501    0  0.00000000000E+00  0.00000000000E+00  0.13464315734E+04  0.13464315772E+04  0.10100000352E+00 0. -1.
       -3   -1    0    0    0  501  0.00000000000E+00  0.00000000000E+00 -0.25197020048E+04  0.25197020068E+04  0.10100000352E+00 0.  1.
    10030    2    1    2    0    0  0.00000000000E+00  0.00000000000E+00 -0.11732704314E+04  0.38661335839E+04  0.36838058287E+04 0.  0.
        3    1    3    3  502    0 -0.17666343486E+04  0.50770374803E+03 -0.46314081113E+03  0.18955894699E+04  0.10100000352E+00 0.  1.
       -3    1    3    3    0  502  0.17666343486E+04 -0.50770374803E+03 -0.71012962026E+03  0.19705441140E+04  0.10100000352E+00 0. -1.
</event>
<event>
 5   0  0.7191801E-08  0.3695599E+04  0.7818609E-02  0.8068938E-01
        2   -1    0    0  501    0  0.00000000000E+00  0.00000000000E+00  0.18045174435E+04  0.18045174435E+04  0.25500000920E-02 0.  1.
       -2   -1    0    0    0  501  0.00000000000E+00  0.00000000000E+00 -0.18921194702E+04  0.18921194702E+04  0.25500000920E-02 0. -1.
    10030    2    1    2    0    0  0.00000000000E+00  0.00000000000E+00 -0.87602026724E+02  0.36966369137E+04  0.36955987819E+04 0.  0.
        5    1    3    3  502    0 -0.17378617670E+04  0.39414400935E+03  0.44503605054E+03  0.18367341118E+04  0.46999998093E+01 0.  1.
       -5    1    3    3    0  502  0.17378617670E+04 -0.39414400935E+03 -0.53263807726E+03  0.18599028019E+04  0.46999998093E+01 0. -1.
</event>
<event>
 5   0  0.7203049E-08  0.3703453E+04  0.7818609E-02  0.8067197E-01
        2   -1    0    0  501    0  0.00000000000E+00  0.00000000000E+00  0.18203858344E+04  0.18203858344E+04  0.25500000920E-02 0. -1.
       -2   -1    0    0    0  501  0.00000000000E+00  0.00000000000E+00 -0.18836062665E+04  0.18836062665E+04  0.25500000920E-02 0.  1.
    10030    2    1    2    0    0  0.00000000000E+00  0.00000000000E+00 -0.63220432134E+02  0.37039921009E+04  0.37034525325E+04 0.  0.
        4    1    3    3  502    0  0.16798467671E+04 -0.52943298397E+03  0.54005341839E+03  0.18422387883E+04  0.12699999809E+01 0. -1.
       -4    1    3    3    0  502 -0.16798467671E+04  0.52943298397E+03 -0.60327385052E+03  0.18617533126E+04  0.12699999809E+01 0.  1.
</event>
<event>
 5   0  0.7254493E-08  0.3694567E+04  0.7818609E-02  0.8069167E-01
        2   -1    0    0  501    0  0.00000000000E+00  0.00000000000E+00  0.25927595950E+04  0.25927595950E+04  0.25500000920E-02 0. -1.
       -2   -1    0    0    0  501  0.00000000000E+00  0.00000000000E+00 -0.13161486154E+04  0.13161486154E+04  0.25500000920E-02 0.  1.
    10030    2    1    2    0    0  0.00000000000E+00  0.00000000000E+00  0.12766109796E+04  0.39089082104E+04  0.36945673365E+04 0.  0.
        3    1    3    3  502    0 -0.81159913236E+03  0.33453200327E+03  0.23579795433E+04  0.25160827391E+04  0.10100000352E+00 0. -1.
       -3    1    3    3    0  502  0.81159913236E+03 -0.33453200327E+03 -0.10813685637E+04  0.13928254713E+04  0.10100000352E+00 0.  1.
</event>
<event>
 5   0  0.7254493E-08  0.3703419E+04  0.7818609E-02  0.8067205E-01
       -2   -1    0    0    0  501  0.00000000000E+00  0.00000000000E+00  0.18095675118E+04  0.18095675118E+04  0.25500000920E-02 0.  1.
        2   -1    0    0  501    0  0.00000000000E+00  0.00000000000E+00 -0.18948328176E+04  0.18948328176E+04  0.25500000920E-02 0. -1.
    10030    2    1    2    0    0  0.00000000000E+00  0.00000000000E+00 -0.85265305784E+02  0.37044003295E+04  0.37034189108E+04 0.  0.
        3    1    3    3  502    0 -0.31057433849E+03 -0.12950029446E+04  0.12443080248E+04  0.18225782609E+04  0.10100000352E+00 0.  1.
       -3    1    3    3    0  502  0.31057433849E+03  0.12950029446E+04 -0.13295733306E+04  0.18818220686E+04  0.10100000352E+00 0. -1.
</event>
<event>
 5   0  0.7203049E-08  0.3702169E+04  0.7818609E-02  0.8067481E-01
        2   -1    0    0  501    0  0.00000000000E+00  0.00000000000E+00  0.20671043144E+04  0.20671043144E+04  0.25500000920E-02 0.  1.
       -2   -1    0    0    0  501  0.00000000000E+00  0.00000000000E+00 -0.16576394012E+04  0.16576394012E+04  0.25500000920E-02 0. -1.
    10030    2    1    2    0    0  0.00000000000E+00  0.00000000000E+00  0.40946491320E+03  0.37247437157E+04  0.37021688552E+04 0.  0.
        4    1    3    3  502    0  0.16636000585E+04 -0.73259029040E+03 -0.14705412748E+03  0.18236995963E+04  0.12699999809E+01 0. -1.
       -4    1    3    3    0  502 -0.16636000585E+04  0.73259029040E+03  0.55651904068E+03  0.19010441194E+04  0.12699999809E+01 0.  1.
</event>
<event>
 5   0  0.7254493E-08  0.3697345E+04  0.7818609E-02  0.8068550E-01
       -2   -1    0    0    0  501  0.00000000000E+00  0.00000000000E+00  0.18774145160E+04  0.18774145160E+04  0.25500000920E-02 0.  1.
        2   -1    0    0  501    0  0.00000000000E+00  0.00000000000E+00 -0.18203707805E+04  0.18203707805E+04  0.25500000920E-02 0. -1.
    10030    2    1    2    0    0  0.00000000000E+00  0.00000000000E+00  0.57043735563E+02  0.36977852965E+04  0.36973452789E+04 0.  0.
        3    1    3    3  502    0  0.34887686306E+02  0.18185967328E+04  0.35883271343E+03  0.18539881752E+04  0.10100000352E+00 0.  1.
       -3    1    3    3    0  502 -0.34887686306E+02 -0.18185967328E+04 -0.30178897786E+03  0.18437971213E+04  0.10100000352E+00 0. -1.
</event>
<event>
 5   0  0.2282000E-08  0.3694426E+04  0.7818609E-02  0.8069198E-01
       -1   -1    0    0    0  501  0.00000000000E+00  0.00000000000E+00  0.14395606385E+04  0.14395606385E+04  0.50400001928E-02 0.  1.
        1   -1    0    0  501    0  0.00000000000E+00  0.00000000000E+00 -0.23703036176E+04  0.23703036176E+04  0.50400001928E-02 0. -1.
    10030    2    1    2    0    0  0.00000000000E+00  0.00000000000E+00 -0.93074297909E+03  0.38098642561E+04  0.36944259577E+04 0.  0.
        5    1    3    3  502    0 -0.17184690274E+04  0.59582383585E+03 -0.79798946203E+03  0.19861900999E+04  0.46999998093E+01 0. -1.
       -5    1    3    3    0  502  0.17184690274E+04 -0.59582383585E+03 -0.13275351706E+03  0.18236741562E+04  0.46999998093E+01 0.  1.
</event>
<event>
 5   0  0.7362817E-08  0.3697400E+04  0.7818609E-02  0.8068538E-01
       -2   -1    0    0    0  501  0.00000000000E+00  0.00000000000E+00  0.12934426781E+04  0.12934426781E+04  0.25500000920E-02 0. -1.
        2   -1    0    0  501    0  0.00000000000E+00  0.00000000000E+00 -0.26423212030E+04  0.26423212030E+04  0.25500000920E-02 0.  1.
    10030    2    1    2    0    0  0.00000000000E+00  0.00000000000E+00 -0.13488785248E+04  0.39357638811E+04  0.36973996340E+04 0.  0.
        1    1    3    3  502    0 -0.60597652435E+03 -0.13942439353E+04  0.44531200030E+03  0.15841169391E+04  0.50400001928E-02 0.  1.
       -1    1    3    3    0  502  0.60597652435E+03  0.13942439353E+04 -0.17941905251E+04  0.23516469420E+04  0.50400001928E-02 0. -1.
</event>
<event>
 5   0  0.2282000E-08  0.3699511E+04  0.7818609E-02  0.8068070E-01
       -1   -1    0    0    0  501  0.00000000000E+00  0.00000000000E+00  0.18667979788E+04  0.18667979788E+04  0.50400001928E-02 0. -1.
        1   -1    0    0  501    0  0.00000000000E+00  0.00000000000E+00 -0.18328686214E+04  0.18328686214E+04  0.50400001928E-02 0.  1.
    10030    2    1    2    0    0  0.00000000000E+00  0.00000000000E+00  0.33929357342E+02  0.36996666002E+04  0.36995110152E+04 0.  0.
        3    1    3    3  502    0  0.72449877909E+03  0.25822613937E+03  0.16993006287E+04  0.18652618735E+04  0.10100000352E+00 0. -1.
       -3    1    3    3    0  502 -0.72449877909E+03 -0.25822613937E+03 -0.16653712713E+04  0.18344047267E+04  0.10100000352E+00 0.  1.
</event>
<event>
 5   0  0.7203049E-08  0.3698863E+04  0.7818609E-02  0.8068214E-01
       -2   -1    0    0    0  501  0.00000000000E+00  0.00000000000E+00  0.22541611845E+04  0.22541611845E+04  0.25500000920E-02 0. -1.
        2   -1    0    0  501    0  0.00000000000E+00  0.00000000000E+00 -0.15173702048E+04  0.15173702048E+04  0.25500000920E-02 0.  1.
    10030    2    1    2    0    0  0.00000000000E+00  0.00000000000E+00  0.73679097975E+03  0.37715313893E+04  0.36988630784E+04 0.  0.
        4    1    3    3  502    0 -0.81240357156E+03  0.98464828315E+03  0.17329180678E+04  0.21523332565E+04  0.12699999809E+01 0. -1.
       -4    1    3    3    0  502  0.81240357156E+03 -0.98464828315E+03 -0.99612708805E+03  0.16191981327E+04  0.12699999809E+01 0.  1.
</event>
<event>
 5   0  0.7203049E-08  0.3702131E+04  0.7818609E-02  0.8067490E-01
       -2   -1    0    0    0  501  0.00000000000E+00  0.00000000000E+00  0.17555813504E+04  0.17555813504E+04  0.25500000920E-02 0. -1.
        2   -1    0    0  501    0  0.00000000000E+00  0.00000000000E+00 -0.19517426690E+04  0.19517426690E+04  0.25500000920E-02 0.  1.
    10030    2    1    2    0    0  0.00000000000E+00  0.00000000000E+00 -0.19616131860E+03  0.37073240195E+04  0.37021307543E+04 0.  0.
        4    1    3    3  502    0  0.21132389890E+03 -0.29057387525E+02 -0.19393930605E+04  0.19510892286E+04  0.12699999809E+01 0.  1.
       -4    1    3    3    0  502 -0.21132389890E+03  0.29057387525E+02  0.17432317418E+04  0.17562347909E+04  0.12699999809E+01 0. -1.
</event>
<event>
 5   0  0.7203049E-08  0.3704119E+04  0.7818609E-02  0.8067050E-01
       -2   -1    0    0    0  501  0.00000000000E+00  0.00000000000E+00  0.13879186265E+04  0.13879186266E+04  0.25500000920E-02 0. -1.
        2   -1    0    0  501    0  0.00000000000E+00  0.00000000000E+00 -0.24714158023E+04  0.24714158023E+04  0.25500000920E-02 0.  1.
    10030    2    1    2    0    0  0.00000000000E+00  0.00000000000E+00 -0.10834971757E+04  0.38593344288E+04  0.37041188026E+04 0.  0.
        4    1    3    3  502    0 -0.15358524672E+04  0.91279483648E+03 -0.33362444501E+02  0.17869392491E+04  0.12699999809E+01 0. -1.
       -4    1    3    3    0  502  0.15358524672E+04 -0.91279483648E+03 -0.10501347312E+04  0.20723951797E+04  0.12699999809E+01 0.  1.
</event>
<event>
 5   0  0.7362817E-08  0.3699365E+04  0.7818609E-02  0.8068103E-01
        2   -1    0    0  501    0  0.00000000000E+00  0.00000000000E+00  0.24571653595E+04  0.24571653595E+04  0.25500000920E-02 0.  1.
       -2   -1    0    0    0  501  0.00000000000E+00  0.00000000000E+00 -0.13923870285E+04  0.13923870285E+04  0.25500000920E-02 0. -1.
    10030    2    1    2    0    0  0.00000000000E+00  0.00000000000E+00  0.10647783310E+04  0.38495523880E+04  0.36993649041E+04 0.  0.
        1    1    3    3  502    0  0.12825557024E+04 -0.63244499009E+02  0.19177439666E+04  0.23079625035E+04  0.50400001928E-02 0.  1.
       -1    1    3    3    0  502 -0.12825557024E+04  0.63244499009E+02 -0.85296563562E+03  0.15415898845E+04  0.50400001928E-02 0. -1.
</event>
<event>
 5   0  0.2282000E-08  0.3765858E+04  0.7818609E-02  0.8053522E-01
       -1   -1    0    0    0  501  0.00000000000E+00  0.00000000000E+00  0.15874878309E+04  0.15874878310E+04  0.50400001928E-02 0.  1.
        1   -1    0    0  501    0  0.00000000000E+00  0.00000000000E+00 -0.22333537176E+04  0.22333537177E+04  0.50400001928E-02 0. -1.
    10030    2    1    2    0    0  0.00000000000E+00  0.00000000000E+00 -0.64586588670E+03  0.38208415486E+04  0.37658581221E+04 0.  0.
        4    1    3    3  502    0 -0.18238069547E+04 -0.25765231541E+03 -0.71948953725E+03  0.19774537493E+04  0.12699999809E+01 0. -1.
       -4    1    3    3    0  502  0.18238069547E+04  0.25765231541E+03  0.73623650551E+02  0.18433877993E+04  0.12699999809E+01 0.  1.
</event>
<event>
 5   0  0.2282000E-08  0.3701062E+04  0.7818609E-02  0.8067727E-01
       -1   -1    0    0    0  501  0.00000000000E+00  0.00000000000E+00  0.18836427351E+04  0.18836427351E+04  0.50400001928E-02 0. -1.
        1   -1    0    0  501    0  0.00000000000E+00  0.00000000000E+00 -0.18180010617E+04  0.18180010617E+04  0.50400001928E-02 0.  1.
    10030    2    1    2    0    0  0.00000000000E+00  0.00000000000E+00  0.65641673349E+02  0.37016437968E+04  0.37010617354E+04 0.  0.
        5    1    3    3  502    0  0.16543693392E+04  0.46378882112E+03 -0.65460408417E+03  0.18386317135E+04  0.46999998093E+01 0.  1.
       -5    1    3    3    0  502 -0.16543693392E+04 -0.46378882112E+03  0.72024575752E+03  0.18630120832E+04  0.46999998093E+01 0. -1.
</event>
<event>
 5   0  0.7203049E-08  0.3697438E+04  0.7818609E-02  0.8068530E-01
        2   -1    0    0  501    0  0.00000000000E+00  0.00000000000E+00  0.18321571075E+04  0.18321571075E+04  0.25500000920E-02 0. -1.
       -2   -1    0    0    0  501  0.00000000000E+00  0.00000000000E+00 -0.18654304422E+04  0.18654304422E+04  0.25500000920E-02 0.  1.
    10030    2    1    2    0    0  0.00000000000E+00  0.00000000000E+00 -0.33273334644E+02  0.36975875497E+04  0.36974378390E+04 0.  0.
        4    1    3    3  502    0  0.78143847556E+03  0.13450451379E+04  0.98238702312E+03  0.18398038999E+04  0.12699999809E+01 0. -1.
       -4    1    3    3    0  502 -0.78143847556E+03 -0.13450451379E+04 -0.10156603578E+04  0.18577836498E+04  0.12699999809E+01 0.  1.
</event>
<event>
 5   0  0.7362817E-08  0.3696954E+04  0.7818609E-02  0.8068637E-01
       -2   -1    0    0    0  501  0.00000000000E+00  0.00000000000E+00  0.15762272886E+04  0.15762272886E+04  0.25500000920E-02 0.  1.
        2   -1    0    0  501    0  0.00000000000E+00  0.00000000000E+00 -0.21677504119E+04  0.21677504119E+04  0.25500000920E-02 0. -1.
    10030    2    1    2    0    0  0.00000000000E+00  0.00000000000E+00 -0.59152312332E+03  0.37439777005E+04  0.36969540728E+04 0.  0.
        1    1    3    3  502    0 -0.36779921301E+03 -0.72636593243E+03  0.13848597825E+04  0.16064620587E+04  0.50400001928E-02 0.  1.
       -1    1    3    3    0  502  0.36779921301E+03  0.72636593243E+03 -0.19763829058E+04  0.21375156419E+04  0.50400001928E-02 0. -1.
</event>
<event>
 5   0  0.7309833E-08  0.3695823E+04  0.7818609E-02  0.8068888E-01
        2   -1    0    0  501    0  0.00000000000E+00  0.00000000000E+00  0.27873240556E+04  0.27873240556E+04  0.25500000920E-02 0.  1.
       -2   -1    0    0    0  501  0.00000000000E+00  0.00000000000E+00 -0.12251094710E+04  0.12251094710E+04  0.25500000920E-02 0. -1.
    10030    2    1    2    0    0  0.00000000000E+00  0.00000000000E+00  0.15622145846E+04  0.40124335266E+04  0.36958231014E+04 0.  0.
        2    1    3    3  502    0 -0.11227085201E+04  0.13255756316E+04  0.14652945942E+04  0.22726005861E+04  0.25500000920E-02 0.  1.
       -2    1    3    3    0  502  0.11227085201E+04 -0.13255756316E+04  0.96919990436E+02  0.17398329405E+04  0.25500000920E-02 0. -1.
</event>
<event>
 5   0  0.7191801E-08  0.3701458E+04  0.7818609E-02  0.8067639E-01
       -2   -1    0    0    0  501  0.00000000000E+00  0.00000000000E+00  0.24789673658E+04  0.24789673658E+04  0.25500000920E-02 0. -1.
        2   -1    0    0  501    0  0.00000000000E+00  0.00000000000E+00 -0.13817032426E+04  0.13817032426E+04  0.25500000920E-02 0.  1.
    10030    2    1    2    0    0  0.00000000000E+00  0.00000000000E+00  0.10972641232E+04  0.38606706084E+04  0.37014576846E+04 0.  0.
        5    1    3    3  502    0  0.11088953150E+04 -0.21014692808E+03 -0.98121131372E+03  0.14955294324E+04  0.46999998093E+01 0.  1.
       -5    1    3    3    0  502 -0.11088953150E+04  0.21014692808E+03  0.20784754369E+04  0.23651411761E+04  0.46999998093E+01 0. -1.
</event>
<event>
 5   0  0.7309833E-08  0.3693997E+04  0.7818609E-02  0.8069293E-01
       -2   -1    0    0    0  501  0.00000000000E+00  0.00000000000E+00  0.11042489111E+04  0.11042489111E+04  0.25500000920E-02 0. -1.
        2   -1    0    0  501    0  0.00000000000E+00  0.00000000000E+00 -0.30893432348E+04  0.30893432348E+04  0.25500000920E-02 0.  1.
    10030    2    1    2    0    0  0.00000000000E+00  0.00000000000E+00 -0.19850943237E+04  0.41935921459E+04  0.36939972404E+04 0.  0.
        2    1    3    3  502    0  0.93821295389E+03  0.11273383662E+04  0.28189806561E+03  0.14935199557E+04  0.25500000920E-02 0. -1.
       -2    1    3    3    0  502 -0.93821295389E+03 -0.11273383662E+04 -0.22669923893E+04  0.27000721901E+04  0.25500000920E-02 0.  1.
</event>
<event>
 5   0  0.2282000E-08  0.3699633E+04  0.7818609E-02  0.8068043E-01
       -1   -1    0    0    0  501  0.00000000000E+00  0.00000000000E+00  0.19723933537E+04  0.19723933537E+04  0.50400001928E-02 0.  1.
        1   -1    0    0  501    0  0.00000000000E+00  0.00000000000E+00 -0.17348569920E+04  0.17348569920E+04  0.50400001928E-02 0. -1.
    10030    2    1    2    0    0  0.00000000000E+00  0.00000000000E+00  0.23753636163E+03  0.37072503457E+04  0.36996326308E+04 0.  0.
        3    1    3    3  502    0  0.11000223146E+03  0.50570256121E+03  0.18983711120E+04  0.19676504924E+04  0.10100000352E+00 0.  1.
       -3    1    3    3    0  502 -0.11000223146E+03 -0.50570256121E+03 -0.16608347504E+04  0.17395998533E+04  0.10100000352E+00 0. -1.
</event>
<event>
 5   0  0.7362817E-08  0.3697895E+04  0.7818609E-02  0.8068428E-01
        2   -1    0    0  501    0  0.00000000000E+00  0.00000000000E+00  0.30672025476E+04  0.30672025476E+04  0.25500000920E-02 0. -1.
       -2   -1    0    0    0  501  0.00000000000E+00  0.00000000000E+00 -0.11145684451E+04  0.11145684451E+04  0.25500000920E-02 0.  1.
    10030    2    1    2    0    0  0.00000000000E+00  0.00000000000E+00  0.19526341025E+04  0.41817709927E+04  0.36978951712E+04 0.  0.
        1    1    3    3  502    0 -0.10692646280E+04 -0.27668543002E+02  0.26818104076E+04  0.28872477302E+04  0.50400001928E-02 0. -1.
       -1    1    3    3    0  502  0.10692646280E+04  0.27668543002E+02 -0.72917630519E+03  0.12945232625E+04  0.50400001928E-02 0.  1.
</event>
<event>
 5   0  0.2282000E-08  0.3716571E+04  0.7818609E-02  0.8064299E-01
        1   -1    0    0  501    0  0.00000000000E+00  0.00000000000E+00  0.10757072049E+04  0.10757072049E+04  0.50400001928E-02 0.  1.
       -1   -1    0    0    0  501  0.00000000000E+00  0.00000000000E+00 -0.32101909850E+04  0.32101909850E+04  0.50400001928E-02 0. -1.
    10030    2    1    2    0    0  0.00000000000E+00  0.00000000000E+00 -0.21344837801E+04  0.42858981900E+04  0.37165713080E+04 0.  0.
        4    1    3    3  502    0  0.86385588428E+02 -0.92944201572E+03  0.78573075312E+03  0.12201226823E+04  0.12699999809E+01 0.  1.
       -4    1    3    3    0  502 -0.86385588428E+02  0.92944201572E+03 -0.29202145333E+04  0.30657755077E+04  0.12699999809E+01 0. -1.
</event>
<event>
 5   0  0.2282000E-08  0.3678849E+04  0.7818609E-02  0.8072665E-01
        1   -1    0    0  501    0  0.00000000000E+00  0.00000000000E+00  0.14556343508E+04  0.14556343508E+04  0.50400001928E-02 0. -1.
       -1   -1    0    0    0  501  0.00000000000E+00  0.00000000000E+00 -0.23244040381E+04  0.23244040381E+04  0.50400001928E-02 0.  1.
    10030    2    1    2    0    0  0.00000000000E+00  0.00000000000E+00 -0.86876968729E+03  0.37800383889E+04  0.36788489303E+04 0.  0.
        4    1    3    3  502    0  0.62235292651E+03 -0.87295012668E+03  0.11014237125E+04  0.15370429065E+04  0.12699999809E+01 0. -1.
       -4    1    3    3    0  502 -0.62235292651E+03  0.87295012668E+03 -0.19701933998E+04  0.22429954825E+04  0.12699999809E+01 0.  1.
</event>
<event>
 5   0  0.7254493E-08  0.3702482E+04  0.7818609E-02  0.8067412E-01
       -2   -1    0    0    0  501  0.00000000000E+00  0.00000000000E+00  0.18914592729E+04  0.18914592729E+04  0.25500000920E-02 0. -1.
        2   -1    0    0  501    0  0.00000000000E+00  0.00000000000E+00 -0.18118778486E+04  0.18118778486E+04  0.25500000920E-02 0.  1.
    10030    2    1    2    0    0  0.00000000000E+00  0.00000000000E+00  0.79581424326E+02  0.37033371215E+04  0.37024819557E+04 0.  0.
        3    1    3    3  502    0 -0.18241671872E+03 -0.52246090087E+03 -0.17272106219E+04  0.18136972721E+04  0.10100000352E+00 0.  1.
       -3    1    3    3    0  502  0.18241671872E+03  0.52246090087E+03  0.18067920462E+04  0.18896398494E+04  0.10100000352E+00 0. -1.
</event>
<event>
 5   0  0.7191801E-08  0.3704383E+04  0.7818609E-02  0.8066991E-01
       -2   -1    0    0    0  501  0.00000000000E+00  0.00000000000E+00  0.17311900562E+04  0.17311900562E+04  0.25500000920E-02 0. -1.
        2   -1    0    0  501    0  0.00000000000E+00  0.00000000000E+00 -0.19816498333E+04  0.19816498333E+04  0.25500000920E-02 0.  1.
    10030    2    1    2    0    0  0.00000000000E+00  0.00000000000E+00 -0.25045977711E+03  0.37128398895E+04  0.37043825322E+04 0.  0.
        5    1    3    3  502    0 -0.44362106001E+03 -0.44422446529E+03  0.16212912454E+04  0.17386035813E+04  0.46999998093E+01 0. -1.
       -5    1    3    3    0  502  0.44362106001E+03  0.44422446529E+03 -0.18717510225E+04  0.19742363082E+04  0.46999998093E+01 0.  1.
</event>
<event>
 5   0  0.7191801E-08  0.3696199E+04  0.7818609E-02  0.8068805E-01
       -2   -1    0    0    0  501  0.00000000000E+00  0.00000000000E+00  0.24981212936E+04  0.24981212936E+04  0.25500000920E-02 0. -1.
        2   -1    0    0  501    0  0.00000000000E+00  0.00000000000E+00 -0.13672159368E+04  0.13672159368E+04  0.25500000920E-02 0.  1.
    10030    2    1    2    0    0  0.00000000000E+00  0.00000000000E+00  0.11309053568E+04  0.38653372304E+04  0.36961987201E+04 0.  0.
        5    1    3    3  502    0  0.25241307153E+03 -0.10782094981E+04  0.21127540261E+04  0.23853720350E+04  0.46999998093E+01 0. -1.
       -5    1    3    3    0  502 -0.25241307153E+03  0.10782094981E+04 -0.98184866927E+03  0.14799651955E+04  0.46999998093E+01 0.  1.
</event>
<event>
 5   0  0.7362817E-08  0.3691500E+04  0.7818609E-02  0.8069848E-01
       -2   -1    0    0    0  501  0.00000000000E+00  0.00000000000E+00  0.18545350715E+04  0.18545350715E+04  0.25500000920E-02 0.  1.
        2   -1    0    0  501    0  0.00000000000E+00  0.00000000000E+00 -0.18370065961E+04  0.18370065961E+04  0.25500000920E-02 0. -1.
    10030    2    1    2    0    0  0.00000000000E+00  0.00000000000E+00  0.17528475355E+02  0.36915416676E+04  0.36915000523E+04 0.  0.
        1    1    3    3  502    0  0.55862739404E+03  0.15234115730E+04  0.88851603378E+03  0.18499481421E+04  0.50400001928E-02 0.  1.
       -1    1    3    3    0  502 -0.55862739404E+03 -0.15234115730E+04 -0.87098755842E+03  0.18415935255E+04  0.50400001928E-02 0. -1.
</event>
<event>
 5   0  0.2282000E-08  0.3687236E+04  0.7818609E-02  0.8070796E-01
        1   -1    0    0  501    0  0.00000000000E+00  0.00000000000E+00  0.23732604952E+04  0.23732604952E+04  0.50400001928E-02 0.  1.
       -1   -1    0    0    0  501  0.00000000000E+00  0.00000000000E+00 -0.14321766371E+04  0.14321766371E+04  0.50400001928E-02 0. -1.
    10030    2    1    2    0    0  0.00000000000E+00  0.00000000000E+00  0.94108385809E+03  0.38054371323E+04  0.36872364910E+04 0.  0.
        1    1    3    3  502    0 -0.90449226746E+03  0.13218775227E+04  0.14127490997E+04  0.21357262151E+04  0.50400001928E-02 0.  1.
       -1    1    3    3    0  502  0.90449226746E+03 -0.13218775227E+04 -0.47166524166E+03  0.16697109172E+04  0.50400001928E-02 0. -1.
</event>
<event>
 5   0  0.2282000E-08  0.3696259E+04  0.7818609E-02  0.8068791E-01
        3   -1    0    0  501    0  0.00000000000E+00  0.00000000000E+00  0.23106087975E+04  0.23106087997E+04  0.10100000352E+00 0.  1.
       -3   -1    0    0    0  501  0.00000000000E+00  0.00000000000E+00 -0.14782173208E+04  0.14782173242E+04  0.10100000352E+00 0. -1.
    10030    2    1    2    0    0  0.00000000000E+00  0.00000000000E+00  0.83239147674E+03  0.37888261240E+04  0.36962586256E+04 0.  0.
        3    1    3    3  502    0  0.16064676670E+04  0.54628278513E+03  0.11669439026E+04  0.20593497344E+04  0.10100000352E+00 0.  1.
       -3    1    3    3    0  502 -0.16064676670E+04 -0.54628278513E+03 -0.33455242586E+03  0.17294763896E+04  0.10100000352E+00 0. -1.
</event>
<event>
 5   0  0.7191801E-08  0.3700040E+04  0.7818609E-02  0.8067953E-01
        2   -1    0    0  501    0  0.00000000000E+00  0.00000000000E+00  0.14277633523E+04  0.14277633523E+04  0.25500000920E-02 0.  1.
       -2   -1    0    0    0  501  0.00000000000E+00  0.00000000000E+00 -0.23971577038E+04  0.23971577038E+04  0.25500000920E-02 0. -1.
    10030    2    1    2    0    0  0.00000000000E+00  0.00000000000E+00 -0.96939435147E+03  0.38249210561E+04  0.37000399561E+04 0.  0.
        5    1    3    3  502    0 -0.28028045798E+03 -0.25035383985E+03 -0.23572763939E+04  0.23870501183E+04  0.46999998093E+01 0. -1.
       -5    1    3    3    0  502  0.28028045798E+03  0.25035383985E+03  0.13878820424E+04  0.14378709378E+04  0.46999998093E+01 0.  1.
</event>
<event>
 5   0  0.7309833E-08  0.3725325E+04  0.7818609E-02  0.8062373E-01
       -2   -1    0    0    0  501  0.00000000000E+00  0.00000000000E+00  0.18586898114E+04  0.18586898114E+04  0.25500000920E-02 0.  1.
        2   -1    0    0  501    0  0.00000000000E+00  0.00000000000E+00 -0.18666439631E+04  0.18666439631E+04  0.25500000920E-02 0. -1.
    10030    2    1    2    0    0  0.00000000000E+00  0.00000000000E+00 -0.79541517843E+01  0.37253337745E+04  0.37253252828E+04 0.  0.
        2    1    3    3  502    0 -0.55404112292E+03 -0.13396818198E+04  0.11655567660E+04  0.18601697554E+04  0.25500000920E-02 0.  1.
       -2    1    3    3    0  502  0.55404112292E+03  0.13396818198E+04 -0.11735109178E+04  0.18651640191E+04  0.25500000920E-02 0. -1.
</event>
<event>
 5   0  0.7254493E-08  0.3700733E+04  0.7818609E-02  0.8067799E-01
       -2   -1    0    0    0  501  0.00000000000E+00  0.00000000000E+00  0.15945699306E+04  0.15945699306E+04  0.25500000920E-02 0. -1.
        2   -1    0    0  501    0  0.00000000000E+00  0.00000000000E+00 -0.21471973240E+04  0.21471973240E+04  0.25500000920E-02 0.  1.
    10030    2    1    2    0    0  0.00000000000E+00  0.00000000000E+00 -0.55262739337E+03  0.37417672546E+04  0.37007330560E+04 0.  0.
        3    1    3    3  502    0  0.13545770699E+04 -0.85007343114E+03 -0.12174148429E+04  0.20098763112E+04  0.10100000352E+00 0.  1.
       -3    1    3    3    0  502 -0.13545770699E+04  0.85007343114E+03  0.66478744949E+03  0.17318909434E+04  0.10100000352E+00 0. -1.
</event>
<event>
 5   0  0.2282000E-08  0.3699873E+04  0.7818609E-02  0.8067990E-01
        1   -1    0    0  501    0  0.00000000000E+00  0.00000000000E+00  0.27242028600E+04  0.27242028600E+04  0.50400001928E-02 0.  1.
       -1   -1    0    0    0  501  0.00000000000E+00  0.00000000000E+00 -0.12562447901E+04  0.12562447901E+04  0.50400001928E-02 0. -1.
    10030    2    1    2    0    0  0.00000000000E+00  0.00000000000E+00  0.14679580698E+04  0.39804476501E+04  0.36998733222E+04 0.  0.
        1    1    3    3  502    0 -0.91678851998E+03 -0.11434791118E+04 -0.48043636874E+03  0.15423568893E+04  0.50400001928E-02 0. -1.
       -1    1    3    3    0  502  0.91678851998E+03  0.11434791118E+04  0.19483944386E+04  0.24380907608E+04  0.50400001928E-02 0.  1.
</event>
<event>
 5   0  0.7254493E-08  0.3699752E+04  0.7818609E-02  0.8068017E-01
       -2   -1    0    0    0  501  0.00000000000E+00  0.00000000000E+00  0.16412967244E+04  0.16412967244E+04  0.25500000920E-02 0.  1.
        2   -1    0    0  501    0  0.00000000000E+00  0.00000000000E+00 -0.20849613972E+04  0.20849613972E+04  0.25500000920E-02 0. -1.
    10030    2    1    2    0    0  0.00000000000E+00  0.00000000000E+00 -0.44366467279E+03  0.37262581215E+04  0.36997515114E+04 0.  0.
        3    1    3    3  502    0 -0.12095553575E+04  0.98675429730E+03  0.77791831086E+03  0.17440943537E+04  0.10100000352E+00 0.  1.
       -3    1    3    3    0  502  0.12095553575E+04 -0.98675429730E+03 -0.12215829837E+04  0.19821637678E+04  0.10100000352E+00 0. -1.
</event>
<event>
 5   0  0.7191801E-08  0.3698962E+04  0.7818609E-02  0.8068192E-01
       -2   -1    0    0    0  501  0.00000000000E+00  0.00000000000E+00  0.18449589787E+04  0.18449589787E+04  0.25500000920E-02 0.  1.
        2   -1    0    0  501    0  0.00000000000E+00  0.00000000000E+00 -0.18540145330E+04  0.18540145330E+04  0.25500000920E-02 0. -1.
    10030    2    1    2    0    0  0.00000000000E+00  0.00000000000E+00 -0.90555543461E+01  0.36989735117E+04  0.36989624271E+04 0.  0.
        5    1    3    3  502    0  0.10228250782E+04 -0.91948759622E+03  0.12319750544E+04  0.18464596407E+04  0.46999998093E+01 0.  1.
       -5    1    3    3    0  502 -0.10228250782E+04  0.91948759622E+03 -0.12410306088E+04  0.18525138709E+04  0.46999998093E+01 0. -1.
</event>
<event>
 5   0  0.2282000E-08  0.3699757E+04  0.7818609E-02  0.8068016E-01
       -1   -1    0    0    0  501  0.00000000000E+00  0.00000000000E+00  0.18736792690E+04  0.18736792690E+04  0.50400001928E-02 0.  1.
        1   -1    0    0  501    0  0.00000000000E+00  0.00000000000E+00 -0.18263803521E+04  0.18263803521E+04  0.50400001928E-02 0. -1.
    10030    2    1    2    0    0  0.00000000000E+00  0.00000000000E+00  0.47298916910E+02  0.37000596211E+04  0.36997572909E+04 0.  0.
        1    1    3    3  502    0  0.12959934376E+04  0.34834383143E+03 -0.12496822109E+04  0.18337524488E+04  0.50400001928E-02 0. -1.
       -1    1    3    3    0  502 -0.12959934376E+04 -0.34834383143E+03  0.12969811278E+04  0.18663071722E+04  0.50400001928E-02 0.  1.
</event>
<event>
 5   0  0.2282000E-08  0.3700425E+04  0.7818609E-02  0.8067868E-01
       -1   -1    0    0    0  501  0.00000000000E+00  0.00000000000E+00  0.35427002606E+04  0.35427002606E+04  0.50400001928E-02 0.  1.
        1   -1    0    0  501    0  0.00000000000E+00  0.00000000000E+00 -0.96629291274E+03  0.96629291276E+03  0.50400001928E-02 0. -1.
    10030    2    1    2    0    0  0.00000000000E+00  0.00000000000E+00  0.25764073478E+04  0.45089931733E+04  0.37004249236E+04 0.  0.
        2    1    3    3  502    0 -0.27149816238E+03  0.16482700076E+04  0.22574957350E+04  0.28083433308E+04  0.25500000920E-02 0.  1.
       -2    1    3    3    0  502  0.27149816238E+03 -0.16482700076E+04  0.31891161284E+03  0.17006498425E+04  0.25500000920E-02 0. -1.
</event>
<event>
 5   0  0.7203049E-08  0.3680237E+04  0.7818609E-02  0.8072356E-01
        2   -1    0    0  501    0  0.00000000000E+00  0.00000000000E+00  0.18814073698E+04  0.18814073698E+04  0.25500000920E-02 0. -1.
       -2   -1    0    0    0  501  0.00000000000E+00  0.00000000000E+00 -0.17997359334E+04  0.17997359334E+04  0.25500000920E-02 0.  1.
    10030    2    1    2    0    0  0.00000000000E+00  0.00000000000E+00  0.81671436431E+02  0.36811433032E+04  0.36802371928E+04 0.  0.
        4    1    3    3  502    0 -0.47494556158E+02  0.47408091387E+03 -0.17369668996E+04  0.18011285543E+04  0.12699999809E+01 0.  1.
       -4    1    3    3    0  502  0.47494556158E+02 -0.47408091387E+03  0.18186383361E+04  0.18800147489E+04  0.12699999809E+01 0. -1.
</event>
<event>
 5   0  0.7203049E-08  0.3693982E+04  0.7818609E-02  0.8069297E-01
       -2   -1    0    0    0  501  0.00000000000E+00  0.00000000000E+00  0.12525871285E+04  0.12525871285E+04  0.25500000920E-02 0. -1.
        2   -1    0    0  501    0  0.00000000000E+00  0.00000000000E+00 -0.27234636326E+04  0.27234636326E+04  0.25500000920E-02 0.  1.
    10030    2    1    2    0    0  0.00000000000E+00  0.00000000000E+00 -0.14708765041E+04  0.39760507611E+04  0.36939818577E+04 0.  0.
        4    1    3    3  502    0  0.16162266764E+04 -0.46318596947E+03  0.87567552361E+02  0.16835675220E+04  0.12699999809E+01 0. -1.
       -4    1    3    3    0  502 -0.16162266764E+04  0.46318596947E+03 -0.15584440564E+04  0.22924832392E+04  0.12699999809E+01 0.  1.
</event>
<event>
 5   0  0.7309833E-08  0.3710340E+04  0.7818609E-02  0.8065674E-01
        2   -1    0    0  501    0  0.00000000000E+00  0.00000000000E+00  0.15832860104E+04  0.15832860104E+04  0.25500000920E-02 0. -1.
       -2   -1    0    0    0  501  0.00000000000E+00  0.00000000000E+00 -0.21737418791E+04  0.21737418791E+04  0.25500000920E-02 0.  1.
    10030    2    1    2    0    0  0.00000000000E+00  0.00000000000E+00 -0.59045586871E+03  0.37570278896E+04  0.37103396651E+04 0.  0.
        2    1    3    3  502    0  0.10295282969E+04 -0.80695387389E+03 -0.16272857698E+04  0.20878606384E+04  0.25500000920E-02 0.  1.
       -2    1    3    3    0  502 -0.10295282969E+04  0.80695387389E+03  0.10368299011E+04  0.16691672512E+04  0.25500000920E-02 0. -1.
</event>
<event>
 5   0  0.7362817E-08  0.3691737E+04  0.7818609E-02  0.8069796E-01
        2   -1    0    0  501    0  0.00000000000E+00  0.00000000000E+00  0.17443094423E+04  0.17443094423E+04  0.25500000920E-02 0.  1.
       -2   -1    0    0    0  501  0.00000000000E+00  0.00000000000E+00 -0.19533405123E+04  0.19533405123E+04  0.25500000920E-02 0. -1.
    10030    2    1    2    0    0  0.00000000000E+00  0.00000000000E+00 -0.20903107004E+03  0.36976499546E+04  0.36917368810E+04 0.  0.
        1    1    3    3  502    0 -0.12125600413E+03  0.36064894156E+03 -0.19136365889E+04  0.19510960182E+04  0.50400001928E-02 0. -1.
       -1    1    3    3    0  502  0.12125600413E+03 -0.36064894156E+03  0.17046055189E+04  0.17465539364E+04  0.50400001928E-02 0.  1.
</event>
<event>
 5   0  0.7203049E-08  0.3724787E+04  0.7818609E-02  0.8062491E-01
       -2   -1    0    0    0  501  0.00000000000E+00  0.00000000000E+00  0.18993689109E+04  0.18993689109E+04  0.25500000920E-02 0.  1.
        2   -1    0    0  501    0  0.00000000000E+00  0.00000000000E+00 -0.18261381560E+04  0.18261381560E+04  0.25500000920E-02 0. -1.
    10030    2    1    2    0    0  0.00000000000E+00  0.00000000000E+00  0.73230754916E+02  0.37255070670E+04  0.37247872641E+04 0.  0.
        4    1    3    3  502    0  0.12473989220E+04  0.62383392544E+03 -0.11978579543E+04  0.18384880007E+04  0.12699999809E+01 0. -1.
       -4    1    3    3    0  502 -0.12473989220E+04 -0.62383392544E+03  0.12710887092E+04  0.18870190663E+04  0.12699999809E+01 0.  1.
</event>
<event>
 5   0  0.7254493E-08  0.3710004E+04  0.7818609E-02  0.8065748E-01
        2   -1    0    0  501    0  0.00000000000E+00  0.00000000000E+00  0.24112858289E+04  0.24112858289E+04  0.25500000920E-02 0. -1.
       -2   -1    0    0    0  501  0.00000000000E+00  0.00000000000E+00 -0.14270527508E+04  0.14270527508E+04  0.25500000920E-02 0.  1.
    10030    2    1    2    0    0  0.00000000000E+00  0.00000000000E+00  0.98423307813E+03  0.38383385797E+04  0.37100038140E+04 0.  0.
        3    1    3    3  502    0 -0.14394073713E+04 -0.99941764723E+03  0.11216915080E+04  0.20806059366E+04  0.10100000352E+00 0. -1.
       -3    1    3    3    0  502  0.14394073713E+04  0.99941764723E+03 -0.13745842987E+03  0.17577326430E+04  0.10100000352E+00 0.  1.
</event>
<event>
 5   0  0.2282000E-08  0.3709389E+04  0.7818609E-02  0.8065884E-01
        1   -1    0    0  501    0  0.00000000000E+00  0.00000000000E+00  0.14281781297E+04  0.14281781297E+04  0.50400001928E-02 0. -1.
       -1   -1    0    0    0  501  0.00000000000E+00  0.00000000000E+00 -0.24085866574E+04  0.24085866575E+04  0.50400001928E-02 0.  1.
    10030    2    1    2    0    0  0.00000000000E+00  0.00000000000E+00 -0.98040852773E+03  0.38367647872E+04  0.37093885144E+04 0.  0.
        3    1    3    3  502    0  0.86840981755E+03  0.32397305177E+03 -0.21518549989E+04  0.23429840153E+04  0.10100000352E+00 0.  1.
       -3    1    3    3    0  502 -0.86840981755E+03 -0.32397305177E+03  0.11714464712E+04  0.14937807719E+04  0.10100000352E+00 0. -1.
</event>
<event>
 5   0  0.2282000E-08  0.3697085E+04  0.7818609E-02  0.8068608E-01
        1   -1    0    0  501    0  0.00000000000E+00  0.00000000000E+00  0.11086522062E+04  0.11086522063E+04  0.50400001928E-02 0.  1.
       -1   -1    0    0    0  501  0.00000000000E+00  0.00000000000E+00 -0.30822188872E+04  0.30822188872E+04  0.50400001928E-02 0. -1.
    10030    2    1    2    0    0  0.00000000000E+00  0.00000000000E+00 -0.19735666809E+04  0.41908710934E+04  0.36970846728E+04 0.  0.
        3    1    3    3  502    0 -0.15865004794E+04 -0.55676834879E+03 -0.18575869522E+04  0.25055147296E+04  0.10100000352E+00 0. -1.
       -3    1    3    3    0  502  0.15865004794E+04  0.55676834879E+03 -0.11597972875E+03  0.16853563638E+04  0.10100000352E+00 0.  1.
</event>
<event>
 5   0  0.2282000E-08  0.3699182E+04  0.7818609E-02  0.8068143E-01
       -1   -1    0    0    0  501  0.00000000000E+00  0.00000000000E+00  0.13609795148E+04  0.13609795148E+04  0.50400001928E-02 0. -1.
        1   -1    0    0  501    0  0.00000000000E+00  0.00000000000E+00 -0.25136216963E+04  0.25136216963E+04  0.50400001928E-02 0.  1.
    10030    2    1    2    0    0  0.00000000000E+00  0.00000000000E+00 -0.11526421815E+04  0.38746012111E+04  0.36991824159E+04 0.  0.
        4    1    3    3  502    0  0.89275135856E+03  0.34521049354E+03 -0.22340317162E+04  0.24304474063E+04  0.12699999809E+01 0.  1.
       -4    1    3    3    0  502 -0.89275135856E+03 -0.34521049354E+03  0.10813895347E+04  0.14441538047E+04  0.12699999809E+01 0. -1.
</event>
<event>
 5   0  0.2282000E-08  0.3699272E+04  0.7818609E-02  0.8068123E-01
       -1   -1    0    0    0  501  0.00000000000E+00  0.00000000000E+00  0.28216670581E+04  0.28216670581E+04  0.50400001928E-02 0. -1.
        1   -1    0    0  501    0  0.00000000000E+00  0.00000000000E+00 -0.12124582197E+04  0.12124582197E+04  0.50400001928E-02 0.  1.
    10030    2    1    2    0    0  0.00000000000E+00  0.00000000000E+00  0.16092088384E+04  0.40341252778E+04  0.36992720461E+04 0.  0.
        1    1    3    3  502    0 -0.17203665397E+04  0.26545353727E+03  0.12267979066E+03  0.17450435359E+04  0.50400001928E-02 0.  1.
       -1    1    3    3    0  502  0.17203665397E+04 -0.26545353727E+03  0.14865290477E+04  0.22890817419E+04  0.50400001928E-02 0. -1.
</event>
<event>
 5   0  0.7362817E-08  0.3704869E+04  0.7818609E-02  0.8066884E-01
        2   -1    0    0  501    0  0.00000000000E+00  0.00000000000E+00  0.19025076144E+04  0.19025076144E+04  0.25500000920E-02 0.  1.
       -2   -1    0    0    0  501  0.00000000000E+00  0.00000000000E+00 -0.18036788387E+04  0.18036788387E+04  0.25500000920E-02 0. -1.
    10030    2    1    2    0    0  0.00000000000E+00  0.00000000000E+00  0.98828775759E+02  0.37061864531E+04  0.37048685399E+04 0.  0.
        1    1    3    3  502    0  0.16066378062E+04 -0.79875501388E+03 -0.41142085510E+03  0.18408046427E+04  0.50400001928E-02 0. -1.
       -1    1    3    3    0  502 -0.16066378062E+04  0.79875501388E+03  0.51024963085E+03  0.18653818104E+04  0.50400001928E-02 0.  1.
</event>
<event>
 5   0  0.7203049E-08  0.3696176E+04  0.7818609E-02  0.8068810E-01
       -2   -1    0    0    0  501  0.00000000000E+00  0.00000000000E+00  0.19705945879E+04  0.19705945879E+04  0.25500000920E-02 0. -1.
        2   -1    0    0  501    0  0.00000000000E+00  0.00000000000E+00 -0.17331977103E+04  0.17331977103E+04  0.25500000920E-02 0.  1.
    10030    2    1    2    0    0  0.00000000000E+00  0.00000000000E+00  0.23739687754E+03  0.37037922982E+04  0.36961764177E+04 0.  0.
        4    1    3    3  502    0 -0.84603134531E+03  0.22504778432E+03  0.17496308624E+04  0.19564317801E+04  0.12699999809E+01 0. -1.
       -4    1    3    3    0  502  0.84603134531E+03 -0.22504778432E+03 -0.15122339849E+04  0.17473605181E+04  0.12699999809E+01 0.  1.
</event>
<event>
 5   0  0.7309833E-08  0.3786340E+04  0.7818609E-02  0.8049093E-01
        2   -1    0    0  501    0  0.00000000000E+00  0.00000000000E+00  0.29961942566E+04  0.29961942566E+04  0.25500000920E-02 0. -1.
       -2   -1    0    0    0  501  0.00000000000E+00  0.00000000000E+00 -0.11962153002E+04  0.11962153002E+04  0.25500000920E-02 0.  1.
    10030    2    1    2    0    0  0.00000000000E+00  0.00000000000E+00  0.17999789563E+04  0.41924095568E+04  0.37863404032E+04 0.  0.
        2    1    3    3  502    0 -0.14491425915E+04  0.97715213991E+03  0.94470731316E+02  0.17503614695E+04  0.25500000920E-02 0.  1.
       -2    1    3    3    0  502  0.14491425915E+04 -0.97715213991E+03  0.17055082250E+04  0.24420480873E+04  0.25500000920E-02 0. -1.
</event>
<event>
 5   0  0.2282000E-08  0.3703194E+04  0.7818609E-02  0.8067254E-01
       -3   -1    0    0    0  501  0.00000000000E+00  0.00000000000E+00  0.15689216291E+04  0.15689216324E+04  0.10100000352E+00 0.  1.
        3   -1    0    0  501    0  0.00000000000E+00  0.00000000000E+00 -0.21852025489E+04  0.21852025512E+04  0.10100000352E+00 0. -1.
    10030    2    1    2    0    0  0.00000000000E+00  0.00000000000E+00 -0.61628091976E+03  0.37541241836E+04  0.37031940556E+04 0.  0.
        4    1    3    3  502    0  0.75646283811E+02 -0.55215077792E+03  0.14818778825E+04  0.15832108241E+04  0.12699999809E+01 0.  1.
       -4    1    3    3    0  502 -0.75646283811E+02  0.55215077792E+03 -0.20981588023E+04  0.21709133595E+04  0.12699999809E+01 0. -1.
</event>
<event>
 5   0  0.2282000E-08  0.3690314E+04  0.7818609E-02  0.8070112E-01
        1   -1    0    0  501    0  0.00000000000E+00  0.00000000000E+00  0.14828430447E+04  0.14828430448E+04  0.50400001928E-02 0. -1.
       -1   -1    0    0    0  501  0.00000000000E+00  0.00000000000E+00 -0.22959973780E+04  0.22959973780E+04  0.50400001928E-02 0.  1.
    10030    2    1    2    0    0  0.00000000000E+00  0.00000000000E+00 -0.81315433322E+03  0.37788404227E+04  0.36903136684E+04 0.  0.
        3    1    3    3  502    0 -0.16855562371E+03 -0.18084777302E+04 -0.73933581776E+03  0.19610252830E+04  0.10100000352E+00 0.  1.
       -3    1    3    3    0  502  0.16855562371E+03  0.18084777302E+04 -0.73818515464E+02  0.18178151397E+04  0.10100000352E+00 0. -1.
</event>
<event>
 5   0  0.7362817E-08  0.3655224E+04  0.7818609E-02  0.8077958E-01
        2   -1    0    0  501    0  0.00000000000E+00  0.00000000000E+00  0.10471945966E+04  0.10471945966E+04  0.25500000920E-02 0. -1.
       -2   -1    0    0    0  501  0.00000000000E+00  0.00000000000E+00 -0.31896325680E+04  0.31896325680E+04  0.25500000920E-02 0.  1.
    10030    2    1    2    0    0  0.00000000000E+00  0.00000000000E+00 -0.21424379714E+04  0.42368271646E+04  0.36552242012E+04 0.  0.
        1    1    3    3  502    0  0.12157880525E+03 -0.16056112246E+04 -0.69138846171E+02  0.16116913447E+04  0.50400001928E-02 0. -1.
       -1    1    3    3    0  502 -0.12157880525E+03  0.16056112246E+04 -0.20732991253E+04  0.26251358200E+04  0.50400001928E-02 0.  1.
</event>
<event>
 5   0  0.2282000E-08  0.3722098E+04  0.7818609E-02  0.8063082E-01
       -1   -1    0    0    0  501  0.00000000000E+00  0.00000000000E+00  0.15705933781E+04  0.15705933781E+04  0.50400001928E-02 0. -1.
        1   -1    0    0  501    0  0.00000000000E+00  0.00000000000E+00 -0.22052199935E+04  0.22052199935E+04  0.50400001928E-02 0.  1.
    10030    2    1    2    0    0  0.00000000000E+00  0.00000000000E+00 -0.63462661542E+03  0.37758133717E+04  0.37220982895E+04 0.  0.
        4    1    3    3  502    0  0.16819434235E+04 -0.27899405347E+03  0.43959864499E+03  0.17606873496E+04  0.12699999809E+01 0. -1.
       -4    1    3    3    0  502 -0.16819434235E+04  0.27899405347E+03 -0.10742252604E+04  0.20151260220E+04  0.12699999809E+01 0.  1.
</event>
<event>
 5   0  0.2282000E-08  0.3680709E+04  0.7818609E-02  0.8072250E-01
        1   -1    0    0  501    0  0.00000000000E+00  0.00000000000E+00  0.25239406980E+04  0.25239406980E+04  0.50400001928E-02 0. -1.
       -1   -1    0    0    0  501  0.00000000000E+00  0.00000000000E+00 -0.13419113046E+04  0.13419113046E+04  0.50400001928E-02 0.  1.
    10030    2    1    2    0    0  0.00000000000E+00  0.00000000000E+00  0.11820293934E+04  0.38658520026E+04  0.36807089289E+04 0.  0.
        3    1    3    3  502    0  0.55993793923E+02  0.12593770213E+04 -0.81722648330E+03  0.15023398157E+04  0.10100000352E+00 0.  1.
       -3    1    3    3    0  502 -0.55993793923E+02 -0.12593770213E+04  0.19992558767E+04  0.23635121869E+04  0.10100000352E+00 0. -1.
</event>
<event>
 5   0  0.2282000E-08  0.3703029E+04  0.7818609E-02  0.8067291E-01
       -1   -1    0    0    0  501  0.00000000000E+00  0.00000000000E+00  0.21643085115E+04  0.21643085115E+04  0.50400001928E-02 0.  1.
        1   -1    0    0  501    0  0.00000000000E+00  0.00000000000E+00 -0.15839263737E+04  0.15839263737E+04  0.50400001928E-02 0. -1.
    10030    2    1    2    0    0  0.00000000000E+00  0.00000000000E+00  0.58038213787E+03  0.37482348852E+04  0.37030286697E+04 0.  0.
        1    1    3    3  502    0  0.16337909891E+04 -0.29261325198E+03 -0.54031908274E+03  0.17455200435E+04  0.50400001928E-02 0. -1.
       -1    1    3    3    0  502 -0.16337909891E+04  0.29261325198E+03  0.11207012206E+04  0.20027148417E+04  0.50400001928E-02 0.  1.
</event>
<event>
 5   0  0.2282000E-08  0.3694392E+04  0.7818609E-02  0.8069206E-01
       -3   -1    0    0    0  501  0.00000000000E+00  0.00000000000E+00  0.23517059632E+04  0.23517059654E+04  0.10100000352E+00 0. -1.
        3   -1    0    0  501    0  0.00000000000E+00  0.00000000000E+00 -0.14509180305E+04  0.14509180340E+04  0.10100000352E+00 0.  1.
    10030    2    1    2    0    0  0.00000000000E+00  0.00000000000E+00  0.90078793274E+03  0.38026239994E+04  0.36943917471E+04 0.  0.
        4    1    3    3  502    0 -0.42692438592E+03  0.86444491707E+03  0.20721814685E+04  0.22854905595E+04  0.12699999809E+01 0. -1.
       -4    1    3    3    0  502  0.42692438592E+03 -0.86444491707E+03 -0.11713935358E+04  0.15171334399E+04  0.12699999809E+01 0.  1.
</event>
<event>
 5   0  0.2282000E-08  0.3694671E+04  0.7818609E-02  0.8069144E-01
        1   -1    0    0  501    0  0.00000000000E+00  0.00000000000E+00  0.27666620445E+04  0.27666620445E+04  0.50400001928E-02 0.  1.
       -1   -1    0    0    0  501  0.00000000000E+00  0.00000000000E+00 -0.12334891572E+04  0.12334891572E+04  0.50400001928E-02 0. -1.
    10030    2    1    2    0    0  0.00000000000E+00  0.00000000000E+00  0.15331728872E+04  0.40001512017E+04  0.36946705583E+04 0.  0.
        3    1    3    3  502    0 -0.48679618829E+03  0.14674857070E+04 -0.32802686010E+03  0.15805335999E+04  0.10100000352E+00 0. -1.
       -3    1    3    3    0  502  0.48679618829E+03 -0.14674857070E+04  0.18611997473E+04  0.24196176018E+04  0.10100000352E+00 0.  1.
</event>
<event>
 5   0  0.7203049E-08  0.3707987E+04  0.7818609E-02  0.8066194E-01
        2   -1    0    0  501    0  0.00000000000E+00  0.00000000000E+00  0.16762385046E+04  0.16762385046E+04  0.25500000920E-02 0. -1.
       -2   -1    0    0    0  501  0.00000000000E+00  0.00000000000E+00 -0.20505982232E+04  0.20505982232E+04  0.25500000920E-02 0.  1.
    10030    2    1    2    0    0  0.00000000000E+00  0.00000000000E+00 -0.37435971863E+03  0.37268367278E+04  0.37079868927E+04 0.  0.
        4    1    3    3  502    0 -0.41026570014E+03  0.83122040250E+03  0.14266115719E+04  0.17013134609E+04  0.12699999809E+01 0. -1.
       -4    1    3    3    0  502  0.41026570014E+03 -0.83122040250E+03 -0.18009712906E+04  0.20255232669E+04  0.12699999809E+01 0.  1.
</event>
<event>
 5   0  0.7362817E-08  0.3692970E+04  0.7818609E-02  0.8069522E-01
        2   -1    0    0  501    0  0.00000000000E+00  0.00000000000E+00  0.11095570071E+04  0.11095570071E+04  0.25500000920E-02 0.  1.
       -2   -1    0    0    0  501  0.00000000000E+00  0.00000000000E+00 -0.30728541736E+04  0.30728541736E+04  0.25500000920E-02 0. -1.
    10030    2    1    2    0    0  0.00000000000E+00  0.00000000000E+00 -0.19632971665E+04  0.41824111807E+04  0.36929700135E+04 0.  0.
        1    1    3    3  502    0 -0.10578922215E+04 -0.40101480485E+03 -0.26343549023E+04  0.28670149245E+04  0.50400001928E-02 0. -1.
       -1    1    3    3    0  502  0.10578922215E+04  0.40101480485E+03  0.67105773579E+03  0.13153962562E+04  0.50400001928E-02 0.  1.
</event>
<event>
 5   0  0.2282000E-08  0.3698285E+04  0.7818609E-02  0.8068342E-01
       -1   -1    0    0    0  501  0.00000000000E+00  0.00000000000E+00  0.11144690326E+04  0.11144690326E+04  0.50400001928E-02 0. -1.
        1   -1    0    0  501    0  0.00000000000E+00  0.00000000000E+00 -0.30681234710E+04  0.30681234710E+04  0.50400001928E-02 0.  1.
    10030    2    1    2    0    0  0.00000000000E+00  0.00000000000E+00 -0.19536544384E+04  0.41825925036E+04  0.36982853306E+04 0.  0.
        4    1    3    3  502    0  0.88083143385E+03  0.12226082163E+04 -0.21889509683E+04  0.26574692510E+04  0.12699999809E+01 0. -1.
       -4    1    3    3    0  502 -0.88083143385E+03 -0.12226082163E+04  0.23529652994E+03  0.15251232525E+04  0.12699999809E+01 0.  1.
</event>
<event>
 5   0  0.7191801E-08  0.3717432E+04  0.7818609E-02  0.8064110E-01
       -2   -1    0    0    0  501  0.00000000000E+00  0.00000000000E+00  0.23779271997E+04  0.23779271997E+04  0.25500000920E-02 0. -1.
        2   -1    0    0  501    0  0.00000000000E+00  0.00000000000E+00 -0.14528726911E+04  0.14528726911E+04  0.25500000920E-02 0.  1.
    10030    2    1    2    0    0  0.00000000000E+00  0.00000000000E+00  0.92505450864E+03  0.38307998908E+04  0.37174321728E+04 0.  0.
        5    1    3    3  502    0 -0.71976451821E+03  0.16914780591E+04  0.74595009300E+03  0.19838403710E+04  0.46999998093E+01 0. -1.
       -5    1    3    3    0  502  0.71976451821E+03 -0.16914780591E+04  0.17910441564E+03  0.18469595198E+04  0.46999998093E+01 0.  1.
</event>
<event>
 5   0  0.2282000E-08  0.3698757E+04  0.7818609E-02  0.8068237E-01
        1   -1    0    0  501    0  0.00000000000E+00  0.00000000000E+00  0.13869907933E+04  0.13869907933E+04  0.50400001928E-02 0. -1.
       -1   -1    0    0    0  501  0.00000000000E+00  0.00000000000E+00 -0.24659150925E+04  0.24659150925E+04  0.50400001928E-02 0.  1.
    10030    2    1    2    0    0  0.00000000000E+00  0.00000000000E+00 -0.10789242992E+04  0.38529058859E+04  0.36987573754E+04 0.  0.
        4    1    3    3  502    0 -0.39621423937E+03  0.34923529284E+03 -0.23856833411E+04  0.24434478980E+04  0.12699999809E+01 0.  1.
       -4    1    3    3    0  502  0.39621423937E+03 -0.34923529284E+03  0.13067590419E+04  0.14094579879E+04  0.12699999809E+01 0. -1.
</event>
<event>
 5   0  0.2282000E-08  0.3688198E+04  0.7818609E-02  0.8070582E-01
       -1   -1    0    0    0  501  0.00000000000E+00  0.00000000000E+00  0.13667153160E+04  0.13667153160E+04  0.50400001928E-02 0.  1.
        1   -1    0    0  501    0  0.00000000000E+00  0.00000000000E+00 -0.24882298944E+04  0.24882298944E+04  0.50400001928E-02 0. -1.
    10030    2    1    2    0    0  0.00000000000E+00  0.00000000000E+00 -0.11215145785E+04  0.38549452104E+04  0.36881984255E+04 0.  0.
        1    1    3    3  502    0 -0.13061705649E+04  0.40343137063E+03 -0.18543988648E+04  0.23038301945E+04  0.50400001928E-02 0. -1.
       -1    1    3    3    0  502  0.13061705649E+04 -0.40343137063E+03  0.73288428634E+03  0.15511150159E+04  0.50400001928E-02 0.  1.
</event>
<event>
 5   0  0.2282000E-08  0.3695070E+04  0.7818609E-02  0.8069055E-01
        1   -1    0    0  501    0  0.00000000000E+00  0.00000000000E+00  0.13889613117E+04  0.13889613117E+04  0.50400001928E-02 0. -1.
       -1   -1    0    0    0  501  0.00000000000E+00  0.00000000000E+00 -0.24575095805E+04  0.24575095805E+04  0.50400001928E-02 0.  1.
    10030    2    1    2    0    0  0.00000000000E+00  0.00000000000E+00 -0.10685482687E+04  0.38464708922E+04  0.36950700835E+04 0.  0.
        3    1    3    3  502    0  0.14364471112E+04 -0.68356271704E+03 -0.15123172512E+04  0.21949354819E+04  0.10100000352E+00 0.  1.
       -3    1    3    3    0  502 -0.14364471112E+04  0.68356271704E+03  0.44376898249E+03  0.16515354103E+04  0.10100000352E+00 0. -1.
</event>
<event>
 5   0  0.2282000E-08  0.3703066E+04  0.7818609E-02  0.8067283E-01
       -1   -1    0    0    0  501  0.00000000000E+00  0.00000000000E+00  0.16073701769E+04  0.16073701769E+04  0.50400001928E-02 0.  1.
        1   -1    0    0  501    0  0.00000000000E+00  0.00000000000E+00 -0.21327849254E+04  0.21327849254E+04  0.50400001928E-02 0. -1.
    10030    2    1    2    0    0  0.00000000000E+00  0.00000000000E+00 -0.52541474848E+03  0.37401551023E+04  0.37030662337E+04 0.  0.
        3    1    3    3  502    0 -0.42019999226E+03 -0.42640597393E+03 -0.20323358462E+04  0.21186738989E+04  0.10100000352E+00 0. -1.
       -3    1    3    3    0  502  0.42019999226E+03  0.42640597393E+03  0.15069210977E+04  0.16214812034E+04  0.10100000352E+00 0.  1.
</event>
<event>
 5   0  0.7191801E-08  0.3693884E+04  0.7818609E-02  0.8069319E-01
        2   -1    0    0  501    0  0.00000000000E+00  0.00000000000E+00  0.19985823837E+04  0.19985823837E+04  0.25500000920E-02 0.  1.
       -2   -1    0    0    0  501  0.00000000000E+00  0.00000000000E+00 -0.17068069794E+04  0.17068069794E+04  0.25500000920E-02 0. -1.
    10030    2    1    2    0    0  0.00000000000E+00  0.00000000000E+00  0.29177540436E+03  0.37053893631E+04  0.36938837889E+04 0.  0.
        5    1    3    3  502    0 -0.65864681398E+03  0.59581610852E+03  0.17703018468E+04  0.19806067705E+04  0.46999998093E+01 0.  1.
       -5    1    3    3    0  502  0.65864681398E+03 -0.59581610852E+03 -0.14785264424E+04  0.17247825926E+04  0.46999998093E+01 0. -1.
</event>
<event>
 5   0  0.7362817E-08  0.3697515E+04  0.7818609E-02  0.8068513E-01
        2   -1    0    0  501    0  0.00000000000E+00  0.00000000000E+00  0.21014727121E+04  0.21014727121E+04  0.25500000920E-02 0. -1.
       -2   -1    0    0    0  501  0.00000000000E+00  0.00000000000E+00 -0.16264325030E+04  0.16264325030E+04  0.25500000920E-02 0.  1.
    10030    2    1    2    0    0  0.00000000000E+00  0.00000000000E+00  0.47504020910E+03  0.37279052151E+04  0.36975145832E+04 0.  0.
        1    1    3    3  502    0  0.10947137370E+04 -0.14285846671E+04 -0.18862543015E+03  0.18096496540E+04  0.50400001928E-02 0.  1.
       -1    1    3    3    0  502 -0.10947137370E+04  0.14285846671E+04  0.66366563925E+03  0.19182555612E+04  0.50400001928E-02 0. -1.
</event>
<event>
 5   0  0.2282000E-08  0.3678425E+04  0.7818609E-02  0.8072760E-01
        1   -1    0    0  501    0  0.00000000000E+00  0.00000000000E+00  0.22788233671E+04  0.22788233671E+04  0.50400001928E-02 0. -1.
       -1   -1    0    0    0  501  0.00000000000E+00  0.00000000000E+00 -0.14844078025E+04  0.14844078025E+04  0.50400001928E-02 0.  1.
    10030    2    1    2    0    0  0.00000000000E+00  0.00000000000E+00  0.79441556463E+03  0.37632311697E+04  0.36784253081E+04 0.  0.
        4    1    3    3  502    0 -0.33611093308E+03  0.45670626043E+03 -0.13927438248E+04  0.15037580065E+04  0.12699999809E+01 0.  1.
       -4    1    3    3    0  502  0.33611093308E+03 -0.45670626043E+03  0.21871593894E+04  0.22594731632E+04  0.12699999809E+01 0. -1.
</event>
<event>
 5   0  0.2282000E-08  0.3702655E+04  0.7818609E-02  0.8067374E-01
        1   -1    0    0  501    0  0.00000000000E+00  0.00000000000E+00  0.21760641002E+04  0.21760641002E+04  0.50400001928E-02 0.  1.
       -1   -1    0    0    0  501  0.00000000000E+00  0.00000000000E+00 -0.15750520995E+04  0.15750520995E+04  0.50400001928E-02 0. -1.
    10030    2    1    2    0    0  0.00000000000E+00  0.00000000000E+00  0.60101200067E+03  0.37511161997E+04  0.37026554415E+04 0.  0.
        3    1    3    3  502    0  0.94268199421E+03 -0.14821458571E+04 -0.29196316655E+03  0.17806314006E+04  0.10100000352E+00 0. -1.
       -3    1    3    3    0  502 -0.94268199421E+03  0.14821458571E+04  0.89297516722E+03  0.19704847991E+04  0.10100000352E+00 0.  1.
</event>
<event>
 5   0  0.7191801E-08  0.3710653E+04  0.7818609E-02  0.8065605E-01
       -2   -1    0    0    0  501  0.00000000000E+00  0.00000000000E+00  0.16683254963E+04  0.16683254963E+04  0.25500000920E-02 0.  1.
        2   -1    0    0  501    0  0.00000000000E+00  0.00000000000E+00 -0.20632886150E+04  0.20632886150E+04  0.25500000920E-02 0. -1.
    10030    2    1    2    0    0  0.00000000000E+00  0.00000000000E+00 -0.39496311864E+03  0.37316141113E+04  0.37106533132E+04 0.  0.
        5    1    3    3  502    0  0.14436571935E+04 -0.11420644473E+04 -0.43064816852E+03  0.18904859770E+04  0.46999998093E+01 0. -1.
       -5    1    3    3    0  502 -0.14436571935E+04  0.11420644473E+04  0.35685049873E+02  0.18411281343E+04  0.46999998093E+01 0.  1.
</event>
<event>
 5   0  0.2282000E-08  0.3694356E+04  0.7818609E-02  0.8069214E-01
        1   -1    0    0  501    0  0.00000000000E+00  0.00000000000E+00  0.22394436295E+04  0.22394436295E+04  0.50400001928E-02 0.  1.
       -1   -1    0    0    0  501  0.00000000000E+00  0.00000000000E+00 -0.15236220560E+04  0.15236220560E+04  0.50400001928E-02 0. -1.
    10030    2    1    2    0    0  0.00000000000E+00  0.00000000000E+00  0.71582157352E+03  0.37630656855E+04  0.36943555363E+04 0.  0.
        5    1    3    3  502    0 -0.49344030545E+03  0.14072277835E+04  0.14682628964E+04  0.20927473313E+04  0.46999998093E+01 0.  1.
       -5    1    3    3    0  502  0.49344030545E+03 -0.14072277835E+04 -0.75244132293E+03  0.16703183542E+04  0.46999998093E+01 0. -1.
</event>
<event>
 5   0  0.2282000E-08  0.3691117E+04  0.7818609E-02  0.8069933E-01
       -1   -1    0    0    0  501  0.00000000000E+00  0.00000000000E+00  0.12344590345E+04  0.12344590345E+04  0.50400001928E-02 0.  1.
        1   -1    0    0  501    0  0.00000000000E+00  0.00000000000E+00 -0.27591736029E+04  0.27591736029E+04  0.50400001928E-02 0. -1.
    10030    2    1    2    0    0  0.00000000000E+00  0.00000000000E+00 -0.15247145684E+04  0.39936326375E+04  0.36911173279E+04 0.  0.
        3    1    3    3  502    0  0.22862676667E+03 -0.77656584681E+03  0.10321150848E+04  0.13117111997E+04  0.10100000352E+00 0.  1.
       -3    1    3    3    0  502 -0.22862676667E+03  0.77656584681E+03 -0.25568296532E+04  0.26819214378E+04  0.10100000352E+00 0. -1.
</event>
<event>
 5   0  0.7203049E-08  0.3685679E+04  0.7818609E-02  0.8071143E-01
       -2   -1    0    0    0  501  0.00000000000E+00  0.00000000000E+00  0.14889911832E+04  0.14889911832E+04  0.25500000920E-02 0.  1.
        2   -1    0    0  501    0  0.00000000000E+00  0.00000000000E+00 -0.22807772187E+04  0.22807772187E+04  0.25500000920E-02 0. -1.
    10030    2    1    2    0    0  0.00000000000E+00  0.00000000000E+00 -0.79178603558E+03  0.37697684019E+04  0.36856788625E+04 0.  0.
        4    1    3    3  502    0 -0.13544688374E+04  0.31517191908E+03  0.84088318544E+03  0.16251170157E+04  0.12699999809E+01 0.  1.
       -4    1    3    3    0  502  0.13544688374E+04 -0.31517191908E+03 -0.16326692210E+04  0.21446513862E+04  0.12699999809E+01 0. -1.
</event>
<event>
 5   0  0.7309833E-08  0.3670704E+04  0.7818609E-02  0.8074485E-01
       -2   -1    0    0    0  501  0.00000000000E+00  0.00000000000E+00  0.29113557032E+04  0.29113557032E+04  0.25500000920E-02 0. -1.
        2   -1    0    0  501    0  0.00000000000E+00  0.00000000000E+00 -0.11570271469E+04  0.11570271469E+04  0.25500000920E-02 0.  1.
    10030    2    1    2    0    0  0.00000000000E+00  0.00000000000E+00  0.17543285563E+04  0.40683828501E+04  0.36707043372E+04 0.  0.
        2    1    3    3  502    0 -0.53324456193E+03 -0.13286431976E+04  0.21500055243E+04  0.25830536703E+04  0.25500000920E-02 0. -1.
       -2    1    3    3    0  502  0.53324456193E+03  0.13286431976E+04 -0.39567696800E+03  0.14853291798E+04  0.25500000920E-02 0.  1.
</event>
<event>
 5   0  0.2282000E-08  0.3699176E+04  0.7818609E-02  0.8068144E-01
       -1   -1    0    0    0  501  0.00000000000E+00  0.00000000000E+00  0.15426710838E+04  0.15426710838E+04  0.50400001928E-02 0.  1.
        1   -1    0    0  501    0  0.00000000000E+00  0.00000000000E+00 -0.22175668780E+04  0.22175668780E+04  0.50400001928E-02 0. -1.
    10030    2    1    2    0    0  0.00000000000E+00  0.00000000000E+00 -0.67489579428E+03  0.37602379618E+04  0.36991762862E+04 0.  0.
        2    1    3    3  502    0  0.12897321409E+04  0.17772728712E+03  0.99800391078E+03  0.16404291480E+04  0.25500000920E-02 0.  1.
       -2    1    3    3    0  502 -0.12897321409E+04 -0.17772728712E+03 -0.16728997051E+04  0.21198088138E+04  0.25500000920E-02 0. -1.
</event>
<event>
 5   0  0.7309833E-08  0.3695692E+04  0.7818609E-02  0.8068917E-01
        2   -1    0    0  501    0  0.00000000000E+00  0.00000000000E+00  0.20812453487E+04  0.20812453487E+04  0.25500000920E-02 0.  1.
       -2   -1    0    0    0  501  0.00000000000E+00  0.00000000000E+00 -0.16406207531E+04  0.16406207531E+04  0.25500000920E-02 0. -1.
    10030    2    1    2    0    0  0.00000000000E+00  0.00000000000E+00  0.44062459559E+03  0.37218661018E+04  0.36956917141E+04 0.  0.
        2    1    3    3  502    0  0.40372012615E+03  0.14128230490E+04 -0.90810338393E+03  0.17273420807E+04  0.25500000920E-02 0. -1.
       -2    1    3    3    0  502 -0.40372012615E+03 -0.14128230490E+04  0.13487279795E+04  0.19945240211E+04  0.25500000920E-02 0.  1.
</event>
<event>
 5   0  0.2282000E-08  0.3700584E+04  0.7818609E-02  0.8067832E-01
       -1   -1    0    0    0  501  0.00000000000E+00  0.00000000000E+00  0.13521637617E+04  0.13521637617E+04  0.50400001928E-02 0.  1.
        1   -1    0    0  501    0  0.00000000000E+00  0.00000000000E+00 -0.25319270357E+04  0.25319270357E+04  0.50400001928E-02 0. -1.
    10030    2    1    2    0    0  0.00000000000E+00  0.00000000000E+00 -0.11797632739E+04  0.38840907974E+04  0.37005837296E+04 0.  0.
        2    1    3    3  502    0  0.16005701294E+04  0.46819045461E+03  0.25146235469E+03  0.16864935093E+04  0.25500000920E-02 0. -1.
       -2    1    3    3    0  502 -0.16005701294E+04 -0.46819045461E+03 -0.14312256286E+04  0.21975972882E+04  0.25500000920E-02 0.  1.
</event>
<event>
 5   0  0.2282000E-08  0.3704355E+04  0.7818609E-02  0.8066997E-01
       -1   -1    0    0    0  501  0.00000000000E+00  0.00000000000E+00  0.13213791096E+04  0.13213791096E+04  0.50400001928E-02 0. -1.
        1   -1    0    0  501    0  0.00000000000E+00  0.00000000000E+00 -0.25961977483E+04  0.25961977483E+04  0.50400001928E-02 0.  1.
    10030    2    1    2    0    0  0.00000000000E+00  0.00000000000E+00 -0.12748186387E+04  0.39175768579E+04  0.37043549879E+04 0.  0.
        1    1    3    3  502    0  0.72129804792E+02  0.18266601032E+04 -0.95232716167E+03  0.20612658403E+04  0.50400001928E-02 0.  1.
       -1    1    3    3    0  502 -0.72129804792E+02 -0.18266601032E+04 -0.32249147704E+03  0.18563110176E+04  0.50400001928E-02 0. -1.
</event>
<event>
 5   0  0.7309833E-08  0.3700708E+04  0.7818609E-02  0.8067805E-01
       -2   -1    0    0    0  501  0.00000000000E+00  0.00000000000E+00  0.15675060042E+04  0.15675060042E+04  0.25500000920E-02 0.  1.
        2   -1    0    0  501    0  0.00000000000E+00  0.00000000000E+00 -0.21842402795E+04  0.21842402795E+04  0.25500000920E-02 0. -1.
    10030    2    1    2    0    0  0.00000000000E+00  0.00000000000E+00 -0.61673427521E+03  0.37517462837E+04  0.37007079067E+04 0.  0.
        2    1    3    3  502    0  0.13496336660E+04 -0.24947496391E+02  0.97466056477E+03  0.16649614489E+04  0.25500000920E-02 0.  1.
       -2    1    3    3    0  502 -0.13496336660E+04  0.24947496391E+02 -0.15913948400E+04  0.20867848348E+04  0.25500000920E-02 0. -1.
</event>
<event>
 5   0  0.7203049E-08  0.3747859E+04  0.7818609E-02  0.8057438E-01
       -2   -1    0    0    0  501  0.00000000000E+00  0.00000000000E+00  0.15391392872E+04  0.15391392872E+04  0.25500000920E-02 0.  1.
        2   -1    0    0  501    0  0.00000000000E+00  0.00000000000E+00 -0.22815420804E+04  0.22815420804E+04  0.25500000920E-02 0. -1.
    10030    2    1    2    0    0  0.00000000000E+00  0.00000000000E+00 -0.74240279320E+03  0.38206813676E+04  0.37478586160E+04 0.  0.
        4    1    3    3  502    0  0.15125089105E+04 -0.27654089818E+03  0.72080395027E+03  0.16981513538E+04  0.12699999809E+01 0.  1.
       -4    1    3    3    0  502 -0.15125089105E+04  0.27654089818E+03 -0.14632067435E+04  0.21225300138E+04  0.12699999809E+01 0. -1.
</event>
<event>
 5   0  0.7362817E-08  0.3697904E+04  0.7818609E-02  0.8068427E-01
        2   -1    0    0  501    0  0.00000000000E+00  0.00000000000E+00  0.18036987774E+04  0.18036987774E+04  0.25500000920E-02 0. -1.
       -2   -1    0    0    0  501  0.00000000000E+00  0.00000000000E+00 -0.18953404452E+04  0.18953404452E+04  0.25500000920E-02 0.  1.
    10030    2    1    2    0    0  0.00000000000E+00  0.00000000000E+00 -0.91641667816E+02  0.36990392226E+04  0.36979038623E+04 0.  0.
        1    1    3    3  502    0 -0.61004183777E+03 -0.91426849513E+03 -0.15330810500E+04  0.18863656674E+04  0.50400001928E-02 0.  1.
       -1    1    3    3    0  502  0.61004183777E+03  0.91426849513E+03  0.14414393822E+04  0.18126735552E+04  0.50400001928E-02 0. -1.
</event>
<event>
 5   0  0.7362817E-08  0.3727491E+04  0.7818609E-02  0.8061897E-01
        2   -1    0    0  501    0  0.00000000000E+00  0.00000000000E+00  0.17555187238E+04  0.17555187238E+04  0.25500000920E-02 0.  1.
       -2   -1    0    0    0  501  0.00000000000E+00  0.00000000000E+00 -0.19786447288E+04  0.19786447288E+04  0.25500000920E-02 0. -1.
    10030    2    1    2    0    0  0.00000000000E+00  0.00000000000E+00 -0.22312600503E+03  0.37341634526E+04  0.37274913114E+04 0.  0.
        1    1    3    3  502    0 -0.11286947937E+04 -0.45737419562E+03  0.13017793943E+04  0.17826308321E+04  0.50400001928E-02 0.  1.
       -1    1    3    3    0  502  0.11286947937E+04  0.45737419562E+03 -0.15249053993E+04  0.19515326205E+04  0.50400001928E-02 0. -1.
</event>
<event>
 5   0  0.2282000E-08  0.3703005E+04  0.7818609E-02  0.8067296E-01
       -1   -1    0    0    0  501  0.00000000000E+00  0.00000000000E+00  0.15902746241E+04  0.15902746241E+04  0.50400001928E-02 0.  1.
        1   -1    0    0  501    0  0.00000000000E+00  0.00000000000E+00 -0.21556408594E+04  0.21556408594E+04  0.50400001928E-02 0. -1.
    10030    2    1    2    0    0  0.00000000000E+00  0.00000000000E+00 -0.56536623537E+03  0.37459154835E+04  0.37030047029E+04 0.  0.
        2    1    3    3  502    0  0.31395886608E+03  0.15817384874E+03 -0.21215688249E+04  0.21504984108E+04  0.25500000920E-02 0. -1.
       -2    1    3    3    0  502 -0.31395886608E+03 -0.15817384874E+03  0.15562025896E+04  0.15954170727E+04  0.25500000920E-02 0.  1.
</event>
<event>
 5   0  0.2282000E-08  0.3702712E+04  0.7818609E-02  0.8067361E-01
       -1   -1    0    0    0  501  0.00000000000E+00  0.00000000000E+00  0.26819603369E+04  0.26819603369E+04  0.50400001928E-02 0. -1.
        1   -1    0    0  501    0  0.00000000000E+00  0.00000000000E+00 -0.12779901747E+04  0.12779901748E+04  0.50400001928E-02 0.  1.
    10030    2    1    2    0    0  0.00000000000E+00  0.00000000000E+00  0.14039701621E+04  0.39599505116E+04  0.37027119573E+04 0.  0.
        2    1    3    3  502    0 -0.81770214651E+03 -0.15696983985E+04  0.12118236257E+03  0.17740560948E+04  0.25500000920E-02 0.  1.
       -2    1    3    3    0  502  0.81770214651E+03  0.15696983985E+04  0.12827877996E+04  0.21858944168E+04  0.25500000920E-02 0. -1.
</event>
<event>
 5   0  0.7362817E-08  0.3676941E+04  0.7818609E-02  0.8073091E-01
       -2   -1    0    0    0  501  0.00000000000E+00  0.00000000000E+00  0.23780014131E+04  0.23780014131E+04  0.25500000920E-02 0. -1.
        2   -1    0    0  501    0  0.00000000000E+00  0.00000000000E+00 -0.14213509369E+04  0.14213509369E+04  0.25500000920E-02 0.  1.
    10030    2    1    2    0    0  0.00000000000E+00  0.00000000000E+00  0.95665047621E+03  0.37993523500E+04  0.36769414118E+04 0.  0.
        1    1    3    3  502    0  0.13422742853E+03  0.18327533208E+04  0.42198669433E+03  0.18854905218E+04  0.50400001928E-02 0. -1.
       -1    1    3    3    0  502 -0.13422742853E+03 -0.18327533208E+04  0.53466378187E+03  0.19138618282E+04  0.50400001928E-02 0.  1.
</event>
<event>
 5   0  0.7191801E-08  0.3700066E+04  0.7818609E-02  0.8067947E-01
        2   -1    0    0  501    0  0.00000000000E+00  0.00000000000E+00  0.14099149660E+04  0.14099149660E+04  0.25500000920E-02 0. -1.
       -2   -1    0    0    0  501  0.00000000000E+00  0.00000000000E+00 -0.24275379217E+04  0.24275379217E+04  0.25500000920E-02 0.  1.
    10030    2    1    2    0    0  0.00000000000E+00  0.00000000000E+00 -0.10176229557E+04  0.38374528877E+04  0.37000659704E+04 0.  0.
        5    1    3    3  502    0 -0.71420006081E+03  0.57863380973E+03 -0.21739480956E+04  0.23602904959E+04  0.46999998093E+01 0.  1.
       -5    1    3    3    0  502  0.71420006081E+03 -0.57863380973E+03  0.11563251399E+04  0.14771623918E+04  0.46999998093E+01 0. -1.
</event>
<event>
 5   0  0.7203049E-08  0.3702148E+04  0.7818609E-02  0.8067486E-01
       -2   -1    0    0    0  501  0.00000000000E+00  0.00000000000E+00  0.15787830995E+04  0.15787830995E+04  0.25500000920E-02 0.  1.
        2   -1    0    0  501    0  0.00000000000E+00  0.00000000000E+00 -0.21703266968E+04  0.21703266968E+04  0.25500000920E-02 0. -1.
    10030    2    1    2    0    0  0.00000000000E+00  0.00000000000E+00 -0.59154359726E+03  0.37491097963E+04  0.37021480842E+04 0.  0.
        4    1    3    3  502    0 -0.11345676470E+03  0.13669129027E+04  0.96303685785E+03  0.16759370285E+04  0.12699999809E+01 0.  1.
       -4    1    3    3    0  502  0.11345676470E+03 -0.13669129027E+04 -0.15545804551E+04  0.20731727678E+04  0.12699999809E+01 0. -1.
</event>
<event>
 5   0  0.2282000E-08  0.3703120E+04  0.7818609E-02  0.8067271E-01
       -1   -1    0    0    0  501  0.00000000000E+00  0.00000000000E+00  0.28250116578E+04  0.28250116578E+04  0.50400001928E-02 0.  1.
        1   -1    0    0  501    0  0.00000000000E+00  0.00000000000E+00 -0.12135433093E+04  0.12135433093E+04  0.50400001928E-02 0. -1.
    10030    2    1    2    0    0  0.00000000000E+00  0.00000000000E+00  0.16114683485E+04  0.40385549671E+04  0.37031197636E+04 0.  0.
        1    1    3    3  502    0  0.17616095710E+04  0.23937549404E+03  0.24146470434E+03  0.17941221004E+04  0.50400001928E-02 0. -1.
       -1    1    3    3    0  502 -0.17616095710E+04 -0.23937549404E+03  0.13700036442E+04  0.22444328666E+04  0.50400001928E-02 0.  1.
</event>
<event>
 5   0  0.7254493E-08  0.3715515E+04  0.7818609E-02  0.8064532E-01
        2   -1    0    0  501    0  0.00000000000E+00  0.00000000000E+00  0.12769419197E+04  0.12769419197E+04  0.25500000920E-02 0. -1.
       -2   -1    0    0    0  501  0.00000000000E+00  0.00000000000E+00 -0.27027560931E+04  0.27027560931E+04  0.25500000920E-02 0.  1.
    10030    2    1    2    0    0  0.00000000000E+00  0.00000000000E+00 -0.14258141734E+04  0.39796980128E+04  0.37155147983E+04 0.  0.
        3    1    3    3  502    0 -0.32710836692E+03 -0.71975629717E+03  0.10877607555E+04  0.13447202246E+04  0.10100000352E+00 0. -1.
       -3    1    3    3    0  502  0.32710836692E+03  0.71975629717E+03 -0.25135749289E+04  0.26349777882E+04  0.10100000352E+00 0.  1.
</event>
<event>
 5   0  0.7362817E-08  0.3681028E+04  0.7818609E-02  0.8072179E-01
        2   -1    0    0  501    0  0.00000000000E+00  0.00000000000E+00  0.23896097511E+04  0.23896097511E+04  0.25500000920E-02 0. -1.
       -2   -1    0    0    0  501  0.00000000000E+00  0.00000000000E+00 -0.14175920688E+04  0.14175920688E+04  0.25500000920E-02 0.  1.
    10030    2    1    2    0    0  0.00000000000E+00  0.00000000000E+00  0.97201768233E+03  0.38072018199E+04  0.36810280252E+04 0.  0.
        1    1    3    3  502    0  0.68050286199E+03 -0.27640042032E+03 -0.12594417835E+04  0.14579694591E+04  0.50400001928E-02 0.  1.
       -1    1    3    3    0  502 -0.68050286199E+03  0.27640042032E+03  0.22314594658E+04  0.23492323608E+04  0.50400001928E-02 0. -1.
</event>
<event>
 5   0  0.2282000E-08  0.3697607E+04  0.7818609E-02  0.8068492E-01
        1   -1    0    0  501    0  0.00000000000E+00  0.00000000000E+00  0.19262819816E+04  0.19262819816E+04  0.50400001928E-02 0.  1.
       -1   -1    0    0    0  501  0.00000000000E+00  0.00000000000E+00 -0.17744417781E+04  0.17744417781E+04  0.50400001928E-02 0. -1.
    10030    2    1    2    0    0  0.00000000000E+00  0.00000000000E+00  0.15184020350E+03  0.37007237597E+04  0.36976074559E+04 0.  0.
        4    1    3    3  502    0  0.94456049209E+03 -0.88370240473E+03  0.13979986306E+04  0.19046065860E+04  0.12699999809E+01 0.  1.
       -4    1    3    3    0  502 -0.94456049209E+03  0.88370240473E+03 -0.12461584271E+04  0.17961171737E+04  0.12699999809E+01 0. -1.
</event>
<event>
 5   0  0.7254493E-08  0.3705757E+04  0.7818609E-02  0.8066687E-01
       -2   -1    0    0    0  501  0.00000000000E+00  0.00000000000E+00  0.17945961053E+04  0.17945961053E+04  0.25500000920E-02 0. -1.
        2   -1    0    0  501    0  0.00000000000E+00  0.00000000000E+00 -0.19130534232E+04  0.19130534232E+04  0.25500000920E-02 0.  1.
    10030    2    1    2    0    0  0.00000000000E+00  0.00000000000E+00 -0.11845731791E+03  0.37076495285E+04  0.37057567230E+04 0.  0.
        3    1    3    3  502    0  0.75755626582E+03  0.54032529863E+03 -0.16623314615E+04  0.19050429975E+04  0.10100000352E+00 0.  1.
       -3    1    3    3    0  502 -0.75755626582E+03 -0.54032529863E+03  0.15438741436E+04  0.18026065310E+04  0.10100000352E+00 0. -1.
</event>
<event>
 5   0  0.7362817E-08  0.3703763E+04  0.7818609E-02  0.8067129E-01
       -2   -1    0    0    0  501  0.00000000000E+00  0.00000000000E+00  0.16411921543E+04  0.16411921543E+04  0.25500000920E-02 0.  1.
        2   -1    0    0  501    0  0.00000000000E+00  0.00000000000E+00 -0.20896177384E+04  0.20896177384E+04  0.25500000920E-02 0. -1.
    10030    2    1    2    0    0  0.00000000000E+00  0.00000000000E+00 -0.44842558409E+03  0.37308098927E+04  0.37037625397E+04 0.  0.
        1    1    3    3  502    0  0.90135022944E+03 -0.12422654272E+04 -0.12680275329E+04  0.19908665078E+04  0.50400001928E-02 0. -1.
       -1    1    3    3    0  502 -0.90135022944E+03  0.12422654272E+04  0.81960194882E+03  0.17399433848E+04  0.50400001928E-02 0.  1.
</event>
<event>
 5   0  0.2282000E-08  0.3701725E+04  0.7818609E-02  0.8067580E-01
        1   -1    0    0  501    0  0.00000000000E+00  0.00000000000E+00  0.18966834500E+04  0.18966834500E+04  0.50400001928E-02 0. -1.
       -1   -1    0    0    0  501  0.00000000000E+00  0.00000000000E+00 -0.18061486736E+04  0.18061486736E+04  0.50400001928E-02 0.  1.
    10030    2    1    2    0    0  0.00000000000E+00  0.00000000000E+00  0.90534776349E+02  0.37028321236E+04  0.37017251640E+04 0.  0.
        2    1    3    3  502    0 -0.18275102780E+04 -0.47774246543E+02  0.33451834998E+03  0.18584882893E+04  0.25500000920E-02 0. -1.
       -2    1    3    3    0  502  0.18275102780E+04  0.47774246543E+02 -0.24398357363E+03  0.18443438343E+04  0.25500000920E-02 0.  1.
</event>
<event>
 5   0  0.7191801E-08  0.3701112E+04  0.7818609E-02  0.8067715E-01
       -2   -1    0    0    0  501  0.00000000000E+00  0.00000000000E+00  0.14586970597E+04  0.14586970597E+04  0.25500000920E-02 0. -1.
        2   -1    0    0  501    0  0.00000000000E+00  0.00000000000E+00 -0.23476830377E+04  0.23476830377E+04  0.25500000920E-02 0.  1.
    10030    2    1    2    0    0  0.00000000000E+00  0.00000000000E+00 -0.88898597795E+03  0.38063800974E+04  0.37011124512E+04 0.  0.
        5    1    3    3  502    0 -0.14959570603E+04 -0.19117443486E+02 -0.15646375456E+04  0.21648015480E+04  0.46999998093E+01 0.  1.
       -5    1    3    3    0  502  0.14959570603E+04  0.19117443486E+02  0.67565156765E+03  0.16415785494E+04  0.46999998093E+01 0. -1.
</event>
<event>
 5   0  0.2282000E-08  0.3697587E+04  0.7818609E-02  0.8068497E-01
       -1   -1    0    0    0  501  0.00000000000E+00  0.00000000000E+00  0.14945443508E+04  0.14945443508E+04  0.50400001928E-02 0.  1.
        1   -1    0    0  501    0  0.00000000000E+00  0.00000000000E+00 -0.22870095179E+04  0.22870095179E+04  0.50400001928E-02 0. -1.
    10030    2    1    2    0    0  0.00000000000E+00  0.00000000000E+00 -0.79246516717E+03  0.37815538687E+04  0.36975868645E+04 0.  0.
        1    1    3    3  502    0 -0.70939184154E+03  0.16549851140E+04 -0.82506911832E+03  0.19806442291E+04  0.50400001928E-02 0. -1.
       -1    1    3    3    0  502  0.70939184154E+03 -0.16549851140E+04  0.32603951146E+02  0.18009096396E+04  0.50400001928E-02 0.  1.
</event>
<event>
 5   0  0.7362817E-08  0.3699793E+04  0.7818609E-02  0.8068008E-01
        2   -1    0    0  501    0  0.00000000000E+00  0.00000000000E+00  0.19264138460E+04  0.19264138460E+04  0.25500000920E-02 0. -1.
       -2   -1    0    0    0  501  0.00000000000E+00  0.00000000000E+00 -0.17764182667E+04  0.17764182667E+04  0.25500000920E-02 0.  1.
    10030    2    1    2    0    0  0.00000000000E+00  0.00000000000E+00  0.14999557929E+03  0.37028321127E+04  0.36997928295E+04 0.  0.
        1    1    3    3  502    0  0.18350994452E+04 -0.18608274481E+03 -0.66185395063E+02  0.18456969600E+04  0.50400001928E-02 0. -1.
       -1    1    3    3    0  502 -0.18350994452E+04  0.18608274481E+03  0.21618097435E+03  0.18571351527E+04  0.50400001928E-02 0.  1.
</event>
<event>
 5   0  0.7309833E-08  0.3697912E+04  0.7818609E-02  0.8068425E-01
        2   -1    0    0  501    0  0.00000000000E+00  0.00000000000E+00  0.25390589876E+04  0.25390589876E+04  0.25500000920E-02 0.  1.
       -2   -1    0    0    0  501  0.00000000000E+00  0.00000000000E+00 -0.13464196926E+04  0.13464196926E+04  0.25500000920E-02 0. -1.
    10030    2    1    2    0    0  0.00000000000E+00  0.00000000000E+00  0.11926392950E+04  0.38854786802E+04  0.36979123957E+04 0.  0.
        2    1    3    3  502    0  0.12131090598E+04 -0.12857421014E+04  0.26722877030E+02  0.17679028408E+04  0.25500000920E-02 0. -1.
       -2    1    3    3    0  502 -0.12131090598E+04  0.12857421014E+04  0.11659164180E+04  0.21175758395E+04  0.25500000920E-02 0.  1.
</event>
<event>
 5   0  0.2282000E-08  0.3684260E+04  0.7818609E-02  0.8071459E-01
       -3   -1    0    0    0  501  0.00000000000E+00  0.00000000000E+00  0.20616086313E+04  0.20616086337E+04  0.10100000352E+00 0. -1.
        3   -1    0    0  501    0  0.00000000000E+00  0.00000000000E+00 -0.16460168014E+04  0.16460168045E+04  0.10100000352E+00 0.  1.
    10030    2    1    2    0    0  0.00000000000E+00  0.00000000000E+00  0.41559182986E+03  0.37076254382E+04  0.36842597386E+04 0.  0.
        4    1    3    3  502    0  0.22894187197E+03 -0.11922543986E+04  0.16020630683E+04  0.20100976641E+04  0.12699999809E+01 0. -1.
       -4    1    3    3    0  502 -0.22894187197E+03  0.11922543986E+04 -0.11864712384E+04  0.16975277742E+04  0.12699999809E+01 0.  1.
</event>
<event>
 5   0  0.2282000E-08  0.3699106E+04  0.7818609E-02  0.8068160E-01
        1   -1    0    0  501    0  0.00000000000E+00  0.00000000000E+00  0.10395297599E+04  0.10395297599E+04  0.50400001928E-02 0.  1.
       -1   -1    0    0    0  501  0.00000000000E+00  0.00000000000E+00 -0.32907625762E+04  0.32907625762E+04  0.50400001928E-02 0. -1.
    10030    2    1    2    0    0  0.00000000000E+00  0.00000000000E+00 -0.22512328163E+04  0.43302923361E+04  0.36991056382E+04 0.  0.
        3    1    3    3  502    0 -0.15194211017E+04  0.53322773527E+03 -0.21907459381E+04  0.27188858155E+04  0.10100000352E+00 0. -1.
       -3    1    3    3    0  502  0.15194211017E+04 -0.53322773527E+03 -0.60486878135E+02  0.16114065206E+04  0.10100000352E+00 0.  1.
</event>
<event>
 5   0  0.7254493E-08  0.3699990E+04  0.7818609E-02  0.8067964E-01
       -2   -1    0    0    0  501  0.00000000000E+00  0.00000000000E+00  0.19077433792E+04  0.19077433792E+04  0.25500000920E-02 0. -1.
        2   -1    0    0  501    0  0.00000000000E+00  0.00000000000E+00 -0.17939949322E+04  0.17939949322E+04  0.25500000920E-02 0.  1.
    10030    2    1    2    0    0  0.00000000000E+00  0.00000000000E+00  0.11374844702E+03  0.37017383114E+04  0.36999902455E+04 0.  0.
        3    1    3    3  502    0 -0.71082026283E+03  0.61996417625E+03 -0.15353741212E+04  0.18019419325E+04  0.10100000352E+00 0.  1.
       -3    1    3    3    0  502  0.71082026283E+03 -0.61996417625E+03  0.16491225682E+04  0.18997963789E+04  0.10100000352E+00 0. -1.
</event>
<event>
 5   0  0.7191801E-08  0.3690081E+04  0.7818609E-02  0.8070163E-01
       -2   -1    0    0    0  501  0.00000000000E+00  0.00000000000E+00  0.16362760104E+04  0.16362760104E+04  0.25500000920E-02 0.  1.
        2   -1    0    0  501    0  0.00000000000E+00  0.00000000000E+00 -0.20804405323E+04  0.20804405323E+04  0.25500000920E-02 0. -1.
    10030    2    1    2    0    0  0.00000000000E+00  0.00000000000E+00 -0.44416452186E+03  0.37167165427E+04  0.36900812642E+04 0.  0.
        5    1    3    3  502    0  0.12610585235E+04 -0.24051323916E+03 -0.15568030313E+04  0.20178634706E+04  0.46999998093E+01 0. -1.
       -5    1    3    3    0  502 -0.12610585235E+04  0.24051323916E+03  0.11126385094E+04  0.16988530721E+04  0.46999998093E+01 0.  1.
</event>
<event>
 5   0  0.2282000E-08  0.3708672E+04  0.7818609E-02  0.8066043E-01
       -3   -1    0    0    0  501  0.00000000000E+00  0.00000000000E+00  0.27713489247E+04  0.27713489265E+04  0.10100000352E+00 0. -1.
        3   -1    0    0  501    0  0.00000000000E+00  0.00000000000E+00 -0.12407536221E+04  0.12407536262E+04  0.10100000352E+00 0.  1.
    10030    2    1    2    0    0  0.00000000000E+00  0.00000000000E+00  0.15305953026E+04  0.40121025527E+04  0.37086715834E+04 0.  0.
        4    1    3    3  502    0 -0.10622232015E+04  0.14601674307E+04  0.30868316834E+03  0.18318553346E+04  0.12699999809E+01 0.  1.
       -4    1    3    3    0  502  0.10622232015E+04 -0.14601674307E+04  0.12219121342E+04  0.21802472181E+04  0.12699999809E+01 0. -1.
</event>
<event>
 5   0  0.7362817E-08  0.3701673E+04  0.7818609E-02  0.8067591E-01
        2   -1    0    0  501    0  0.00000000000E+00  0.00000000000E+00  0.25524398598E+04  0.25524398598E+04  0.25500000920E-02 0.  1.
       -2   -1    0    0    0  501  0.00000000000E+00  0.00000000000E+00 -0.13420870209E+04  0.13420870209E+04  0.25500000920E-02 0. -1.
    10030    2    1    2    0    0  0.00000000000E+00  0.00000000000E+00  0.12103528390E+04  0.38945268807E+04  0.37016733554E+04 0.  0.
        1    1    3    3  502    0  0.10227453817E+04 -0.14418979885E+04  0.11819325326E+04  0.21265094490E+04  0.50400001928E-02 0.  1.
       -1    1    3    3    0  502 -0.10227453817E+04  0.14418979885E+04  0.28420306350E+02  0.17680174317E+04  0.50400001928E-02 0. -1.
</event>
<event>
 5   0  0.2282000E-08  0.3699622E+04  0.7818609E-02  0.8068046E-01
       -1   -1    0    0    0  501  0.00000000000E+00  0.00000000000E+00  0.17684878369E+04  0.17684878369E+04  0.50400001928E-02 0. -1.
        1   -1    0    0  501    0  0.00000000000E+00  0.00000000000E+00 -0.19348739826E+04  0.19348739826E+04  0.50400001928E-02 0.  1.
    10030    2    1    2    0    0  0.00000000000E+00  0.00000000000E+00 -0.16638614565E+03  0.37033618195E+04  0.36996221992E+04 0.  0.
        1    1    3    3  502    0  0.64749248160E+03 -0.13563137865E+04 -0.11626928519E+04  0.19001811148E+04  0.50400001928E-02 0.  1.
       -1    1    3    3    0  502 -0.64749248160E+03  0.13563137865E+04  0.99630670622E+03  0.18031807047E+04  0.50400001928E-02 0. -1.
</event>
<event>
 5   0  0.7254493E-08  0.3702653E+04  0.7818609E-02  0.8067374E-01
        2   -1    0    0  501    0  0.00000000000E+00  0.00000000000E+00  0.19879224957E+04  0.19879224957E+04  0.25500000920E-02 0. -1.
       -2   -1    0    0    0  501  0.00000000000E+00  0.00000000000E+00 -0.17241167212E+04  0.17241167212E+04  0.25500000920E-02 0.  1.
    10030    2    1    2    0    0  0.00000000000E+00  0.00000000000E+00  0.26380577453E+03  0.37120392169E+04  0.37026533271E+04 0.  0.
        3    1    3    3  502    0  0.16634724255E+04  0.80995501837E+03  0.19720449726E+03  0.18606604381E+04  0.10100000352E+00 0. -1.
       -3    1    3    3    0  502 -0.16634724255E+04 -0.80995501837E+03  0.66601277271E+02  0.18513787787E+04  0.10100000352E+00 0.  1.
</event>
<event>
 5   0  0.7203049E-08  0.3691168E+04  0.7818609E-02  0.8069922E-01
       -2   -1    0    0    0  501  0.00000000000E+00  0.00000000000E+00  0.10967029552E+04  0.10967029552E+04  0.25500000920E-02 0. -1.
        2   -1    0    0  501    0  0.00000000000E+00  0.00000000000E+00 -0.31058368036E+04  0.31058368036E+04  0.25500000920E-02 0.  1.
    10030    2    1    2    0    0  0.00000000000E+00  0.00000000000E+00 -0.20091338483E+04  0.42025397588E+04  0.36911680542E+04 0.  0.
        4    1    3    3  502    0  0.18271400178E+04  0.24440411651E+03 -0.90270251302E+03  0.20525709383E+04  0.12699999809E+01 0. -1.
       -4    1    3    3    0  502 -0.18271400178E+04 -0.24440411651E+03 -0.11064313353E+04  0.21499688206E+04  0.12699999809E+01 0.  1.
</event>
<event>
 5   0  0.7309833E-08  0.3702054E+04  0.7818609E-02  0.8067507E-01
       -2   -1    0    0    0  501  0.00000000000E+00  0.00000000000E+00  0.14325102018E+04  0.14325102018E+04  0.25500000920E-02 0. -1.
        2   -1    0    0  501    0  0.00000000000E+00  0.00000000000E+00 -0.23918159745E+04  0.23918159745E+04  0.25500000920E-02 0.  1.
    10030    2    1    2    0    0  0.00000000000E+00  0.00000000000E+00 -0.95930577267E+03  0.38243261763E+04  0.37020539079E+04 0.  0.
        2    1    3    3  502    0 -0.42951680450E+03 -0.16232501589E+04 -0.12844044303E+04  0.21140294473E+04  0.25500000920E-02 0.  1.
       -2    1    3    3    0  502  0.42951680450E+03  0.16232501589E+04  0.32509865759E+03  0.17102967289E+04  0.25500000920E-02 0. -1.
</event>
<event>
 5   0  0.7309833E-08  0.3697684E+04  0.7818609E-02  0.8068475E-01
       -2   -1    0    0    0  501  0.00000000000E+00  0.00000000000E+00  0.17529526892E+04  0.17529526892E+04  0.25500000920E-02 0.  1.
        2   -1    0    0  501    0  0.00000000000E+00  0.00000000000E+00 -0.19499761709E+04  0.19499761709E+04  0.25500000920E-02 0. -1.
    10030    2    1    2    0    0  0.00000000000E+00  0.00000000000E+00 -0.19702348171E+03  0.37029288601E+04  0.36976835844E+04 0.  0.
        2    1    3    3  502    0  0.11599078162E+04 -0.83849325051E+03 -0.12705389352E+04  0.19138250335E+04  0.25500000920E-02 0. -1.
       -2    1    3    3    0  502 -0.11599078162E+04  0.83849325051E+03  0.10735154535E+04  0.17891038265E+04  0.25500000920E-02 0.  1.
</event>
<event>
 5   0  0.7362817E-08  0.3700046E+04  0.7818609E-02  0.8067952E-01
        2   -1    0    0  501    0  0.00000000000E+00  0.00000000000E+00  0.23585396129E+04  0.23585396129E+04  0.25500000920E-02 0.  1.
       -2   -1    0    0    0  501  0.00000000000E+00  0.00000000000E+00 -0.14511457683E+04  0.14511457683E+04  0.25500000920E-02 0. -1.
    10030    2    1    2    0    0  0.00000000000E+00  0.00000000000E+00  0.90739384462E+03  0.38096853812E+04  0.37000458260E+04 0.  0.
        1    1    3    3  502    0  0.13504681592E+04 -0.70321206553E+03 -0.62830532765E+03  0.16471305482E+04  0.50400001928E-02 0. -1.
       -1    1    3    3    0  502 -0.13504681592E+04  0.70321206553E+03  0.15356991723E+04  0.21625548330E+04  0.50400001928E-02 0.  1.
</event>
<event>
 5   0  0.2282000E-08  0.3679702E+04  0.7818609E-02  0.8072475E-01
        3   -1    0    0  501    0  0.00000000000E+00  0.00000000000E+00  0.24294826136E+04  0.24294826157E+04  0.10100000352E+00 0. -1.
       -3   -1    0    0    0  501  0.00000000000E+00  0.00000000000E+00 -0.13933223833E+04  0.13933223870E+04  0.10100000352E+00 0.  1.
    10030    2    1    2    0    0  0.00000000000E+00  0.00000000000E+00  0.10361602303E+04  0.38228050027E+04  0.36797024426E+04 0.  0.
        4    1    3    3  502    0 -0.14193891594E+04 -0.32574065028E+03 -0.65004885420E+03  0.15947845256E+04  0.12699999809E+01 0.  1.
       -4    1    3    3    0  502  0.14193891594E+04  0.32574065028E+03  0.16862090845E+04  0.22280204772E+04  0.12699999809E+01 0. -1.
</event>
<event>
 5   0  0.2282000E-08  0.3698863E+04  0.7818609E-02  0.8068214E-01
        1   -1    0    0  501    0  0.00000000000E+00  0.00000000000E+00  0.18571116692E+04  0.18571116692E+04  0.50400001928E-02 0. -1.
       -1   -1    0    0    0  501  0.00000000000E+00  0.00000000000E+00 -0.18417828356E+04  0.18417828356E+04  0.50400001928E-02 0.  1.
    10030    2    1    2    0    0  0.00000000000E+00  0.00000000000E+00  0.15328833680E+02  0.36988945048E+04  0.36988627421E+04 0.  0.
        1    1    3    3  502    0 -0.16621744277E+04  0.15515693467E+03 -0.78826885530E+03  0.18461487726E+04  0.50400001928E-02 0.  1.
       -1    1    3    3    0  502  0.16621744277E+04 -0.15515693467E+03  0.80359768898E+03  0.18527457322E+04  0.50400001928E-02 0. -1.
</event>
<event>
 5   0  0.7362817E-08  0.3686352E+04  0.7818609E-02  0.8070993E-01
       -2   -1    0    0    0  501  0.00000000000E+00  0.00000000000E+00  0.17626547736E+04  0.17626547736E+04  0.25500000920E-02 0.  1.
        2   -1    0    0  501    0  0.00000000000E+00  0.00000000000E+00 -0.19273758418E+04  0.19273758418E+04  0.25500000920E-02 0. -1.
    10030    2    1    2    0    0  0.00000000000E+00  0.00000000000E+00 -0.16472106821E+03  0.36900306153E+04  0.36863522501E+04 0.  0.
        1    1    3    3  502    0  0.16374365446E+04  0.75595886668E+02  0.76132391593E+03  0.18073536679E+04  0.50400001928E-02 0. -1.
       -1    1    3    3    0  502 -0.16374365446E+04 -0.75595886668E+02 -0.92604498414E+03  0.18826769475E+04  0.50400001928E-02 0.  1.
</event>
<event>
 5   0  0.2282000E-08  0.3702249E+04  0.7818609E-02  0.8067464E-01
       -1   -1    0    0    0  501  0.00000000000E+00  0.00000000000E+00  0.23960838895E+04  0.23960838895E+04  0.50400001928E-02 0.  1.
        1   -1    0    0  501    0  0.00000000000E+00  0.00000000000E+00 -0.14301094025E+04  0.14301094025E+04  0.50400001928E-02 0. -1.
    10030    2    1    2    0    0  0.00000000000E+00  0.00000000000E+00  0.96597448702E+03  0.38261932920E+04  0.37022491000E+04 0.  0.
        2    1    3    3  502    0 -0.44646714303E+03  0.41380929790E+03  0.22896804628E+04  0.23692208986E+04  0.25500000920E-02 0.  1.
       -2    1    3    3    0  502  0.44646714303E+03 -0.41380929790E+03 -0.13237059758E+04  0.14569723934E+04  0.25500000920E-02 0. -1.
</event>
<event>
 5   0  0.2282000E-08  0.3695067E+04  0.7818609E-02  0.8069056E-01
        1   -1    0    0  501    0  0.00000000000E+00  0.00000000000E+00  0.19655334099E+04  0.19655334099E+04  0.50400001928E-02 0.  1.
       -1   -1    0    0    0  501  0.00000000000E+00  0.00000000000E+00 -0.17366173515E+04  0.17366173515E+04  0.50400001928E-02 0. -1.
    10030    2    1    2    0    0  0.00000000000E+00  0.00000000000E+00  0.22891605838E+03  0.37021507614E+04  0.36950666703E+04 0.  0.
        3    1    3    3  502    0  0.34562257796E+03 -0.11710966655E+04  0.15036432180E+04  0.19369732326E+04  0.10100000352E+00 0.  1.
       -3    1    3    3    0  502 -0.34562257796E+03  0.11710966655E+04 -0.12747271597E+04  0.17651775288E+04  0.10100000352E+00 0. -1.
</event>
<event>
 5   0  0.2282000E-08  0.3697352E+04  0.7818609E-02  0.8068549E-01
        1   -1    0    0  501    0  0.00000000000E+00  0.00000000000E+00  0.25537716427E+04  0.25537716427E+04  0.50400001928E-02 0.  1.
       -1   -1    0    0    0  501  0.00000000000E+00  0.00000000000E+00 -0.13382571228E+04  0.13382571228E+04  0.50400001928E-02 0. -1.
    10030    2    1    2    0    0  0.00000000000E+00  0.00000000000E+00  0.12155145198E+04  0.38920287655E+04  0.36973520746E+04 0.  0.
        4    1    3    3  502    0  0.27983352728E+03  0.17402135545E+04  0.20766136383E+02  0.17626919366E+04  0.12699999809E+01 0. -1.
       -4    1    3    3    0  502 -0.27983352728E+03 -0.17402135545E+04  0.11947483835E+04  0.21293368289E+04  0.12699999809E+01 0.  1.
</event>
<event>
 5   0  0.7362817E-08  0.3701122E+04  0.7818609E-02  0.8067713E-01
       -2   -1    0    0    0  501  0.00000000000E+00  0.00000000000E+00  0.14532012636E+04  0.14532012636E+04  0.25500000920E-02 0.  1.
        2   -1    0    0  501    0  0.00000000000E+00  0.00000000000E+00 -0.23565737509E+04  0.23565737509E+04  0.25500000920E-02 0. -1.
    10030    2    1    2    0    0  0.00000000000E+00  0.00000000000E+00 -0.90337248730E+03  0.38097750145E+04  0.37011219665E+04 0.  0.
        1    1    3    3  502    0  0.86645090820E+03  0.52668594091E+02 -0.21340044460E+04  0.23037981970E+04  0.50400001928E-02 0. -1.
       -1    1    3    3    0  502 -0.86645090820E+03 -0.52668594091E+02  0.12306319587E+04  0.15059768175E+04  0.50400001928E-02 0.  1.
</event>
<event>
 5   0  0.2282000E-08  0.3703160E+04  0.7818609E-02  0.8067262E-01
       -1   -1    0    0    0  501  0.00000000000E+00  0.00000000000E+00  0.14538210185E+04  0.14538210185E+04  0.50400001928E-02 0. -1.
        1   -1    0    0  501    0  0.00000000000E+00  0.00000000000E+00 -0.23581640965E+04  0.23581640965E+04  0.50400001928E-02 0.  1.
    10030    2    1    2    0    0  0.00000000000E+00  0.00000000000E+00 -0.90434307797E+03  0.38119851150E+04  0.37031600174E+04 0.  0.
        2    1    3    3  502    0  0.73794315254E+03  0.59689299076E+03  0.11843620267E+04  0.15177466024E+04  0.25500000920E-02 0. -1.
       -2    1    3    3    0  502 -0.73794315254E+03 -0.59689299076E+03 -0.20887051046E+04  0.22942385127E+04  0.25500000920E-02 0.  1.
</event>
<event>
 5   0  0.2282000E-08  0.3701086E+04  0.7818609E-02  0.8067721E-01
       -1   -1    0    0    0  501  0.00000000000E+00  0.00000000000E+00  0.32952639319E+04  0.32952639319E+04  0.50400001928E-02 0.  1.
        1   -1    0    0  501    0  0.00000000000E+00  0.00000000000E+00 -0.10392214840E+04  0.10392214840E+04  0.50400001928E-02 0. -1.
    10030    2    1    2    0    0  0.00000000000E+00  0.00000000000E+00  0.22560424479E+04  0.43344854159E+04  0.37010858264E+04 0.  0.
        5    1    3    3  502    0  0.16000573316E+04 -0.27302639408E+03  0.21687941496E+04  0.27089512786E+04  0.46999998093E+01 0.  1.
       -5    1    3    3    0  502 -0.16000573316E+04  0.27302639408E+03  0.87248298311E+02  0.16255341374E+04  0.46999998093E+01 0. -1.
</event>
<event>
 5   0  0.2282000E-08  0.3719361E+04  0.7818609E-02  0.8063685E-01
        1   -1    0    0  501    0  0.00000000000E+00  0.00000000000E+00  0.22572292720E+04  0.22572292720E+04  0.50400001928E-02 0. -1.
       -1   -1    0    0    0  501  0.00000000000E+00  0.00000000000E+00 -0.15321487570E+04  0.15321487570E+04  0.50400001928E-02 0.  1.
    10030    2    1    2    0    0  0.00000000000E+00  0.00000000000E+00  0.72508051498E+03  0.37893780290E+04  0.37193607103E+04 0.  0.
        5    1    3    3  502    0  0.23909057132E+03  0.86542363410E+03 -0.12966959605E+04  0.15772015951E+04  0.46999998093E+01 0.  1.
       -5    1    3    3    0  502 -0.23909057132E+03 -0.86542363410E+03  0.20217764755E+04  0.22121764339E+04  0.46999998093E+01 0. -1.
</event>
<event>
 5   0  0.7362817E-08  0.3731095E+04  0.7818609E-02  0.8061106E-01
        2   -1    0    0  501    0  0.00000000000E+00  0.00000000000E+00  0.18409346742E+04  0.18409346742E+04  0.25500000920E-02 0.  1.
       -2   -1    0    0    0  501  0.00000000000E+00  0.00000000000E+00 -0.18904894550E+04  0.18904894550E+04  0.25500000920E-02 0. -1.
    10030    2    1    2    0    0  0.00000000000E+00  0.00000000000E+00 -0.49554780815E+02  0.37314241292E+04  0.37310950612E+04 0.  0.
        1    1    3    3  502    0 -0.37849837894E+03  0.43025816762E+03  0.17507339352E+04  0.18421325755E+04  0.50400001928E-02 0.  1.
       -1    1    3    3    0  502  0.37849837894E+03 -0.43025816762E+03 -0.18002887161E+04  0.18892915537E+04  0.50400001928E-02 0. -1.
</event>
<event>
 5   0  0.2282000E-08  0.3703447E+04  0.7818609E-02  0.8067198E-01
       -1   -1    0    0    0  501  0.00000000000E+00  0.00000000000E+00  0.16155886030E+04  0.16155886030E+04  0.50400001928E-02 0. -1.
        1   -1    0    0  501    0  0.00000000000E+00  0.00000000000E+00 -0.21223720634E+04  0.21223720634E+04  0.50400001928E-02 0.  1.
    10030    2    1    2    0    0  0.00000000000E+00  0.00000000000E+00 -0.50678346041E+03  0.37379606665E+04  0.37034471062E+04 0.  0.
        5    1    3    3  502    0  0.59394720296E+03 -0.78542222427E+03 -0.18361887083E+04  0.20835720321E+04  0.46999998093E+01 0.  1.
       -5    1    3    3    0  502 -0.59394720296E+03  0.78542222427E+03  0.13294052479E+04  0.16543886344E+04  0.46999998093E+01 0. -1.
</event>
<event>
 5   0  0.7309833E-08  0.3724682E+04  0.7818609E-02  0.8062514E-01
       -2   -1    0    0    0  501  0.00000000000E+00  0.00000000000E+00  0.14290539149E+04  0.14290539149E+04  0.25500000920E-02 0. -1.
        2   -1    0    0  501    0  0.00000000000E+00  0.00000000000E+00 -0.24269996572E+04  0.24269996572E+04  0.25500000920E-02 0.  1.
    10030    2    1    2    0    0  0.00000000000E+00  0.00000000000E+00 -0.99794574228E+03  0.38560535721E+04  0.37246816571E+04 0.  0.
        2    1    3    3  502    0  0.10116594142E+03  0.16366584778E+04  0.41501799584E+03  0.16914861683E+04  0.25500000920E-02 0. -1.
       -2    1    3    3    0  502 -0.10116594142E+03 -0.16366584778E+04 -0.14129637381E+04  0.21645674038E+04  0.25500000920E-02 0.  1.
</event>
<event>
 5   0  0.2282000E-08  0.3770687E+04  0.7818609E-02  0.8052475E-01
       -1   -1    0    0    0  501  0.00000000000E+00  0.00000000000E+00  0.14282371028E+04  0.14282371029E+04  0.50400001928E-02 0. -1.
        1   -1    0    0  501    0  0.00000000000E+00  0.00000000000E+00 -0.24887461142E+04  0.24887461142E+04  0.50400001928E-02 0.  1.
    10030    2    1    2    0    0  0.00000000000E+00  0.00000000000E+00 -0.10605090113E+04  0.39169832170E+04  0.37706866960E+04 0.  0.
        2    1    3    3  502    0 -0.22812768257E+03  0.14833494681E+04 -0.17156466529E+04  0.22794322366E+04  0.25500000920E-02 0.  1.
       -2    1    3    3    0  502  0.22812768257E+03 -0.14833494681E+04  0.65513764154E+03  0.16375509804E+04  0.25500000920E-02 0. -1.
</event>
<event>
 5   0  0.7191801E-08  0.3702035E+04  0.7818609E-02  0.8067511E-01
        2   -1    0    0  501    0  0.00000000000E+00  0.00000000000E+00  0.25614486056E+04  0.25614486056E+04  0.25500000920E-02 0.  1.
       -2   -1    0    0    0  501  0.00000000000E+00  0.00000000000E+00 -0.13376281077E+04  0.13376281077E+04  0.25500000920E-02 0. -1.
    10030    2    1    2    0    0  0.00000000000E+00  0.00000000000E+00  0.12238204979E+04  0.38990767133E+04  0.37020349276E+04 0.  0.
        5    1    3    3  502    0 -0.11199739331E+04  0.13005340886E+04  0.13419959700E+04  0.21786935994E+04  0.46999998093E+01 0. -1.
       -5    1    3    3    0  502  0.11199739331E+04 -0.13005340886E+04 -0.11817547212E+03  0.17203831139E+04  0.46999998093E+01 0.  1.
</event>
<event>
 5   0  0.7203049E-08  0.3699348E+04  0.7818609E-02  0.8068106E-01
        2   -1    0    0  501    0  0.00000000000E+00  0.00000000000E+00  0.23803111053E+04  0.23803111053E+04  0.25500000920E-02 0. -1.
       -2   -1    0    0    0  501  0.00000000000E+00  0.00000000000E+00 -0.14373308386E+04  0.14373308386E+04  0.25500000920E-02 0.  1.
    10030    2    1    2    0    0  0.00000000000E+00  0.00000000000E+00  0.94298026669E+03  0.38176419438E+04  0.36993483518E+04 0.  0.
        4    1    3    3  502    0 -0.17229353523E+04  0.65079434941E+02 -0.21966583818E+03  0.17381013361E+04  0.12699999809E+01 0.  1.
       -4    1    3    3    0  502  0.17229353523E+04 -0.65079434941E+02  0.11626461049E+04  0.20795406077E+04  0.12699999809E+01 0. -1.
</event>
<event>
 5   0  0.7203049E-08  0.3700834E+04  0.7818609E-02  0.8067777E-01
       -2   -1    0    0    0  501  0.00000000000E+00  0.00000000000E+00  0.19840704093E+04  0.19840704093E+04  0.25500000920E-02 0. -1.
        2   -1    0    0  501    0  0.00000000000E+00  0.00000000000E+00 -0.17257667723E+04  0.17257667723E+04  0.25500000920E-02 0.  1.
    10030    2    1    2    0    0  0.00000000000E+00  0.00000000000E+00  0.25830363702E+03  0.37098371816E+04  0.37008338445E+04 0.  0.
        4    1    3    3  502    0 -0.12152358962E+04  0.12427683618E+04  0.76533715127E+03  0.18992140618E+04  0.12699999809E+01 0.  1.
       -4    1    3    3    0  502  0.12152358962E+04 -0.12427683618E+04 -0.50703351425E+03  0.18106231198E+04  0.12699999809E+01 0. -1.
</event>
<event>
 5   0  0.2282000E-08  0.3694673E+04  0.7818609E-02  0.8069143E-01
        3   -1    0    0  501    0  0.00000000000E+00  0.00000000000E+00  0.21706273595E+04  0.21706273619E+04  0.10100000352E+00 0.  1.
       -3   -1    0    0    0  501  0.00000000000E+00  0.00000000000E+00 -0.15721964618E+04  0.15721964651E+04  0.10100000352E+00 0. -1.
    10030    2    1    2    0    0  0.00000000000E+00  0.00000000000E+00  0.59843089770E+03  0.37428238269E+04  0.36946732819E+04 0.  0.
        4    1    3    3  502    0  0.14479566870E+04 -0.77725857779E+03  0.11539780795E+04  0.20080778085E+04  0.12699999809E+01 0.  1.
       -4    1    3    3    0  502 -0.14479566870E+04  0.77725857779E+03 -0.55554718180E+03  0.17347460184E+04  0.12699999809E+01 0. -1.
</event>
<event>
 5   0  0.2282000E-08  0.3698505E+04  0.7818609E-02  0.8068293E-01
       -3   -1    0    0    0  501  0.00000000000E+00  0.00000000000E+00  0.19688077219E+04  0.19688077245E+04  0.10100000352E+00 0. -1.
        3   -1    0    0  501    0  0.00000000000E+00  0.00000000000E+00 -0.17369571780E+04  0.17369571810E+04  0.10100000352E+00 0.  1.
    10030    2    1    2    0    0  0.00000000000E+00  0.00000000000E+00  0.23185054385E+03  0.37057649055E+04  0.36985049493E+04 0.  0.
        5    1    3    3  502    0 -0.12017220446E+04  0.28685450757E+03 -0.12627448795E+04  0.17666261919E+04  0.46999998093E+01 0.  1.
       -5    1    3    3    0  502  0.12017220446E+04 -0.28685450757E+03  0.14945954234E+04  0.19391387136E+04  0.46999998093E+01 0. -1.
</event>
<event>
 5   0  0.2282000E-08  0.3674757E+04  0.7818609E-02  0.8073579E-01
        1   -1    0    0  501    0  0.00000000000E+00  0.00000000000E+00  0.27147361914E+04  0.27147361914E+04  0.50400001928E-02 0.  1.
       -1   -1    0    0    0  501  0.00000000000E+00  0.00000000000E+00 -0.12435683234E+04  0.12435683234E+04  0.50400001928E-02 0. -1.
    10030    2    1    2    0    0  0.00000000000E+00  0.00000000000E+00  0.14711678680E+04  0.39583045149E+04  0.36747570990E+04 0.  0.
        5    1    3    3  502    0 -0.12102288746E+04  0.13268075649E+04  0.11539685217E+04  0.21346516536E+04  0.46999998093E+01 0.  1.
       -5    1    3    3    0  502  0.12102288746E+04 -0.13268075649E+04  0.31719934635E+03  0.18236528613E+04  0.46999998093E+01 0. -1.
</event>
<event>
 5   0  0.7203049E-08  0.3705868E+04  0.7818609E-02  0.8066663E-01
       -2   -1    0    0    0  501  0.00000000000E+00  0.00000000000E+00  0.11594824548E+04  0.11594824548E+04  0.25500000920E-02 0. -1.
        2   -1    0    0  501    0  0.00000000000E+00  0.00000000000E+00 -0.29611184430E+04  0.29611184430E+04  0.25500000920E-02 0.  1.
    10030    2    1    2    0    0  0.00000000000E+00  0.00000000000E+00 -0.18016359882E+04  0.41206008978E+04  0.37058682553E+04 0.  0.
        4    1    3    3  502    0  0.58049180363E+03 -0.11947781359E+04  0.53561522525E+03  0.14322537522E+04  0.12699999809E+01 0. -1.
       -4    1    3    3    0  502 -0.58049180363E+03  0.11947781359E+04 -0.23372512134E+04  0.26883471457E+04  0.12699999809E+01 0.  1.
</event>
<event>
 5   0  0.7191801E-08  0.3691903E+04  0.7818609E-02  0.8069759E-01
        2   -1    0    0  501    0  0.00000000000E+00  0.00000000000E+00  0.19499155027E+04  0.19499155027E+04  0.25500000920E-02 0. -1.
       -2   -1    0    0    0  501  0.00000000000E+00  0.00000000000E+00 -0.17475304971E+04  0.17475304971E+04  0.25500000920E-02 0.  1.
    10030    2    1    2    0    0  0.00000000000E+00  0.00000000000E+00  0.20238500561E+03  0.36974459998E+04  0.36919029281E+04 0.  0.
        5    1    3    3  502    0  0.10917106427E+04 -0.12397578269E+04  0.92625166338E+03  0.18938837954E+04  0.46999998093E+01 0. -1.
       -5    1    3    3    0  502 -0.10917106427E+04  0.12397578269E+04 -0.72386665778E+03  0.18035622043E+04  0.46999998093E+01 0.  1.
</event>
<event>
 5   0  0.2282000E-08  0.3700071E+04  0.7818609E-02  0.8067946E-01
        1   -1    0    0  501    0  0.00000000000E+00  0.00000000000E+00  0.25368707578E+04  0.25368707578E+04  0.50400001928E-02 0. -1.
       -1   -1    0    0    0  501  0.00000000000E+00  0.00000000000E+00 -0.13491547858E+04  0.13491547858E+04  0.50400001928E-02 0.  1.
    10030    2    1    2    0    0  0.00000000000E+00  0.00000000000E+00  0.11877159720E+04  0.38860255436E+04  0.37000709852E+04 0.  0.
        5    1    3    3  502    0 -0.18128806102E+04  0.31284355932E+03  0.38858167240E+03  0.18802725881E+04  0.46999998093E+01 0.  1.
       -5    1    3    3    0  502  0.18128806102E+04 -0.31284355932E+03  0.79913429963E+03  0.20057529555E+04  0.46999998093E+01 0. -1.
</event>
<event>
 5   0  0.7203049E-08  0.3699109E+04  0.7818609E-02  0.8068159E-01
        2   -1    0    0  501    0  0.00000000000E+00  0.00000000000E+00  0.19687601699E+04  0.19687601699E+04  0.25500000920E-02 0. -1.
       -2   -1    0    0    0  501  0.00000000000E+00  0.00000000000E+00 -0.17375661561E+04  0.17375661561E+04  0.25500000920E-02 0.  1.
    10030    2    1    2    0    0  0.00000000000E+00  0.00000000000E+00  0.23119401382E+03  0.37063263260E+04  0.36991085633E+04 0.  0.
        4    1    3    3  502    0  0.60833495999E+03 -0.24888068648E+03 -0.16166014583E+04  0.17451117178E+04  0.12699999809E+01 0.  1.
       -4    1    3    3    0  502 -0.60833495999E+03  0.24888068648E+03  0.18477954722E+04  0.19612146082E+04  0.12699999809E+01 0. -1.
</event>
<event>
 5   0  0.7362817E-08  0.3697707E+04  0.7818609E-02  0.8068470E-01
       -2   -1    0    0    0  501  0.00000000000E+00  0.00000000000E+00  0.32276853689E+04  0.32276853690E+04  0.25500000920E-02 0. -1.
        2   -1    0    0  501    0  0.00000000000E+00  0.00000000000E+00 -0.10590433517E+04  0.10590433517E+04  0.25500000920E-02 0.  1.
    10030    2    1    2    0    0  0.00000000000E+00  0.00000000000E+00  0.21686420172E+04  0.42867287207E+04  0.36977067117E+04 0.  0.
        1    1    3    3  502    0  0.15196067564E+03 -0.10695506623E+04  0.28237363104E+04  0.30233288635E+04  0.50400001928E-02 0. -1.
       -1    1    3    3    0  502 -0.15196067564E+03  0.10695506623E+04 -0.65509429316E+03  0.12633998572E+04  0.50400001928E-02 0.  1.
</event>
<event>
 5   0  0.2282000E-08  0.3702814E+04  0.7818609E-02  0.8067339E-01
        1   -1    0    0  501    0  0.00000000000E+00  0.00000000000E+00  0.22357043727E+04  0.22357043727E+04  0.50400001928E-02 0.  1.
       -1   -1    0    0    0  501  0.00000000000E+00  0.00000000000E+00 -0.15331665434E+04  0.15331665434E+04  0.50400001928E-02 0. -1.
    10030    2    1    2    0    0  0.00000000000E+00  0.00000000000E+00  0.70253782929E+03  0.37688709161E+04  0.37028136033E+04 0.  0.
        3    1    3    3  502    0 -0.54657165394E+03  0.17185422241E+04  0.77776586300E+03  0.19639367854E+04  0.10100000352E+00 0.  1.
       -3    1    3    3    0  502  0.54657165394E+03 -0.17185422241E+04 -0.75228033709E+02  0.18049341307E+04  0.10100000352E+00 0. -1.
</event>
<event>
 5   0  0.7254493E-08  0.3690361E+04  0.7818609E-02  0.8070101E-01
        2   -1    0    0  501    0  0.00000000000E+00  0.00000000000E+00  0.18616284781E+04  0.18616284781E+04  0.25500000920E-02 0.  1.
       -2   -1    0    0    0  501  0.00000000000E+00  0.00000000000E+00 -0.18288778614E+04  0.18288778614E+04  0.25500000920E-02 0. -1.
    10030    2    1    2    0    0  0.00000000000E+00  0.00000000000E+00  0.32750616691E+02  0.36905063396E+04  0.36903610175E+04 0.  0.
        3    1    3    3  502    0  0.15973449496E+04  0.76971953925E+03  0.52699510417E+03  0.18497845570E+04  0.10100000352E+00 0.  1.
       -3    1    3    3    0  502 -0.15973449496E+04 -0.76971953925E+03 -0.49424448748E+03  0.18407217826E+04  0.10100000352E+00 0. -1.
</event>
<event>
 5   0  0.2282000E-08  0.3679308E+04  0.7818609E-02  0.8072563E-01
        1   -1    0    0  501    0  0.00000000000E+00  0.00000000000E+00  0.10923213014E+04  0.10923213014E+04  0.50400001928E-02 0.  1.
       -1   -1    0    0    0  501  0.00000000000E+00  0.00000000000E+00 -0.30982879865E+04  0.30982879865E+04  0.50400001928E-02 0. -1.
    10030    2    1    2    0    0  0.00000000000E+00  0.00000000000E+00 -0.20059666850E+04  0.41906092879E+04  0.36793075248E+04 0.  0.
        3    1    3    3  502    0  0.47875685401E+03  0.84254880380E+03 -0.27840118952E+04  0.29478498698E+04  0.10100000352E+00 0. -1.
       -3    1    3    3    0  502 -0.47875685401E+03 -0.84254880380E+03  0.77804521015E+03  0.12427594181E+04  0.10100000352E+00 0.  1.
</event>
<event>
 5   0  0.2282000E-08  0.3702758E+04  0.7818609E-02  0.8067351E-01
       -1   -1    0    0    0  501  0.00000000000E+00  0.00000000000E+00  0.14288715954E+04  0.14288715954E+04  0.50400001928E-02 0. -1.
        1   -1    0    0  501    0  0.00000000000E+00  0.00000000000E+00 -0.23988194108E+04  0.23988194108E+04  0.50400001928E-02 0.  1.
    10030    2    1    2    0    0  0.00000000000E+00  0.00000000000E+00 -0.96994781536E+03  0.38276910062E+04  0.37027583873E+04 0.  0.
        5    1    3    3  502    0 -0.18032245730E+04 -0.13771208754E+03 -0.89457435575E+03  0.20176394246E+04  0.46999998093E+01 0.  1.
       -5    1    3    3    0  502  0.18032245730E+04  0.13771208754E+03 -0.75373459613E+02  0.18100515816E+04  0.46999998093E+01 0. -1.
</event>
<event>
 5   0  0.2282000E-08  0.3698324E+04  0.7818609E-02  0.8068333E-01
       -1   -1    0    0    0  501  0.00000000000E+00  0.00000000000E+00  0.22180362411E+04  0.22180362411E+04  0.50400001928E-02 0.  1.
        1   -1    0    0  501    0  0.00000000000E+00  0.00000000000E+00 -0.15416340480E+04  0.15416340480E+04  0.50400001928E-02 0. -1.
    10030    2    1    2    0    0  0.00000000000E+00  0.00000000000E+00  0.67640219303E+03  0.37596702891E+04  0.36983240469E+04 0.  0.
        1    1    3    3  502    0  0.15426568237E+04 -0.57333353587E+03  0.11953350132E+04  0.20340420873E+04  0.50400001928E-02 0.  1.
       -1    1    3    3    0  502 -0.15426568237E+04  0.57333353587E+03 -0.51893282016E+03  0.17256282018E+04  0.50400001928E-02 0. -1.
</event>
<event>
 5   0  0.2282000E-08  0.3693976E+04  0.7818609E-02  0.8069298E-01
       -1   -1    0    0    0  501  0.00000000000E+00  0.00000000000E+00  0.10898929437E+04  0.10898929437E+04  0.50400001928E-02 0.  1.
        1   -1    0    0  501    0  0.00000000000E+00  0.00000000000E+00 -0.31299990040E+04  0.31299990040E+04  0.50400001928E-02 0. -1.
    10030    2    1    2    0    0  0.00000000000E+00  0.00000000000E+00 -0.20401060603E+04  0.42198919477E+04  0.36939755431E+04 0.  0.
        1    1    3    3  502    0 -0.15027829792E+04 -0.39331755172E+03  0.12135175366E+03  0.15581340210E+04  0.50400001928E-02 0.  1.
       -1    1    3    3    0  502  0.15027829792E+04  0.39331755172E+03 -0.21614578139E+04  0.26617579267E+04  0.50400001928E-02 0. -1.
</event>
<event>
 5   0  0.7254493E-08  0.3696182E+04  0.7818609E-02  0.8068808E-01
       -2   -1    0    0    0  501  0.00000000000E+00  0.00000000000E+00  0.21714062614E+04  0.21714062614E+04  0.25500000920E-02 0.  1.
        2   -1    0    0  501    0  0.00000000000E+00  0.00000000000E+00 -0.15729164832E+04  0.15729164832E+04  0.25500000920E-02 0. -1.
    10030    2    1    2    0    0  0.00000000000E+00  0.00000000000E+00  0.59848977822E+03  0.37443227446E+04  0.36961821926E+04 0.  0.
        3    1    3    3  502    0 -0.26856218797E+03 -0.60792770846E+03 -0.14476683080E+04  0.15929360589E+04  0.10100000352E+00 0. -1.
       -3    1    3    3    0  502  0.26856218797E+03  0.60792770846E+03  0.20461580862E+04  0.21513866857E+04  0.10100000352E+00 0.  1.
</event>
<event>
 5   0  0.2282000E-08  0.3705605E+04  0.7818609E-02  0.8066721E-01
       -1   -1    0    0    0  501  0.00000000000E+00  0.00000000000E+00  0.11930790368E+04  0.11930790368E+04  0.50400001928E-02 0. -1.
        1   -1    0    0  501    0  0.00000000000E+00  0.00000000000E+00 -0.28773259507E+04  0.28773259507E+04  0.50400001928E-02 0.  1.
    10030    2    1    2    0    0  0.00000000000E+00  0.00000000000E+00 -0.16842469139E+04  0.40704049875E+04  0.37056050916E+04 0.  0.
        1    1    3    3  502    0  0.84931991120E+03  0.15598921108E+04 -0.14215672855E+04  0.22749640121E+04  0.50400001928E-02 0. -1.
       -1    1    3    3    0  502 -0.84931991120E+03 -0.15598921108E+04 -0.26267962835E+03  0.17954409754E+04  0.50400001928E-02 0.  1.
</event>
<event>
 5   0  0.2282000E-08  0.3713179E+04  0.7818609E-02  0.8065048E-01
        1   -1    0    0  501    0  0.00000000000E+00  0.00000000000E+00  0.21870856977E+04  0.21870856977E+04  0.50400001928E-02 0. -1.
       -1   -1    0    0    0  501  0.00000000000E+00  0.00000000000E+00 -0.15760351297E+04  0.15760351297E+04  0.50400001928E-02 0.  1.
    10030    2    1    2    0    0  0.00000000000E+00  0.00000000000E+00  0.61105056799E+03  0.37631208274E+04  0.37131786336E+04 0.  0.
        2    1    3    3  502    0  0.32089758596E+02 -0.15886736878E+04  0.12786536862E+04  0.20395757128E+04  0.25500000920E-02 0. -1.
       -2    1    3    3    0  502 -0.32089758596E+02  0.15886736878E+04 -0.66760311820E+03  0.17235451147E+04  0.25500000920E-02 0.  1.
</event>
<event>
 5   0  0.2282000E-08  0.3697177E+04  0.7818609E-02  0.8068588E-01
       -1   -1    0    0    0  501  0.00000000000E+00  0.00000000000E+00  0.29642260598E+04  0.29642260598E+04  0.50400001928E-02 0. -1.
        1   -1    0    0  501    0  0.00000000000E+00  0.00000000000E+00 -0.11528401382E+04  0.11528401382E+04  0.50400001928E-02 0.  1.
    10030    2    1    2    0    0  0.00000000000E+00  0.00000000000E+00  0.18113859216E+04  0.41170661981E+04  0.36971766420E+04 0.  0.
        5    1    3    3  502    0  0.10707282628E+04 -0.81723375068E+03  0.23155480538E+04  0.26788271492E+04  0.46999998093E+01 0. -1.
       -5    1    3    3    0  502 -0.10707282628E+04  0.81723375068E+03 -0.50416213220E+03  0.14382390488E+04  0.46999998093E+01 0.  1.
</event>
<event>
 5   0  0.7362817E-08  0.3702000E+04  0.7818609E-02  0.8067519E-01
       -2   -1    0    0    0  501  0.00000000000E+00  0.00000000000E+00  0.13530125738E+04  0.13530125738E+04  0.25500000920E-02 0. -1.
        2   -1    0    0  501    0  0.00000000000E+00  0.00000000000E+00 -0.25322752287E+04  0.25322752287E+04  0.25500000920E-02 0.  1.
    10030    2    1    2    0    0  0.00000000000E+00  0.00000000000E+00 -0.11792626549E+04  0.38852878025E+04  0.37019995811E+04 0.  0.
        1    1    3    3  502    0 -0.78210657950E+03  0.53903186322E+03 -0.22569843534E+04  0.24487189350E+04  0.50400001928E-02 0.  1.
       -1    1    3    3    0  502  0.78210657950E+03 -0.53903186322E+03  0.10777216985E+04  0.14365688674E+04  0.50400001928E-02 0. -1.
</event>
<event>
 5   0  0.7254493E-08  0.3696695E+04  0.7818609E-02  0.8068695E-01
        2   -1    0    0  501    0  0.00000000000E+00  0.00000000000E+00  0.19310480167E+04  0.19310480167E+04  0.25500000920E-02 0. -1.
       -2   -1    0    0    0  501  0.00000000000E+00  0.00000000000E+00 -0.17691892480E+04  0.17691892480E+04  0.25500000920E-02 0.  1.
    10030    2    1    2    0    0  0.00000000000E+00  0.00000000000E+00  0.16185876871E+03  0.37002372647E+04  0.36966954911E+04 0.  0.
        3    1    3    3  502    0  0.46520088191E+02 -0.68696039906E+03  0.17978893076E+04  0.19252232808E+04  0.10100000352E+00 0. -1.
       -3    1    3    3    0  502 -0.46520088191E+02  0.68696039906E+03 -0.16360305389E+04  0.17750139838E+04  0.10100000352E+00 0.  1.
</event>
<event>
 5   0  0.2282000E-08  0.3708052E+04  0.7818609E-02  0.8066180E-01
       -1   -1    0    0    0  501  0.00000000000E+00  0.00000000000E+00  0.17365942487E+04  0.17365942488E+04  0.50400001928E-02 0.  1.
        1   -1    0    0  501    0  0.00000000000E+00  0.00000000000E+00 -0.19793991625E+04  0.19793991625E+04  0.50400001928E-02 0. -1.
    10030    2    1    2    0    0  0.00000000000E+00  0.00000000000E+00 -0.24280491378E+03  0.37159934113E+04  0.37080524277E+04 0.  0.
        1    1    3    3  502    0 -0.16985728171E+04 -0.15271836122E+03  0.60743814403E+03  0.18103738873E+04  0.50400001928E-02 0.  1.
       -1    1    3    3    0  502  0.16985728171E+04  0.15271836122E+03 -0.85024305781E+03  0.19056195240E+04  0.50400001928E-02 0. -1.
</event>
<event>
 5   0  0.2282000E-08  0.3690721E+04  0.7818609E-02  0.8070021E-01
       -1   -1    0    0    0  501  0.00000000000E+00  0.00000000000E+00  0.18719668200E+04  0.18719668200E+04  0.50400001928E-02 0.  1.
        1   -1    0    0  501    0  0.00000000000E+00  0.00000000000E+00 -0.18191324731E+04  0.18191324731E+04  0.50400001928E-02 0. -1.
    10030    2    1    2    0    0  0.00000000000E+00  0.00000000000E+00  0.52834346883E+02  0.36910992931E+04  0.36907211387E+04 0.  0.
        2    1    3    3  502    0 -0.14137156721E+04  0.95038434765E+03  0.73609062738E+03  0.18557079031E+04  0.25500000920E-02 0.  1.
       -2    1    3    3    0  502  0.14137156721E+04 -0.95038434765E+03 -0.68325628050E+03  0.18353913900E+04  0.25500000920E-02 0. -1.
</event>
<event>
 5   0  0.2282000E-08  0.3687553E+04  0.7818609E-02  0.8070726E-01
       -1   -1    0    0    0  501  0.00000000000E+00  0.00000000000E+00  0.28771477624E+04  0.28771477624E+04  0.50400001928E-02 0.  1.
        1   -1    0    0  501    0  0.00000000000E+00  0.00000000000E+00 -0.11815564074E+04  0.11815564075E+04  0.50400001928E-02 0. -1.
    10030    2    1    2    0    0  0.00000000000E+00  0.00000000000E+00  0.16955913549E+04  0.40587041698E+04  0.36875533210E+04 0.  0.
        4    1    3    3  502    0  0.18213770809E+03 -0.30210715125E+03  0.28396576578E+04  0.28614856460E+04  0.12699999809E+01 0.  1.
       -4    1    3    3    0  502 -0.18213770809E+03  0.30210715125E+03 -0.11440663029E+04  0.11972185239E+04  0.12699999809E+01 0. -1.
</event>
<event>
 5   0  0.2282000E-08  0.3695379E+04  0.7818609E-02  0.8068987E-01
       -1   -1    0    0    0  501  0.00000000000E+00  0.00000000000E+00  0.17147021614E+04  0.17147021614E+04  0.50400001928E-02 0.  1.
        1   -1    0    0  501    0  0.00000000000E+00  0.00000000000E+00 -0.19909912795E+04  0.19909912795E+04  0.50400001928E-02 0. -1.
    10030    2    1    2    0    0  0.00000000000E+00  0.00000000000E+00 -0.27628911817E+03  0.37056934409E+04  0.36953793041E+04 0.  0.
        3    1    3    3  502    0  0.15299350879E+04 -0.51033258130E+03 -0.10422241699E+04  0.19202530946E+04  0.10100000352E+00 0. -1.
       -3    1    3    3    0  502 -0.15299350879E+04  0.51033258130E+03  0.76593505177E+03  0.17854403463E+04  0.10100000352E+00 0.  1.
</event>
<event>
 5   0  0.2282000E-08  0.3719993E+04  0.7818609E-02  0.8063546E-01
       -1   -1    0    0    0  501  0.00000000000E+00  0.00000000000E+00  0.11444491596E+04  0.11444491596E+04  0.50400001928E-02 0. -1.
        1   -1    0    0  501    0  0.00000000000E+00  0.00000000000E+00 -0.30229271010E+04  0.30229271010E+04  0.50400001928E-02 0.  1.
    10030    2    1    2    0    0  0.00000000000E+00  0.00000000000E+00 -0.18784779414E+04  0.41673762606E+04  0.37199926776E+04 0.  0.
        1    1    3    3  502    0 -0.14319068493E+04  0.98864246746E+03 -0.20308339708E+03  0.17518601599E+04  0.50400001928E-02 0. -1.
       -1    1    3    3    0  502  0.14319068493E+04 -0.98864246746E+03 -0.16753945444E+04  0.24155161007E+04  0.50400001928E-02 0.  1.
</event>
<event>
 5   0  0.7203049E-08  0.3701751E+04  0.7818609E-02  0.8067574E-01
       -2   -1    0    0    0  501  0.00000000000E+00  0.00000000000E+00  0.11500599273E+04  0.11500599273E+04  0.25500000920E-02 0.  1.
        2   -1    0    0  501    0  0.00000000000E+00  0.00000000000E+00 -0.29787486096E+04  0.29787486096E+04  0.25500000920E-02 0. -1.
    10030    2    1    2    0    0  0.00000000000E+00  0.00000000000E+00 -0.18286886823E+04  0.41288085369E+04  0.37017506180E+04 0.  0.
        4    1    3    3  502    0 -0.70032254337E+03 -0.70804037118E+03  0.82575782534E+03  0.12936964215E+04  0.12699999809E+01 0. -1.
       -4    1    3    3    0  502  0.70032254337E+03  0.70804037118E+03 -0.26544465077E+04  0.28351121154E+04  0.12699999809E+01 0.  1.
</event>
<event>
 5   0  0.7203049E-08  0.3778673E+04  0.7818609E-02  0.8050747E-01
        2   -1    0    0  501    0  0.00000000000E+00  0.00000000000E+00  0.10257282475E+04  0.10257282475E+04  0.25500000920E-02 0.  1.
       -2   -1    0    0    0  501  0.00000000000E+00  0.00000000000E+00 -0.34800564758E+04  0.34800564758E+04  0.25500000920E-02 0. -1.
    10030    2    1    2    0    0  0.00000000000E+00  0.00000000000E+00 -0.24543282282E+04  0.45057847233E+04  0.37786729047E+04 0.  0.
        4    1    3    3  502    0  0.41270085531E+03  0.12576699672E+04  0.38041559237E+03  0.13772339592E+04  0.12699999809E+01 0.  1.
       -4    1    3    3    0  502 -0.41270085531E+03 -0.12576699672E+04 -0.28347438206E+04  0.31285507641E+04  0.12699999809E+01 0. -1.
</event>
<event>
 5   0  0.2282000E-08  0.3684045E+04  0.7818609E-02  0.8071507E-01
       -1   -1    0    0    0  501  0.00000000000E+00  0.00000000000E+00  0.25091940332E+04  0.25091940332E+04  0.50400001928E-02 0. -1.
        1   -1    0    0  501    0  0.00000000000E+00  0.00000000000E+00 -0.13522457511E+04  0.13522457512E+04  0.50400001928E-02 0.  1.
    10030    2    1    2    0    0  0.00000000000E+00  0.00000000000E+00  0.11569482821E+04  0.38614397844E+04  0.36840450433E+04 0.  0.
        3    1    3    3  502    0  0.16615588988E+04 -0.57857166699E+03  0.11501965307E+04  0.21020169403E+04  0.10100000352E+00 0. -1.
       -3    1    3    3    0  502 -0.16615588988E+04  0.57857166699E+03  0.67517513553E+01  0.17594228441E+04  0.10100000352E+00 0.  1.
</event>
<event>
 5   0  0.2282000E-08  0.3699793E+04  0.7818609E-02  0.8068008E-01
       -1   -1    0    0    0  501  0.00000000000E+00  0.00000000000E+00  0.20343921860E+04  0.20343921860E+04  0.50400001928E-02 0.  1.
        1   -1    0    0  501    0  0.00000000000E+00  0.00000000000E+00 -0.16821328563E+04  0.16821328563E+04  0.50400001928E-02 0. -1.
    10030    2    1    2    0    0  0.00000000000E+00  0.00000000000E+00  0.35225932971E+03  0.37165250422E+04  0.36997934745E+04 0.  0.
        4    1    3    3  502    0  0.98317058888E+03  0.34337601091E+03  0.17119601078E+04  0.20038314588E+04  0.12699999809E+01 0.  1.
       -4    1    3    3    0  502 -0.98317058888E+03 -0.34337601091E+03 -0.13597007781E+04  0.17126935834E+04  0.12699999809E+01 0. -1.
</event>
<event>
 5   0  0.7203049E-08  0.3701511E+04  0.7818609E-02  0.8067627E-01
       -2   -1    0    0    0  501  0.00000000000E+00  0.00000000000E+00  0.18429175946E+04  0.18429175946E+04  0.25500000920E-02 0. -1.
        2   -1    0    0  501    0  0.00000000000E+00  0.00000000000E+00 -0.18586264916E+04  0.18586264916E+04  0.25500000920E-02 0.  1.
    10030    2    1    2    0    0  0.00000000000E+00  0.00000000000E+00 -0.15708896998E+02  0.37015440863E+04  0.37015107528E+04 0.  0.
        4    1    3    3  502    0  0.61523809181E+03  0.11524157897E+04  0.13031546071E+04  0.18452082822E+04  0.12699999809E+01 0. -1.
       -4    1    3    3    0  502 -0.61523809181E+03 -0.11524157897E+04 -0.13188635041E+04  0.18563358040E+04  0.12699999809E+01 0.  1.
</event>
<event>
 5   0  0.7203049E-08  0.3701631E+04  0.7818609E-02  0.8067601E-01
       -2   -1    0    0    0  501  0.00000000000E+00  0.00000000000E+00  0.14885934513E+04  0.14885934513E+04  0.25500000920E-02 0. -1.
        2   -1    0    0  501    0  0.00000000000E+00  0.00000000000E+00 -0.23011771541E+04  0.23011771541E+04  0.25500000920E-02 0.  1.
    10030    2    1    2    0    0  0.00000000000E+00  0.00000000000E+00 -0.81258370280E+03  0.37897706055E+04  0.37016305823E+04 0.  0.
        4    1    3    3  502    0 -0.27384111817E+03  0.19508628207E+03 -0.22696472458E+04  0.22944166685E+04  0.12699999809E+01 0.  1.
       -4    1    3    3    0  502  0.27384111817E+03 -0.19508628207E+03  0.14570635430E+04  0.14953539369E+04  0.12699999809E+01 0. -1.
</event>
<event>
 5   0  0.7191801E-08  0.3701445E+04  0.7818609E-02  0.8067642E-01
        2   -1    0    0  501    0  0.00000000000E+00  0.00000000000E+00  0.22109517661E+04  0.22109517661E+04  0.25500000920E-02 0. -1.
       -2   -1    0    0    0  501  0.00000000000E+00  0.00000000000E+00 -0.15491848410E+04  0.15491848410E+04  0.25500000920E-02 0.  1.
    10030    2    1    2    0    0  0.00000000000E+00  0.00000000000E+00  0.66176692511E+03  0.37601366072E+04  0.37014445614E+04 0.  0.
        5    1    3    3  502    0  0.65819330514E+03  0.95863657666E+03  0.17934869869E+04  0.21374798655E+04  0.46999998093E+01 0. -1.
       -5    1    3    3    0  502 -0.65819330514E+03 -0.95863657666E+03 -0.11317200618E+04  0.16226567417E+04  0.46999998093E+01 0.  1.
</event>
<event>
 5   0  0.7362817E-08  0.3700569E+04  0.7818609E-02  0.8067836E-01
       -2   -1    0    0    0  501  0.00000000000E+00  0.00000000000E+00  0.16634048219E+04  0.16634048219E+04  0.25500000920E-02 0.  1.
        2   -1    0    0  501    0  0.00000000000E+00  0.00000000000E+00 -0.20581601272E+04  0.20581601272E+04  0.25500000920E-02 0. -1.
    10030    2    1    2    0    0  0.00000000000E+00  0.00000000000E+00 -0.39475530533E+03  0.37215649491E+04  0.37005694048E+04 0.  0.
        1    1    3    3  502    0 -0.15362798519E+04  0.84299982915E+03 -0.79467410458E+03  0.19241391394E+04  0.50400001928E-02 0. -1.
       -1    1    3    3    0  502  0.15362798519E+04 -0.84299982915E+03  0.39991879925E+03  0.17974258097E+04  0.50400001928E-02 0.  1.
</event>
<event>
 5   0  0.2282000E-08  0.3692118E+04  0.7818609E-02  0.8069711E-01
        3   -1    0    0  501    0  0.00000000000E+00  0.00000000000E+00  0.27191890442E+04  0.27191890461E+04  0.10100000352E+00 0. -1.
       -3   -1    0    0    0  501  0.00000000000E+00  0.00000000000E+00 -0.12532907229E+04  0.12532907269E+04  0.10100000352E+00 0.  1.
    10030    2    1    2    0    0  0.00000000000E+00  0.00000000000E+00  0.14658983213E+04  0.39724797730E+04  0.36921183159E+04 0.  0.
        4    1    3    3  502    0 -0.12087972890E+04 -0.12792472453E+04  0.13363455952E+03  0.17650847597E+04  0.12699999809E+01 0.  1.
       -4    1    3    3    0  502  0.12087972890E+04  0.12792472453E+04  0.13322637618E+04  0.22073950133E+04  0.12699999809E+01 0. -1.
</event>
<event>
 5   0  0.7191801E-08  0.3699155E+04  0.7818609E-02  0.8068149E-01
       -2   -1    0    0    0  501  0.00000000000E+00  0.00000000000E+00  0.17493075469E+04  0.17493075469E+04  0.25500000920E-02 0.  1.
        2   -1    0    0  501    0  0.00000000000E+00  0.00000000000E+00 -0.19555946984E+04  0.19555946984E+04  0.25500000920E-02 0. -1.
    10030    2    1    2    0    0  0.00000000000E+00  0.00000000000E+00 -0.20628715153E+03  0.37049022452E+04  0.36991548032E+04 0.  0.
        5    1    3    3  502    0  0.10855695467E+04 -0.44911187231E+03 -0.15339119673E+04  0.19321156094E+04  0.46999998093E+01 0. -1.
       -5    1    3    3    0  502 -0.10855695467E+04  0.44911187231E+03  0.13276248158E+04  0.17727866358E+04  0.46999998093E+01 0.  1.
</event>
<event>
 5   0  0.2282000E-08  0.3704924E+04  0.7818609E-02  0.8066872E-01
       -1   -1    0    0    0  501  0.00000000000E+00  0.00000000000E+00  0.21401253895E+04  0.21401253895E+04  0.50400001928E-02 0.  1.
        1   -1    0    0  501    0  0.00000000000E+00  0.00000000000E+00 -0.16034643996E+04  0.16034643996E+04  0.50400001928E-02 0. -1.
    10030    2    1    2    0    0  0.00000000000E+00  0.00000000000E+00  0.53666098987E+03  0.37435897891E+04  0.37049236822E+04 0.  0.
        2    1    3    3  502    0  0.15038967462E+04 -0.87571976965E+03 -0.37313695296E+03  0.17798375555E+04  0.25500000920E-02 0. -1.
       -2    1    3    3    0  502 -0.15038967462E+04  0.87571976965E+03  0.90979794282E+03  0.19637522336E+04  0.25500000920E-02 0.  1.
</event>
<event>
 5   0  0.7191801E-08  0.3692830E+04  0.7818609E-02  0.8069553E-01
        2   -1    0    0  501    0  0.00000000000E+00  0.00000000000E+00  0.22170472240E+04  0.22170472240E+04  0.25500000920E-02 0. -1.
       -2   -1    0    0    0  501  0.00000000000E+00  0.00000000000E+00 -0.15377428295E+04  0.15377428295E+04  0.25500000920E-02 0.  1.
    10030    2    1    2    0    0  0.00000000000E+00  0.00000000000E+00  0.67930439448E+03  0.37547900535E+04  0.36928300646E+04 0.  0.
        5    1    3    3  502    0 -0.15421074312E+03  0.52901859256E+03  0.21314872534E+04  0.22015679926E+04  0.46999998093E+01 0. -1.
       -5    1    3    3    0  502  0.15421074312E+03 -0.52901859256E+03 -0.14521828590E+04  0.15532220609E+04  0.46999998093E+01 0.  1.
</event>
<event>
 5   0  0.2282000E-08  0.3639337E+04  0.7818609E-02  0.8081540E-01
       -1   -1    0    0    0  501  0.00000000000E+00  0.00000000000E+00  0.15117479051E+04  0.15117479051E+04  0.50400001928E-02 0.  1.
        1   -1    0    0  501    0  0.00000000000E+00  0.00000000000E+00 -0.21903080502E+04  0.21903080502E+04  0.50400001928E-02 0. -1.
    10030    2    1    2    0    0  0.00000000000E+00  0.00000000000E+00 -0.67856014511E+03  0.37020559554E+04  0.36393370861E+04 0.  0.
        3    1    3    3  502    0  0.32992750282E+03 -0.94712292600E+03 -0.18837675210E+04  0.21341213830E+04  0.10100000352E+00 0. -1.
       -3    1    3    3    0  502 -0.32992750282E+03  0.94712292600E+03  0.12052073759E+04  0.15679345724E+04  0.10100000352E+00 0.  1.
</event>
<event>
 5   0  0.2282000E-08  0.3697994E+04  0.7818609E-02  0.8068407E-01
        1   -1    0    0  501    0  0.00000000000E+00  0.00000000000E+00  0.31071233416E+04  0.31071233416E+04  0.50400001928E-02 0. -1.
       -1   -1    0    0    0  501  0.00000000000E+00  0.00000000000E+00 -0.11003070579E+04  0.11003070579E+04  0.50400001928E-02 0.  1.
    10030    2    1    2    0    0  0.00000000000E+00  0.00000000000E+00  0.20068162837E+04  0.42074303995E+04  0.36979939116E+04 0.  0.
        4    1    3    3  502    0 -0.17987308096E+02  0.66680586072E+03  0.29654539769E+04  0.30395513651E+04  0.12699999809E+01 0. -1.
       -4    1    3    3    0  502  0.17987308096E+02 -0.66680586072E+03 -0.95863769327E+03  0.11678790344E+04  0.12699999809E+01 0.  1.
</event>
<event>
 5   0  0.2282000E-08  0.3701883E+04  0.7818609E-02  0.8067545E-01
       -1   -1    0    0    0  501  0.00000000000E+00  0.00000000000E+00  0.20242571269E+04  0.20242571269E+04  0.50400001928E-02 0. -1.
        1   -1    0    0  501    0  0.00000000000E+00  0.00000000000E+00 -0.16924647389E+04  0.16924647389E+04  0.50400001928E-02 0.  1.
    10030    2    1    2    0    0  0.00000000000E+00  0.00000000000E+00  0.33179238802E+03  0.37167218658E+04  0.37018826614E+04 0.  0.
        3    1    3    3  502    0  0.16881640559E+04  0.45753230850E+02  0.92655613627E+03  0.19262651743E+04  0.10100000352E+00 0. -1.
       -3    1    3    3    0  502 -0.16881640559E+04 -0.45753230850E+02 -0.59476374824E+03  0.17904566915E+04  0.10100000352E+00 0.  1.
</event>
<event>
 5   0  0.2282000E-08  0.3675486E+04  0.7818609E-02  0.8073416E-01
       -1   -1    0    0    0  501  0.00000000000E+00  0.00000000000E+00  0.13155855967E+04  0.13155855967E+04  0.50400001928E-02 0.  1.
        1   -1    0    0  501    0  0.00000000000E+00  0.00000000000E+00 -0.25671453167E+04  0.25671453167E+04  0.50400001928E-02 0. -1.
    10030    2    1    2    0    0  0.00000000000E+00  0.00000000000E+00 -0.12515597200E+04  0.38827309134E+04  0.36754860376E+04 0.  0.
        3    1    3    3  502    0 -0.25349985959E+03  0.13895259047E+04  0.61620584415E+03  0.15410237089E+04  0.10100000352E+00 0.  1.
       -3    1    3    3    0  502  0.25349985959E+03 -0.13895259047E+04 -0.18677655642E+04  0.23417072045E+04  0.10100000352E+00 0. -1.
</event>
<event>
 5   0  0.7309833E-08  0.3716245E+04  0.7818609E-02  0.8064371E-01
        2   -1    0    0  501    0  0.00000000000E+00  0.00000000000E+00  0.20663808131E+04  0.20663808131E+04  0.25500000920E-02 0. -1.
       -2   -1    0    0    0  501  0.00000000000E+00  0.00000000000E+00 -0.16708533657E+04  0.16708533657E+04  0.25500000920E-02 0.  1.
    10030    2    1    2    0    0  0.00000000000E+00  0.00000000000E+00  0.39552744745E+03  0.37372341788E+04  0.37162450600E+04 0.  0.
        2    1    3    3  502    0  0.28061592110E+03 -0.11179753127E+04 -0.12678642959E+04  0.17135034193E+04  0.25500000920E-02 0.  1.
       -2    1    3    3    0  502 -0.28061592110E+03  0.11179753127E+04  0.16633917434E+04  0.20237307595E+04  0.25500000920E-02 0. -1.
</event>
<event>
 5   0  0.2282000E-08  0.3686880E+04  0.7818609E-02  0.8070876E-01
        1   -1    0    0  501    0  0.00000000000E+00  0.00000000000E+00  0.25980617616E+04  0.25980617616E+04  0.50400001928E-02 0. -1.
       -1   -1    0    0    0  501  0.00000000000E+00  0.00000000000E+00 -0.13080026556E+04  0.13080026556E+04  0.50400001928E-02 0.  1.
    10030    2    1    2    0    0  0.00000000000E+00  0.00000000000E+00  0.12900591060E+04  0.39060644172E+04  0.36868803526E+04 0.  0.
        5    1    3    3  502    0 -0.14841679945E+04  0.76589925644E+03  0.14717352874E+04  0.22260689911E+04  0.46999998093E+01 0. -1.
       -5    1    3    3    0  502  0.14841679945E+04 -0.76589925644E+03 -0.18167618143E+03  0.16799954261E+04  0.46999998093E+01 0.  1.
</event>
<event>
 5   0  0.2282000E-08  0.3702393E+04  0.7818609E-02  0.8067432E-01
        1   -1    0    0  501    0  0.00000000000E+00  0.00000000000E+00  0.21591660162E+04  0.21591660162E+04  0.50400001928E-02 0.  1.
       -1   -1    0    0    0  501  0.00000000000E+00  0.00000000000E+00 -0.15871539198E+04  0.15871539198E+04  0.50400001928E-02 0. -1.
    10030    2    1    2    0    0  0.00000000000E+00  0.00000000000E+00  0.57201209636E+03  0.37463199360E+04  0.37023931753E+04 0.  0.
        2    1    3    3  502    0  0.49412194604E+02 -0.17372478604E+04 -0.35909788605E+03  0.17746613720E+04  0.25500000920E-02 0.  1.
       -2    1    3    3    0  502 -0.49412194604E+02  0.17372478604E+04  0.93110998240E+03  0.19716585640E+04  0.25500000920E-02 0. -1.
</event>
<event>
 5   0  0.2282000E-08  0.3691354E+04  0.7818609E-02  0.8069881E-01
        1   -1    0    0  501    0  0.00000000000E+00  0.00000000000E+00  0.13723905646E+04  0.13723905647E+04  0.50400001928E-02 0.  1.
       -1   -1    0    0    0  501  0.00000000000E+00  0.00000000000E+00 -0.24821818960E+04  0.24821818960E+04  0.50400001928E-02 0. -1.
    10030    2    1    2    0    0  0.00000000000E+00  0.00000000000E+00 -0.11097913314E+04  0.38545724607E+04  0.36913536887E+04 0.  0.
        3    1    3    3  502    0 -0.11199186618E+04 -0.65913332657E+03  0.81372463919E+03  0.15332391691E+04  0.10100000352E+00 0.  1.
       -3    1    3    3    0  502  0.11199186618E+04  0.65913332657E+03 -0.19235159706E+04  0.23213332915E+04  0.10100000352E+00 0. -1.
</event>
<event>
 5   0  0.7362817E-08  0.3698280E+04  0.7818609E-02  0.8068343E-01
       -2   -1    0    0    0  501  0.00000000000E+00  0.00000000000E+00  0.29905818949E+04  0.29905818949E+04  0.25500000920E-02 0. -1.
        2   -1    0    0  501    0  0.00000000000E+00  0.00000000000E+00 -0.11433625800E+04  0.11433625800E+04  0.25500000920E-02 0.  1.
    10030    2    1    2    0    0  0.00000000000E+00  0.00000000000E+00  0.18472193150E+04  0.41339444749E+04  0.36982803739E+04 0.  0.
        1    1    3    3  502    0 -0.27008404148E+03  0.63499394598E+03 -0.99404986462E+03  0.12100817469E+04  0.50400001928E-02 0.  1.
       -1    1    3    3    0  502  0.27008404148E+03 -0.63499394598E+03  0.28412691796E+04  0.29238627279E+04  0.50400001928E-02 0. -1.
</event>
<event>
 5   0  0.7309833E-08  0.3698832E+04  0.7818609E-02  0.8068221E-01
       -2   -1    0    0    0  501  0.00000000000E+00  0.00000000000E+00  0.14614771715E+04  0.14614771715E+04  0.25500000920E-02 0.  1.
        2   -1    0    0  501    0  0.00000000000E+00  0.00000000000E+00 -0.23403304225E+04  0.23403304225E+04  0.25500000920E-02 0. -1.
    10030    2    1    2    0    0  0.00000000000E+00  0.00000000000E+00 -0.87885325107E+03  0.38018075940E+04  0.36988319703E+04 0.  0.
        2    1    3    3  502    0 -0.12147838844E+04 -0.13286051198E+04 -0.40201477093E+01  0.18002520967E+04  0.25500000920E-02 0. -1.
       -2    1    3    3    0  502  0.12147838844E+04  0.13286051198E+04 -0.87483310337E+03  0.20015554973E+04  0.25500000920E-02 0.  1.
</event>
<event>
 5   0  0.2282000E-08  0.3700681E+04  0.7818609E-02  0.8067811E-01
       -1   -1    0    0    0  501  0.00000000000E+00  0.00000000000E+00  0.30201194947E+04  0.30201194947E+04  0.50400001928E-02 0. -1.
        1   -1    0    0  501    0  0.00000000000E+00  0.00000000000E+00 -0.11336502898E+04  0.11336502898E+04  0.50400001928E-02 0.  1.
    10030    2    1    2    0    0  0.00000000000E+00  0.00000000000E+00  0.18864692049E+04  0.41537697845E+04  0.37006806620E+04 0.  0.
        3    1    3    3  502    0  0.18518524975E+03  0.17186794844E+04  0.20242256673E+03  0.17404389252E+04  0.10100000352E+00 0.  1.
       -3    1    3    3    0  502 -0.18518524975E+03 -0.17186794844E+04  0.16840466382E+04  0.24133308593E+04  0.10100000352E+00 0. -1.
</event>
<event>
 5   0  0.7362817E-08  0.3703858E+04  0.7818609E-02  0.8067107E-01
        2   -1    0    0  501    0  0.00000000000E+00  0.00000000000E+00  0.12515262495E+04  0.12515262495E+04  0.25500000920E-02 0. -1.
       -2   -1    0    0    0  501  0.00000000000E+00  0.00000000000E+00 -0.27403670789E+04  0.27403670789E+04  0.25500000920E-02 0.  1.
    10030    2    1    2    0    0  0.00000000000E+00  0.00000000000E+00 -0.14888408294E+04  0.39918933284E+04  0.37038581682E+04 0.  0.
        1    1    3    3  502    0 -0.12149326032E+04 -0.56811824691E+03  0.63192622970E+03  0.14826160436E+04  0.50400001928E-02 0. -1.
       -1    1    3    3    0  502  0.12149326032E+04  0.56811824691E+03 -0.21207670591E+04  0.25092772848E+04  0.50400001928E-02 0.  1.
</event>
<event>
 5   0  0.2282000E-08  0.3697965E+04  0.7818609E-02  0.8068413E-01
        1   -1    0    0  501    0  0.00000000000E+00  0.00000000000E+00  0.24242036616E+04  0.24242036616E+04  0.50400001928E-02 0. -1.
       -1   -1    0    0    0  501  0.00000000000E+00  0.00000000000E+00 -0.14102514543E+04  0.14102514543E+04  0.50400001928E-02 0.  1.
    10030    2    1    2    0    0  0.00000000000E+00  0.00000000000E+00  0.10139522073E+04  0.38344551159E+04  0.36979652456E+04 0.  0.
        1    1    3    3  502    0 -0.15190135430E+04  0.10323790046E+04  0.28572726109E+03  0.18587223087E+04  0.50400001928E-02 0.  1.
       -1    1    3    3    0  502  0.15190135430E+04 -0.10323790046E+04  0.72822494620E+03  0.19757328072E+04  0.50400001928E-02 0. -1.
</event>
<event>
 5   0  0.2282000E-08  0.3691268E+04  0.7818609E-02  0.8069900E-01
       -1   -1    0    0    0  501  0.00000000000E+00  0.00000000000E+00  0.16823194629E+04  0.16823194629E+04  0.50400001928E-02 0. -1.
        1   -1    0    0  501    0  0.00000000000E+00  0.00000000000E+00 -0.20248022107E+04  0.20248022107E+04  0.50400001928E-02 0.  1.
    10030    2    1    2    0    0  0.00000000000E+00  0.00000000000E+00 -0.34248274785E+03  0.37071216736E+04  0.36912676238E+04 0.  0.
        3    1    3    3  502    0 -0.22671610168E+02 -0.25177212000E+03 -0.20073335431E+04  0.20231883664E+04  0.10100000352E+00 0.  1.
       -3    1    3    3    0  502  0.22671610168E+02  0.25177212000E+03  0.16648507953E+04  0.16839333072E+04  0.10100000352E+00 0. -1.
</event>
<event>
 5   0  0.7203049E-08  0.3701211E+04  0.7818609E-02  0.8067694E-01
        2   -1    0    0  501    0  0.00000000000E+00  0.00000000000E+00  0.13052766889E+04  0.13052766889E+04  0.25500000920E-02 0. -1.
       -2   -1    0    0    0  501  0.00000000000E+00  0.00000000000E+00 -0.26237654191E+04  0.26237654191E+04  0.25500000920E-02 0.  1.
    10030    2    1    2    0    0  0.00000000000E+00  0.00000000000E+00 -0.13184887302E+04  0.39290421080E+04  0.37012105256E+04 0.  0.
        4    1    3    3  502    0  0.19954618268E+03  0.12599294880E+04  0.76399192777E+03  0.14869183812E+04  0.12699999809E+01 0. -1.
       -4    1    3    3    0  502 -0.19954618268E+03 -0.12599294880E+04 -0.20824806579E+04  0.24421237268E+04  0.12699999809E+01 0.  1.
</event>
<event>
 5   0  0.2282000E-08  0.3692907E+04  0.7818609E-02  0.8069535E-01
       -4   -1    0    0    0  501  0.00000000000E+00  0.00000000000E+00  0.23138165254E+04  0.23138168740E+04  0.12699999809E+01 0. -1.
        4   -1    0    0  501    0  0.00000000000E+00  0.00000000000E+00 -0.14734916556E+04  0.14734922029E+04  0.12699999809E+01 0.  1.
    10030    2    1    2    0    0  0.00000000000E+00  0.00000000000E+00  0.84032486986E+03  0.37873090768E+04  0.36929072770E+04 0.  0.
        5    1    3    3  502    0  0.50738879308E+03 -0.39827697447E+03  0.21945052887E+04  0.22873441997E+04  0.46999998093E+01 0. -1.
       -5    1    3    3    0  502 -0.50738879308E+03  0.39827697447E+03 -0.13541804189E+04  0.14999648771E+04  0.46999998093E+01 0.  1.
</event>
<event>
 5   0  0.7362817E-08  0.3701613E+04  0.7818609E-02  0.8067604E-01
       -2   -1    0    0    0  501  0.00000000000E+00  0.00000000000E+00  0.14837564894E+04  0.14837564894E+04  0.25500000920E-02 0. -1.
        2   -1    0    0  501    0  0.00000000000E+00  0.00000000000E+00 -0.23086572511E+04  0.23086572511E+04  0.25500000920E-02 0.  1.
    10030    2    1    2    0    0  0.00000000000E+00  0.00000000000E+00 -0.82490076167E+03  0.37924137405E+04  0.37016132581E+04 0.  0.
        1    1    3    3  502    0 -0.88287194880E+02 -0.90343219587E+03 -0.20649320581E+04  0.22556437586E+04  0.50400001928E-02 0.  1.
       -1    1    3    3    0  502  0.88287194880E+02  0.90343219587E+03  0.12400312964E+04  0.15367699819E+04  0.50400001928E-02 0. -1.
</event>
<event>
 5   0  0.7191801E-08  0.3608945E+04  0.7818609E-02  0.8088446E-01
       -2   -1    0    0    0  501  0.00000000000E+00  0.00000000000E+00  0.34564006816E+04  0.34564006816E+04  0.25500000920E-02 0. -1.
        2   -1    0    0  501    0  0.00000000000E+00  0.00000000000E+00 -0.94205517137E+03  0.94205517138E+03  0.25500000920E-02 0.  1.
    10030    2    1    2    0    0  0.00000000000E+00  0.00000000000E+00  0.25143455102E+04  0.43984558530E+04  0.36089445196E+04 0.  0.
        5    1    3    3  502    0 -0.11392215859E+04 -0.46915525525E+03  0.28639867413E+04  0.31177515327E+04  0.46999998093E+01 0. -1.
       -5    1    3    3    0  502  0.11392215859E+04  0.46915525525E+03 -0.34964123111E+03  0.12807043202E+04  0.46999998093E+01 0.  1.
</event>
<event>
 5   0  0.7203049E-08  0.3708889E+04  0.7818609E-02  0.8065995E-01
        2   -1    0    0  501    0  0.00000000000E+00  0.00000000000E+00  0.21148980186E+04  0.21148980186E+04  0.25500000920E-02 0.  1.
       -2   -1    0    0    0  501  0.00000000000E+00  0.00000000000E+00 -0.16260664596E+04  0.16260664596E+04  0.25500000920E-02 0. -1.
    10030    2    1    2    0    0  0.00000000000E+00  0.00000000000E+00  0.48883155908E+03  0.37409644782E+04  0.37088891779E+04 0.  0.
        4    1    3    3  502    0 -0.15541159168E+04  0.16071539643E+03  0.12519828577E+04  0.20021409567E+04  0.12699999809E+01 0.  1.
       -4    1    3    3    0  502  0.15541159168E+04 -0.16071539643E+03 -0.76315129867E+03  0.17388235215E+04  0.12699999809E+01 0. -1.
</event>
<event>
 5   0  0.2282000E-08  0.3698047E+04  0.7818609E-02  0.8068395E-01
       -1   -1    0    0    0  501  0.00000000000E+00  0.00000000000E+00  0.10064155731E+04  0.10064155731E+04  0.50400001928E-02 0.  1.
        1   -1    0    0  501    0  0.00000000000E+00  0.00000000000E+00 -0.33970926837E+04  0.33970926837E+04  0.50400001928E-02 0. -1.
    10030    2    1    2    0    0  0.00000000000E+00  0.00000000000E+00 -0.23906771106E+04  0.44035082568E+04  0.36980465006E+04 0.  0.
        3    1    3    3  502    0  0.14658510592E+04 -0.69629099327E+03 -0.22505927861E+04  0.27746546405E+04  0.10100000352E+00 0. -1.
       -3    1    3    3    0  502 -0.14658510592E+04  0.69629099327E+03 -0.14008432444E+03  0.16288536163E+04  0.10100000352E+00 0.  1.
</event>
<event>
 5   0  0.2282000E-08  0.3698243E+04  0.7818609E-02  0.8068351E-01
        1   -1    0    0  501    0  0.00000000000E+00  0.00000000000E+00  0.15033327833E+04  0.15033327833E+04  0.50400001928E-02 0. -1.
       -1   -1    0    0    0  501  0.00000000000E+00  0.00000000000E+00 -0.22744464583E+04  0.22744464583E+04  0.50400001928E-02 0.  1.
    10030    2    1    2    0    0  0.00000000000E+00  0.00000000000E+00 -0.77111367492E+03  0.37777792416E+04  0.36982427853E+04 0.  0.
        3    1    3    3  502    0  0.17480359539E+04  0.60127281111E+03 -0.43227024269E+03  0.18984246792E+04  0.10100000352E+00 0.  1.
       -3    1    3    3    0  502 -0.17480359539E+04 -0.60127281111E+03 -0.33884343223E+03  0.18793545624E+04  0.10100000352E+00 0. -1.
</event>
<event>
 5   0  0.7254493E-08  0.3700949E+04  0.7818609E-02  0.8067752E-01
        2   -1    0    0  501    0  0.00000000000E+00  0.00000000000E+00  0.27587524737E+04  0.27587524737E+04  0.25500000920E-02 0. -1.
       -2   -1    0    0    0  501  0.00000000000E+00  0.00000000000E+00 -0.12412334022E+04  0.12412334022E+04  0.25500000920E-02 0.  1.
    10030    2    1    2    0    0  0.00000000000E+00  0.00000000000E+00  0.15175190715E+04  0.39999858760E+04  0.37009489156E+04 0.  0.
        3    1    3    3  502    0  0.83329275897E+03 -0.10091331364E+04 -0.65520176647E+03  0.14635627332E+04  0.10100000352E+00 0.  1.
       -3    1    3    3    0  502 -0.83329275897E+03  0.10091331364E+04  0.21727208379E+04  0.25364231427E+04  0.10100000352E+00 0. -1.
</event>
<event>
 5   0  0.7203049E-08  0.3713456E+04  0.7818609E-02  0.8064986E-01
       -2   -1    0    0    0  501  0.00000000000E+00  0.00000000000E+00  0.13916122458E+04  0.13916122458E+04  0.25500000920E-02 0.  1.
        2   -1    0    0  501    0  0.00000000000E+00  0.00000000000E+00 -0.24772985279E+04  0.24772985279E+04  0.25500000920E-02 0. -1.
    10030    2    1    2    0    0  0.00000000000E+00  0.00000000000E+00 -0.10856862821E+04  0.38689107737E+04  0.37134560549E+04 0.  0.
        4    1    3    3  502    0 -0.13571620383E+03  0.15605961411E+04  0.49565822105E+03  0.16430331368E+04  0.12699999809E+01 0.  1.
       -4    1    3    3    0  502  0.13571620383E+03 -0.15605961411E+04 -0.15813445032E+04  0.22258776369E+04  0.12699999809E+01 0. -1.
</event>
<event>
 5   0  0.2282000E-08  0.3698102E+04  0.7818609E-02  0.8068383E-01
        1   -1    0    0  501    0  0.00000000000E+00  0.00000000000E+00  0.26006321755E+04  0.26006321755E+04  0.50400001928E-02 0.  1.
       -1   -1    0    0    0  501  0.00000000000E+00  0.00000000000E+00 -0.13146764390E+04  0.13146764390E+04  0.50400001928E-02 0. -1.
    10030    2    1    2    0    0  0.00000000000E+00  0.00000000000E+00  0.12859557365E+04  0.39153086145E+04  0.36981021337E+04 0.  0.
        4    1    3    3  502    0  0.16210914168E+04 -0.50400085924E+03 -0.13289038974E+03  0.17028258032E+04  0.12699999809E+01 0. -1.
       -4    1    3    3    0  502 -0.16210914168E+04  0.50400085924E+03  0.14188461262E+04  0.22124828113E+04  0.12699999809E+01 0.  1.
</event>
<event>
 5   0  0.2282000E-08  0.3693520E+04  0.7818609E-02  0.8069399E-01
        1   -1    0    0  501    0  0.00000000000E+00  0.00000000000E+00  0.17514669147E+04  0.17514669147E+04  0.50400001928E-02 0.  1.
       -1   -1    0    0    0  501  0.00000000000E+00  0.00000000000E+00 -0.19472377946E+04  0.19472377946E+04  0.50400001928E-02 0. -1.
    10030    2    1    2    0    0  0.00000000000E+00  0.00000000000E+00 -0.19577087989E+03  0.36987047092E+04  0.36935200404E+04 0.  0.
        1    1    3    3  502    0  0.34495409767E+03 -0.13684889283E+04  0.10949067448E+04  0.17862183675E+04  0.50400001928E-02 0.  1.
       -1    1    3    3    0  502 -0.34495409767E+03  0.13684889283E+04 -0.12906776247E+04  0.19124863418E+04  0.50400001928E-02 0. -1.
</event>
<event>
 5   0  0.2282000E-08  0.3702161E+04  0.7818609E-02  0.8067483E-01
        1   -1    0    0  501    0  0.00000000000E+00  0.00000000000E+00  0.22734400872E+04  0.22734400872E+04  0.50400001928E-02 0.  1.
       -1   -1    0    0    0  501  0.00000000000E+00  0.00000000000E+00 -0.15071864540E+04  0.15071864540E+04  0.50400001928E-02 0. -1.
    10030    2    1    2    0    0  0.00000000000E+00  0.00000000000E+00  0.76625363316E+03  0.37806265412E+04  0.37021605062E+04 0.  0.
        2    1    3    3  502    0  0.57219126362E+03 -0.48282069134E+03 -0.13456744446E+04  0.15399215477E+04  0.25500000920E-02 0. -1.
       -2    1    3    3    0  502 -0.57219126362E+03  0.48282069134E+03  0.21119280778E+04  0.22407049935E+04  0.25500000920E-02 0.  1.
</event>
<event>
 5   0  0.7203049E-08  0.3691445E+04  0.7818609E-02  0.8069860E-01
       -2   -1    0    0    0  501  0.00000000000E+00  0.00000000000E+00  0.20657187451E+04  0.20657187451E+04  0.25500000920E-02 0.  1.
        2   -1    0    0  501    0  0.00000000000E+00  0.00000000000E+00 -0.16491556500E+04  0.16491556500E+04  0.25500000920E-02 0. -1.
    10030    2    1    2    0    0  0.00000000000E+00  0.00000000000E+00  0.41656309505E+03  0.37148743951E+04  0.36914451045E+04 0.  0.
        4    1    3    3  502    0  0.40637654844E+03  0.60177114891E+03 -0.14993737376E+04  0.16659512696E+04  0.12699999809E+01 0. -1.
       -4    1    3    3    0  502 -0.40637654844E+03 -0.60177114891E+03  0.19159368326E+04  0.20489231255E+04  0.12699999809E+01 0.  1.
</event>
<event>
 5   0  0.7203049E-08  0.3715318E+04  0.7818609E-02  0.8064576E-01
       -2   -1    0    0    0  501  0.00000000000E+00  0.00000000000E+00  0.13236530346E+04  0.13236530346E+04  0.25500000920E-02 0. -1.
        2   -1    0    0  501    0  0.00000000000E+00  0.00000000000E+00 -0.26071003961E+04  0.26071003961E+04  0.25500000920E-02 0.  1.
    10030    2    1    2    0    0  0.00000000000E+00  0.00000000000E+00 -0.12834473614E+04  0.39307534307E+04  0.37153176720E+04 0.  0.
        4    1    3    3  502    0  0.17908123340E+03 -0.10766091649E+04  0.94868534368E+03  0.14460853627E+04  0.12699999809E+01 0. -1.
       -4    1    3    3    0  502 -0.17908123340E+03  0.10766091649E+04 -0.22321327051E+04  0.24846680680E+04  0.12699999809E+01 0.  1.
</event>
<event>
 5   0  0.7191801E-08  0.3696792E+04  0.7818609E-02  0.8068673E-01
        2   -1    0    0  501    0  0.00000000000E+00  0.00000000000E+00  0.11647895061E+04  0.11647895061E+04  0.25500000920E-02 0.  1.
       -2   -1    0    0    0  501  0.00000000000E+00  0.00000000000E+00 -0.29332068229E+04  0.29332068229E+04  0.25500000920E-02 0. -1.
    10030    2    1    2    0    0  0.00000000000E+00  0.00000000000E+00 -0.17684173168E+04  0.40979963290E+04  0.36967924078E+04 0.  0.
        5    1    3    3  502    0 -0.99011607354E+02 -0.52665236510E+03  0.10767827107E+04  0.12027672710E+04  0.46999998093E+01 0.  1.
       -5    1    3    3    0  502  0.99011607354E+02  0.52665236510E+03 -0.28452000275E+04  0.28952290581E+04  0.46999998093E+01 0. -1.
</event>
<event>
 5   0  0.2282000E-08  0.3701829E+04  0.7818609E-02  0.8067557E-01
       -1   -1    0    0    0  501  0.00000000000E+00  0.00000000000E+00  0.17528527617E+04  0.17528527617E+04  0.50400001928E-02 0. -1.
        1   -1    0    0  501    0  0.00000000000E+00  0.00000000000E+00 -0.19544617076E+04  0.19544617076E+04  0.50400001928E-02 0.  1.
    10030    2    1    2    0    0  0.00000000000E+00  0.00000000000E+00 -0.20160894587E+03  0.37073144693E+04  0.37018285221E+04 0.  0.
        3    1    3    3  502    0  0.15850630899E+04  0.21560673990E+03 -0.10332978296E+04  0.19043675275E+04  0.10100000352E+00 0.  1.
       -3    1    3    3    0  502 -0.15850630899E+04 -0.21560673990E+03  0.83168888371E+03  0.18029469417E+04  0.10100000352E+00 0. -1.
</event>
<event>
 5   0  0.2282000E-08  0.3705143E+04  0.7818609E-02  0.8066823E-01
       -1   -1    0    0    0  501  0.00000000000E+00  0.00000000000E+00  0.12638631509E+04  0.12638631509E+04  0.50400001928E-02 0.  1.
        1   -1    0    0  501    0  0.00000000000E+00  0.00000000000E+00 -0.27155006280E+04  0.27155006280E+04  0.50400001928E-02 0. -1.
    10030    2    1    2    0    0  0.00000000000E+00  0.00000000000E+00 -0.14516374771E+04  0.39793637789E+04  0.37051430094E+04 0.  0.
        2    1    3    3  502    0  0.15109623052E+04  0.20224930064E+03  0.40475780209E+03  0.15772573492E+04  0.25500000920E-02 0.  1.
       -2    1    3    3    0  502 -0.15109623052E+04 -0.20224930064E+03 -0.18563952792E+04  0.24021064298E+04  0.25500000920E-02 0. -1.
</event>
<event>
 5   0  0.7362817E-08  0.3701867E+04  0.7818609E-02  0.8067548E-01
        2   -1    0    0  501    0  0.00000000000E+00  0.00000000000E+00  0.24764415919E+04  0.24764415919E+04  0.25500000920E-02 0.  1.
       -2   -1    0    0    0  501  0.00000000000E+00  0.00000000000E+00 -0.13834180287E+04  0.13834180287E+04  0.25500000920E-02 0. -1.
    10030    2    1    2    0    0  0.00000000000E+00  0.00000000000E+00  0.10930235631E+04  0.38598596206E+04  0.37018665266E+04 0.  0.
        1    1    3    3  502    0 -0.57065559035E+03  0.81449044785E+03  0.21741977839E+04  0.23908530896E+04  0.50400001928E-02 0.  1.
       -1    1    3    3    0  502  0.57065559035E+03 -0.81449044785E+03 -0.10811742207E+04  0.14690065310E+04  0.50400001928E-02 0. -1.
</event>
<event>
 5   0  0.2282000E-08  0.3695074E+04  0.7818609E-02  0.8069054E-01
       -1   -1    0    0    0  501  0.00000000000E+00  0.00000000000E+00  0.15942820512E+04  0.15942820512E+04  0.50400001928E-02 0.  1.
        1   -1    0    0  501    0  0.00000000000E+00  0.00000000000E+00 -0.21410214544E+04  0.21410214544E+04  0.50400001928E-02 0. -1.
    10030    2    1    2    0    0  0.00000000000E+00  0.00000000000E+00 -0.54673940319E+03  0.37353035056E+04  0.36950735181E+04 0.  0.
        4    1    3    3  502    0  0.11642344508E+04  0.79769293658E+03  0.93193486507E+03  0.16912303460E+04  0.12699999809E+01 0.  1.
       -4    1    3    3    0  502 -0.11642344508E+04 -0.79769293658E+03 -0.14786742683E+04  0.20440731597E+04  0.12699999809E+01 0. -1.
</event>
<event>
 5   0  0.7203049E-08  0.3692808E+04  0.7818609E-02  0.8069558E-01
       -2   -1    0    0    0  501  0.00000000000E+00  0.00000000000E+00  0.27655703867E+04  0.27655703867E+04  0.25500000920E-02 0.  1.
        2   -1    0    0  501    0  0.00000000000E+00  0.00000000000E+00 -0.12327320554E+04  0.12327320554E+04  0.25500000920E-02 0. -1.
    10030    2    1    2    0    0  0.00000000000E+00  0.00000000000E+00  0.15328383313E+04  0.39983024421E+04  0.36928077487E+04 0.  0.
        4    1    3    3  502    0 -0.16035927826E+04 -0.68010193158E+03  0.14295902613E+04  0.22533926373E+04  0.12699999809E+01 0.  1.
       -4    1    3    3    0  502  0.16035927826E+04  0.68010193158E+03  0.10324806998E+03  0.17449098048E+04  0.12699999809E+01 0. -1.
</event>
<event>
 5   0  0.7309833E-08  0.3716042E+04  0.7818609E-02  0.8064416E-01
        2   -1    0    0  501    0  0.00000000000E+00  0.00000000000E+00  0.25823319426E+04  0.25823319426E+04  0.25500000920E-02 0.  1.
       -2   -1    0    0    0  501  0.00000000000E+00  0.00000000000E+00 -0.13368702429E+04  0.13368702429E+04  0.25500000920E-02 0. -1.
    10030    2    1    2    0    0  0.00000000000E+00  0.00000000000E+00  0.12454616997E+04  0.39192021855E+04  0.37160423740E+04 0.  0.
        2    1    3    3  502    0  0.16188947397E+04  0.90830594539E+03  0.53833829998E+03  0.19327824487E+04  0.25500000920E-02 0.  1.
       -2    1    3    3    0  502 -0.16188947397E+04 -0.90830594539E+03  0.70712339976E+03  0.19864197369E+04  0.25500000920E-02 0. -1.
</event>
<event>
 5   0  0.2282000E-08  0.3707866E+04  0.7818609E-02  0.8066221E-01
        1   -1    0    0  501    0  0.00000000000E+00  0.00000000000E+00  0.20493623419E+04  0.20493623420E+04  0.50400001928E-02 0. -1.
       -1   -1    0    0    0  501  0.00000000000E+00  0.00000000000E+00 -0.16771398676E+04  0.16771398676E+04  0.50400001928E-02 0.  1.
    10030    2    1    2    0    0  0.00000000000E+00  0.00000000000E+00  0.37222247439E+03  0.37265022095E+04  0.37078658480E+04 0.  0.
        1    1    3    3  502    0  0.14983786372E+04  0.10591522045E+04 -0.80031673966E+02  0.18366673629E+04  0.50400001928E-02 0. -1.
       -1    1    3    3    0  502 -0.14983786372E+04 -0.10591522045E+04  0.45225414836E+03  0.18898348467E+04  0.50400001928E-02 0.  1.
</event>
<event>
 5   0  0.7203049E-08  0.3697134E+04  0.7818609E-02  0.8068597E-01
       -2   -1    0    0    0  501  0.00000000000E+00  0.00000000000E+00  0.22994008054E+04  0.22994008054E+04  0.25500000920E-02 0. -1.
        2   -1    0    0  501    0  0.00000000000E+00  0.00000000000E+00 -0.14861263671E+04  0.14861263671E+04  0.25500000920E-02 0.  1.
    10030    2    1    2    0    0  0.00000000000E+00  0.00000000000E+00  0.81327443832E+03  0.37855271726E+04  0.36971341147E+04 0.  0.
        4    1    3    3  502    0  0.11097817593E+03 -0.16890038976E+04  0.11674696310E+04  0.20562191697E+04  0.12699999809E+01 0. -1.
       -4    1    3    3    0  502 -0.11097817593E+03  0.16890038976E+04 -0.35419519266E+03  0.17293080029E+04  0.12699999809E+01 0.  1.
</event>
<event>
 5   0  0.2282000E-08  0.3700016E+04  0.7818609E-02  0.8067958E-01
        1   -1    0    0  501    0  0.00000000000E+00  0.00000000000E+00  0.17745084396E+04  0.17745084396E+04  0.50400001928E-02 0.  1.
       -1   -1    0    0    0  501  0.00000000000E+00  0.00000000000E+00 -0.19287195244E+04  0.19287195244E+04  0.50400001928E-02 0. -1.
    10030    2    1    2    0    0  0.00000000000E+00  0.00000000000E+00 -0.15421108478E+03  0.37032279640E+04  0.37000157154E+04 0.  0.
        3    1    3    3  502    0 -0.14944228013E+04 -0.91883315861E+03  0.51075025304E+03  0.18271342900E+04  0.10100000352E+00 0.  1.
       -3    1    3    3    0  502  0.14944228013E+04  0.91883315861E+03 -0.66496133782E+03  0.18760936740E+04  0.10100000352E+00 0. -1.
</event>
<event>
 5   0  0.7191801E-08  0.3711637E+04  0.7818609E-02  0.8065388E-01
       -2   -1    0    0    0  501  0.00000000000E+00  0.00000000000E+00  0.22580048505E+04  0.22580048505E+04  0.25500000920E-02 0.  1.
        2   -1    0    0  501    0  0.00000000000E+00  0.00000000000E+00 -0.15252676981E+04  0.15252676981E+04  0.25500000920E-02 0. -1.
    10030    2    1    2    0    0  0.00000000000E+00  0.00000000000E+00  0.73273715240E+03  0.37832725486E+04  0.37116367605E+04 0.  0.
        5    1    3    3  502    0  0.15061349956E+04 -0.85640748495E+03 -0.31141890048E+03  0.17603636633E+04  0.46999998093E+01 0. -1.
       -5    1    3    3    0  502 -0.15061349956E+04  0.85640748495E+03  0.10441560529E+04  0.20229088853E+04  0.46999998093E+01 0.  1.
</event>
<event>
 5   0  0.7191801E-08  0.3686575E+04  0.7818609E-02  0.8070944E-01
        2   -1    0    0  501    0  0.00000000000E+00  0.00000000000E+00  0.23172029196E+04  0.23172029196E+04  0.25500000920E-02 0. -1.
       -2   -1    0    0    0  501  0.00000000000E+00  0.00000000000E+00 -0.14662972552E+04  0.14662972552E+04  0.25500000920E-02 0.  1.
    10030    2    1    2    0    0  0.00000000000E+00  0.00000000000E+00  0.85090566441E+03  0.37835001748E+04  0.36865747141E+04 0.  0.
        5    1    3    3  502    0  0.91381853130E+03 -0.72044409736E+03  0.18925766662E+04  0.22217048708E+04  0.46999998093E+01 0. -1.
       -5    1    3    3    0  502 -0.91381853130E+03  0.72044409736E+03 -0.10416710018E+04  0.15617953040E+04  0.46999998093E+01 0.  1.
</event>
<event>
 5   0  0.7362817E-08  0.3699002E+04  0.7818609E-02  0.8068183E-01
        2   -1    0    0  501    0  0.00000000000E+00  0.00000000000E+00  0.25211102464E+04  0.25211102464E+04  0.25500000920E-02 0. -1.
       -2   -1    0    0    0  501  0.00000000000E+00  0.00000000000E+00 -0.13568046043E+04  0.13568046043E+04  0.25500000920E-02 0.  1.
    10030    2    1    2    0    0  0.00000000000E+00  0.00000000000E+00  0.11643056422E+04  0.38779148507E+04  0.36990020223E+04 0.  0.
        1    1    3    3  502    0  0.65321296478E+03 -0.59423553407E+03  0.22858234827E+04  0.24504677189E+04  0.50400001928E-02 0. -1.
       -1    1    3    3    0  502 -0.65321296478E+03  0.59423553407E+03 -0.11215178405E+04  0.14274471318E+04  0.50400001928E-02 0.  1.
</event>
<event>
 5   0  0.2282000E-08  0.3706368E+04  0.7818609E-02  0.8066552E-01
        1   -1    0    0  501    0  0.00000000000E+00  0.00000000000E+00  0.21050468861E+04  0.21050468861E+04  0.50400001928E-02 0. -1.
       -1   -1    0    0    0  501  0.00000000000E+00  0.00000000000E+00 -0.16314560895E+04  0.16314560895E+04  0.50400001928E-02 0.  1.
    10030    2    1    2    0    0  0.00000000000E+00  0.00000000000E+00  0.47359079658E+03  0.37365029757E+04  0.37063683363E+04 0.  0.
        4    1    3    3  502    0  0.24919500187E+02 -0.14034865564E+04  0.14565476766E+04  0.20228515127E+04  0.12699999809E+01 0. -1.
       -4    1    3    3    0  502 -0.24919500187E+02  0.14034865564E+04 -0.98295688004E+03  0.17136514629E+04  0.12699999809E+01 0.  1.
</event>
<event>
 5   0  0.2282000E-08  0.3696192E+04  0.7818609E-02  0.8068806E-01
       -1   -1    0    0    0  501  0.00000000000E+00  0.00000000000E+00  0.17908708965E+04  0.17908708965E+04  0.50400001928E-02 0. -1.
        1   -1    0    0  501    0  0.00000000000E+00  0.00000000000E+00 -0.19071496758E+04  0.19071496758E+04  0.50400001928E-02 0.  1.
    10030    2    1    2    0    0  0.00000000000E+00  0.00000000000E+00 -0.11627877929E+03  0.36980205724E+04  0.36961920133E+04 0.  0.
        3    1    3    3  502    0 -0.13696266849E+04  0.11035242324E+04 -0.62570819138E+03  0.18668566465E+04  0.10100000352E+00 0.  1.
       -3    1    3    3    0  502  0.13696266849E+04 -0.11035242324E+04  0.50942941209E+03  0.18311639259E+04  0.10100000352E+00 0. -1.
</event>
<event>
 5   0  0.2282000E-08  0.3699413E+04  0.7818609E-02  0.8068092E-01
        1   -1    0    0  501    0  0.00000000000E+00  0.00000000000E+00  0.15138019233E+04  0.15138019234E+04  0.50400001928E-02 0. -1.
       -1   -1    0    0    0  501  0.00000000000E+00  0.00000000000E+00 -0.22601462983E+04  0.22601462983E+04  0.50400001928E-02 0.  1.
    10030    2    1    2    0    0  0.00000000000E+00  0.00000000000E+00 -0.74634437499E+03  0.37739482217E+04  0.36994128256E+04 0.  0.
        3    1    3    3  502    0  0.14521077425E+04 -0.23599931817E+03 -0.15169673752E+04  0.21131735853E+04  0.10100000352E+00 0.  1.
       -3    1    3    3    0  502 -0.14521077425E+04  0.23599931817E+03  0.77062300021E+03  0.16607746364E+04  0.10100000352E+00 0. -1.
</event>
<event>
 5   0  0.7203049E-08  0.3699136E+04  0.7818609E-02  0.8068153E-01
        2   -1    0    0  501    0  0.00000000000E+00  0.00000000000E+00  0.21561213322E+04  0.21561213322E+04  0.25500000920E-02 0.  1.
       -2   -1    0    0    0  501  0.00000000000E+00  0.00000000000E+00 -0.15865999485E+04  0.15865999485E+04  0.25500000920E-02 0. -1.
    10030    2    1    2    0    0  0.00000000000E+00  0.00000000000E+00  0.56952138378E+03  0.37427212807E+04  0.36991361125E+04 0.  0.
        4    1    3    3  502    0 -0.71339973881E+03  0.13373035330E+04  0.13572408417E+04  0.20345575052E+04  0.12699999809E+01 0.  1.
       -4    1    3    3    0  502  0.71339973881E+03 -0.13373035330E+04 -0.78771945790E+03  0.17081637755E+04  0.12699999809E+01 0. -1.
</event>
<event>
 5   0  0.2282000E-08  0.3730765E+04  0.7818609E-02  0.8061178E-01
       -1   -1    0    0    0  501  0.00000000000E+00  0.00000000000E+00  0.20563346975E+04  0.20563346975E+04  0.50400001928E-02 0. -1.
        1   -1    0    0  501    0  0.00000000000E+00  0.00000000000E+00 -0.16921624141E+04  0.16921624141E+04  0.50400001928E-02 0.  1.
    10030    2    1    2    0    0  0.00000000000E+00  0.00000000000E+00  0.36417228344E+03  0.37484971116E+04  0.37307652222E+04 0.  0.
        5    1    3    3  502    0 -0.40748461437E+03  0.39273801880E+03 -0.16038160614E+04  0.17007453987E+04  0.46999998093E+01 0.  1.
       -5    1    3    3    0  502  0.40748461437E+03 -0.39273801880E+03  0.19679883448E+04  0.20477517129E+04  0.46999998093E+01 0. -1.
</event>
<event>
 5   0  0.2282000E-08  0.3703571E+04  0.7818609E-02  0.8067171E-01
        1   -1    0    0  501    0  0.00000000000E+00  0.00000000000E+00  0.22581493843E+04  0.22581493843E+04  0.50400001928E-02 0.  1.
       -1   -1    0    0    0  501  0.00000000000E+00  0.00000000000E+00 -0.15185485493E+04  0.15185485494E+04  0.50400001928E-02 0. -1.
    10030    2    1    2    0    0  0.00000000000E+00  0.00000000000E+00  0.73960083500E+03  0.37766979337E+04  0.37035709643E+04 0.  0.
        1    1    3    3  502    0  0.26290395905E+03  0.17898479209E+04  0.77312909152E+03  0.19673338974E+04  0.50400001928E-02 0.  1.
       -1    1    3    3    0  502 -0.26290395905E+03 -0.17898479209E+04 -0.33528256522E+02  0.18093640363E+04  0.50400001928E-02 0. -1.
</event>
<event>
 5   0  0.2282000E-08  0.3665083E+04  0.7818609E-02  0.8075744E-01
        1   -1    0    0  501    0  0.00000000000E+00  0.00000000000E+00  0.11723801011E+04  0.11723801011E+04  0.50400001928E-02 0.  1.
       -1   -1    0    0    0  501  0.00000000000E+00  0.00000000000E+00 -0.28644359222E+04  0.28644359222E+04  0.50400001928E-02 0. -1.
    10030    2    1    2    0    0  0.00000000000E+00  0.00000000000E+00 -0.16920558211E+04  0.40368160233E+04  0.36650826327E+04 0.  0.
        2    1    3    3  502    0  0.77004229653E+03 -0.42881966415E+03 -0.26156444045E+04  0.27601534547E+04  0.25500000920E-02 0. -1.
       -2    1    3    3    0  502 -0.77004229653E+03  0.42881966415E+03  0.92358858334E+03  0.12766625686E+04  0.25500000920E-02 0.  1.
</event>
<event>
 5   0  0.7254493E-08  0.3697953E+04  0.7818609E-02  0.8068416E-01
       -2   -1    0    0    0  501  0.00000000000E+00  0.00000000000E+00  0.16697607041E+04  0.16697607041E+04  0.25500000920E-02 0.  1.
        2   -1    0    0  501    0  0.00000000000E+00  0.00000000000E+00 -0.20474273789E+04  0.20474273789E+04  0.25500000920E-02 0. -1.
    10030    2    1    2    0    0  0.00000000000E+00  0.00000000000E+00 -0.37766667486E+03  0.37171880830E+04  0.36979528292E+04 0.  0.
        3    1    3    3  502    0  0.65044403671E+03  0.11263983605E+03 -0.19249386006E+04  0.20349825070E+04  0.10100000352E+00 0. -1.
       -3    1    3    3    0  502 -0.65044403671E+03 -0.11263983605E+03  0.15472719257E+04  0.16822055760E+04  0.10100000352E+00 0.  1.
</event>
<event>
 5   0  0.7203049E-08  0.3697701E+04  0.7818609E-02  0.8068472E-01
        2   -1    0    0  501    0  0.00000000000E+00  0.00000000000E+00  0.22298699053E+04  0.22298699053E+04  0.25500000920E-02 0.  1.
       -2   -1    0    0    0  501  0.00000000000E+00  0.00000000000E+00 -0.15329358714E+04  0.15329358714E+04  0.25500000920E-02 0. -1.
    10030    2    1    2    0    0  0.00000000000E+00  0.00000000000E+00  0.69693403394E+03  0.37628057767E+04  0.36977006728E+04 0.  0.
        4    1    3    3  502    0  0.24671008583E+03 -0.15827864114E+04 -0.59091549941E+03  0.17074136672E+04  0.12699999809E+01 0. -1.
       -4    1    3    3    0  502 -0.24671008583E+03  0.15827864114E+04  0.12878495333E+04  0.20553921096E+04  0.12699999809E+01 0.  1.
</event>
<event>
 5   0  0.7362817E-08  0.3696647E+04  0.7818609E-02  0.8068705E-01
       -2   -1    0    0    0  501  0.00000000000E+00  0.00000000000E+00  0.16891563978E+04  0.16891563978E+04  0.25500000920E-02 0. -1.
        2   -1    0    0  501    0  0.00000000000E+00  0.00000000000E+00 -0.20224892587E+04  0.20224892587E+04  0.25500000920E-02 0.  1.
    10030    2    1    2    0    0  0.00000000000E+00  0.00000000000E+00 -0.33333286091E+03  0.37116456565E+04  0.36966474925E+04 0.  0.
        1    1    3    3  502    0  0.16617160615E+03 -0.47554709606E+03  0.16189026771E+04  0.16954656945E+04  0.50400001928E-02 0. -1.
       -1    1    3    3    0  502 -0.16617160615E+03  0.47554709606E+03 -0.19522355380E+04  0.20161799620E+04  0.50400001928E-02 0.  1.
</event>
<event>
 5   0  0.7254493E-08  0.3705189E+04  0.7818609E-02  0.8066813E-01
        2   -1    0    0  501    0  0.00000000000E+00  0.00000000000E+00  0.19615447802E+04  0.19615447802E+04  0.25500000920E-02 0. -1.
       -2   -1    0    0    0  501  0.00000000000E+00  0.00000000000E+00 -0.17496953062E+04  0.17496953062E+04  0.25500000920E-02 0.  1.
    10030    2    1    2    0    0  0.00000000000E+00  0.00000000000E+00  0.21184947405E+03  0.37112400864E+04  0.37051886293E+04 0.  0.
        3    1    3    3  502    0  0.11798526926E+04 -0.23683018857E+02  0.15363651653E+04  0.19372741656E+04  0.10100000352E+00 0. -1.
       -3    1    3    3    0  502 -0.11798526926E+04  0.23683018857E+02 -0.13245156912E+04  0.17739659208E+04  0.10100000352E+00 0.  1.
</event>
<event>
 5   0  0.2282000E-08  0.3712864E+04  0.7818609E-02  0.8065117E-01
       -1   -1    0    0    0  501  0.00000000000E+00  0.00000000000E+00  0.27960369641E+04  0.27960369642E+04  0.50400001928E-02 0.  1.
        1   -1    0    0  501    0  0.00000000000E+00  0.00000000000E+00 -0.12325804121E+04  0.12325804121E+04  0.50400001928E-02 0. -1.
    10030    2    1    2    0    0  0.00000000000E+00  0.00000000000E+00  0.15634565520E+04  0.40286173763E+04  0.37128643356E+04 0.  0.
        5    1    3    3  502    0  0.27663112774E+03 -0.11921926777E+04 -0.73285730627E+03  0.14265167657E+04  0.46999998093E+01 0. -1.
       -5    1    3    3    0  502 -0.27663112774E+03  0.11921926777E+04  0.22963138583E+04  0.26021006105E+04  0.46999998093E+01 0.  1.
</event>
<event>
 5   0  0.2282000E-08  0.3698537E+04  0.7818609E-02  0.8068286E-01
       -1   -1    0    0    0  501  0.00000000000E+00  0.00000000000E+00  0.17139649350E+04  0.17139649350E+04  0.50400001928E-02 0.  1.
        1   -1    0    0  501    0  0.00000000000E+00  0.00000000000E+00 -0.19952527769E+04  0.19952527769E+04  0.50400001928E-02 0. -1.
    10030    2    1    2    0    0  0.00000000000E+00  0.00000000000E+00 -0.28128784191E+03  0.37092177119E+04  0.36985366274E+04 0.  0.
        4    1    3    3  502    0  0.56744469817E+03 -0.16805688647E+04  0.38382570131E+03  0.18148357988E+04  0.12699999809E+01 0.  1.
       -4    1    3    3    0  502 -0.56744469817E+03  0.16805688647E+04 -0.66511354322E+03  0.18943819131E+04  0.12699999809E+01 0. -1.
</event>
<event>
 5   0  0.2282000E-08  0.3700653E+04  0.7818609E-02  0.8067817E-01
        1   -1    0    0  501    0  0.00000000000E+00  0.00000000000E+00  0.21086525895E+04  0.21086525895E+04  0.50400001928E-02 0.  1.
       -1   -1    0    0    0  501  0.00000000000E+00  0.00000000000E+00 -0.16236469399E+04  0.16236469399E+04  0.50400001928E-02 0. -1.
    10030    2    1    2    0    0  0.00000000000E+00  0.00000000000E+00  0.48500564968E+03  0.37322995294E+04  0.37006525501E+04 0.  0.
        5    1    3    3  502    0  0.17518344576E+04 -0.52181940884E+03 -0.47121505861E+02  0.18285136008E+04  0.46999998093E+01 0. -1.
       -5    1    3    3    0  502 -0.17518344576E+04  0.52181940884E+03  0.53212715554E+03  0.19037859286E+04  0.46999998093E+01 0.  1.
</event>
<event>
 5   0  0.2282000E-08  0.3741509E+04  0.7818609E-02  0.8058825E-01
        1   -1    0    0  501    0  0.00000000000E+00  0.00000000000E+00  0.18206987370E+04  0.18206987370E+04  0.50400001928E-02 0.  1.
       -1   -1    0    0    0  501  0.00000000000E+00  0.00000000000E+00 -0.19221867351E+04  0.19221867351E+04  0.50400001928E-02 0. -1.
    10030    2    1    2    0    0  0.00000000000E+00  0.00000000000E+00 -0.10148799814E+03  0.37428854721E+04  0.37415093002E+04 0.  0.
        3    1    3    3  502    0 -0.96347223275E+03 -0.38447961232E+03 -0.16081144867E+04  0.19136706948E+04  0.10100000352E+00 0. -1.
       -3    1    3    3    0  502  0.96347223275E+03  0.38447961232E+03  0.15066264885E+04  0.18292147774E+04  0.10100000352E+00 0.  1.
</event>
<event>
 5   0  0.7203049E-08  0.3689059E+04  0.7818609E-02  0.8070391E-01
       -2   -1    0    0    0  501  0.00000000000E+00  0.00000000000E+00  0.12440051018E+04  0.12440051018E+04  0.25500000920E-02 0. -1.
        2   -1    0    0  501    0  0.00000000000E+00  0.00000000000E+00 -0.27349472080E+04  0.27349472080E+04  0.25500000920E-02 0.  1.
    10030    2    1    2    0    0  0.00000000000E+00  0.00000000000E+00 -0.14909421063E+04  0.39789523098E+04  0.36890585682E+04 0.  0.
        4    1    3    3  502    0 -0.44337401582E+03 -0.76839809601E+03  0.99879003501E+03  0.13358889545E+04  0.12699999809E+01 0. -1.
       -4    1    3    3    0  502  0.44337401582E+03  0.76839809601E+03 -0.24897321413E+04  0.26430633553E+04  0.12699999809E+01 0.  1.
</event>
<event>
 5   0  0.7362817E-08  0.3721707E+04  0.7818609E-02  0.8063168E-01
       -2   -1    0    0    0  501  0.00000000000E+00  0.00000000000E+00  0.18706512798E+04  0.18706512799E+04  0.25500000920E-02 0.  1.
        2   -1    0    0  501    0  0.00000000000E+00  0.00000000000E+00 -0.18511068003E+04  0.18511068003E+04  0.25500000920E-02 0. -1.
    10030    2    1    2    0    0  0.00000000000E+00  0.00000000000E+00  0.19544479541E+02  0.37217580802E+04  0.37217067618E+04 0.  0.
        1    1    3    3  502    0  0.16159444565E+04  0.92006193960E+03  0.80376654550E+02  0.18612498128E+04  0.50400001928E-02 0. -1.
       -1    1    3    3    0  502 -0.16159444565E+04 -0.92006193960E+03 -0.60832175009E+02  0.18605082673E+04  0.50400001928E-02 0.  1.
</event>
<event>
 5   0  0.7309833E-08  0.3693786E+04  0.7818609E-02  0.8069340E-01
       -2   -1    0    0    0  501  0.00000000000E+00  0.00000000000E+00  0.12518776300E+04  0.12518776300E+04  0.25500000920E-02 0.  1.
        2   -1    0    0  501    0  0.00000000000E+00  0.00000000000E+00 -0.27247179301E+04  0.27247179301E+04  0.25500000920E-02 0. -1.
    10030    2    1    2    0    0  0.00000000000E+00  0.00000000000E+00 -0.14728403000E+04  0.39765955601E+04  0.36937858221E+04 0.  0.
        2    1    3    3  502    0 -0.71879902729E+03  0.14097056996E+04  0.28890216170E+03  0.16085417806E+04  0.25500000920E-02 0.  1.
       -2    1    3    3    0  502  0.71879902729E+03 -0.14097056996E+04 -0.17617424617E+04  0.23680537795E+04  0.25500000920E-02 0. -1.
</event>
<event>
 5   0  0.2282000E-08  0.3699514E+04  0.7818609E-02  0.8068070E-01
       -1   -1    0    0    0  501  0.00000000000E+00  0.00000000000E+00  0.12497249344E+04  0.12497249344E+04  0.50400001928E-02 0. -1.
        1   -1    0    0  501    0  0.00000000000E+00  0.00000000000E+00 -0.27378828187E+04  0.27378828187E+04  0.50400001928E-02 0.  1.
    10030    2    1    2    0    0  0.00000000000E+00  0.00000000000E+00 -0.14881578843E+04  0.39876077531E+04  0.36995137118E+04 0.  0.
        3    1    3    3  502    0 -0.99507112665E+03  0.10591058629E+04 -0.19776337565E+04  0.24541611725E+04  0.10100000352E+00 0.  1.
       -3    1    3    3    0  502  0.99507112665E+03 -0.10591058629E+04  0.48947587214E+03  0.15334465806E+04  0.10100000352E+00 0. -1.
</event>
<event>
 5   0  0.7254493E-08  0.3699176E+04  0.7818609E-02  0.8068144E-01
       -2   -1    0    0    0  501  0.00000000000E+00  0.00000000000E+00  0.18075049288E+04  0.18075049288E+04  0.25500000920E-02 0. -1.
        2   -1    0    0  501    0  0.00000000000E+00  0.00000000000E+00 -0.18926512743E+04  0.18926512743E+04  0.25500000920E-02 0.  1.
    10030    2    1    2    0    0  0.00000000000E+00  0.00000000000E+00 -0.85146345541E+02  0.37001562031E+04  0.36991763985E+04 0.  0.
        3    1    3    3  502    0  0.87607752139E+03  0.41524590895E+02 -0.16714210189E+04  0.18875604223E+04  0.10100000352E+00 0.  1.
       -3    1    3    3    0  502 -0.87607752139E+03 -0.41524590895E+02  0.15862746733E+04  0.18125957808E+04  0.10100000352E+00 0. -1.
</event>
<event>
 5   0  0.7191801E-08  0.3696655E+04  0.7818609E-02  0.8068703E-01
       -2   -1    0    0    0  501  0.00000000000E+00  0.00000000000E+00  0.15953798403E+04  0.15953798404E+04  0.25500000920E-02 0. -1.
        2   -1    0    0  501    0  0.00000000000E+00  0.00000000000E+00 -0.21413804734E+04  0.21413804734E+04  0.25500000920E-02 0.  1.
    10030    2    1    2    0    0  0.00000000000E+00  0.00000000000E+00 -0.54600063308E+03  0.37367603138E+04  0.36966553736E+04 0.  0.
        5    1    3    3  502    0 -0.80517943791E+02  0.59885577457E+03 -0.20387141424E+04  0.21263792753E+04  0.46999998093E+01 0.  1.
       -5    1    3    3    0  502  0.80517943791E+02 -0.59885577457E+03  0.14927135094E+04  0.16103810385E+04  0.46999998093E+01 0. -1.
</event>
<event>
 5   0  0.7362817E-08  0.3711281E+04  0.7818609E-02  0.8065466E-01
        2   -1    0    0  501    0  0.00000000000E+00  0.00000000000E+00  0.24186216804E+04  0.24186216804E+04  0.25500000920E-02 0. -1.
       -2   -1    0    0    0  501  0.00000000000E+00  0.00000000000E+00 -0.14237039502E+04  0.14237039502E+04  0.25500000920E-02 0.  1.
    10030    2    1    2    0    0  0.00000000000E+00  0.00000000000E+00  0.99491773025E+03  0.38423256306E+04  0.37112807711E+04 0.  0.
        1    1    3    3  502    0 -0.67609865151E+03 -0.17045245164E+04  0.20300824268E+03  0.18449188493E+04  0.50400001928E-02 0.  1.
       -1    1    3    3    0  502  0.67609865151E+03  0.17045245164E+04  0.79190948757E+03  0.19974067814E+04  0.50400001928E-02 0. -1.
</event>
<event>
 5   0  0.2282000E-08  0.3706505E+04  0.7818609E-02  0.8066522E-01
        1   -1    0    0  501    0  0.00000000000E+00  0.00000000000E+00  0.14248108866E+04  0.14248108866E+04  0.50400001928E-02 0.  1.
       -1   -1    0    0    0  501  0.00000000000E+00  0.00000000000E+00 -0.24105263485E+04  0.24105263485E+04  0.50400001928E-02 0. -1.
    10030    2    1    2    0    0  0.00000000000E+00  0.00000000000E+00 -0.98571546188E+03  0.38353372351E+04  0.37065046519E+04 0.  0.
        3    1    3    3  502    0 -0.41237541379E+03 -0.43313208483E+03  0.13222182137E+04  0.14511781075E+04  0.10100000352E+00 0.  1.
       -3    1    3    3    0  502  0.41237541379E+03  0.43313208483E+03 -0.23079336755E+04  0.23841591276E+04  0.10100000352E+00 0. -1.
</event>
<event>
 5   0  0.2282000E-08  0.3715381E+04  0.7818609E-02  0.8064562E-01
        1   -1    0    0  501    0  0.00000000000E+00  0.00000000000E+00  0.23493383756E+04  0.23493383756E+04  0.50400001928E-02 0. -1.
       -1   -1    0    0    0  501  0.00000000000E+00  0.00000000000E+00 -0.14689300987E+04  0.14689300987E+04  0.50400001928E-02 0.  1.
    10030    2    1    2    0    0  0.00000000000E+00  0.00000000000E+00  0.88040827688E+03  0.38182684743E+04  0.37153809236E+04 0.  0.
        4    1    3    3  502    0 -0.76526287599E+03  0.55864343144E+03  0.20823595237E+04  0.22877789560E+04  0.12699999809E+01 0. -1.
       -4    1    3    3    0  502  0.76526287599E+03 -0.55864343144E+03 -0.12019512468E+04  0.15304895182E+04  0.12699999809E+01 0.  1.
</event>
<event>
 5   0  0.2282000E-08  0.3710682E+04  0.7818609E-02  0.8065599E-01
       -1   -1    0    0    0  501  0.00000000000E+00  0.00000000000E+00  0.18936396415E+04  0.18936396415E+04  0.50400001928E-02 0. -1.
        1   -1    0    0  501    0  0.00000000000E+00  0.00000000000E+00 -0.18178167562E+04  0.18178167562E+04  0.50400001928E-02 0.  1.
    10030    2    1    2    0    0  0.00000000000E+00  0.00000000000E+00  0.75822885271E+02  0.37114563977E+04  0.37106818083E+04 0.  0.
        3    1    3    3  502    0 -0.88696264686E+03 -0.14865524649E+04  0.70569509664E+03  0.18693706287E+04  0.10100000352E+00 0. -1.
       -3    1    3    3    0  502  0.88696264686E+03  0.14865524649E+04 -0.62987221137E+03  0.18420857691E+04  0.10100000352E+00 0.  1.
</event>
<event>
 5   0  0.7203049E-08  0.3706436E+04  0.7818609E-02  0.8066537E-01
       -2   -1    0    0    0  501  0.00000000000E+00  0.00000000000E+00  0.17567237503E+04  0.17567237503E+04  0.25500000920E-02 0. -1.
        2   -1    0    0  501    0  0.00000000000E+00  0.00000000000E+00 -0.19550127783E+04  0.19550127783E+04  0.25500000920E-02 0.  1.
    10030    2    1    2    0    0  0.00000000000E+00  0.00000000000E+00 -0.19828902801E+03  0.37117365287E+04  0.37064362290E+04 0.  0.
        4    1    3    3  502    0 -0.79685109418E+03 -0.58487008858E+03  0.14706976162E+04  0.17720038877E+04  0.12699999809E+01 0. -1.
       -4    1    3    3    0  502  0.79685109418E+03  0.58487008858E+03 -0.16689866443E+04  0.19397326410E+04  0.12699999809E+01 0.  1.
</event>
<event>
 5   0  0.7191801E-08  0.3699651E+04  0.7818609E-02  0.8068039E-01
        2   -1    0    0  501    0  0.00000000000E+00  0.00000000000E+00  0.14696124267E+04  0.14696124267E+04  0.25500000920E-02 0.  1.
       -2   -1    0    0    0  501  0.00000000000E+00  0.00000000000E+00 -0.23284063763E+04  0.23284063763E+04  0.25500000920E-02 0. -1.
    10030    2    1    2    0    0  0.00000000000E+00  0.00000000000E+00 -0.85879394963E+03  0.37980188030E+04  0.36996513052E+04 0.  0.
        5    1    3    3  502    0 -0.12895595509E+04  0.48365629459E+02  0.93118300515E+03  0.15913600940E+04  0.46999998093E+01 0.  1.
       -5    1    3    3    0  502  0.12895595509E+04 -0.48365629459E+02 -0.17899769548E+04  0.22066587090E+04  0.46999998093E+01 0. -1.
</event>
<event>
 5   0  0.7309833E-08  0.3667187E+04  0.7818609E-02  0.8075273E-01
        2   -1    0    0  501    0  0.00000000000E+00  0.00000000000E+00  0.22545458544E+04  0.22545458544E+04  0.25500000920E-02 0.  1.
       -2   -1    0    0    0  501  0.00000000000E+00  0.00000000000E+00 -0.14912381025E+04  0.14912381025E+04  0.25500000920E-02 0. -1.
    10030    2    1    2    0    0  0.00000000000E+00  0.00000000000E+00  0.76330775186E+03  0.37457839569E+04  0.36671867593E+04 0.  0.
        2    1    3    3  502    0  0.11768055443E+04  0.28842529168E+03  0.17873782372E+04  0.21593474479E+04  0.25500000920E-02 0. -1.
       -2    1    3    3    0  502 -0.11768055443E+04 -0.28842529168E+03 -0.10240704853E+04  0.15864365090E+04  0.25500000920E-02 0.  1.
</event>
<event>
 5   0  0.7254493E-08  0.3696813E+04  0.7818609E-02  0.8068669E-01
        2   -1    0    0  501    0  0.00000000000E+00  0.00000000000E+00  0.13066481642E+04  0.13066481642E+04  0.25500000920E-02 0. -1.
       -2   -1    0    0    0  501  0.00000000000E+00  0.00000000000E+00 -0.26147867199E+04  0.26147867199E+04  0.25500000920E-02 0.  1.
    10030    2    1    2    0    0  0.00000000000E+00  0.00000000000E+00 -0.13081385558E+04  0.39214348841E+04  0.36968128258E+04 0.  0.
        3    1    3    3  502    0  0.34842152543E+03  0.14236302131E+04  0.54063477195E+03  0.15621800504E+04  0.10100000352E+00 0. -1.
       -3    1    3    3    0  502 -0.34842152543E+03 -0.14236302131E+04 -0.18487733277E+04  0.23592548337E+04  0.10100000352E+00 0.  1.
</event>
<event>
 5   0  0.7309833E-08  0.3700641E+04  0.7818609E-02  0.8067820E-01
       -2   -1    0    0    0  501  0.00000000000E+00  0.00000000000E+00  0.15029531890E+04  0.15029531890E+04  0.25500000920E-02 0.  1.
        2   -1    0    0  501    0  0.00000000000E+00  0.00000000000E+00 -0.22779720612E+04  0.22779720612E+04  0.25500000920E-02 0. -1.
    10030    2    1    2    0    0  0.00000000000E+00  0.00000000000E+00 -0.77501887222E+03  0.37809252503E+04  0.37006406872E+04 0.  0.
        2    1    3    3  502    0  0.12900336817E+04 -0.13243851414E+04 -0.31172150221E+03  0.18749275179E+04  0.25500000920E-02 0.  1.
       -2    1    3    3    0  502 -0.12900336817E+04  0.13243851414E+04 -0.46329737001E+03  0.19059977323E+04  0.25500000920E-02 0. -1.
</event>
<event>
 5   0  0.7254493E-08  0.3704919E+04  0.7818609E-02  0.8066873E-01
        2   -1    0    0  501    0  0.00000000000E+00  0.00000000000E+00  0.19464662438E+04  0.19464662438E+04  0.25500000920E-02 0.  1.
       -2   -1    0    0    0  501  0.00000000000E+00  0.00000000000E+00 -0.17629928788E+04  0.17629928788E+04  0.25500000920E-02 0. -1.
    10030    2    1    2    0    0  0.00000000000E+00  0.00000000000E+00  0.18347336499E+03  0.37094591226E+04  0.37049189608E+04 0.  0.
        3    1    3    3  502    0  0.15877332253E+04 -0.35176143825E+03  0.97993889674E+03  0.18986608849E+04  0.10100000352E+00 0.  1.
       -3    1    3    3    0  502 -0.15877332253E+04  0.35176143825E+03 -0.79646553175E+03  0.18107982377E+04  0.10100000352E+00 0. -1.
</event>
<event>
 5   0  0.7254493E-08  0.3779602E+04  0.7818609E-02  0.8050546E-01
        2   -1    0    0  501    0  0.00000000000E+00  0.00000000000E+00  0.20215913902E+04  0.20215913902E+04  0.25500000920E-02 0.  1.
       -2   -1    0    0    0  501  0.00000000000E+00  0.00000000000E+00 -0.17666020408E+04  0.17666020408E+04  0.25500000920E-02 0. -1.
    10030    2    1    2    0    0  0.00000000000E+00  0.00000000000E+00  0.25498934935E+03  0.37881934310E+04  0.37796018180E+04 0.  0.
        3    1    3    3  502    0  0.66116057833E+03 -0.16814791062E+04  0.68268721264E+03  0.19314676118E+04  0.10100000352E+00 0. -1.
       -3    1    3    3    0  502 -0.66116057833E+03  0.16814791062E+04 -0.42769786329E+03  0.18567258192E+04  0.10100000352E+00 0.  1.
</event>
<event>
 5   0  0.7203049E-08  0.3704212E+04  0.7818609E-02  0.8067029E-01
        2   -1    0    0  501    0  0.00000000000E+00  0.00000000000E+00  0.22835056153E+04  0.22835056153E+04  0.25500000920E-02 0.  1.
       -2   -1    0    0    0  501  0.00000000000E+00  0.00000000000E+00 -0.15022064341E+04  0.15022064341E+04  0.25500000920E-02 0. -1.
    10030    2    1    2    0    0  0.00000000000E+00  0.00000000000E+00  0.78129918121E+03  0.37857120493E+04  0.37042121038E+04 0.  0.
        4    1    3    3  502    0  0.17672428645E+02 -0.16522385287E+04 -0.46447402201E+03  0.17163747261E+04  0.12699999809E+01 0.  1.
       -4    1    3    3    0  502 -0.17672428645E+02  0.16522385287E+04  0.12457732032E+04  0.20693373232E+04  0.12699999809E+01 0. -1.
</event>
<event>
 5   0  0.2282000E-08  0.3688480E+04  0.7818609E-02  0.8070520E-01
        1   -1    0    0  501    0  0.00000000000E+00  0.00000000000E+00  0.21193424366E+04  0.21193424366E+04  0.50400001928E-02 0.  1.
       -1   -1    0    0    0  501  0.00000000000E+00  0.00000000000E+00 -0.16048471641E+04  0.16048471641E+04  0.50400001928E-02 0. -1.
    10030    2    1    2    0    0  0.00000000000E+00  0.00000000000E+00  0.51449527254E+03  0.37241896007E+04  0.36884797405E+04 0.  0.
        5    1    3    3  502    0  0.15872755821E+04  0.15376685101E+03  0.11925585712E+04  0.19913076241E+04  0.46999998093E+01 0.  1.
       -5    1    3    3    0  502 -0.15872755821E+04 -0.15376685101E+03 -0.67806329869E+03  0.17328819766E+04  0.46999998093E+01 0. -1.
</event>
<event>
 5   0  0.2282000E-08  0.3693187E+04  0.7818609E-02  0.8069473E-01
        1   -1    0    0  501    0  0.00000000000E+00  0.00000000000E+00  0.15477155670E+04  0.15477155670E+04  0.50400001928E-02 0. -1.
       -1   -1    0    0    0  501  0.00000000000E+00  0.00000000000E+00 -0.22031870325E+04  0.22031870325E+04  0.50400001928E-02 0.  1.
    10030    2    1    2    0    0  0.00000000000E+00  0.00000000000E+00 -0.65547146550E+03  0.37509025994E+04  0.36931866279E+04 0.  0.
        2    1    3    3  502    0 -0.17131277795E+04 -0.64383208951E+03 -0.57771288127E+03  0.19191348888E+04  0.25500000920E-02 0. -1.
       -2    1    3    3    0  502  0.17131277795E+04  0.64383208951E+03 -0.77758584224E+02  0.18317677106E+04  0.25500000920E-02 0.  1.
</event>
<event>
 5   0  0.2282000E-08  0.3698941E+04  0.7818609E-02  0.8068197E-01
       -1   -1    0    0    0  501  0.00000000000E+00  0.00000000000E+00  0.16882238482E+04  0.16882238482E+04  0.50400001928E-02 0.  1.
        1   -1    0    0  501    0  0.00000000000E+00  0.00000000000E+00 -0.20261183342E+04  0.20261183342E+04  0.50400001928E-02 0. -1.
    10030    2    1    2    0    0  0.00000000000E+00  0.00000000000E+00 -0.33789448598E+03  0.37143421824E+04  0.36989410869E+04 0.  0.
        2    1    3    3  502    0 -0.95704023340E+03  0.14150714897E+04 -0.88055003758E+03  0.19219057464E+04  0.25500000920E-02 0. -1.
       -2    1    3    3    0  502  0.95704023340E+03 -0.14150714897E+04  0.54265555160E+03  0.17924364360E+04  0.25500000920E-02 0.  1.
</event>
<event>
 5   0  0.2282000E-08  0.3705899E+04  0.7818609E-02  0.8066656E-01
        1   -1    0    0  501    0  0.00000000000E+00  0.00000000000E+00  0.24957976197E+04  0.24957976197E+04  0.50400001928E-02 0. -1.
       -1   -1    0    0    0  501  0.00000000000E+00  0.00000000000E+00 -0.13756814387E+04  0.13756814387E+04  0.50400001928E-02 0.  1.
    10030    2    1    2    0    0  0.00000000000E+00  0.00000000000E+00  0.11201161810E+04  0.38714790584E+04  0.37058993295E+04 0.  0.
        3    1    3    3  502    0  0.14961120297E+04 -0.81125619018E+03 -0.20543981671E+03  0.17142617478E+04  0.10100000352E+00 0.  1.
       -3    1    3    3    0  502 -0.14961120297E+04  0.81125619018E+03  0.13255559977E+04  0.21572173105E+04  0.10100000352E+00 0. -1.
</event>
<event>
 5   0  0.7362817E-08  0.3688217E+04  0.7818609E-02  0.8070578E-01
        2   -1    0    0  501    0  0.00000000000E+00  0.00000000000E+00  0.23587944061E+04  0.23587944061E+04  0.25500000920E-02 0.  1.
       -2   -1    0    0    0  501  0.00000000000E+00  0.00000000000E+00 -0.14417260496E+04  0.14417260496E+04  0.25500000920E-02 0. -1.
    10030    2    1    2    0    0  0.00000000000E+00  0.00000000000E+00  0.91706835648E+03  0.38005204558E+04  0.36882165560E+04 0.  0.
        1    1    3    3  502    0  0.10294259433E+03  0.15253939109E+04  0.15211026687E+04  0.21566587792E+04  0.50400001928E-02 0.  1.
       -1    1    3    3    0  502 -0.10294259433E+03 -0.15253939109E+04 -0.60403431226E+03  0.16438616765E+04  0.50400001928E-02 0. -1.
</event>
<event>
 5   0  0.2282000E-08  0.3693761E+04  0.7818609E-02  0.8069346E-01
        1   -1    0    0  501    0  0.00000000000E+00  0.00000000000E+00  0.18734482238E+04  0.18734482238E+04  0.50400001928E-02 0.  1.
       -1   -1    0    0    0  501  0.00000000000E+00  0.00000000000E+00 -0.18206897575E+04  0.18206897575E+04  0.50400001928E-02 0. -1.
    10030    2    1    2    0    0  0.00000000000E+00  0.00000000000E+00  0.52758466305E+02  0.36941379813E+04  0.36937612225E+04 0.  0.
        3    1    3    3  502    0  0.31987870589E+03 -0.15497920273E+04  0.97873172033E+03  0.18606701763E+04  0.10100000352E+00 0.  1.
       -3    1    3    3    0  502 -0.31987870589E+03  0.15497920273E+04 -0.92597325402E+03  0.18334678050E+04  0.10100000352E+00 0. -1.
</event>
<event>
 5   0  0.7254493E-08  0.3672218E+04  0.7818609E-02  0.8074147E-01
       -2   -1    0    0    0  501  0.00000000000E+00  0.00000000000E+00  0.26222601385E+04  0.26222601385E+04  0.25500000920E-02 0. -1.
        2   -1    0    0  501    0  0.00000000000E+00  0.00000000000E+00 -0.12856451056E+04  0.12856451056E+04  0.25500000920E-02 0.  1.
    10030    2    1    2    0    0  0.00000000000E+00  0.00000000000E+00  0.13366150329E+04  0.39079052441E+04  0.36722178109E+04 0.  0.
        3    1    3    3  502    0 -0.52108948109E+03 -0.13444580860E+04 -0.54139746954E+03  0.15401990204E+04  0.10100000352E+00 0.  1.
       -3    1    3    3    0  502  0.52108948109E+03  0.13444580860E+04  0.18780125024E+04  0.23677062237E+04  0.10100000352E+00 0. -1.
</event>
<event>
 5   0  0.2282000E-08  0.3694600E+04  0.7818609E-02  0.8069160E-01
       -1   -1    0    0    0  501  0.00000000000E+00  0.00000000000E+00  0.16127706118E+04  0.16127706118E+04  0.50400001928E-02 0.  1.
        1   -1    0    0  501    0  0.00000000000E+00  0.00000000000E+00 -0.21159347642E+04  0.21159347642E+04  0.50400001928E-02 0. -1.
    10030    2    1    2    0    0  0.00000000000E+00  0.00000000000E+00 -0.50316415237E+03  0.37287053760E+04  0.36946000618E+04 0.  0.
        1    1    3    3  502    0 -0.87460192591E+03  0.28323474703E+02 -0.18934949345E+04  0.20859179790E+04  0.50400001928E-02 0. -1.
       -1    1    3    3    0  502  0.87460192591E+03 -0.28323474703E+02  0.13903307821E+04  0.16427873970E+04  0.50400001928E-02 0.  1.
</event>
<event>
 5   0  0.7203049E-08  0.3719491E+04  0.7818609E-02  0.8063656E-01
        2   -1    0    0  501    0  0.00000000000E+00  0.00000000000E+00  0.11432378477E+04  0.11432378477E+04  0.25500000920E-02 0.  1.
       -2   -1    0    0    0  501  0.00000000000E+00  0.00000000000E+00 -0.30253141933E+04  0.30253141933E+04  0.25500000920E-02 0. -1.
    10030    2    1    2    0    0  0.00000000000E+00  0.00000000000E+00 -0.18820763456E+04  0.41685520410E+04  0.37194911947E+04 0.  0.
        4    1    3    3  502    0  0.12289274958E+04 -0.12854030630E+04 -0.33116207542E+03  0.18089206056E+04  0.12699999809E+01 0.  1.
       -4    1    3    3    0  502 -0.12289274958E+04  0.12854030630E+04 -0.15509142702E+04  0.23596314354E+04  0.12699999809E+01 0. -1.
</event>
<event>
 5   0  0.7203049E-08  0.3660220E+04  0.7818609E-02  0.8076835E-01
        2   -1    0    0  501    0  0.00000000000E+00  0.00000000000E+00  0.10815342002E+04  0.10815342003E+04  0.25500000920E-02 0. -1.
       -2   -1    0    0    0  501  0.00000000000E+00  0.00000000000E+00 -0.30968069702E+04  0.30968069702E+04  0.25500000920E-02 0.  1.
    10030    2    1    2    0    0  0.00000000000E+00  0.00000000000E+00 -0.20152727700E+04  0.41783411705E+04  0.36602200206E+04 0.  0.
        4    1    3    3  502    0  0.74707703414E+03 -0.15714114468E+04 -0.16552541364E+04  0.24015257440E+04  0.12699999809E+01 0.  1.
       -4    1    3    3    0  502 -0.74707703414E+03  0.15714114468E+04 -0.36001863350E+03  0.17768154264E+04  0.12699999809E+01 0. -1.
</event>
<event>
 5   0  0.2282000E-08  0.3695843E+04  0.7818609E-02  0.8068884E-01
       -1   -1    0    0    0  501  0.00000000000E+00  0.00000000000E+00  0.22513819483E+04  0.22513819483E+04  0.50400001928E-02 0.  1.
        1   -1    0    0  501    0  0.00000000000E+00  0.00000000000E+00 -0.15167631937E+04  0.15167631937E+04  0.50400001928E-02 0. -1.
    10030    2    1    2    0    0  0.00000000000E+00  0.00000000000E+00  0.73461875452E+03  0.37681451420E+04  0.36958426775E+04 0.  0.
        5    1    3    3  502    0  0.28153082830E+03  0.13780245868E+04  0.15893313827E+04  0.21223118770E+04  0.46999998093E+01 0.  1.
       -5    1    3    3    0  502 -0.28153082830E+03 -0.13780245868E+04 -0.85471262821E+03  0.16458332650E+04  0.46999998093E+01 0. -1.
</event>
<event>
 5   0  0.2282000E-08  0.3727484E+04  0.7818609E-02  0.8061898E-01
        1   -1    0    0  501    0  0.00000000000E+00  0.00000000000E+00  0.19967928771E+04  0.19967928771E+04  0.50400001928E-02 0. -1.
       -1   -1    0    0    0  501  0.00000000000E+00  0.00000000000E+00 -0.17395569919E+04  0.17395569919E+04  0.50400001928E-02 0.  1.
    10030    2    1    2    0    0  0.00000000000E+00  0.00000000000E+00  0.25723588528E+03  0.37363498690E+04  0.37274844122E+04 0.  0.
        3    1    3    3  502    0 -0.85976156389E+03  0.83033879714E+03  0.15620129368E+04  0.19668596517E+04  0.10100000352E+00 0. -1.
       -3    1    3    3    0  502  0.85976156389E+03 -0.83033879714E+03 -0.13047770515E+04  0.17694902173E+04  0.10100000352E+00 0.  1.
</event>
<event>
 5   0  0.2282000E-08  0.3692222E+04  0.7818609E-02  0.8069688E-01
       -1   -1    0    0    0  501  0.00000000000E+00  0.00000000000E+00  0.15929877419E+04  0.15929877419E+04  0.50400001928E-02 0. -1.
        1   -1    0    0  501    0  0.00000000000E+00  0.00000000000E+00 -0.21394545845E+04  0.21394545845E+04  0.50400001928E-02 0.  1.
    10030    2    1    2    0    0  0.00000000000E+00  0.00000000000E+00 -0.54646684261E+03  0.37324423265E+04  0.36922215142E+04 0.  0.
        2    1    3    3  502    0 -0.88328304151E+03  0.85358297629E+03  0.11199420231E+04  0.16622463608E+04  0.25500000920E-02 0. -1.
       -2    1    3    3    0  502  0.88328304151E+03 -0.85358297629E+03 -0.16664088657E+04  0.20701959657E+04  0.25500000920E-02 0.  1.
</event>
<event>
 5   0  0.7203049E-08  0.3698052E+04  0.7818609E-02  0.8068394E-01
        2   -1    0    0  501    0  0.00000000000E+00  0.00000000000E+00  0.12793688954E+04  0.12793688954E+04  0.25500000920E-02 0.  1.
       -2   -1    0    0    0  501  0.00000000000E+00  0.00000000000E+00 -0.26723309466E+04  0.26723309466E+04  0.25500000920E-02 0. -1.
    10030    2    1    2    0    0  0.00000000000E+00  0.00000000000E+00 -0.13929620512E+04  0.39516998421E+04  0.36980519690E+04 0.  0.
        4    1    3    3  502    0 -0.11434324014E+04 -0.15366047025E+03 -0.22405269018E+04  0.25201213477E+04  0.12699999809E+01 0. -1.
       -4    1    3    3    0  502  0.11434324014E+04  0.15366047025E+03  0.84756485059E+03  0.14315784944E+04  0.12699999809E+01 0.  1.
</event>
<event>
 5   0  0.2282000E-08  0.3705136E+04  0.7818609E-02  0.8066825E-01
        1   -1    0    0  501    0  0.00000000000E+00  0.00000000000E+00  0.17354929789E+04  0.17354929789E+04  0.50400001928E-02 0.  1.
       -1   -1    0    0    0  501  0.00000000000E+00  0.00000000000E+00 -0.19775408478E+04  0.19775408478E+04  0.50400001928E-02 0. -1.
    10030    2    1    2    0    0  0.00000000000E+00  0.00000000000E+00 -0.24204786891E+03  0.37130338268E+04  0.37051360337E+04 0.  0.
        3    1    3    3  502    0 -0.14789198739E+04  0.88724407229E+03 -0.79892888348E+03  0.19007086595E+04  0.10100000352E+00 0. -1.
       -3    1    3    3    0  502  0.14789198739E+04 -0.88724407229E+03  0.55688101457E+03  0.18123251673E+04  0.10100000352E+00 0.  1.
</event>
<event>
 5   0  0.7309833E-08  0.3702711E+04  0.7818609E-02  0.8067361E-01
       -2   -1    0    0    0  501  0.00000000000E+00  0.00000000000E+00  0.19442273667E+04  0.19442273667E+04  0.25500000920E-02 0.  1.
        2   -1    0    0  501    0  0.00000000000E+00  0.00000000000E+00 -0.17629198937E+04  0.17629198937E+04  0.25500000920E-02 0. -1.
    10030    2    1    2    0    0  0.00000000000E+00  0.00000000000E+00  0.18130747296E+03  0.37071472604E+04  0.37027109542E+04 0.  0.
        2    1    3    3  502    0  0.89911528016E+03  0.70248055555E+03 -0.13690470793E+04  0.17821832463E+04  0.25500000920E-02 0. -1.
       -2    1    3    3    0  502 -0.89911528016E+03 -0.70248055555E+03  0.15503545523E+04  0.19249640141E+04  0.25500000920E-02 0.  1.
</event>
<event>
 5   0  0.7203049E-08  0.3696500E+04  0.7818609E-02  0.8068738E-01
       -2   -1    0    0    0  501  0.00000000000E+00  0.00000000000E+00  0.22691340565E+04  0.22691340565E+04  0.25500000920E-02 0.  1.
        2   -1    0    0  501    0  0.00000000000E+00  0.00000000000E+00 -0.15054322143E+04  0.15054322143E+04  0.25500000920E-02 0. -1.
    10030    2    1    2    0    0  0.00000000000E+00  0.00000000000E+00  0.76370184217E+03  0.37745662708E+04  0.36964996996E+04 0.  0.
        4    1    3    3  502    0 -0.93878866554E+03  0.11732489562E+04  0.14807707926E+04  0.21096258021E+04  0.12699999809E+01 0.  1.
       -4    1    3    3    0  502  0.93878866554E+03 -0.11732489562E+04 -0.71706895045E+03  0.16649404687E+04  0.12699999809E+01 0. -1.
</event>
<event>
 5   0  0.2282000E-08  0.3705248E+04  0.7818609E-02  0.8066800E-01
        1   -1    0    0  501    0  0.00000000000E+00  0.00000000000E+00  0.11378354170E+04  0.11378354170E+04  0.50400001928E-02 0.  1.
       -1   -1    0    0    0  501  0.00000000000E+00  0.00000000000E+00 -0.30164430563E+04  0.30164430563E+04  0.50400001928E-02 0. -1.
    10030    2    1    2    0    0  0.00000000000E+00  0.00000000000E+00 -0.18786076393E+04  0.41542784734E+04  0.37052480311E+04 0.  0.
        5    1    3    3  502    0 -0.79267580642E+03  0.46095941314E+03  0.86555594719E+03  0.12609630059E+04  0.46999998093E+01 0.  1.
       -5    1    3    3    0  502  0.79267580642E+03 -0.46095941314E+03 -0.27441635865E+04  0.28933154674E+04  0.46999998093E+01 0. -1.
</event>
<event>
 5   0  0.2282000E-08  0.3695840E+04  0.7818609E-02  0.8068884E-01
        1   -1    0    0  501    0  0.00000000000E+00  0.00000000000E+00  0.31109793384E+04  0.31109793384E+04  0.50400001928E-02 0.  1.
       -1   -1    0    0    0  501  0.00000000000E+00  0.00000000000E+00 -0.10976637033E+04  0.10976637033E+04  0.50400001928E-02 0. -1.
    10030    2    1    2    0    0  0.00000000000E+00  0.00000000000E+00  0.20133156351E+04  0.42086430416E+04  0.36958404194E+04 0.  0.
        2    1    3    3  502    0 -0.88085043156E+03 -0.10667963037E+04 -0.38842046332E+03  0.14369489527E+04  0.25500000920E-02 0. -1.
       -2    1    3    3    0  502  0.88085043156E+03  0.10667963037E+04  0.24017360984E+04  0.27716940890E+04  0.25500000920E-02 0.  1.
</event>
<event>
 5   0  0.7309833E-08  0.3690183E+04  0.7818609E-02  0.8070141E-01
        2   -1    0    0  501    0  0.00000000000E+00  0.00000000000E+00  0.16585348264E+04  0.16585348264E+04  0.25500000920E-02 0.  1.
       -2   -1    0    0    0  501  0.00000000000E+00  0.00000000000E+00 -0.20526321162E+04  0.20526321162E+04  0.25500000920E-02 0. -1.
    10030    2    1    2    0    0  0.00000000000E+00  0.00000000000E+00 -0.39409728977E+03  0.37111669427E+04  0.36901825704E+04 0.  0.
        2    1    3    3  502    0 -0.18230741699E+04 -0.27147477978E+03 -0.28157338627E+03  0.18645593466E+04  0.25500000920E-02 0.  1.
       -2    1    3    3    0  502  0.18230741699E+04  0.27147477978E+03 -0.11252390350E+03  0.18466075961E+04  0.25500000920E-02 0. -1.
</event>
<event>
 5   0  0.7254493E-08  0.3700642E+04  0.7818609E-02  0.8067819E-01
       -2   -1    0    0    0  501  0.00000000000E+00  0.00000000000E+00  0.25110066455E+04  0.25110066455E+04  0.25500000920E-02 0.  1.
        2   -1    0    0  501    0  0.00000000000E+00  0.00000000000E+00 -0.13634725632E+04  0.13634725632E+04  0.25500000920E-02 0. -1.
    10030    2    1    2    0    0  0.00000000000E+00  0.00000000000E+00  0.11475340822E+04  0.38744792087E+04  0.37006424670E+04 0.  0.
        3    1    3    3  502    0 -0.14986311357E+04  0.10060977096E+04  0.99977227142E+03  0.20634128252E+04  0.10100000352E+00 0. -1.
       -3    1    3    3    0  502  0.14986311357E+04 -0.10060977096E+04  0.14776181082E+03  0.18110663835E+04  0.10100000352E+00 0.  1.
</event>
<event>
 5   0  0.7191801E-08  0.3700636E+04  0.7818609E-02  0.8067821E-01
        2   -1    0    0  501    0  0.00000000000E+00  0.00000000000E+00  0.11115967788E+04  0.11115967788E+04  0.25500000920E-02 0.  1.
       -2   -1    0    0    0  501  0.00000000000E+00  0.00000000000E+00 -0.30799624487E+04  0.30799624487E+04  0.25500000920E-02 0. -1.
    10030    2    1    2    0    0  0.00000000000E+00  0.00000000000E+00 -0.19683656699E+04  0.41915592274E+04  0.37006358030E+04 0.  0.
        5    1    3    3  502    0 -0.15980374814E+04  0.47747120089E+03 -0.18916907885E+04  0.25219473962E+04  0.46999998093E+01 0. -1.
       -5    1    3    3    0  502  0.15980374814E+04 -0.47747120089E+03 -0.76674881366E+02  0.16696118313E+04  0.46999998093E+01 0.  1.
</event>
<event>
 5   0  0.2282000E-08  0.3712153E+04  0.7818609E-02  0.8065274E-01
       -1   -1    0    0    0  501  0.00000000000E+00  0.00000000000E+00  0.17518839650E+04  0.17518839650E+04  0.50400001928E-02 0. -1.
        1   -1    0    0  501    0  0.00000000000E+00  0.00000000000E+00 -0.19664654485E+04  0.19664654485E+04  0.50400001928E-02 0.  1.
    10030    2    1    2    0    0  0.00000000000E+00  0.00000000000E+00 -0.21458148352E+03  0.37183494136E+04  0.37121526300E+04 0.  0.
        2    1    3    3  502    0  0.19766783650E+03  0.12844175919E+04 -0.14347267852E+04  0.19357794482E+04  0.25500000920E-02 0.  1.
       -2    1    3    3    0  502 -0.19766783650E+03 -0.12844175919E+04  0.12201453017E+04  0.17825699653E+04  0.25500000920E-02 0. -1.
</event>
<event>
 5   0  0.7309833E-08  0.3697504E+04  0.7818609E-02  0.8068515E-01
        2   -1    0    0  501    0  0.00000000000E+00  0.00000000000E+00  0.16291688398E+04  0.16291688398E+04  0.25500000920E-02 0.  1.
       -2   -1    0    0    0  501  0.00000000000E+00  0.00000000000E+00 -0.20979310125E+04  0.20979310125E+04  0.25500000920E-02 0. -1.
    10030    2    1    2    0    0  0.00000000000E+00  0.00000000000E+00 -0.46876217274E+03  0.37270998523E+04  0.36975039330E+04 0.  0.
        2    1    3    3  502    0 -0.51899001338E+03  0.15302809085E+04 -0.11397763258E+04  0.19774226573E+04  0.25500000920E-02 0. -1.
       -2    1    3    3    0  502  0.51899001338E+03 -0.15302809085E+04  0.67101415301E+03  0.17496771950E+04  0.25500000920E-02 0.  1.
</event>
<event>
 5   0  0.2282000E-08  0.3694895E+04  0.7818609E-02  0.8069094E-01
        1   -1    0    0  501    0  0.00000000000E+00  0.00000000000E+00  0.25751674987E+04  0.25751674987E+04  0.50400001928E-02 0.  1.
       -1   -1    0    0    0  501  0.00000000000E+00  0.00000000000E+00 -0.13253747281E+04  0.13253747281E+04  0.50400001928E-02 0. -1.
    10030    2    1    2    0    0  0.00000000000E+00  0.00000000000E+00  0.12497927706E+04  0.39005422268E+04  0.36948948150E+04 0.  0.
        2    1    3    3  502    0  0.17017849098E+04 -0.32533687109E+03  0.13017907841E+04  0.21671583247E+04  0.25500000920E-02 0.  1.
       -2    1    3    3    0  502 -0.17017849098E+04  0.32533687109E+03 -0.51998013459E+02  0.17333839021E+04  0.25500000920E-02 0. -1.
</event>
<event>
 5   0  0.7191801E-08  0.3699997E+04  0.7818609E-02  0.8067963E-01
        2   -1    0    0  501    0  0.00000000000E+00  0.00000000000E+00  0.16836644626E+04  0.16836644626E+04  0.25500000920E-02 0.  1.
       -2   -1    0    0    0  501  0.00000000000E+00  0.00000000000E+00 -0.20327646759E+04  0.20327646759E+04  0.25500000920E-02 0. -1.
    10030    2    1    2    0    0  0.00000000000E+00  0.00000000000E+00 -0.34910021329E+03  0.37164291385E+04  0.36999965652E+04 0.  0.
        5    1    3    3  502    0  0.16706171597E+04  0.77432839130E+03  0.49202540888E+01  0.18413561444E+04  0.46999998093E+01 0. -1.
       -5    1    3    3    0  502 -0.16706171597E+04 -0.77432839130E+03 -0.35402046738E+03  0.18750729941E+04  0.46999998093E+01 0.  1.
</event>
<event>
 5   0  0.2282000E-08  0.3698762E+04  0.7818609E-02  0.8068236E-01
        1   -1    0    0  501    0  0.00000000000E+00  0.00000000000E+00  0.18401902873E+04  0.18401902873E+04  0.50400001928E-02 0. -1.
       -1   -1    0    0    0  501  0.00000000000E+00  0.00000000000E+00 -0.18586180604E+04  0.18586180604E+04  0.50400001928E-02 0.  1.
    10030    2    1    2    0    0  0.00000000000E+00  0.00000000000E+00 -0.18427773124E+02  0.36988083477E+04  0.36987624430E+04 0.  0.
        1    1    3    3  502    0  0.71873637777E+03  0.45501092432E+03 -0.16513651935E+04  0.18575855093E+04  0.50400001928E-02 0.  1.
       -1    1    3    3    0  502 -0.71873637777E+03 -0.45501092432E+03  0.16329374203E+04  0.18412228384E+04  0.50400001928E-02 0. -1.
</event>
<event>
 5   0  0.2282000E-08  0.3699963E+04  0.7818609E-02  0.8067970E-01
        1   -1    0    0  501    0  0.00000000000E+00  0.00000000000E+00  0.17758830105E+04  0.17758830105E+04  0.50400001928E-02 0. -1.
       -1   -1    0    0    0  501  0.00000000000E+00  0.00000000000E+00 -0.19271718762E+04  0.19271718762E+04  0.50400001928E-02 0.  1.
    10030    2    1    2    0    0  0.00000000000E+00  0.00000000000E+00 -0.15128886570E+03  0.37030548868E+04  0.36999631314E+04 0.  0.
        4    1    3    3  502    0 -0.11665854247E+04 -0.17202725257E+03 -0.15022882147E+04  0.19098131902E+04  0.12699999809E+01 0.  1.
       -4    1    3    3    0  502  0.11665854247E+04  0.17202725257E+03  0.13509993489E+04  0.17932416966E+04  0.12699999809E+01 0. -1.
</event>
<event>
 5   0  0.2282000E-08  0.3687970E+04  0.7818609E-02  0.8070633E-01
        1   -1    0    0  501    0  0.00000000000E+00  0.00000000000E+00  0.21310134461E+04  0.21310134461E+04  0.50400001928E-02 0.  1.
       -1   -1    0    0    0  501  0.00000000000E+00  0.00000000000E+00 -0.15956169850E+04  0.15956169850E+04  0.50400001928E-02 0. -1.
    10030    2    1    2    0    0  0.00000000000E+00  0.00000000000E+00  0.53539646107E+03  0.37266304311E+04  0.36879703089E+04 0.  0.
        1    1    3    3  502    0 -0.53355046400E+03 -0.49629663114E+03 -0.14439578063E+04  0.16174055120E+04  0.50400001928E-02 0. -1.
       -1    1    3    3    0  502  0.53355046400E+03  0.49629663114E+03  0.19793542674E+04  0.21092249191E+04  0.50400001928E-02 0.  1.
</event>
<event>
 5   0  0.7191801E-08  0.3695324E+04  0.7818609E-02  0.8068999E-01
       -2   -1    0    0    0  501  0.00000000000E+00  0.00000000000E+00  0.21292618943E+04  0.21292618943E+04  0.25500000920E-02 0.  1.
        2   -1    0    0  501    0  0.00000000000E+00  0.00000000000E+00 -0.16033043137E+04  0.16033043137E+04  0.25500000920E-02 0. -1.
    10030    2    1    2    0    0  0.00000000000E+00  0.00000000000E+00  0.52595758059E+03  0.37325662079E+04  0.36953239533E+04 0.  0.
        5    1    3    3  502    0 -0.15567652811E+04  0.19453171369E+03  0.12487612875E+04  0.20051901584E+04  0.46999998093E+01 0.  1.
       -5    1    3    3    0  502  0.15567652811E+04 -0.19453171369E+03 -0.72280370691E+03  0.17273760496E+04  0.46999998093E+01 0. -1.
</event>
<event>
 5   0  0.2282000E-08  0.3687187E+04  0.7818609E-02  0.8070807E-01
        1   -1    0    0  501    0  0.00000000000E+00  0.00000000000E+00  0.18469235642E+04  0.18469235642E+04  0.50400001928E-02 0. -1.
       -1   -1    0    0    0  501  0.00000000000E+00  0.00000000000E+00 -0.18402696836E+04  0.18402696836E+04  0.50400001928E-02 0.  1.
    10030    2    1    2    0    0  0.00000000000E+00  0.00000000000E+00  0.66538806225E+01  0.36871932478E+04  0.36871872440E+04 0.  0.
        5    1    3    3  502    0  0.16187127103E+03  0.14279951083E+04  0.11580768516E+04  0.18456804767E+04  0.46999998093E+01 0. -1.
       -5    1    3    3    0  502 -0.16187127103E+03 -0.14279951083E+04 -0.11514229710E+04  0.18415127711E+04  0.46999998093E+01 0.  1.
</event>
<event>
 5   0  0.2282000E-08  0.3702438E+04  0.7818609E-02  0.8067422E-01
        1   -1    0    0  501    0  0.00000000000E+00  0.00000000000E+00  0.22031476034E+04  0.22031476034E+04  0.50400001928E-02 0.  1.
       -1   -1    0    0    0  501  0.00000000000E+00  0.00000000000E+00 -0.15555072662E+04  0.15555072662E+04  0.50400001928E-02 0. -1.
    10030    2    1    2    0    0  0.00000000000E+00  0.00000000000E+00  0.64764033722E+03  0.37586548696E+04  0.37024381727E+04 0.  0.
        3    1    3    3  502    0  0.12983210896E+04 -0.12168480766E+04 -0.19447580238E+03  0.17900217153E+04  0.10100000352E+00 0.  1.
       -3    1    3    3    0  502 -0.12983210896E+04  0.12168480766E+04  0.84211613960E+03  0.19686331543E+04  0.10100000352E+00 0. -1.
</event>
<event>
 5   0  0.7362817E-08  0.3703141E+04  0.7818609E-02  0.8067266E-01
        2   -1    0    0  501    0  0.00000000000E+00  0.00000000000E+00  0.12978034646E+04  0.12978034646E+04  0.25500000920E-02 0.  1.
       -2   -1    0    0    0  501  0.00000000000E+00  0.00000000000E+00 -0.26416278176E+04  0.26416278176E+04  0.25500000920E-02 0. -1.
    10030    2    1    2    0    0  0.00000000000E+00  0.00000000000E+00 -0.13438243530E+04  0.39394312822E+04  0.37031412254E+04 0.  0.
        1    1    3    3  502    0 -0.98837900766E+03  0.11484479363E+04 -0.18039998467E+04  0.23558949832E+04  0.50400001928E-02 0. -1.
       -1    1    3    3    0  502  0.98837900766E+03 -0.11484479363E+04  0.46017549367E+03  0.15835362990E+04  0.50400001928E-02 0.  1.
</event>
<event>
 5   0  0.2282000E-08  0.3707862E+04  0.7818609E-02  0.8066222E-01
        1   -1    0    0  501    0  0.00000000000E+00  0.00000000000E+00  0.16709026718E+04  0.16709026718E+04  0.50400001928E-02 0. -1.
       -1   -1    0    0    0  501  0.00000000000E+00  0.00000000000E+00 -0.20570082442E+04  0.20570082442E+04  0.50400001928E-02 0.  1.
    10030    2    1    2    0    0  0.00000000000E+00  0.00000000000E+00 -0.38610557242E+03  0.37279109160E+04  0.37078622257E+04 0.  0.
        3    1    3    3  502    0 -0.16707700948E+03 -0.15656667906E+04  0.79092866300E+03  0.17620429581E+04  0.10100000352E+00 0. -1.
       -3    1    3    3    0  502  0.16707700948E+03  0.15656667906E+04 -0.11770342354E+04  0.19658679579E+04  0.10100000352E+00 0.  1.
</event>
<event>
 5   0  0.7254493E-08  0.3705360E+04  0.7818609E-02  0.8066775E-01
        2   -1    0    0  501    0  0.00000000000E+00  0.00000000000E+00  0.20555602848E+04  0.20555602848E+04  0.25500000920E-02 0. -1.
       -2   -1    0    0    0  501  0.00000000000E+00  0.00000000000E+00 -0.16698233510E+04  0.16698233510E+04  0.25500000920E-02 0.  1.
    10030    2    1    2    0    0  0.00000000000E+00  0.00000000000E+00  0.38573693382E+03  0.37253836358E+04  0.37053596657E+04 0.  0.
        3    1    3    3  502    0 -0.63113287704E+03  0.17031192378E+04 -0.17445326782E+03  0.18246582693E+04  0.10100000352E+00 0.  1.
       -3    1    3    3    0  502  0.63113287704E+03 -0.17031192378E+04  0.56019020164E+03  0.19007253665E+04  0.10100000352E+00 0. -1.
</event>
<event>
 5   0  0.2282000E-08  0.3700831E+04  0.7818609E-02  0.8067778E-01
       -1   -1    0    0    0  501  0.00000000000E+00  0.00000000000E+00  0.33739189631E+04  0.33739189631E+04  0.50400001928E-02 0. -1.
        1   -1    0    0  501    0  0.00000000000E+00  0.00000000000E+00 -0.10148548660E+04  0.10148548661E+04  0.50400001928E-02 0.  1.
    10030    2    1    2    0    0  0.00000000000E+00  0.00000000000E+00  0.23590640970E+04  0.43887738292E+04  0.37008312998E+04 0.  0.
        1    1    3    3  502    0 -0.16775309590E+03 -0.74660457414E+03 -0.81842764737E+03  0.11204388896E+04  0.50400001928E-02 0.  1.
       -1    1    3    3    0  502  0.16775309590E+03  0.74660457414E+03  0.31774917444E+04  0.32683349396E+04  0.50400001928E-02 0. -1.
</event>
<event>
 5   0  0.2282000E-08  0.3698754E+04  0.7818609E-02  0.8068238E-01
       -1   -1    0    0    0  501  0.00000000000E+00  0.00000000000E+00  0.13629551459E+04  0.13629551459E+04  0.50400001928E-02 0.  1.
        1   -1    0    0  501    0  0.00000000000E+00  0.00000000000E+00 -0.25093968604E+04  0.25093968604E+04  0.50400001928E-02 0. -1.
    10030    2    1    2    0    0  0.00000000000E+00  0.00000000000E+00 -0.11464417146E+04  0.38723520063E+04  0.36987540410E+04 0.  0.
        1    1    3    3  502    0 -0.40607850471E+03 -0.12642062154E+04 -0.19209135873E+04  0.23351715391E+04  0.50400001928E-02 0. -1.
       -1    1    3    3    0  502  0.40607850471E+03  0.12642062154E+04  0.77447187275E+03  0.15371804672E+04  0.50400001928E-02 0.  1.
</event>
<event>
 5   0  0.7362817E-08  0.3630592E+04  0.7818609E-02  0.8083520E-01
       -2   -1    0    0    0  501  0.00000000000E+00  0.00000000000E+00  0.24924044625E+04  0.24924044625E+04  0.25500000920E-02 0. -1.
        2   -1    0    0  501    0  0.00000000000E+00  0.00000000000E+00 -0.13221369549E+04  0.13221369549E+04  0.25500000920E-02 0.  1.
    10030    2    1    2    0    0  0.00000000000E+00  0.00000000000E+00  0.11702675077E+04  0.38145414174E+04  0.36305922638E+04 0.  0.
        1    1    3    3  502    0 -0.11665319595E+04  0.11491891413E+04 -0.23806024459E+03  0.16547220840E+04  0.50400001928E-02 0.  1.
       -1    1    3    3    0  502  0.11665319595E+04 -0.11491891413E+04  0.14083277523E+04  0.21598193334E+04  0.50400001928E-02 0. -1.
</event>
<event>
 5   0  0.2282000E-08  0.3704331E+04  0.7818609E-02  0.8067003E-01
        1   -1    0    0  501    0  0.00000000000E+00  0.00000000000E+00  0.21319185123E+04  0.21319185124E+04  0.50400001928E-02 0.  1.
       -1   -1    0    0    0  501  0.00000000000E+00  0.00000000000E+00 -0.16091217262E+04  0.16091217263E+04  0.50400001928E-02 0. -1.
    10030    2    1    2    0    0  0.00000000000E+00  0.00000000000E+00  0.52279678610E+03  0.37410402386E+04  0.37043306531E+04 0.  0.
        3    1    3    3  502    0  0.10178667247E+04  0.74907807173E+03 -0.11060307243E+04  0.16794268666E+04  0.10100000352E+00 0. -1.
       -3    1    3    3    0  502 -0.10178667247E+04 -0.74907807173E+03  0.16288275104E+04  0.20616133720E+04  0.10100000352E+00 0.  1.
</event>
<event>
 5   0  0.2282000E-08  0.3704904E+04  0.7818609E-02  0.8066876E-01
       -1   -1    0    0    0  501  0.00000000000E+00  0.00000000000E+00  0.14442082644E+04  0.14442082644E+04  0.50400001928E-02 0. -1.
        1   -1    0    0  501    0  0.00000000000E+00  0.00000000000E+00 -0.23760965667E+04  0.23760965667E+04  0.50400001928E-02 0.  1.
    10030    2    1    2    0    0  0.00000000000E+00  0.00000000000E+00 -0.93188830232E+03  0.38203048310E+04  0.37049039386E+04 0.  0.
        3    1    3    3  502    0 -0.17705548893E+04  0.39236159857E+03 -0.76331065234E+02  0.18151139583E+04  0.10100000352E+00 0.  1.
       -3    1    3    3    0  502  0.17705548893E+04 -0.39236159857E+03 -0.85555723708E+03  0.20051908727E+04  0.10100000352E+00 0. -1.
</event>
<event>
 5   0  0.7254493E-08  0.3703311E+04  0.7818609E-02  0.8067228E-01
        2   -1    0    0  501    0  0.00000000000E+00  0.00000000000E+00  0.31794836734E+04  0.31794836734E+04  0.25500000920E-02 0.  1.
       -2   -1    0    0    0  501  0.00000000000E+00  0.00000000000E+00 -0.10783600327E+04  0.10783600327E+04  0.25500000920E-02 0. -1.
    10030    2    1    2    0    0  0.00000000000E+00  0.00000000000E+00  0.21011236408E+04  0.42578437061E+04  0.37033110147E+04 0.  0.
        3    1    3    3  502    0 -0.10876641138E+04  0.36093797118E+02 -0.67186649460E+03  0.12789529247E+04  0.10100000352E+00 0. -1.
       -3    1    3    3    0  502  0.10876641138E+04 -0.36093797118E+02  0.27729901354E+04  0.29788907814E+04  0.10100000352E+00 0.  1.
</event>
<event>
 5   0  0.7191801E-08  0.3698477E+04  0.7818609E-02  0.8068300E-01
       -2   -1    0    0    0  501  0.00000000000E+00  0.00000000000E+00  0.12141431938E+04  0.12141431938E+04  0.25500000920E-02 0.  1.
        2   -1    0    0  501    0  0.00000000000E+00  0.00000000000E+00 -0.28165394355E+04  0.28165394355E+04  0.25500000920E-02 0. -1.
    10030    2    1    2    0    0  0.00000000000E+00  0.00000000000E+00 -0.16023962417E+04  0.40306826294E+04  0.36984765435E+04 0.  0.
        5    1    3    3  502    0  0.17424242594E+03  0.42373095524E+03  0.11513037435E+04  0.12391249918E+04  0.46999998093E+01 0.  1.
       -5    1    3    3    0  502 -0.17424242594E+03 -0.42373095524E+03 -0.27536999852E+04  0.27915576376E+04  0.46999998093E+01 0. -1.
</event>
<event>
 5   0  0.7309833E-08  0.3699089E+04  0.7818609E-02  0.8068164E-01
        2   -1    0    0  501    0  0.00000000000E+00  0.00000000000E+00  0.22281306060E+04  0.22281306060E+04  0.25500000920E-02 0. -1.
       -2   -1    0    0    0  501  0.00000000000E+00  0.00000000000E+00 -0.15352848353E+04  0.15352848353E+04  0.25500000920E-02 0.  1.
    10030    2    1    2    0    0  0.00000000000E+00  0.00000000000E+00  0.69284577076E+03  0.37634154413E+04  0.36990891475E+04 0.  0.
        2    1    3    3  502    0 -0.66516890634E+03 -0.10868246755E+03 -0.14058972962E+04  0.15591051152E+04  0.25500000920E-02 0.  1.
       -2    1    3    3    0  502  0.66516890634E+03  0.10868246755E+03  0.20987430669E+04  0.22043103261E+04  0.25500000920E-02 0. -1.
</event>
<event>
 5   0  0.7309833E-08  0.3682264E+04  0.7818609E-02  0.8071904E-01
       -2   -1    0    0    0  501  0.00000000000E+00  0.00000000000E+00  0.19201161226E+04  0.19201161226E+04  0.25500000920E-02 0. -1.
        2   -1    0    0  501    0  0.00000000000E+00  0.00000000000E+00 -0.17653966386E+04  0.17653966386E+04  0.25500000920E-02 0.  1.
    10030    2    1    2    0    0  0.00000000000E+00  0.00000000000E+00  0.15471948401E+03  0.36855127611E+04  0.36822637322E+04 0.  0.
        2    1    3    3  502    0  0.12513664103E+04  0.13462798605E+04 -0.29407679960E+02  0.18382742362E+04  0.25500000920E-02 0.  1.
       -2    1    3    3    0  502 -0.12513664103E+04 -0.13462798605E+04  0.18412716397E+03  0.18472385250E+04  0.25500000920E-02 0. -1.
</event>
<event>
 5   0  0.7254493E-08  0.3698224E+04  0.7818609E-02  0.8068355E-01
       -2   -1    0    0    0  501  0.00000000000E+00  0.00000000000E+00  0.19389934224E+04  0.19389934224E+04  0.25500000920E-02 0.  1.
        2   -1    0    0  501    0  0.00000000000E+00  0.00000000000E+00 -0.17633971173E+04  0.17633971173E+04  0.25500000920E-02 0. -1.
    10030    2    1    2    0    0  0.00000000000E+00  0.00000000000E+00  0.17559630504E+03  0.37023905397E+04  0.36982241206E+04 0.  0.
        3    1    3    3  502    0  0.64719643108E+03 -0.12195273654E+04 -0.11436710655E+04  0.17927893718E+04  0.10100000352E+00 0. -1.
       -3    1    3    3    0  502 -0.64719643108E+03  0.12195273654E+04  0.13192673705E+04  0.19096011679E+04  0.10100000352E+00 0.  1.
</event>
<event>
 5   0  0.2282000E-08  0.3699611E+04  0.7818609E-02  0.8068048E-01
        1   -1    0    0  501    0  0.00000000000E+00  0.00000000000E+00  0.19644560966E+04  0.19644560966E+04  0.50400001928E-02 0.  1.
       -1   -1    0    0    0  501  0.00000000000E+00  0.00000000000E+00 -0.17418461126E+04  0.17418461126E+04  0.50400001928E-02 0. -1.
    10030    2    1    2    0    0  0.00000000000E+00  0.00000000000E+00  0.22260998401E+03  0.37063022092E+04  0.36996109067E+04 0.  0.
        2    1    3    3  502    0 -0.14796812433E+04  0.53554365910E+03 -0.86283048810E+03  0.17946420378E+04  0.25500000920E-02 0. -1.
       -2    1    3    3    0  502  0.14796812433E+04 -0.53554365910E+03  0.10854404721E+04  0.19116601714E+04  0.25500000920E-02 0.  1.
</event>
<event>
 5   0  0.7362817E-08  0.3697009E+04  0.7818609E-02  0.8068625E-01
        2   -1    0    0  501    0  0.00000000000E+00  0.00000000000E+00  0.23111155907E+04  0.23111155907E+04  0.25500000920E-02 0.  1.
       -2   -1    0    0    0  501  0.00000000000E+00  0.00000000000E+00 -0.14784932726E+04  0.14784932726E+04  0.25500000920E-02 0. -1.
    10030    2    1    2    0    0  0.00000000000E+00  0.00000000000E+00  0.83262231810E+03  0.37896088633E+04  0.36970089819E+04 0.  0.
        1    1    3    3  502    0 -0.50331245230E+03  0.41815341632E+03  0.21884257903E+04  0.22841591765E+04  0.50400001928E-02 0.  1.
       -1    1    3    3    0  502  0.50331245230E+03 -0.41815341632E+03 -0.13558034722E+04  0.15054496868E+04  0.50400001928E-02 0. -1.
</event>
<event>
 5   0  0.2282000E-08  0.3701410E+04  0.7818609E-02  0.8067649E-01
        1   -1    0    0  501    0  0.00000000000E+00  0.00000000000E+00  0.22079421105E+04  0.22079421105E+04  0.50400001928E-02 0.  1.
       -1   -1    0    0    0  501  0.00000000000E+00  0.00000000000E+00 -0.15512676592E+04  0.15512676592E+04  0.50400001928E-02 0. -1.
    10030    2    1    2    0    0  0.00000000000E+00  0.00000000000E+00  0.65667445128E+03  0.37592097697E+04  0.37014101039E+04 0.  0.
        3    1    3    3  502    0 -0.73588207649E+03  0.16840685655E+04  0.10698937166E+03  0.18409389179E+04  0.10100000352E+00 0.  1.
       -3    1    3    3    0  502  0.73588207649E+03 -0.16840685655E+04  0.54968507961E+03  0.19182708518E+04  0.10100000352E+00 0. -1.
</event>
<event>
 5   0  0.2282000E-08  0.3693964E+04  0.7818609E-02  0.8069301E-01
        1   -1    0    0  501    0  0.00000000000E+00  0.00000000000E+00  0.23912975195E+04  0.23912975195E+04  0.50400001928E-02 0.  1.
       -1   -1    0    0    0  501  0.00000000000E+00  0.00000000000E+00 -0.14265651180E+04  0.14265651180E+04  0.50400001928E-02 0. -1.
    10030    2    1    2    0    0  0.00000000000E+00  0.00000000000E+00  0.96473240156E+03  0.38178626375E+04  0.36939635234E+04 0.  0.
        3    1    3    3  502    0 -0.12370528039E+04 -0.12132238063E+04 -0.17872038598E+03  0.17418819220E+04  0.10100000352E+00 0. -1.
       -3    1    3    3    0  502  0.12370528039E+04  0.12132238063E+04  0.11434527875E+04  0.20759807155E+04  0.10100000352E+00 0.  1.
</event>
<event>
 5   0  0.2282000E-08  0.3690851E+04  0.7818609E-02  0.8069992E-01
        1   -1    0    0  501    0  0.00000000000E+00  0.00000000000E+00  0.18902577495E+04  0.18902577495E+04  0.50400001928E-02 0. -1.
       -1   -1    0    0    0  501  0.00000000000E+00  0.00000000000E+00 -0.18016565388E+04  0.18016565389E+04  0.50400001928E-02 0.  1.
    10030    2    1    2    0    0  0.00000000000E+00  0.00000000000E+00  0.88601210623E+02  0.36919142883E+04  0.36908509775E+04 0.  0.
        4    1    3    3  502    0  0.35127415944E+03  0.18015506058E+04 -0.14710629531E+03  0.18413636239E+04  0.12699999809E+01 0. -1.
       -4    1    3    3    0  502 -0.35127415944E+03 -0.18015506058E+04  0.23570750594E+03  0.18505506644E+04  0.12699999809E+01 0.  1.
</event>
<event>
 5   0  0.7203049E-08  0.3697341E+04  0.7818609E-02  0.8068551E-01
        2   -1    0    0  501    0  0.00000000000E+00  0.00000000000E+00  0.16260527279E+04  0.16260527279E+04  0.25500000920E-02 0. -1.
       -2   -1    0    0    0  501  0.00000000000E+00  0.00000000000E+00 -0.21017657962E+04  0.21017657962E+04  0.25500000920E-02 0.  1.
    10030    2    1    2    0    0  0.00000000000E+00  0.00000000000E+00 -0.47571306833E+03  0.37278185241E+04  0.36973406694E+04 0.  0.
        4    1    3    3  502    0 -0.94300167043E+03 -0.53799088986E+03 -0.17464841900E+04  0.20564277247E+04  0.12699999809E+01 0.  1.
       -4    1    3    3    0  502  0.94300167043E+03  0.53799088986E+03  0.12707711216E+04  0.16713907995E+04  0.12699999809E+01 0. -1.
</event>
<event>
 5   0  0.2282000E-08  0.3708810E+04  0.7818609E-02  0.8066012E-01
       -1   -1    0    0    0  501  0.00000000000E+00  0.00000000000E+00  0.16301220145E+04  0.16301220145E+04  0.50400001928E-02 0.  1.
        1   -1    0    0  501    0  0.00000000000E+00  0.00000000000E+00 -0.21095459223E+04  0.21095459223E+04  0.50400001928E-02 0. -1.
    10030    2    1    2    0    0  0.00000000000E+00  0.00000000000E+00 -0.47942390780E+03  0.37396679368E+04  0.37088096466E+04 0.  0.
        3    1    3    3  502    0  0.18528593720E+04 -0.52883513991E+02 -0.18510677918E+03  0.18628336072E+04  0.10100000352E+00 0.  1.
       -3    1    3    3    0  502 -0.18528593720E+04  0.52883513991E+02 -0.29431712863E+03  0.18768343296E+04  0.10100000352E+00 0. -1.
</event>
<event>
 5   0  0.7191801E-08  0.3700976E+04  0.7818609E-02  0.8067746E-01
        2   -1    0    0  501    0  0.00000000000E+00  0.00000000000E+00  0.17459705563E+04  0.17459705563E+04  0.25500000920E-02 0. -1.
       -2   -1    0    0    0  501  0.00000000000E+00  0.00000000000E+00 -0.19612618312E+04  0.19612618312E+04  0.25500000920E-02 0.  1.
    10030    2    1    2    0    0  0.00000000000E+00  0.00000000000E+00 -0.21529127493E+03  0.37072323876E+04  0.37009757689E+04 0.  0.
        5    1    3    3  502    0  0.14888236538E+04  0.37019683921E+03  0.92882178468E+03  0.17934250945E+04  0.46999998093E+01 0. -1.
       -5    1    3    3    0  502 -0.14888236538E+04 -0.37019683921E+03 -0.11441130596E+04  0.19138072931E+04  0.46999998093E+01 0.  1.
</event>
<event>
 5   0  0.2282000E-08  0.3702044E+04  0.7818609E-02  0.8067509E-01
       -1   -1    0    0    0  501  0.00000000000E+00  0.00000000000E+00  0.17970127008E+04  0.17970127008E+04  0.50400001928E-02 0.  1.
        1   -1    0    0  501    0  0.00000000000E+00  0.00000000000E+00 -0.19066542760E+04  0.19066542761E+04  0.50400001928E-02 0. -1.
    10030    2    1    2    0    0  0.00000000000E+00  0.00000000000E+00 -0.10964157524E+03  0.37036669769E+04  0.37020437329E+04 0.  0.
        3    1    3    3  502    0  0.15282997391E+04 -0.90926715779E+02  0.98597867312E+03  0.18210221620E+04  0.10100000352E+00 0.  1.
       -3    1    3    3    0  502 -0.15282997391E+04  0.90926715779E+02 -0.10956202484E+04  0.18826448149E+04  0.10100000352E+00 0. -1.
</event>
<event>
 5   0  0.7362817E-08  0.3694279E+04  0.7818609E-02  0.8069231E-01
        2   -1    0    0  501    0  0.00000000000E+00  0.00000000000E+00  0.23228536890E+04  0.23228536890E+04  0.25500000920E-02 0.  1.
       -2   -1    0    0    0  501  0.00000000000E+00  0.00000000000E+00 -0.14688501356E+04  0.14688501356E+04  0.25500000920E-02 0. -1.
    10030    2    1    2    0    0  0.00000000000E+00  0.00000000000E+00  0.85400355342E+03  0.37917038247E+04  0.36942787963E+04 0.  0.
        1    1    3    3  502    0  0.73905745036E+03  0.10422559497E+04 -0.94212619561E+03  0.15874839048E+04  0.50400001928E-02 0. -1.
       -1    1    3    3    0  502 -0.73905745036E+03 -0.10422559497E+04  0.17961297490E+04  0.22042199198E+04  0.50400001928E-02 0.  1.
</event>
<event>
 5   0  0.2282000E-08  0.3698578E+04  0.7818609E-02  0.8068277E-01
       -1   -1    0    0    0  501  0.00000000000E+00  0.00000000000E+00  0.16536380744E+04  0.16536380744E+04  0.50400001928E-02 0.  1.
        1   -1    0    0  501    0  0.00000000000E+00  0.00000000000E+00 -0.20680882491E+04  0.20680882491E+04  0.50400001928E-02 0. -1.
    10030    2    1    2    0    0  0.00000000000E+00  0.00000000000E+00 -0.41445017466E+03  0.37217263235E+04  0.36985778186E+04 0.  0.
        3    1    3    3  502    0  0.11574187498E+03  0.97439850549E+03  0.13700741477E+04  0.16852156567E+04  0.10100000352E+00 0.  1.
       -3    1    3    3    0  502 -0.11574187498E+03 -0.97439850549E+03 -0.17845243223E+04  0.20365106669E+04  0.10100000352E+00 0. -1.
</event>
<event>
 5   0  0.7191801E-08  0.3682769E+04  0.7818609E-02  0.8071791E-01
        2   -1    0    0  501    0  0.00000000000E+00  0.00000000000E+00  0.24173050880E+04  0.24173050880E+04  0.25500000920E-02 0. -1.
       -2   -1    0    0    0  501  0.00000000000E+00  0.00000000000E+00 -0.14026767556E+04  0.14026767556E+04  0.25500000920E-02 0.  1.
    10030    2    1    2    0    0  0.00000000000E+00  0.00000000000E+00  0.10146283324E+04  0.38199818437E+04  0.36827694244E+04 0.  0.
        5    1    3    3  502    0  0.56473223647E+03 -0.13877536717E+03  0.23195479095E+04  0.23913397282E+04  0.46999998093E+01 0. -1.
       -5    1    3    3    0  502 -0.56473223647E+03  0.13877536717E+03 -0.13049195770E+04  0.14286421154E+04  0.46999998093E+01 0.  1.
</event>
<event>
 5   0  0.7254493E-08  0.3674019E+04  0.7818609E-02  0.8073744E-01
        2   -1    0    0  501    0  0.00000000000E+00  0.00000000000E+00  0.21200291387E+04  0.21200291387E+04  0.25500000920E-02 0. -1.
       -2   -1    0    0    0  501  0.00000000000E+00  0.00000000000E+00 -0.15917722857E+04  0.15917722857E+04  0.25500000920E-02 0.  1.
    10030    2    1    2    0    0  0.00000000000E+00  0.00000000000E+00  0.52825685298E+03  0.37118014244E+04  0.36740188502E+04 0.  0.
        3    1    3    3  502    0 -0.22137013658E+03 -0.18157474543E+04  0.93094636165E+02  0.18315594931E+04  0.10100000352E+00 0.  1.
       -3    1    3    3    0  502  0.22137013658E+03  0.18157474543E+04  0.43516221681E+03  0.18802419313E+04  0.10100000352E+00 0. -1.
</event>
<event>
 5   0  0.7254493E-08  0.3723662E+04  0.7818609E-02  0.8062738E-01
        2   -1    0    0  501    0  0.00000000000E+00  0.00000000000E+00  0.26438071944E+04  0.26438071944E+04  0.25500000920E-02 0.  1.
       -2   -1    0    0    0  501  0.00000000000E+00  0.00000000000E+00 -0.13111451038E+04  0.13111451038E+04  0.25500000920E-02 0. -1.
    10030    2    1    2    0    0  0.00000000000E+00  0.00000000000E+00  0.13326620906E+04  0.39549522982E+04  0.37236620997E+04 0.  0.
        3    1    3    3  502    0 -0.72018145525E+03 -0.11807895499E+04 -0.65747742184E+03  0.15314051913E+04  0.10100000352E+00 0. -1.
       -3    1    3    3    0  502  0.72018145525E+03  0.11807895499E+04  0.19901395125E+04  0.24235471068E+04  0.10100000352E+00 0.  1.
</event>
<event>
 5   0  0.2282000E-08  0.3703052E+04  0.7818609E-02  0.8067286E-01
       -1   -1    0    0    0  501  0.00000000000E+00  0.00000000000E+00  0.12231449086E+04  0.12231449086E+04  0.50400001928E-02 0.  1.
        1   -1    0    0  501    0  0.00000000000E+00  0.00000000000E+00 -0.28027328747E+04  0.28027328747E+04  0.50400001928E-02 0. -1.
    10030    2    1    2    0    0  0.00000000000E+00  0.00000000000E+00 -0.15795879661E+04  0.40258777834E+04  0.37030519553E+04 0.  0.
        1    1    3    3  502    0  0.42220097190E+03 -0.16962914731E+04 -0.12626774071E+03  0.17525986320E+04  0.50400001928E-02 0.  1.
       -1    1    3    3    0  502 -0.42220097190E+03  0.16962914731E+04 -0.14533202254E+04  0.22732791514E+04  0.50400001928E-02 0. -1.
</event>
<event>
 5   0  0.2282000E-08  0.3668972E+04  0.7818609E-02  0.8074873E-01
       -1   -1    0    0    0  501  0.00000000000E+00  0.00000000000E+00  0.16547466581E+04  0.16547466581E+04  0.50400001928E-02 0. -1.
        1   -1    0    0  501    0  0.00000000000E+00  0.00000000000E+00 -0.20337490584E+04  0.20337490584E+04  0.50400001928E-02 0.  1.
    10030    2    1    2    0    0  0.00000000000E+00  0.00000000000E+00 -0.37900240033E+03  0.36884957165E+04  0.36689723126E+04 0.  0.
        4    1    3    3  502    0 -0.44568311170E+03  0.17500450268E+04  0.13477810954E+03  0.18109273270E+04  0.12699999809E+01 0.  1.
       -4    1    3    3    0  502  0.44568311170E+03 -0.17500450268E+04 -0.51378050987E+03  0.18775683895E+04  0.12699999809E+01 0. -1.
</event>
<event>
 5   0  0.2282000E-08  0.3691243E+04  0.7818609E-02  0.8069905E-01
       -1   -1    0    0    0  501  0.00000000000E+00  0.00000000000E+00  0.30003461203E+04  0.30003461203E+04  0.50400001928E-02 0.  1.
        1   -1    0    0  501    0  0.00000000000E+00  0.00000000000E+00 -0.11353086023E+04  0.11353086023E+04  0.50400001928E-02 0. -1.
    10030    2    1    2    0    0  0.00000000000E+00  0.00000000000E+00  0.18650375180E+04  0.41356547226E+04  0.36912430212E+04 0.  0.
        1    1    3    3  502    0  0.10173649051E+03  0.11116491248E+04 -0.71419867967E+03  0.13252146408E+04  0.50400001928E-02 0. -1.
       -1    1    3    3    0  502 -0.10173649051E+03 -0.11116491248E+04  0.25792361977E+04  0.28104400818E+04  0.50400001928E-02 0.  1.
</event>
<event>
 5   0  0.2282000E-08  0.3699230E+04  0.7818609E-02  0.8068132E-01
       -3   -1    0    0    0  501  0.00000000000E+00  0.00000000000E+00  0.14672836489E+04  0.14672836524E+04  0.10100000352E+00 0. -1.
        3   -1    0    0  501    0  0.00000000000E+00  0.00000000000E+00 -0.23315709314E+04  0.23315709336E+04  0.10100000352E+00 0.  1.
    10030    2    1    2    0    0  0.00000000000E+00  0.00000000000E+00 -0.86428728250E+03  0.37988545859E+04  0.36992301440E+04 0.  0.
        5    1    3    3  502    0  0.15891760038E+04 -0.14981935310E+03  0.52743413337E+03  0.16811112589E+04  0.46999998093E+01 0.  1.
       -5    1    3    3    0  502 -0.15891760038E+04  0.14981935310E+03 -0.13917214159E+04  0.21177433270E+04  0.46999998093E+01 0. -1.
</event>
<event>
 5   0  0.2282000E-08  0.3701901E+04  0.7818609E-02  0.8067541E-01
        1   -1    0    0  501    0  0.00000000000E+00  0.00000000000E+00  0.17457911282E+04  0.17457911282E+04  0.50400001928E-02 0.  1.
       -1   -1    0    0    0  501  0.00000000000E+00  0.00000000000E+00 -0.19624445743E+04  0.19624445743E+04  0.50400001928E-02 0. -1.
    10030    2    1    2    0    0  0.00000000000E+00  0.00000000000E+00 -0.21665344605E+03  0.37082357025E+04  0.37019013101E+04 0.  0.
        5    1    3    3  502    0 -0.18058669894E+04  0.30034531822E+03 -0.38198522426E+03  0.18701063326E+04  0.46999998093E+01 0. -1.
       -5    1    3    3    0  502  0.18058669894E+04 -0.30034531822E+03  0.16533177821E+03  0.18381293699E+04  0.46999998093E+01 0.  1.
</event>
<event>
 5   0  0.2282000E-08  0.3709607E+04  0.7818609E-02  0.8065836E-01
       -1   -1    0    0    0  501  0.00000000000E+00  0.00000000000E+00  0.20006161273E+04  0.20006161273E+04  0.50400001928E-02 0.  1.
        1   -1    0    0  501    0  0.00000000000E+00  0.00000000000E+00 -0.17196179782E+04  0.17196179782E+04  0.50400001928E-02 0. -1.
    10030    2    1    2    0    0  0.00000000000E+00  0.00000000000E+00  0.28099814911E+03  0.37202341056E+04  0.37096066962E+04 0.  0.
        4    1    3    3  502    0  0.15730522335E+04  0.65432479054E+03 -0.59485431715E+03  0.18045740584E+04  0.12699999809E+01 0. -1.
       -4    1    3    3    0  502 -0.15730522335E+04 -0.65432479054E+03  0.87585246626E+03  0.19156600472E+04  0.12699999809E+01 0.  1.
</event>
<event>
 5   0  0.2282000E-08  0.3693747E+04  0.7818609E-02  0.8069349E-01
        1   -1    0    0  501    0  0.00000000000E+00  0.00000000000E+00  0.17872414941E+04  0.17872414941E+04  0.50400001928E-02 0.  1.
       -1   -1    0    0    0  501  0.00000000000E+00  0.00000000000E+00 -0.19084953740E+04  0.19084953740E+04  0.50400001928E-02 0. -1.
    10030    2    1    2    0    0  0.00000000000E+00  0.00000000000E+00 -0.12125387989E+03  0.36957368680E+04  0.36937472158E+04 0.  0.
        2    1    3    3  502    0 -0.93865354431E+03  0.43982220634E+03  0.14687343010E+04  0.17976914353E+04  0.25500000920E-02 0.  1.
       -2    1    3    3    0  502  0.93865354431E+03 -0.43982220634E+03 -0.15899881809E+04  0.18980454328E+04  0.25500000920E-02 0. -1.
</event>
<event>
 5   0  0.7309833E-08  0.3751477E+04  0.7818609E-02  0.8056649E-01
        2   -1    0    0  501    0  0.00000000000E+00  0.00000000000E+00  0.14476498925E+04  0.14476498925E+04  0.25500000920E-02 0. -1.
       -2   -1    0    0    0  501  0.00000000000E+00  0.00000000000E+00 -0.24304186084E+04  0.24304186084E+04  0.25500000920E-02 0.  1.
    10030    2    1    2    0    0  0.00000000000E+00  0.00000000000E+00 -0.98276871597E+03  0.38780685009E+04  0.37514771689E+04 0.  0.
        2    1    3    3  502    0 -0.12219918462E+03  0.18526028888E+04 -0.76746405074E+03  0.20089975544E+04  0.25500000920E-02 0.  1.
       -2    1    3    3    0  502  0.12219918462E+03 -0.18526028888E+04 -0.21530466523E+03  0.18690709465E+04  0.25500000920E-02 0. -1.
</event>
<event>
 5   0  0.2282000E-08  0.3691033E+04  0.7818609E-02  0.8069952E-01
       -1   -1    0    0    0  501  0.00000000000E+00  0.00000000000E+00  0.21632223938E+04  0.21632223938E+04  0.50400001928E-02 0. -1.
        1   -1    0    0  501    0  0.00000000000E+00  0.00000000000E+00 -0.15744713075E+04  0.15744713075E+04  0.50400001928E-02 0.  1.
    10030    2    1    2    0    0  0.00000000000E+00  0.00000000000E+00  0.58875108631E+03  0.37376937012E+04  0.36910332378E+04 0.  0.
        5    1    3    3  502    0  0.61866815018E+03 -0.27100029951E+03  0.20335614443E+04  0.21427985627E+04  0.46999998093E+01 0. -1.
       -5    1    3    3    0  502 -0.61866815018E+03  0.27100029951E+03 -0.14448103580E+04  0.15948951386E+04  0.46999998093E+01 0.  1.
</event>
<event>
 5   0  0.2282000E-08  0.3702256E+04  0.7818609E-02  0.8067462E-01
        1   -1    0    0  501    0  0.00000000000E+00  0.00000000000E+00  0.19727452180E+04  0.19727452180E+04  0.50400001928E-02 0.  1.
       -1   -1    0    0    0  501  0.00000000000E+00  0.00000000000E+00 -0.17370080483E+04  0.17370080483E+04  0.50400001928E-02 0. -1.
    10030    2    1    2    0    0  0.00000000000E+00  0.00000000000E+00  0.23573716973E+03  0.37097532663E+04  0.37022557021E+04 0.  0.
        3    1    3    3  502    0  0.10747030136E+04 -0.15060760046E+04  0.59245303059E+02  0.18511514025E+04  0.10100000352E+00 0.  1.
       -3    1    3    3    0  502 -0.10747030136E+04  0.15060760046E+04  0.17649186667E+03  0.18586018638E+04  0.10100000352E+00 0. -1.
</event>
<event>
 5   0  0.7309833E-08  0.3702300E+04  0.7818609E-02  0.8067452E-01
        2   -1    0    0  501    0  0.00000000000E+00  0.00000000000E+00  0.26234495194E+04  0.26234495194E+04  0.25500000920E-02 0.  1.
       -2   -1    0    0    0  501  0.00000000000E+00  0.00000000000E+00 -0.13062027121E+04  0.13062027121E+04  0.25500000920E-02 0. -1.
    10030    2    1    2    0    0  0.00000000000E+00  0.00000000000E+00  0.13172468073E+04  0.39296522314E+04  0.37023002996E+04 0.  0.
        2    1    3    3  502    0 -0.53488964106E+03 -0.98516467780E+03 -0.90496485169E+03  0.14407004384E+04  0.25500000920E-02 0. -1.
       -2    1    3    3    0  502  0.53488964106E+03  0.98516467780E+03  0.22222116590E+04  0.24889517930E+04  0.25500000920E-02 0.  1.
</event>
<event>
 5   0  0.2282000E-08  0.3698243E+04  0.7818609E-02  0.8068351E-01
        1   -1    0    0  501    0  0.00000000000E+00  0.00000000000E+00  0.17134975058E+04  0.17134975058E+04  0.50400001928E-02 0. -1.
       -1   -1    0    0    0  501  0.00000000000E+00  0.00000000000E+00 -0.19954801127E+04  0.19954801127E+04  0.50400001928E-02 0.  1.
    10030    2    1    2    0    0  0.00000000000E+00  0.00000000000E+00 -0.28198260690E+03  0.37089776185E+04  0.36982429320E+04 0.  0.
        2    1    3    3  502    0  0.35186617370E+03 -0.87239665773E+03  0.14555983549E+04  0.17331048160E+04  0.25500000920E-02 0. -1.
       -2    1    3    3    0  502 -0.35186617370E+03  0.87239665773E+03 -0.17375809618E+04  0.19758728024E+04  0.25500000920E-02 0.  1.
</event>
<event>
 5   0  0.2282000E-08  0.3696492E+04  0.7818609E-02  0.8068740E-01
       -1   -1    0    0    0  501  0.00000000000E+00  0.00000000000E+00  0.26709688095E+04  0.26709688095E+04  0.50400001928E-02 0.  1.
        1   -1    0    0  501    0  0.00000000000E+00  0.00000000000E+00 -0.12789418475E+04  0.12789418476E+04  0.50400001928E-02 0. -1.
    10030    2    1    2    0    0  0.00000000000E+00  0.00000000000E+00  0.13920269619E+04  0.39499106570E+04  0.36964922746E+04 0.  0.
        5    1    3    3  502    0 -0.71367700231E+02 -0.16351354939E+04  0.16134986369E+04  0.22982953190E+04  0.46999998093E+01 0.  1.
       -5    1    3    3    0  502  0.71367700231E+02  0.16351354939E+04 -0.22147167497E+03  0.16516153380E+04  0.46999998093E+01 0. -1.
</event>
<event>
 5   0  0.7362817E-08  0.3697531E+04  0.7818609E-02  0.8068509E-01
        2   -1    0    0  501    0  0.00000000000E+00  0.00000000000E+00  0.22857512527E+04  0.22857512527E+04  0.25500000920E-02 0.  1.
       -2   -1    0    0    0  501  0.00000000000E+00  0.00000000000E+00 -0.14953220456E+04  0.14953220456E+04  0.25500000920E-02 0. -1.
    10030    2    1    2    0    0  0.00000000000E+00  0.00000000000E+00  0.79042920711E+03  0.37810732983E+04  0.36975311974E+04 0.  0.
        1    1    3    3  502    0  0.98400565124E+03 -0.73480255414E+03  0.18083686258E+04  0.21859549405E+04  0.50400001928E-02 0.  1.
       -1    1    3    3    0  502 -0.98400565124E+03  0.73480255414E+03 -0.10179394187E+04  0.15951183578E+04  0.50400001928E-02 0. -1.
</event>
<event>
 5   0  0.7309833E-08  0.3700060E+04  0.7818609E-02  0.8067949E-01
       -2   -1    0    0    0  501  0.00000000000E+00  0.00000000000E+00  0.15340246247E+04  0.15340246247E+04  0.25500000920E-02 0. -1.
        2   -1    0    0  501    0  0.00000000000E+00  0.00000000000E+00 -0.22311313976E+04  0.22311313976E+04  0.25500000920E-02 0.  1.
    10030    2    1    2    0    0  0.00000000000E+00  0.00000000000E+00 -0.69710677288E+03  0.37651560223E+04  0.37000597319E+04 0.  0.
        2    1    3    3  502    0 -0.43492260880E+03  0.13953582881E+04  0.80560921424E+03  0.16688884426E+04  0.25500000920E-02 0. -1.
       -2    1    3    3    0  502  0.43492260880E+03 -0.13953582881E+04 -0.15027159871E+04  0.20962675797E+04  0.25500000920E-02 0.  1.
</event>
<event>
 5   0  0.7203049E-08  0.3697693E+04  0.7818609E-02  0.8068473E-01
       -2   -1    0    0    0  501  0.00000000000E+00  0.00000000000E+00  0.21679301690E+04  0.21679301690E+04  0.25500000920E-02 0. -1.
        2   -1    0    0  501    0  0.00000000000E+00  0.00000000000E+00 -0.15767270422E+04  0.15767270422E+04  0.25500000920E-02 0.  1.
    10030    2    1    2    0    0  0.00000000000E+00  0.00000000000E+00  0.59120312678E+03  0.37446572112E+04  0.36976934016E+04 0.  0.
        4    1    3    3  502    0 -0.16194897733E+04  0.24969015760E+02  0.11984752977E+04  0.20148735022E+04  0.12699999809E+01 0. -1.
       -4    1    3    3    0  502  0.16194897733E+04 -0.24969015760E+02 -0.60727217096E+03  0.17297837090E+04  0.12699999809E+01 0.  1.
</event>
<event>
 5   0  0.7191801E-08  0.3697134E+04  0.7818609E-02  0.8068597E-01
       -2   -1    0    0    0  501  0.00000000000E+00  0.00000000000E+00  0.15538384745E+04  0.15538384745E+04  0.25500000920E-02 0.  1.
        2   -1    0    0  501    0  0.00000000000E+00  0.00000000000E+00 -0.21991987294E+04  0.21991987294E+04  0.25500000920E-02 0. -1.
    10030    2    1    2    0    0  0.00000000000E+00  0.00000000000E+00 -0.64536025490E+03  0.37530372039E+04  0.36971338081E+04 0.  0.
        5    1    3    3  502    0 -0.21789439110E+03 -0.23142238783E+03 -0.21712434850E+04  0.21943916351E+04  0.46999998093E+01 0. -1.
       -5    1    3    3    0  502  0.21789439110E+03  0.23142238783E+03  0.15258832301E+04  0.15586455688E+04  0.46999998093E+01 0.  1.
</event>
<event>
 5   0  0.7203049E-08  0.3710650E+04  0.7818609E-02  0.8065606E-01
       -2   -1    0    0    0  501  0.00000000000E+00  0.00000000000E+00  0.18917036659E+04  0.18917036659E+04  0.25500000920E-02 0. -1.
        2   -1    0    0  501    0  0.00000000000E+00  0.00000000000E+00 -0.18196461916E+04  0.18196461916E+04  0.25500000920E-02 0.  1.
    10030    2    1    2    0    0  0.00000000000E+00  0.00000000000E+00  0.72057474256E+02  0.37113498575E+04  0.37106502779E+04 0.  0.
        4    1    3    3  502    0  0.94678182636E+01  0.15933726016E+03  0.18848229977E+04  0.18915700747E+04  0.12699999809E+01 0. -1.
       -4    1    3    3    0  502 -0.94678182636E+01 -0.15933726016E+03 -0.18127655234E+04  0.18197797828E+04  0.12699999809E+01 0.  1.
</event>
<event>
 5   0  0.7362817E-08  0.3703486E+04  0.7818609E-02  0.8067190E-01
        2   -1    0    0  501    0  0.00000000000E+00  0.00000000000E+00  0.24031881779E+04  0.24031881779E+04  0.25500000920E-02 0. -1.
       -2   -1    0    0    0  501  0.00000000000E+00  0.00000000000E+00 -0.14268346654E+04  0.14268346654E+04  0.25500000920E-02 0.  1.
    10030    2    1    2    0    0  0.00000000000E+00  0.00000000000E+00  0.97635351258E+03  0.38300228433E+04  0.37034860333E+04 0.  0.
        1    1    3    3  502    0  0.71049909560E+03  0.13989188235E+04  0.15052258517E+04  0.21742786630E+04  0.50400001928E-02 0. -1.
       -1    1    3    3    0  502 -0.71049909560E+03 -0.13989188235E+04 -0.52887233909E+03  0.16557441803E+04  0.50400001928E-02 0.  1.
</event>
<event>
 5   0  0.2282000E-08  0.3696588E+04  0.7818609E-02  0.8068718E-01
        1   -1    0    0  501    0  0.00000000000E+00  0.00000000000E+00  0.19769261925E+04  0.19769261925E+04  0.50400001928E-02 0.  1.
       -1   -1    0    0    0  501  0.00000000000E+00  0.00000000000E+00 -0.17280310457E+04  0.17280310457E+04  0.50400001928E-02 0. -1.
    10030    2    1    2    0    0  0.00000000000E+00  0.00000000000E+00  0.24889514677E+03  0.37049572382E+04  0.36965875268E+04 0.  0.
        4    1    3    3  502    0 -0.11369033964E+04 -0.11609267384E+04  0.10072870062E+04  0.19117868475E+04  0.12699999809E+01 0.  1.
       -4    1    3    3    0  502  0.11369033964E+04  0.11609267384E+04 -0.75839185943E+03  0.17931703907E+04  0.12699999809E+01 0. -1.
</event>
<event>
 5   0  0.7309833E-08  0.3703881E+04  0.7818609E-02  0.8067102E-01
        2   -1    0    0  501    0  0.00000000000E+00  0.00000000000E+00  0.24525358277E+04  0.24525358277E+04  0.25500000920E-02 0.  1.
       -2   -1    0    0    0  501  0.00000000000E+00  0.00000000000E+00 -0.13984235084E+04  0.13984235084E+04  0.25500000920E-02 0. -1.
    10030    2    1    2    0    0  0.00000000000E+00  0.00000000000E+00  0.10541123193E+04  0.38509593361E+04  0.37038810762E+04 0.  0.
        2    1    3    3  502    0 -0.14789304145E+03  0.14770030558E+04 -0.62428902466E+03  0.16103251737E+04  0.25500000920E-02 0.  1.
       -2    1    3    3    0  502  0.14789304145E+03 -0.14770030558E+04  0.16784013439E+04  0.22406341625E+04  0.25500000920E-02 0. -1.
</event>
<event>
 5   0  0.7254493E-08  0.3725143E+04  0.7818609E-02  0.8062413E-01
       -2   -1    0    0    0  501  0.00000000000E+00  0.00000000000E+00  0.17579680525E+04  0.17579680525E+04  0.25500000920E-02 0. -1.
        2   -1    0    0  501    0  0.00000000000E+00  0.00000000000E+00 -0.19733986464E+04  0.19733986464E+04  0.25500000920E-02 0.  1.
    10030    2    1    2    0    0  0.00000000000E+00  0.00000000000E+00 -0.21543059388E+03  0.37313666988E+04  0.37251425611E+04 0.  0.
        3    1    3    3  502    0 -0.14130965344E+04 -0.91850677172E+02  0.11042209096E+04  0.17957121679E+04  0.10100000352E+00 0. -1.
       -3    1    3    3    0  502  0.14130965344E+04  0.91850677172E+02 -0.13196515035E+04  0.19356545310E+04  0.10100000352E+00 0.  1.
</event>
<event>
 5   0  0.2282000E-08  0.3702417E+04  0.7818609E-02  0.8067426E-01
        4   -1    0    0  501    0  0.00000000000E+00  0.00000000000E+00  0.19588353874E+04  0.19588357991E+04  0.12699999809E+01 0. -1.
       -4   -1    0    0    0  501  0.00000000000E+00  0.00000000000E+00 -0.17494939217E+04  0.17494943826E+04  0.12699999809E+01 0.  1.
    10030    2    1    2    0    0  0.00000000000E+00  0.00000000000E+00  0.20934146570E+03  0.37083301817E+04  0.37024166280E+04 0.  0.
        2    1    3    3  502    0  0.70060818773E+03 -0.13371418467E+03 -0.16063437219E+04  0.17575754518E+04  0.25500000920E-02 0.  1.
       -2    1    3    3    0  502 -0.70060818773E+03  0.13371418467E+03  0.18156851876E+04  0.19507547299E+04  0.25500000920E-02 0. -1.
</event>
<event>
 5   0  0.7362817E-08  0.3700738E+04  0.7818609E-02  0.8067798E-01
        2   -1    0    0  501    0  0.00000000000E+00  0.00000000000E+00  0.23461946230E+04  0.23461946230E+04  0.25500000920E-02 0.  1.
       -2   -1    0    0    0  501  0.00000000000E+00  0.00000000000E+00 -0.14593273846E+04  0.14593273846E+04  0.25500000920E-02 0. -1.
    10030    2    1    2    0    0  0.00000000000E+00  0.00000000000E+00  0.88686723837E+03  0.38055220076E+04  0.37007383388E+04 0.  0.
        1    1    3    3  502    0  0.84184338687E+03  0.16146000921E+03 -0.12428438892E+04  0.15097783134E+04  0.50400001928E-02 0. -1.
       -1    1    3    3    0  502 -0.84184338687E+03 -0.16146000921E+03  0.21297111276E+04  0.22957436942E+04  0.50400001928E-02 0.  1.
</event>
<event>
 5   0  0.2282000E-08  0.3696669E+04  0.7818609E-02  0.8068700E-01
        1   -1    0    0  501    0  0.00000000000E+00  0.00000000000E+00  0.21268694985E+04  0.21268694985E+04  0.50400001928E-02 0.  1.
       -1   -1    0    0    0  501  0.00000000000E+00  0.00000000000E+00 -0.16062763150E+04  0.16062763150E+04  0.50400001928E-02 0. -1.
    10030    2    1    2    0    0  0.00000000000E+00  0.00000000000E+00  0.52059318342E+03  0.37331458135E+04  0.36966688251E+04 0.  0.
        1    1    3    3  502    0 -0.13886920001E+04 -0.98081566599E+03 -0.47203164161E+03  0.17644485577E+04  0.50400001928E-02 0. -1.
       -1    1    3    3    0  502  0.13886920001E+04  0.98081566599E+03  0.99262482504E+03  0.19686972559E+04  0.50400001928E-02 0.  1.
</event>
<event>
 5   0  0.7309833E-08  0.3711455E+04  0.7818609E-02  0.8065428E-01
       -2   -1    0    0    0  501  0.00000000000E+00  0.00000000000E+00  0.10045213060E+04  0.10045213060E+04  0.25500000920E-02 0.  1.
        2   -1    0    0  501    0  0.00000000000E+00  0.00000000000E+00 -0.34282239426E+04  0.34282239426E+04  0.25500000920E-02 0. -1.
    10030    2    1    2    0    0  0.00000000000E+00  0.00000000000E+00 -0.24237026366E+04  0.44327452486E+04  0.37114546971E+04 0.  0.
        2    1    3    3  502    0  0.17281976711E+03  0.18475268588E+04 -0.11850963000E+04  0.22017437195E+04  0.25500000920E-02 0. -1.
       -2    1    3    3    0  502 -0.17281976711E+03 -0.18475268588E+04 -0.12386063366E+04  0.22310015292E+04  0.25500000920E-02 0.  1.
</event>
<event>
 5   0  0.2282000E-08  0.3698753E+04  0.7818609E-02  0.8068238E-01
       -1   -1    0    0    0  501  0.00000000000E+00  0.00000000000E+00  0.14535489586E+04  0.14535489586E+04  0.50400001928E-02 0. -1.
        1   -1    0    0  501    0  0.00000000000E+00  0.00000000000E+00 -0.23529954390E+04  0.23529954390E+04  0.50400001928E-02 0.  1.
    10030    2    1    2    0    0  0.00000000000E+00  0.00000000000E+00 -0.89944648039E+03  0.38065443976E+04  0.36987533413E+04 0.  0.
        5    1    3    3  502    0  0.84266028965E+03 -0.12293677489E+04  0.67705886067E+03  0.16370254172E+04  0.46999998093E+01 0. -1.
       -5    1    3    3    0  502 -0.84266028965E+03  0.12293677489E+04 -0.15765053411E+04  0.21695189804E+04  0.46999998093E+01 0.  1.
</event>
<event>
 5   0  0.7191801E-08  0.3700906E+04  0.7818609E-02  0.8067761E-01
       -2   -1    0    0    0  501  0.00000000000E+00  0.00000000000E+00  0.12115811620E+04  0.12115811620E+04  0.25500000920E-02 0. -1.
        2   -1    0    0  501    0  0.00000000000E+00  0.00000000000E+00 -0.28262042219E+04  0.28262042219E+04  0.25500000920E-02 0.  1.
    10030    2    1    2    0    0  0.00000000000E+00  0.00000000000E+00 -0.16146230600E+04  0.40377853839E+04  0.37009057244E+04 0.  0.
        5    1    3    3  502    0 -0.73699034753E+03 -0.10279244575E+04  0.66632948122E+03  0.14296155183E+04  0.46999998093E+01 0. -1.
       -5    1    3    3    0  502  0.73699034753E+03  0.10279244575E+04 -0.22809525412E+04  0.26081698656E+04  0.46999998093E+01 0.  1.
</event>
<event>
 5   0  0.2282000E-08  0.3690481E+04  0.7818609E-02  0.8070075E-01
       -1   -1    0    0    0  501  0.00000000000E+00  0.00000000000E+00  0.22123895953E+04  0.22123895953E+04  0.50400001928E-02 0.  1.
        1   -1    0    0  501    0  0.00000000000E+00  0.00000000000E+00 -0.15390200587E+04  0.15390200587E+04  0.50400001928E-02 0. -1.
    10030    2    1    2    0    0  0.00000000000E+00  0.00000000000E+00  0.67336953664E+03  0.37514096540E+04  0.36904807084E+04 0.  0.
        4    1    3    3  502    0  0.10088139548E+04 -0.41213189474E+03  0.18503466661E+04  0.21474037095E+04  0.12699999809E+01 0.  1.
       -4    1    3    3    0  502 -0.10088139548E+04  0.41213189474E+03 -0.11769771294E+04  0.16040059445E+04  0.12699999809E+01 0. -1.
</event>
<event>
 5   0  0.7203049E-08  0.3696213E+04  0.7818609E-02  0.8068802E-01
       -2   -1    0    0    0  501  0.00000000000E+00  0.00000000000E+00  0.19675320866E+04  0.19675320866E+04  0.25500000920E-02 0. -1.
        2   -1    0    0  501    0  0.00000000000E+00  0.00000000000E+00 -0.17359296179E+04  0.17359296179E+04  0.25500000920E-02 0.  1.
    10030    2    1    2    0    0  0.00000000000E+00  0.00000000000E+00  0.23160246873E+03  0.37034617045E+04  0.36962127771E+04 0.  0.
        4    1    3    3  502    0 -0.59439778521E+02  0.18446636703E+04  0.21179343770E+03  0.18577338930E+04  0.12699999809E+01 0.  1.
       -4    1    3    3    0  502  0.59439778521E+02 -0.18446636703E+04  0.19809031034E+02  0.18457278116E+04  0.12699999809E+01 0. -1.
</event>
<event>
 5   0  0.2282000E-08  0.3698098E+04  0.7818609E-02  0.8068383E-01
       -1   -1    0    0    0  501  0.00000000000E+00  0.00000000000E+00  0.24971113719E+04  0.24971113719E+04  0.50400001928E-02 0.  1.
        1   -1    0    0  501    0  0.00000000000E+00  0.00000000000E+00 -0.13691752337E+04  0.13691752337E+04  0.50400001928E-02 0. -1.
    10030    2    1    2    0    0  0.00000000000E+00  0.00000000000E+00  0.11279361382E+04  0.38662866057E+04  0.36980984553E+04 0.  0.
        1    1    3    3  502    0 -0.15987844896E+04 -0.27325807330E+03 -0.36421604043E+03  0.16623583076E+04  0.50400001928E-02 0. -1.
       -1    1    3    3    0  502  0.15987844896E+04  0.27325807330E+03  0.14921521787E+04  0.22039282981E+04  0.50400001928E-02 0.  1.
</event>
<event>
 5   0  0.7362817E-08  0.3700250E+04  0.7818609E-02  0.8067906E-01
        2   -1    0    0  501    0  0.00000000000E+00  0.00000000000E+00  0.18731309143E+04  0.18731309143E+04  0.25500000920E-02 0. -1.
       -2   -1    0    0    0  501  0.00000000000E+00  0.00000000000E+00 -0.18274014307E+04  0.18274014307E+04  0.25500000920E-02 0.  1.
    10030    2    1    2    0    0  0.00000000000E+00  0.00000000000E+00  0.45729483562E+02  0.37005323450E+04  0.37002497822E+04 0.  0.
        1    1    3    3  502    0 -0.18485800365E+04 -0.53825962728E+02  0.75941640498E+02  0.18509220725E+04  0.50400001928E-02 0.  1.
       -1    1    3    3    0  502  0.18485800365E+04  0.53825962728E+02 -0.30212156935E+02  0.18496102725E+04  0.50400001928E-02 0. -1.
</event>
<event>
 5   0  0.2282000E-08  0.3696339E+04  0.7818609E-02  0.8068774E-01
       -1   -1    0    0    0  501  0.00000000000E+00  0.00000000000E+00  0.13355781529E+04  0.13355781529E+04  0.50400001928E-02 0. -1.
        1   -1    0    0  501    0  0.00000000000E+00  0.00000000000E+00 -0.25574918791E+04  0.25574918791E+04  0.50400001928E-02 0.  1.
    10030    2    1    2    0    0  0.00000000000E+00  0.00000000000E+00 -0.12219137263E+04  0.38930700320E+04  0.36963388806E+04 0.  0.
        4    1    3    3  502    0  0.12712273714E+04  0.68712765247E+03 -0.18244808632E+04  0.23274224957E+04  0.12699999809E+01 0.  1.
       -4    1    3    3    0  502 -0.12712273714E+04 -0.68712765247E+03  0.60256713692E+03  0.15656475363E+04  0.12699999809E+01 0. -1.
</event>
<event>
 5   0  0.7254493E-08  0.3705468E+04  0.7818609E-02  0.8066751E-01
       -2   -1    0    0    0  501  0.00000000000E+00  0.00000000000E+00  0.16722386930E+04  0.16722386930E+04  0.25500000920E-02 0.  1.
        2   -1    0    0  501    0  0.00000000000E+00  0.00000000000E+00 -0.20527112810E+04  0.20527112810E+04  0.25500000920E-02 0. -1.
    10030    2    1    2    0    0  0.00000000000E+00  0.00000000000E+00 -0.38047258801E+03  0.37249499740E+04  0.37054679756E+04 0.  0.
        3    1    3    3  502    0 -0.37612509474E+03  0.17710467337E+04  0.20495476196E+03  0.18221095150E+04  0.10100000352E+00 0. -1.
       -3    1    3    3    0  502  0.37612509474E+03 -0.17710467337E+04 -0.58542734997E+03  0.19028404590E+04  0.10100000352E+00 0.  1.
</event>
<event>
 5   0  0.2282000E-08  0.3679269E+04  0.7818609E-02  0.8072572E-01
       -1   -1    0    0    0  501  0.00000000000E+00  0.00000000000E+00  0.18248331153E+04  0.18248331154E+04  0.50400001928E-02 0.  1.
        1   -1    0    0  501    0  0.00000000000E+00  0.00000000000E+00 -0.18545561666E+04  0.18545561666E+04  0.50400001928E-02 0. -1.
    10030    2    1    2    0    0  0.00000000000E+00  0.00000000000E+00 -0.29723051264E+02  0.36793892820E+04  0.36792692248E+04 0.  0.
        3    1    3    3  502    0  0.38892375989E+03 -0.14198735683E+04 -0.11180533844E+04  0.18486065080E+04  0.10100000352E+00 0. -1.
       -3    1    3    3    0  502 -0.38892375989E+03  0.14198735683E+04  0.10883303331E+04  0.18307827739E+04  0.10100000352E+00 0.  1.
</event>
<event>
 5   0  0.7362817E-08  0.3686717E+04  0.7818609E-02  0.8070912E-01
        2   -1    0    0  501    0  0.00000000000E+00  0.00000000000E+00  0.20155522130E+04  0.20155522130E+04  0.25500000920E-02 0. -1.
       -2   -1    0    0    0  501  0.00000000000E+00  0.00000000000E+00 -0.16858758560E+04  0.16858758560E+04  0.25500000920E-02 0.  1.
    10030    2    1    2    0    0  0.00000000000E+00  0.00000000000E+00  0.32967635702E+03  0.37014280690E+04  0.36867171372E+04 0.  0.
        1    1    3    3  502    0  0.18290122370E+03 -0.58805841646E+02  0.20054729323E+04  0.20146544783E+04  0.50400001928E-02 0. -1.
       -1    1    3    3    0  502 -0.18290122370E+03  0.58805841646E+02 -0.16757965753E+04  0.16867735907E+04  0.50400001928E-02 0.  1.
</event>
<event>
 5   0  0.2282000E-08  0.3706397E+04  0.7818609E-02  0.8066546E-01
       -1   -1    0    0    0  501  0.00000000000E+00  0.00000000000E+00  0.26892496364E+04  0.26892496364E+04  0.50400001928E-02 0.  1.
        1   -1    0    0  501    0  0.00000000000E+00  0.00000000000E+00 -0.12770642181E+04  0.12770642181E+04  0.50400001928E-02 0. -1.
    10030    2    1    2    0    0  0.00000000000E+00  0.00000000000E+00  0.14121854183E+04  0.39663138545E+04  0.37063968942E+04 0.  0.
        4    1    3    3  502    0 -0.15478456317E+04  0.83862163866E+03  0.86499101631E+02  0.17625538459E+04  0.12699999809E+01 0. -1.
       -4    1    3    3    0  502  0.15478456317E+04 -0.83862163866E+03  0.13256863167E+04  0.22037600086E+04  0.12699999809E+01 0.  1.
</event>
<event>
 5   0  0.7254493E-08  0.3699557E+04  0.7818609E-02  0.8068060E-01
        2   -1    0    0  501    0  0.00000000000E+00  0.00000000000E+00  0.22639207140E+04  0.22639207140E+04  0.25500000920E-02 0.  1.
       -2   -1    0    0    0  501  0.00000000000E+00  0.00000000000E+00 -0.15113955663E+04  0.15113955663E+04  0.25500000920E-02 0. -1.
    10030    2    1    2    0    0  0.00000000000E+00  0.00000000000E+00  0.75252514776E+03  0.37753162803E+04  0.36995565840E+04 0.  0.
        3    1    3    3  502    0 -0.64995437596E+03  0.10418965634E+04 -0.10354280370E+04  0.16062690838E+04  0.10100000352E+00 0. -1.
       -3    1    3    3    0  502  0.64995437596E+03 -0.10418965634E+04  0.17879531847E+04  0.21690471965E+04  0.10100000352E+00 0.  1.
</event>
<event>
 5   0  0.2282000E-08  0.3699919E+04  0.7818609E-02  0.8067980E-01
       -1   -1    0    0    0  501  0.00000000000E+00  0.00000000000E+00  0.14654143082E+04  0.14654143082E+04  0.50400001928E-02 0.  1.
        1   -1    0    0  501    0  0.00000000000E+00  0.00000000000E+00 -0.23354141293E+04  0.23354141293E+04  0.50400001928E-02 0. -1.
    10030    2    1    2    0    0  0.00000000000E+00  0.00000000000E+00 -0.86999982111E+03  0.38008284375E+04  0.36999185292E+04 0.  0.
        4    1    3    3  502    0 -0.10147798859E+04 -0.14923911173E+04 -0.85270783429E+03  0.19960264846E+04  0.12699999809E+01 0. -1.
       -4    1    3    3    0  502  0.10147798859E+04  0.14923911173E+04 -0.17291986825E+02  0.18048019529E+04  0.12699999809E+01 0.  1.
</event>
<event>
 5   0  0.2282000E-08  0.3702396E+04  0.7818609E-02  0.8067431E-01
       -1   -1    0    0    0  501  0.00000000000E+00  0.00000000000E+00  0.23899557679E+04  0.23899557679E+04  0.50400001928E-02 0. -1.
        1   -1    0    0  501    0  0.00000000000E+00  0.00000000000E+00 -0.14338898476E+04  0.14338898476E+04  0.50400001928E-02 0.  1.
    10030    2    1    2    0    0  0.00000000000E+00  0.00000000000E+00  0.95606592027E+03  0.38238456155E+04  0.37023956093E+04 0.  0.
        4    1    3    3  502    0 -0.10692327756E+04 -0.38259973191E+03 -0.10318709041E+04  0.15344055718E+04  0.12699999809E+01 0.  1.
       -4    1    3    3    0  502  0.10692327756E+04  0.38259973191E+03  0.19879368244E+04  0.22894400437E+04  0.12699999809E+01 0. -1.
</event>
<event>
 5   0  0.2282000E-08  0.3699060E+04  0.7818609E-02  0.8068170E-01
       -1   -1    0    0    0  501  0.00000000000E+00  0.00000000000E+00  0.25781707159E+04  0.25781707159E+04  0.50400001928E-02 0. -1.
        1   -1    0    0  501    0  0.00000000000E+00  0.00000000000E+00 -0.13268172551E+04  0.13268172551E+04  0.50400001928E-02 0.  1.
    10030    2    1    2    0    0  0.00000000000E+00  0.00000000000E+00  0.12513534607E+04  0.39049879710E+04  0.36990600928E+04 0.  0.
        5    1    3    3  502    0 -0.11564815989E+04 -0.11462651816E+04  0.15516420845E+04  0.22492195987E+04  0.46999998093E+01 0. -1.
       -5    1    3    3    0  502  0.11564815989E+04  0.11462651816E+04 -0.30028862376E+03  0.16557683723E+04  0.46999998093E+01 0.  1.
</event>
<event>
 5   0  0.7309833E-08  0.3706233E+04  0.7818609E-02  0.8066582E-01
       -2   -1    0    0    0  501  0.00000000000E+00  0.00000000000E+00  0.25235865322E+04  0.25235865322E+04  0.25500000920E-02 0.  1.
        2   -1    0    0  501    0  0.00000000000E+00  0.00000000000E+00 -0.13607777104E+04  0.13607777104E+04  0.25500000920E-02 0. -1.
    10030    2    1    2    0    0  0.00000000000E+00  0.00000000000E+00  0.11628088218E+04  0.38843642425E+04  0.37062327521E+04 0.  0.
        2    1    3    3  502    0 -0.64373864073E+03 -0.30542358246E+03 -0.12114743961E+04  0.14054725948E+04  0.25500000920E-02 0. -1.
       -2    1    3    3    0  502  0.64373864073E+03  0.30542358246E+03  0.23742832179E+04  0.24788916477E+04  0.25500000920E-02 0.  1.
</event>
<event>
 5   0  0.7203049E-08  0.3693735E+04  0.7818609E-02  0.8069352E-01
       -2   -1    0    0    0  501  0.00000000000E+00  0.00000000000E+00  0.14872193756E+04  0.14872193756E+04  0.25500000920E-02 0. -1.
        2   -1    0    0  501    0  0.00000000000E+00  0.00000000000E+00 -0.22934878108E+04  0.22934878108E+04  0.25500000920E-02 0.  1.
    10030    2    1    2    0    0  0.00000000000E+00  0.00000000000E+00 -0.80626843520E+03  0.37807071864E+04  0.36937349715E+04 0.  0.
        4    1    3    3  502    0 -0.21951234792E+01 -0.13578367212E+04  0.87821788608E+03  0.16170941989E+04  0.12699999809E+01 0. -1.
       -4    1    3    3    0  502  0.21951234792E+01  0.13578367212E+04 -0.16844863213E+04  0.21636129874E+04  0.12699999809E+01 0.  1.
</event>
<event>
 5   0  0.7191801E-08  0.3696566E+04  0.7818609E-02  0.8068723E-01
        2   -1    0    0  501    0  0.00000000000E+00  0.00000000000E+00  0.28372513940E+04  0.28372513940E+04  0.25500000920E-02 0.  1.
       -2   -1    0    0    0  501  0.00000000000E+00  0.00000000000E+00 -0.12040350650E+04  0.12040350650E+04  0.25500000920E-02 0. -1.
    10030    2    1    2    0    0  0.00000000000E+00  0.00000000000E+00  0.16332163290E+04  0.40412864590E+04  0.36965660641E+04 0.  0.
        5    1    3    3  502    0 -0.49225069961E+03  0.10423879475E+04 -0.76284897806E+03  0.13823328245E+04  0.46999998093E+01 0. -1.
       -5    1    3    3    0  502  0.49225069961E+03 -0.10423879475E+04  0.23960653071E+04  0.26589536345E+04  0.46999998093E+01 0.  1.
</event>
<event>
 5   0  0.7191801E-08  0.3712850E+04  0.7818609E-02  0.8065120E-01
       -2   -1    0    0    0  501  0.00000000000E+00  0.00000000000E+00  0.22693150713E+04  0.22693150713E+04  0.25500000920E-02 0. -1.
        2   -1    0    0  501    0  0.00000000000E+00  0.00000000000E+00 -0.15186578260E+04  0.15186578260E+04  0.25500000920E-02 0.  1.
    10030    2    1    2    0    0  0.00000000000E+00  0.00000000000E+00  0.75065724535E+03  0.37879728973E+04  0.37128496294E+04 0.  0.
        5    1    3    3  502    0  0.86017399538E+03  0.73010027024E+03  0.18793841433E+04  0.21920430094E+04  0.46999998093E+01 0. -1.
       -5    1    3    3    0  502 -0.86017399538E+03 -0.73010027024E+03 -0.11287268980E+04  0.15959298879E+04  0.46999998093E+01 0.  1.
</event>
<event>
 5   0  0.2282000E-08  0.3701984E+04  0.7818609E-02  0.8067522E-01
        1   -1    0    0  501    0  0.00000000000E+00  0.00000000000E+00  0.15788235260E+04  0.15788235260E+04  0.50400001928E-02 0. -1.
       -1   -1    0    0    0  501  0.00000000000E+00  0.00000000000E+00 -0.21700787410E+04  0.21700787410E+04  0.50400001928E-02 0.  1.
    10030    2    1    2    0    0  0.00000000000E+00  0.00000000000E+00 -0.59125521499E+03  0.37489022670E+04  0.37019839922E+04 0.  0.
        4    1    3    3  502    0 -0.85373127225E+03 -0.11041303081E+04 -0.15268528011E+04  0.20686328605E+04  0.12699999809E+01 0.  1.
       -4    1    3    3    0  502  0.85373127225E+03  0.11041303081E+04  0.93559758608E+03  0.16802694065E+04  0.12699999809E+01 0. -1.
</event>
<event>
 5   0  0.2282000E-08  0.3700460E+04  0.7818609E-02  0.8067860E-01
       -1   -1    0    0    0  501  0.00000000000E+00  0.00000000000E+00  0.17144722220E+04  0.17144722220E+04  0.50400001928E-02 0. -1.
        1   -1    0    0  501    0  0.00000000000E+00  0.00000000000E+00 -0.19967378363E+04  0.19967378363E+04  0.50400001928E-02 0.  1.
    10030    2    1    2    0    0  0.00000000000E+00  0.00000000000E+00 -0.28226561432E+03  0.37112100584E+04  0.37004602714E+04 0.  0.
        1    1    3    3  502    0 -0.15611786233E+04  0.45041468205E+03  0.74642364315E+03  0.17880996434E+04  0.50400001928E-02 0. -1.
       -1    1    3    3    0  502  0.15611786233E+04 -0.45041468205E+03 -0.10286892575E+04  0.19231104150E+04  0.50400001928E-02 0.  1.
</event>
<event>
 5   0  0.7254493E-08  0.3698053E+04  0.7818609E-02  0.8068393E-01
        2   -1    0    0  501    0  0.00000000000E+00  0.00000000000E+00  0.13465714184E+04  0.13465714184E+04  0.25500000920E-02 0. -1.
       -2   -1    0    0    0  501  0.00000000000E+00  0.00000000000E+00 -0.25389663680E+04  0.25389663680E+04  0.25500000920E-02 0.  1.
    10030    2    1    2    0    0  0.00000000000E+00  0.00000000000E+00 -0.11923949497E+04  0.38855377864E+04  0.36980532951E+04 0.  0.
        3    1    3    3  502    0 -0.18213257528E+04  0.67467596067E+02 -0.92363817711E+03  0.20432539898E+04  0.10100000352E+00 0.  1.
       -3    1    3    3    0  502  0.18213257528E+04 -0.67467596067E+02 -0.26875677257E+03  0.18422837966E+04  0.10100000352E+00 0. -1.
</event>
<event>
 5   0  0.7362817E-08  0.3688544E+04  0.7818609E-02  0.8070505E-01
       -2   -1    0    0    0  501  0.00000000000E+00  0.00000000000E+00  0.14075873717E+04  0.14075873717E+04  0.25500000920E-02 0. -1.
        2   -1    0    0  501    0  0.00000000000E+00  0.00000000000E+00 -0.24164314400E+04  0.24164314400E+04  0.25500000920E-02 0.  1.
    10030    2    1    2    0    0  0.00000000000E+00  0.00000000000E+00 -0.10088440684E+04  0.38240188117E+04  0.36885435497E+04 0.  0.
        1    1    3    3  502    0  0.10888150434E+04  0.60966137318E+03 -0.19122877942E+04  0.22834293938E+04  0.50400001928E-02 0.  1.
       -1    1    3    3    0  502 -0.10888150434E+04 -0.60966137318E+03  0.90344372584E+03  0.15405894179E+04  0.50400001928E-02 0. -1.
</event>
<event>
 5   0  0.7191801E-08  0.3702942E+04  0.7818609E-02  0.8067310E-01
        2   -1    0    0  501    0  0.00000000000E+00  0.00000000000E+00  0.13352892206E+04  0.13352892206E+04  0.25500000920E-02 0.  1.
       -2   -1    0    0    0  501  0.00000000000E+00  0.00000000000E+00 -0.25671930734E+04  0.25671930734E+04  0.25500000920E-02 0. -1.
    10030    2    1    2    0    0  0.00000000000E+00  0.00000000000E+00 -0.12319038528E+04  0.39024822940E+04  0.37029422021E+04 0.  0.
        5    1    3    3  502    0  0.44032565034E+03  0.17071229810E+03  0.12707392924E+04  0.13556658166E+04  0.46999998093E+01 0.  1.
       -5    1    3    3    0  502 -0.44032565034E+03 -0.17071229810E+03 -0.25026431452E+04  0.25468164774E+04  0.46999998093E+01 0. -1.
</event>
<event>
 5   0  0.2282000E-08  0.3705318E+04  0.7818609E-02  0.8066784E-01
       -1   -1    0    0    0  501  0.00000000000E+00  0.00000000000E+00  0.14148403785E+04  0.14148403785E+04  0.50400001928E-02 0.  1.
        1   -1    0    0  501    0  0.00000000000E+00  0.00000000000E+00 -0.24259592024E+04  0.24259592024E+04  0.50400001928E-02 0. -1.
    10030    2    1    2    0    0  0.00000000000E+00  0.00000000000E+00 -0.10111188239E+04  0.38407995809E+04  0.37053178197E+04 0.  0.
        3    1    3    3  502    0  0.20065858932E+03  0.16799572121E+04 -0.12880279793E+04  0.21263904132E+04  0.10100000352E+00 0. -1.
       -3    1    3    3    0  502 -0.20065858932E+03 -0.16799572121E+04  0.27690915537E+03  0.17144091677E+04  0.10100000352E+00 0.  1.
</event>
<event>
 5   0  0.7309833E-08  0.3732875E+04  0.7818609E-02  0.8060715E-01
        2   -1    0    0  501    0  0.00000000000E+00  0.00000000000E+00  0.15279042509E+04  0.15279042509E+04  0.25500000920E-02 0.  1.
       -2   -1    0    0    0  501  0.00000000000E+00  0.00000000000E+00 -0.22799782831E+04  0.22799782831E+04  0.25500000920E-02 0. -1.
    10030    2    1    2    0    0  0.00000000000E+00  0.00000000000E+00 -0.75207403215E+03  0.38078825340E+04  0.37328747693E+04 0.  0.
        2    1    3    3  502    0 -0.16455989615E+04  0.58294619873E+03  0.29735341678E+03  0.17709436092E+04  0.25500000920E-02 0.  1.
       -2    1    3    3    0  502  0.16455989615E+04 -0.58294619873E+03 -0.10494274489E+04  0.20369389248E+04  0.25500000920E-02 0. -1.
</event>
<event>
 5   0  0.2282000E-08  0.3702298E+04  0.7818609E-02  0.8067453E-01
       -1   -1    0    0    0  501  0.00000000000E+00  0.00000000000E+00  0.22785785278E+04  0.22785785278E+04  0.50400001928E-02 0.  1.
        1   -1    0    0  501    0  0.00000000000E+00  0.00000000000E+00 -0.15038989195E+04  0.15038989195E+04  0.50400001928E-02 0. -1.
    10030    2    1    2    0    0  0.00000000000E+00  0.00000000000E+00  0.77467960831E+03  0.37824774472E+04  0.37022975493E+04 0.  0.
        1    1    3    3  502    0 -0.12894924728E+04 -0.94612963425E+03 -0.56494060470E+03  0.16962045894E+04  0.50400001928E-02 0. -1.
       -1    1    3    3    0  502  0.12894924728E+04  0.94612963425E+03  0.13396202130E+04  0.20862728578E+04  0.50400001928E-02 0.  1.
</event>
<event>
 5   0  0.7254493E-08  0.3710091E+04  0.7818609E-02  0.8065729E-01
       -2   -1    0    0    0  501  0.00000000000E+00  0.00000000000E+00  0.28810732437E+04  0.28810732437E+04  0.25500000920E-02 0. -1.
        2   -1    0    0  501    0  0.00000000000E+00  0.00000000000E+00 -0.11944136812E+04  0.11944136812E+04  0.25500000920E-02 0.  1.
    10030    2    1    2    0    0  0.00000000000E+00  0.00000000000E+00  0.16866595625E+04  0.40754869249E+04  0.37100907260E+04 0.  0.
        3    1    3    3  502    0  0.22304917023E+02 -0.17027065058E+04  0.34999730486E+02  0.17032122432E+04  0.10100000352E+00 0.  1.
       -3    1    3    3    0  502 -0.22304917023E+02  0.17027065058E+04  0.16516598320E+04  0.23722746816E+04  0.10100000352E+00 0. -1.
</event>
<event>
 5   0  0.7309833E-08  0.3692284E+04  0.7818609E-02  0.8069674E-01
        2   -1    0    0  501    0  0.00000000000E+00  0.00000000000E+00  0.29747983791E+04  0.29747983791E+04  0.25500000920E-02 0.  1.
       -2   -1    0    0    0  501  0.00000000000E+00  0.00000000000E+00 -0.11457047208E+04  0.11457047208E+04  0.25500000920E-02 0. -1.
    10030    2    1    2    0    0  0.00000000000E+00  0.00000000000E+00  0.18290936583E+04  0.41205030999E+04  0.36922841420E+04 0.  0.
        2    1    3    3  502    0 -0.10741654256E+04 -0.69038356222E+03 -0.57342292778E+03  0.13997409326E+04  0.25500000920E-02 0. -1.
       -2    1    3    3    0  502  0.10741654256E+04  0.69038356222E+03  0.24025165860E+04  0.27207621672E+04  0.25500000920E-02 0.  1.
</event>
<event>
 5   0  0.2282000E-08  0.3701106E+04  0.7818609E-02  0.8067717E-01
        1   -1    0    0  501    0  0.00000000000E+00  0.00000000000E+00  0.16422324218E+04  0.16422324218E+04  0.50400001928E-02 0.  1.
       -1   -1    0    0    0  501  0.00000000000E+00  0.00000000000E+00 -0.20852993187E+04  0.20852993187E+04  0.50400001928E-02 0. -1.
    10030    2    1    2    0    0  0.00000000000E+00  0.00000000000E+00 -0.44306689695E+03  0.37275317405E+04  0.37011058619E+04 0.  0.
        3    1    3    3  502    0 -0.42769483280E+02 -0.18495546309E+04 -0.17804436960E+03  0.18585966128E+04  0.10100000352E+00 0. -1.
       -3    1    3    3    0  502  0.42769483280E+02  0.18495546309E+04 -0.26502252736E+03  0.18689351277E+04  0.10100000352E+00 0.  1.
</event>
<event>
 5   0  0.7191801E-08  0.3676140E+04  0.7818609E-02  0.8073270E-01
        2   -1    0    0  501    0  0.00000000000E+00  0.00000000000E+00  0.21826872628E+04  0.21826872628E+04  0.25500000920E-02 0.  1.
       -2   -1    0    0    0  501  0.00000000000E+00  0.00000000000E+00 -0.15478629904E+04  0.15478629904E+04  0.25500000920E-02 0. -1.
    10030    2    1    2    0    0  0.00000000000E+00  0.00000000000E+00  0.63482427243E+03  0.37305502533E+04  0.36761397328E+04 0.  0.
        5    1    3    3  502    0 -0.14763022620E+04  0.18370405973E+03 -0.77803871752E+03  0.16788632721E+04  0.46999998093E+01 0. -1.
       -5    1    3    3    0  502  0.14763022620E+04 -0.18370405973E+03  0.14128629899E+04  0.20516869812E+04  0.46999998093E+01 0.  1.
</event>
<event>
 5   0  0.7309833E-08  0.3699475E+04  0.7818609E-02  0.8068078E-01
       -2   -1    0    0    0  501  0.00000000000E+00  0.00000000000E+00  0.19319159497E+04  0.19319159497E+04  0.25500000920E-02 0.  1.
        2   -1    0    0  501    0  0.00000000000E+00  0.00000000000E+00 -0.17710548679E+04  0.17710548679E+04  0.25500000920E-02 0. -1.
    10030    2    1    2    0    0  0.00000000000E+00  0.00000000000E+00  0.16086108176E+03  0.37029708176E+04  0.36994751775E+04 0.  0.
        2    1    3    3  502    0  0.13253359421E+04  0.22101341868E+02 -0.12109533796E+04  0.17953862861E+04  0.25500000920E-02 0. -1.
       -2    1    3    3    0  502 -0.13253359421E+04 -0.22101341868E+02  0.13718144613E+04  0.19075845316E+04  0.25500000920E-02 0.  1.
</event>
<event>
 5   0  0.7191801E-08  0.3704553E+04  0.7818609E-02  0.8066954E-01
       -2   -1    0    0    0  501  0.00000000000E+00  0.00000000000E+00  0.15120149004E+04  0.15120149004E+04  0.25500000920E-02 0. -1.
        2   -1    0    0  501    0  0.00000000000E+00  0.00000000000E+00 -0.22691099744E+04  0.22691099744E+04  0.25500000920E-02 0.  1.
    10030    2    1    2    0    0  0.00000000000E+00  0.00000000000E+00 -0.75709507396E+03  0.37811248748E+04  0.37045529241E+04 0.  0.
        5    1    3    3  502    0 -0.51991834531E+03 -0.11578877631E+04 -0.17554634202E+04  0.21662624650E+04  0.46999998093E+01 0.  1.
       -5    1    3    3    0  502  0.51991834531E+03  0.11578877631E+04  0.99836834622E+03  0.16148624098E+04  0.46999998093E+01 0. -1.
</event>
<event>
 5   0  0.2282000E-08  0.3732556E+04  0.7818609E-02  0.8060785E-01
        1   -1    0    0  501    0  0.00000000000E+00  0.00000000000E+00  0.23800483998E+04  0.23800483998E+04  0.50400001928E-02 0.  1.
       -1   -1    0    0    0  501  0.00000000000E+00  0.00000000000E+00 -0.14634129700E+04  0.14634129700E+04  0.50400001928E-02 0. -1.
    10030    2    1    2    0    0  0.00000000000E+00  0.00000000000E+00  0.91663542977E+03  0.38434613698E+04  0.37325560665E+04 0.  0.
        1    1    3    3  502    0 -0.13250894105E+04 -0.69243025133E+03  0.16084993051E+04  0.21960399844E+04  0.50400001928E-02 0.  1.
       -1    1    3    3    0  502  0.13250894105E+04  0.69243025133E+03 -0.69186387531E+03  0.16474213853E+04  0.50400001928E-02 0. -1.
</event>
<event>
 5   0  0.7203049E-08  0.3702598E+04  0.7818609E-02  0.8067386E-01
       -2   -1    0    0    0  501  0.00000000000E+00  0.00000000000E+00  0.17550503105E+04  0.17550503105E+04  0.25500000920E-02 0.  1.
        2   -1    0    0  501    0  0.00000000000E+00  0.00000000000E+00 -0.19528259626E+04  0.19528259626E+04  0.25500000920E-02 0. -1.
    10030    2    1    2    0    0  0.00000000000E+00  0.00000000000E+00 -0.19777565211E+03  0.37078762732E+04  0.37025979053E+04 0.  0.
        4    1    3    3  502    0  0.96305913907E+03  0.34525551222E+03 -0.16440138147E+04  0.19363541282E+04  0.12699999809E+01 0. -1.
       -4    1    3    3    0  502 -0.96305913907E+03 -0.34525551222E+03  0.14462381626E+04  0.17715221449E+04  0.12699999809E+01 0.  1.
</event>
<event>
 5   0  0.7254493E-08  0.3699712E+04  0.7818609E-02  0.8068026E-01
        2   -1    0    0  501    0  0.00000000000E+00  0.00000000000E+00  0.23026494872E+04  0.23026494872E+04  0.25500000920E-02 0.  1.
       -2   -1    0    0    0  501  0.00000000000E+00  0.00000000000E+00 -0.14860999600E+04  0.14860999600E+04  0.25500000920E-02 0. -1.
    10030    2    1    2    0    0  0.00000000000E+00  0.00000000000E+00  0.81654952719E+03  0.37887494472E+04  0.36997120487E+04 0.  0.
        3    1    3    3  502    0  0.74078133029E+03  0.11230642436E+04  0.17084503221E+04  0.21745879582E+04  0.10100000352E+00 0. -1.
       -3    1    3    3    0  502 -0.74078133029E+03 -0.11230642436E+04 -0.89190079489E+03  0.16141614890E+04  0.10100000352E+00 0.  1.
</event>
<event>
 5   0  0.7191801E-08  0.3686681E+04  0.7818609E-02  0.8070920E-01
       -2   -1    0    0    0  501  0.00000000000E+00  0.00000000000E+00  0.22830766070E+04  0.22830766070E+04  0.25500000920E-02 0. -1.
        2   -1    0    0  501    0  0.00000000000E+00  0.00000000000E+00 -0.14883006130E+04  0.14883006130E+04  0.25500000920E-02 0.  1.
    10030    2    1    2    0    0  0.00000000000E+00  0.00000000000E+00  0.79477599402E+03  0.37713772200E+04  0.36866810623E+04 0.  0.
        5    1    3    3  502    0  0.77329143095E+03  0.40953850948E+03  0.20570599832E+04  0.22354461059E+04  0.46999998093E+01 0. -1.
       -5    1    3    3    0  502 -0.77329143095E+03 -0.40953850948E+03 -0.12622839892E+04  0.15359311141E+04  0.46999998093E+01 0.  1.
</event>
<event>
 5   0  0.7254493E-08  0.3693536E+04  0.7818609E-02  0.8069396E-01
       -2   -1    0    0    0  501  0.00000000000E+00  0.00000000000E+00  0.17925400556E+04  0.17925400556E+04  0.25500000920E-02 0.  1.
        2   -1    0    0  501    0  0.00000000000E+00  0.00000000000E+00 -0.19026367815E+04  0.19026367815E+04  0.25500000920E-02 0. -1.
    10030    2    1    2    0    0  0.00000000000E+00  0.00000000000E+00 -0.11009672589E+03  0.36951768370E+04  0.36935363228E+04 0.  0.
        3    1    3    3  502    0 -0.15211211353E+04 -0.10262924088E+04 -0.26362841075E+03  0.18538030008E+04  0.10100000352E+00 0.  1.
       -3    1    3    3    0  502  0.15211211353E+04  0.10262924088E+04  0.15353168486E+03  0.18413738363E+04  0.10100000352E+00 0. -1.
</event>
<event>
 5   0  0.2282000E-08  0.3698388E+04  0.7818609E-02  0.8068319E-01
       -1   -1    0    0    0  501  0.00000000000E+00  0.00000000000E+00  0.16983820517E+04  0.16983820517E+04  0.50400001928E-02 0.  1.
        1   -1    0    0  501    0  0.00000000000E+00  0.00000000000E+00 -0.20133979403E+04  0.20133979403E+04  0.50400001928E-02 0. -1.
    10030    2    1    2    0    0  0.00000000000E+00  0.00000000000E+00 -0.31501588853E+03  0.37117799920E+04  0.36983882570E+04 0.  0.
        3    1    3    3  502    0 -0.50551575303E+03  0.83096067425E+03 -0.17359319290E+04  0.19898496151E+04  0.10100000352E+00 0. -1.
       -3    1    3    3    0  502  0.50551575303E+03 -0.83096067425E+03  0.14209160404E+04  0.17219303769E+04  0.10100000352E+00 0.  1.
</event>
<event>
 5   0  0.2282000E-08  0.3669312E+04  0.7818609E-02  0.8074797E-01
       -1   -1    0    0    0  501  0.00000000000E+00  0.00000000000E+00  0.16604295561E+04  0.16604295561E+04  0.50400001928E-02 0. -1.
        1   -1    0    0  501    0  0.00000000000E+00  0.00000000000E+00 -0.20271636281E+04  0.20271636281E+04  0.50400001928E-02 0.  1.
    10030    2    1    2    0    0  0.00000000000E+00  0.00000000000E+00 -0.36673407201E+03  0.36875931843E+04  0.36693118719E+04 0.  0.
        3    1    3    3  502    0  0.68498526282E+03 -0.16776284607E+04 -0.47171170771E+03  0.18724726988E+04  0.10100000352E+00 0.  1.
       -3    1    3    3    0  502 -0.68498526282E+03  0.16776284607E+04  0.10497763570E+03  0.18151204854E+04  0.10100000352E+00 0. -1.
</event>
<event>
 5   0  0.7203049E-08  0.3705879E+04  0.7818609E-02  0.8066660E-01
        2   -1    0    0  501    0  0.00000000000E+00  0.00000000000E+00  0.15844582037E+04  0.15844582037E+04  0.25500000920E-02 0.  1.
       -2   -1    0    0    0  501  0.00000000000E+00  0.00000000000E+00 -0.21669138836E+04  0.21669138836E+04  0.25500000920E-02 0. -1.
    10030    2    1    2    0    0  0.00000000000E+00  0.00000000000E+00 -0.58245567984E+03  0.37513720873E+04  0.37058788322E+04 0.  0.
        4    1    3    3  502    0  0.97303089309E+03 -0.84759474293E+03 -0.16372796717E+04  0.20846803840E+04  0.12699999809E+01 0. -1.
       -4    1    3    3    0  502 -0.97303089309E+03  0.84759474293E+03  0.10548239919E+04  0.16666917033E+04  0.12699999809E+01 0.  1.
</event>
<event>
 5   0  0.2282000E-08  0.3680722E+04  0.7818609E-02  0.8072247E-01
       -1   -1    0    0    0  501  0.00000000000E+00  0.00000000000E+00  0.12707107222E+04  0.12707107222E+04  0.50400001928E-02 0. -1.
        1   -1    0    0  501    0  0.00000000000E+00  0.00000000000E+00 -0.26653818482E+04  0.26653818483E+04  0.50400001928E-02 0.  1.
    10030    2    1    2    0    0  0.00000000000E+00  0.00000000000E+00 -0.13946711261E+04  0.39360925704E+04  0.36807223711E+04 0.  0.
        5    1    3    3  502    0  0.62801613394E+03  0.14770250418E+04 -0.16603124949E+04  0.23092567872E+04  0.46999998093E+01 0.  1.
       -5    1    3    3    0  502 -0.62801613394E+03 -0.14770250418E+04  0.26564136883E+03  0.16268357832E+04  0.46999998093E+01 0. -1.
</event>
<event>
 5   0  0.2282000E-08  0.3700511E+04  0.7818609E-02  0.8067849E-01
        1   -1    0    0  501    0  0.00000000000E+00  0.00000000000E+00  0.16353840706E+04  0.16353840706E+04  0.50400001928E-02 0.  1.
       -1   -1    0    0    0  501  0.00000000000E+00  0.00000000000E+00 -0.20933586553E+04  0.20933586554E+04  0.50400001928E-02 0. -1.
    10030    2    1    2    0    0  0.00000000000E+00  0.00000000000E+00 -0.45797458476E+03  0.37287427259E+04  0.37005109912E+04 0.  0.
        5    1    3    3  502    0 -0.62075991658E+03 -0.15642278460E+04 -0.10037955847E+04  0.19595354792E+04  0.46999998093E+01 0. -1.
       -5    1    3    3    0  502  0.62075991658E+03  0.15642278460E+04  0.54582099998E+03  0.17692072468E+04  0.46999998093E+01 0.  1.
</event>
<event>
 5   0  0.2282000E-08  0.3703710E+04  0.7818609E-02  0.8067140E-01
        1   -1    0    0  501    0  0.00000000000E+00  0.00000000000E+00  0.16283602262E+04  0.16283602262E+04  0.50400001928E-02 0.  1.
       -1   -1    0    0    0  501  0.00000000000E+00  0.00000000000E+00 -0.21060242554E+04  0.21060242554E+04  0.50400001928E-02 0. -1.
    10030    2    1    2    0    0  0.00000000000E+00  0.00000000000E+00 -0.47766402916E+03  0.37343844816E+04  0.37037095636E+04 0.  0.
        3    1    3    3  502    0  0.15090926838E+04 -0.10155481591E+04 -0.58908105956E+03  0.19119924939E+04  0.10100000352E+00 0. -1.
       -3    1    3    3    0  502 -0.15090926838E+04  0.10155481591E+04  0.11141703040E+03  0.18223919877E+04  0.10100000352E+00 0.  1.
</event>
<event>
 5   0  0.7362817E-08  0.3699041E+04  0.7818609E-02  0.8068174E-01
       -2   -1    0    0    0  501  0.00000000000E+00  0.00000000000E+00  0.14274221951E+04  0.14274221951E+04  0.25500000920E-02 0. -1.
        2   -1    0    0  501    0  0.00000000000E+00  0.00000000000E+00 -0.23964362322E+04  0.23964362322E+04  0.25500000920E-02 0.  1.
    10030    2    1    2    0    0  0.00000000000E+00  0.00000000000E+00 -0.96901403714E+03  0.38238584273E+04  0.36990411012E+04 0.  0.
        1    1    3    3  502    0 -0.13467000552E+04 -0.11815054037E+03 -0.17893045271E+04  0.22425813875E+04  0.50400001928E-02 0.  1.
       -1    1    3    3    0  502  0.13467000552E+04  0.11815054037E+03  0.82029048995E+03  0.15812770399E+04  0.50400001928E-02 0. -1.
</event>
<event>
 5   0  0.2282000E-08  0.3696088E+04  0.7818609E-02  0.8068829E-01
       -1   -1    0    0    0  501  0.00000000000E+00  0.00000000000E+00  0.19450241923E+04  0.19450241923E+04  0.50400001928E-02 0.  1.
        1   -1    0    0  501    0  0.00000000000E+00  0.00000000000E+00 -0.17558992906E+04  0.17558992906E+04  0.50400001928E-02 0. -1.
    10030    2    1    2    0    0  0.00000000000E+00  0.00000000000E+00  0.18912490168E+03  0.37009234829E+04  0.36960879857E+04 0.  0.
        2    1    3    3  502    0  0.18051863512E+04  0.37568723955E+03  0.21893418908E+03  0.18568173964E+04  0.25500000920E-02 0. -1.
       -2    1    3    3    0  502 -0.18051863512E+04 -0.37568723955E+03 -0.29809287400E+02  0.18441060865E+04  0.25500000920E-02 0.  1.
</event>
<event>
 5   0  0.2282000E-08  0.3696704E+04  0.7818609E-02  0.8068693E-01
       -1   -1    0    0    0  501  0.00000000000E+00  0.00000000000E+00  0.19111235876E+04  0.19111235876E+04  0.50400001928E-02 0.  1.
        1   -1    0    0  501    0  0.00000000000E+00  0.00000000000E+00 -0.17876418051E+04  0.17876418051E+04  0.50400001928E-02 0. -1.
    10030    2    1    2    0    0  0.00000000000E+00  0.00000000000E+00  0.12348178256E+03  0.36987653927E+04  0.36967036234E+04 0.  0.
        3    1    3    3  502    0  0.80882573553E+03  0.37440020972E+03 -0.15584305246E+04  0.17952939307E+04  0.10100000352E+00 0. -1.
       -3    1    3    3    0  502 -0.80882573553E+03 -0.37440020972E+03  0.16819123071E+04  0.19034714620E+04  0.10100000352E+00 0.  1.
</event>
<event>
 5   0  0.2282000E-08  0.3699538E+04  0.7818609E-02  0.8068064E-01
       -1   -1    0    0    0  501  0.00000000000E+00  0.00000000000E+00  0.14712351909E+04  0.14712351909E+04  0.50400001928E-02 0. -1.
        1   -1    0    0  501    0  0.00000000000E+00  0.00000000000E+00 -0.23256954713E+04  0.23256954713E+04  0.50400001928E-02 0.  1.
    10030    2    1    2    0    0  0.00000000000E+00  0.00000000000E+00 -0.85446028043E+03  0.37969306622E+04  0.36995378202E+04 0.  0.
        2    1    3    3  502    0 -0.68299903031E+03 -0.24831056103E+03  0.13185794666E+04  0.15055887951E+04  0.25500000920E-02 0. -1.
       -2    1    3    3    0  502  0.68299903031E+03  0.24831056103E+03 -0.21730397470E+04  0.22913418672E+04  0.25500000920E-02 0.  1.
</event>
<event>
 5   0  0.2282000E-08  0.3689149E+04  0.7818609E-02  0.8070371E-01
        1   -1    0    0  501    0  0.00000000000E+00  0.00000000000E+00  0.25495862067E+04  0.25495862067E+04  0.50400001928E-02 0.  1.
       -1   -1    0    0    0  501  0.00000000000E+00  0.00000000000E+00 -0.13345124155E+04  0.13345124155E+04  0.50400001928E-02 0. -1.
    10030    2    1    2    0    0  0.00000000000E+00  0.00000000000E+00  0.12150737912E+04  0.38840986223E+04  0.36891486537E+04 0.  0.
        3    1    3    3  502    0  0.30144476886E+03  0.95874240165E+03 -0.10209371964E+04  0.14326090571E+04  0.10100000352E+00 0. -1.
       -3    1    3    3    0  502 -0.30144476886E+03 -0.95874240165E+03  0.22360109876E+04  0.24514895652E+04  0.10100000352E+00 0.  1.
</event>
<event>
 5   0  0.7191801E-08  0.3719239E+04  0.7818609E-02  0.8063711E-01
       -2   -1    0    0    0  501  0.00000000000E+00  0.00000000000E+00  0.12459376400E+04  0.12459376400E+04  0.25500000920E-02 0.  1.
        2   -1    0    0  501    0  0.00000000000E+00  0.00000000000E+00 -0.27755686952E+04  0.27755686952E+04  0.25500000920E-02 0. -1.
    10030    2    1    2    0    0  0.00000000000E+00  0.00000000000E+00 -0.15296310552E+04  0.40215063352E+04  0.37192394436E+04 0.  0.
        5    1    3    3  502    0  0.47523954438E+03 -0.21280087896E+03 -0.26951273075E+04  0.27449717908E+04  0.46999998093E+01 0. -1.
       -5    1    3    3    0  502 -0.47523954438E+03  0.21280087896E+03  0.11654962524E+04  0.12765345443E+04  0.46999998093E+01 0.  1.
</event>
<event>
 5   0  0.7362817E-08  0.3631797E+04  0.7818609E-02  0.8083247E-01
        2   -1    0    0  501    0  0.00000000000E+00  0.00000000000E+00  0.17631704685E+04  0.17631704685E+04  0.25500000920E-02 0. -1.
       -2   -1    0    0    0  501  0.00000000000E+00  0.00000000000E+00 -0.18702032249E+04  0.18702032249E+04  0.25500000920E-02 0.  1.
    10030    2    1    2    0    0  0.00000000000E+00  0.00000000000E+00 -0.10703275640E+03  0.36333736935E+04  0.36317968536E+04 0.  0.
        1    1    3    3  502    0  0.40829592645E+03 -0.32700505575E+03 -0.17931932342E+04  0.18679346470E+04  0.50400001928E-02 0.  1.
       -1    1    3    3    0  502 -0.40829592645E+03  0.32700505575E+03  0.16861604778E+04  0.17654390465E+04  0.50400001928E-02 0. -1.
</event>
<event>
 5   0  0.2282000E-08  0.3707720E+04  0.7818609E-02  0.8066253E-01
        1   -1    0    0  501    0  0.00000000000E+00  0.00000000000E+00  0.20074583246E+04  0.20074583246E+04  0.50400001928E-02 0. -1.
       -1   -1    0    0    0  501  0.00000000000E+00  0.00000000000E+00 -0.17120145102E+04  0.17120145102E+04  0.50400001928E-02 0.  1.
    10030    2    1    2    0    0  0.00000000000E+00  0.00000000000E+00  0.29544381437E+03  0.37194728347E+04  0.37077204750E+04 0.  0.
        1    1    3    3  502    0  0.93590841664E+03 -0.14249886049E+04 -0.58279002319E+03  0.18017106592E+04  0.50400001928E-02 0.  1.
       -1    1    3    3    0  502 -0.93590841664E+03  0.14249886049E+04  0.87823383756E+03  0.19177621755E+04  0.50400001928E-02 0. -1.
</event>
<event>
 5   0  0.7309833E-08  0.3681524E+04  0.7818609E-02  0.8072069E-01
        2   -1    0    0  501    0  0.00000000000E+00  0.00000000000E+00  0.20724658396E+04  0.20724658396E+04  0.25500000920E-02 0.  1.
       -2   -1    0    0    0  501  0.00000000000E+00  0.00000000000E+00 -0.16349626446E+04  0.16349626446E+04  0.25500000920E-02 0. -1.
    10030    2    1    2    0    0  0.00000000000E+00  0.00000000000E+00  0.43750319505E+03  0.37074284842E+04  0.36815237225E+04 0.  0.
        2    1    3    3  502    0  0.11097618849E+04 -0.77081947319E+03  0.14776156558E+04  0.20022692446E+04  0.25500000920E-02 0.  1.
       -2    1    3    3    0  502 -0.11097618849E+04  0.77081947319E+03 -0.10401124608E+04  0.17051592396E+04  0.25500000920E-02 0. -1.
</event>
<event>
 5   0  0.7191801E-08  0.3697692E+04  0.7818609E-02  0.8068473E-01
        2   -1    0    0  501    0  0.00000000000E+00  0.00000000000E+00  0.21435518065E+04  0.21435518065E+04  0.25500000920E-02 0. -1.
       -2   -1    0    0    0  501  0.00000000000E+00  0.00000000000E+00 -0.15946577708E+04  0.15946577708E+04  0.25500000920E-02 0.  1.
    10030    2    1    2    0    0  0.00000000000E+00  0.00000000000E+00  0.54889403572E+03  0.37382095773E+04  0.36976920074E+04 0.  0.
        5    1    3    3  502    0 -0.13199861426E+04  0.45506113845E+03  0.14996530539E+04  0.20490059611E+04  0.46999998093E+01 0. -1.
       -5    1    3    3    0  502  0.13199861426E+04 -0.45506113845E+03 -0.95075901817E+03  0.16892036162E+04  0.46999998093E+01 0.  1.
</event>
<event>
 5   0  0.2282000E-08  0.3695709E+04  0.7818609E-02  0.8068913E-01
       -1   -1    0    0    0  501  0.00000000000E+00  0.00000000000E+00  0.14143589189E+04  0.14143589189E+04  0.50400001928E-02 0.  1.
        1   -1    0    0  501    0  0.00000000000E+00  0.00000000000E+00 -0.24142145966E+04  0.24142145966E+04  0.50400001928E-02 0. -1.
    10030    2    1    2    0    0  0.00000000000E+00  0.00000000000E+00 -0.99985567769E+03  0.38285735154E+04  0.36957088342E+04 0.  0.
        2    1    3    3  502    0 -0.16436721524E+04  0.72579365568E+03 -0.94686763989E+03  0.20310078539E+04  0.25500000920E-02 0. -1.
       -2    1    3    3    0  502  0.16436721524E+04 -0.72579365568E+03 -0.52988037801E+02  0.17975656615E+04  0.25500000920E-02 0.  1.
</event>
<event>
 5   0  0.7309833E-08  0.3699479E+04  0.7818609E-02  0.8068077E-01
        2   -1    0    0  501    0  0.00000000000E+00  0.00000000000E+00  0.13835134083E+04  0.13835134083E+04  0.25500000920E-02 0.  1.
       -2   -1    0    0    0  501  0.00000000000E+00  0.00000000000E+00 -0.24730774447E+04  0.24730774447E+04  0.25500000920E-02 0. -1.
    10030    2    1    2    0    0  0.00000000000E+00  0.00000000000E+00 -0.10895640364E+04  0.38565908531E+04  0.36994787766E+04 0.  0.
        2    1    3    3  502    0 -0.15566476145E+03  0.18368950013E+04 -0.38626834956E+03  0.18835121453E+04  0.25500000920E-02 0.  1.
       -2    1    3    3    0  502  0.15566476145E+03 -0.18368950013E+04 -0.70329568683E+03  0.19730787077E+04  0.25500000920E-02 0. -1.
</event>
<event>
 5   0  0.7254493E-08  0.3679610E+04  0.7818609E-02  0.8072496E-01
       -2   -1    0    0    0  501  0.00000000000E+00  0.00000000000E+00  0.14345723724E+04  0.14345723724E+04  0.25500000920E-02 0.  1.
        2   -1    0    0  501    0  0.00000000000E+00  0.00000000000E+00 -0.23595061715E+04  0.23595061715E+04  0.25500000920E-02 0. -1.
    10030    2    1    2    0    0  0.00000000000E+00  0.00000000000E+00 -0.92493379913E+03  0.37940785439E+04  0.36796099609E+04 0.  0.
        3    1    3    3  502    0 -0.13525820926E+04  0.52988740054E+03 -0.16265807914E+04  0.21808310470E+04  0.10100000352E+00 0. -1.
       -3    1    3    3    0  502  0.13525820926E+04 -0.52988740054E+03  0.70164699224E+03  0.16132474969E+04  0.10100000352E+00 0.  1.
</event>
<event>
 5   0  0.2282000E-08  0.3695037E+04  0.7818609E-02  0.8069063E-01
        3   -1    0    0  501    0  0.00000000000E+00  0.00000000000E+00  0.30937738541E+04  0.30937738557E+04  0.10100000352E+00 0.  1.
       -3   -1    0    0    0  501  0.00000000000E+00  0.00000000000E+00 -0.11032885231E+04  0.11032885277E+04  0.10100000352E+00 0. -1.
    10030    2    1    2    0    0  0.00000000000E+00  0.00000000000E+00  0.19904853310E+04  0.41970623834E+04  0.36950373202E+04 0.  0.
        5    1    3    3  502    0 -0.15030535767E+04 -0.92687072438E+03  0.16122208088E+04  0.23911372651E+04  0.46999998093E+01 0.  1.
       -5    1    3    3    0  502  0.15030535767E+04  0.92687072438E+03  0.37826452220E+03  0.18059251183E+04  0.46999998093E+01 0. -1.
</event>
<event>
 5   0  0.2282000E-08  0.3699600E+04  0.7818609E-02  0.8068050E-01
        1   -1    0    0  501    0  0.00000000000E+00  0.00000000000E+00  0.15221966609E+04  0.15221966609E+04  0.50400001928E-02 0.  1.
       -1   -1    0    0    0  501  0.00000000000E+00  0.00000000000E+00 -0.22479098270E+04  0.22479098270E+04  0.50400001928E-02 0. -1.
    10030    2    1    2    0    0  0.00000000000E+00  0.00000000000E+00 -0.72571316610E+03  0.37701064880E+04  0.36996004286E+04 0.  0.
        5    1    3    3  502    0  0.65188098652E+03  0.49286208614E+03 -0.20539634637E+04  0.22105768154E+04  0.46999998093E+01 0. -1.
       -5    1    3    3    0  502 -0.65188098652E+03 -0.49286208614E+03  0.13282502976E+04  0.15595296726E+04  0.46999998093E+01 0.  1.
</event>
<event>
 5   0  0.7362817E-08  0.3712489E+04  0.7818609E-02  0.8065200E-01
        2   -1    0    0  501    0  0.00000000000E+00  0.00000000000E+00  0.15869442732E+04  0.15869442732E+04  0.25500000920E-02 0.  1.
       -2   -1    0    0    0  501  0.00000000000E+00  0.00000000000E+00 -0.21712444397E+04  0.21712444397E+04  0.25500000920E-02 0. -1.
    10030    2    1    2    0    0  0.00000000000E+00  0.00000000000E+00 -0.58430016644E+03  0.37581887129E+04  0.37124891538E+04 0.  0.
        1    1    3    3  502    0 -0.54823783175E+03 -0.11672115276E+04  0.10594620798E+04  0.16689539744E+04  0.50400001928E-02 0.  1.
       -1    1    3    3    0  502  0.54823783175E+03  0.11672115276E+04 -0.16437622462E+04  0.20892347385E+04  0.50400001928E-02 0. -1.
</event>
<event>
 5   0  0.2282000E-08  0.3702946E+04  0.7818609E-02  0.8067309E-01
        1   -1    0    0  501    0  0.00000000000E+00  0.00000000000E+00  0.21595550143E+04  0.21595550143E+04  0.50400001928E-02 0. -1.
       -1   -1    0    0    0  501  0.00000000000E+00  0.00000000000E+00 -0.15873419883E+04  0.15873419883E+04  0.50400001928E-02 0.  1.
    10030    2    1    2    0    0  0.00000000000E+00  0.00000000000E+00  0.57221302596E+03  0.37468970026E+04  0.37029460435E+04 0.  0.
        4    1    3    3  502    0  0.53655835897E+03  0.14222589649E+04  0.13556456868E+04  0.20367847891E+04  0.12699999809E+01 0. -1.
       -4    1    3    3    0  502 -0.53655835897E+03 -0.14222589649E+04 -0.78343266086E+03  0.17101122135E+04  0.12699999809E+01 0.  1.
</event>
<event>
 5   0  0.2282000E-08  0.3699615E+04  0.7818609E-02  0.8068047E-01
       -1   -1    0    0    0  501  0.00000000000E+00  0.00000000000E+00  0.17249064047E+04  0.17249064047E+04  0.50400001928E-02 0. -1.
        1   -1    0    0  501    0  0.00000000000E+00  0.00000000000E+00 -0.19837524519E+04  0.19837524519E+04  0.50400001928E-02 0.  1.
    10030    2    1    2    0    0  0.00000000000E+00  0.00000000000E+00 -0.25884604721E+03  0.37086588567E+04  0.36996147420E+04 0.  0.
        2    1    3    3  502    0  0.16224571047E+04  0.70898434936E+03  0.40738718405E+03  0.18168627306E+04  0.25500000920E-02 0. -1.
       -2    1    3    3    0  502 -0.16224571047E+04 -0.70898434936E+03 -0.66623323126E+03  0.18917961261E+04  0.25500000920E-02 0.  1.
</event>
<event>
 5   0  0.7203049E-08  0.3698680E+04  0.7818609E-02  0.8068254E-01
       -2   -1    0    0    0  501  0.00000000000E+00  0.00000000000E+00  0.30006552825E+04  0.30006552825E+04  0.25500000920E-02 0. -1.
        2   -1    0    0  501    0  0.00000000000E+00  0.00000000000E+00 -0.11397705615E+04  0.11397705615E+04  0.25500000920E-02 0.  1.
    10030    2    1    2    0    0  0.00000000000E+00  0.00000000000E+00  0.18608847210E+04  0.41404258440E+04  0.36986800652E+04 0.  0.
        4    1    3    3  502    0  0.29383633516E+03 -0.47477894400E+03 -0.10431609068E+04  0.11831910784E+04  0.12699999809E+01 0.  1.
       -4    1    3    3    0  502 -0.29383633516E+03  0.47477894400E+03  0.29040456278E+04  0.29572347656E+04  0.12699999809E+01 0. -1.
</event>
<event>
 5   0  0.7309833E-08  0.3694529E+04  0.7818609E-02  0.8069175E-01
        2   -1    0    0  501    0  0.00000000000E+00  0.00000000000E+00  0.14320527935E+04  0.14320527935E+04  0.25500000920E-02 0.  1.
       -2   -1    0    0    0  501  0.00000000000E+00  0.00000000000E+00 -0.23828637037E+04  0.23828637037E+04  0.25500000920E-02 0. -1.
    10030    2    1    2    0    0  0.00000000000E+00  0.00000000000E+00 -0.95081091018E+03  0.38149164972E+04  0.36945292656E+04 0.  0.
        2    1    3    3  502    0 -0.11291408856E+04 -0.36788062727E+03  0.98565392737E+03  0.15433110380E+04  0.25500000920E-02 0.  1.
       -2    1    3    3    0  502  0.11291408856E+04  0.36788062727E+03 -0.19364648376E+04  0.22716054593E+04  0.25500000920E-02 0. -1.
</event>
<event>
 5   0  0.7191801E-08  0.3702315E+04  0.7818609E-02  0.8067449E-01
        2   -1    0    0  501    0  0.00000000000E+00  0.00000000000E+00  0.12482142710E+04  0.12482142710E+04  0.25500000920E-02 0.  1.
       -2   -1    0    0    0  501  0.00000000000E+00  0.00000000000E+00 -0.27453490917E+04  0.27453490917E+04  0.25500000920E-02 0. -1.
    10030    2    1    2    0    0  0.00000000000E+00  0.00000000000E+00 -0.14971348207E+04  0.39935633627E+04  0.37023149057E+04 0.  0.
        5    1    3    3  502    0 -0.11869095103E+04 -0.89840967518E+03  0.43839118642E+03  0.15518063837E+04  0.46999998093E+01 0.  1.
       -5    1    3    3    0  502  0.11869095103E+04  0.89840967518E+03 -0.19355260072E+04  0.24417569790E+04  0.46999998093E+01 0. -1.
</event>
<event>
 5   0  0.2282000E-08  0.3698277E+04  0.7818609E-02  0.8068344E-01
        1   -1    0    0  501    0  0.00000000000E+00  0.00000000000E+00  0.23832360382E+04  0.23832360382E+04  0.50400001928E-02 0. -1.
       -1   -1    0    0    0  501  0.00000000000E+00  0.00000000000E+00 -0.14347351783E+04  0.14347351783E+04  0.50400001928E-02 0.  1.
    10030    2    1    2    0    0  0.00000000000E+00  0.00000000000E+00  0.94850085986E+03  0.38179712165E+04  0.36982766702E+04 0.  0.
        2    1    3    3  502    0  0.12635109654E+04  0.95812194637E+03 -0.50777500734E+03  0.16650204449E+04  0.25500000920E-02 0. -1.
       -2    1    3    3    0  502 -0.12635109654E+04 -0.95812194637E+03  0.14562758672E+04  0.21529507717E+04  0.25500000920E-02 0.  1.
</event>
<event>
 5   0  0.7203049E-08  0.3704071E+04  0.7818609E-02  0.8067060E-01
        2   -1    0    0  501    0  0.00000000000E+00  0.00000000000E+00  0.20584764775E+04  0.20584764775E+04  0.25500000920E-02 0.  1.
       -2   -1    0    0    0  501  0.00000000000E+00  0.00000000000E+00 -0.16662977021E+04  0.16662977021E+04  0.25500000920E-02 0. -1.
    10030    2    1    2    0    0  0.00000000000E+00  0.00000000000E+00  0.39217877538E+03  0.37247741796E+04  0.37040705308E+04 0.  0.
        4    1    3    3  502    0 -0.50285733276E+03  0.14323361980E+04  0.12629532056E+04  0.19747164084E+04  0.12699999809E+01 0.  1.
       -4    1    3    3    0  502  0.50285733276E+03 -0.14323361980E+04 -0.87077443018E+03  0.17500577712E+04  0.12699999809E+01 0. -1.
</event>
<event>
 5   0  0.7254493E-08  0.3699762E+04  0.7818609E-02  0.8068015E-01
        2   -1    0    0  501    0  0.00000000000E+00  0.00000000000E+00  0.18294111852E+04  0.18294111852E+04  0.25500000920E-02 0.  1.
       -2   -1    0    0    0  501  0.00000000000E+00  0.00000000000E+00 -0.18705795040E+04  0.18705795040E+04  0.25500000920E-02 0. -1.
    10030    2    1    2    0    0  0.00000000000E+00  0.00000000000E+00 -0.41168318801E+02  0.36999906893E+04  0.36997616505E+04 0.  0.
        3    1    3    3  502    0  0.13847840010E+04 -0.48305517918E+03 -0.11480802364E+04  0.18625405432E+04  0.10100000352E+00 0. -1.
       -3    1    3    3    0  502 -0.13847840010E+04  0.48305517918E+03  0.11069119176E+04  0.18374501461E+04  0.10100000352E+00 0.  1.
</event>
<event>
 5   0  0.2282000E-08  0.3708448E+04  0.7818609E-02  0.8066092E-01
        1   -1    0    0  501    0  0.00000000000E+00  0.00000000000E+00  0.22987548132E+04  0.22987548132E+04  0.50400001928E-02 0.  1.
       -1   -1    0    0    0  501  0.00000000000E+00  0.00000000000E+00 -0.14956563406E+04  0.14956563406E+04  0.50400001928E-02 0. -1.
    10030    2    1    2    0    0  0.00000000000E+00  0.00000000000E+00  0.80309847264E+03  0.37944111538E+04  0.37084483072E+04 0.  0.
        3    1    3    3  502    0 -0.14811035931E+04  0.68016656697E+03  0.13062701998E+04  0.20886924755E+04  0.10100000352E+00 0.  1.
       -3    1    3    3    0  502  0.14811035931E+04 -0.68016656697E+03 -0.50317172711E+03  0.17057186783E+04  0.10100000352E+00 0. -1.
</event>
<event>
 5   0  0.7254493E-08  0.3729084E+04  0.7818609E-02  0.8061547E-01
        2   -1    0    0  501    0  0.00000000000E+00  0.00000000000E+00  0.20259051766E+04  0.20259051766E+04  0.25500000920E-02 0. -1.
       -2   -1    0    0    0  501  0.00000000000E+00  0.00000000000E+00 -0.17160309842E+04  0.17160309842E+04  0.25500000920E-02 0.  1.
    10030    2    1    2    0    0  0.00000000000E+00  0.00000000000E+00  0.30987419235E+03  0.37419361608E+04  0.37290835625E+04 0.  0.
        3    1    3    3  502    0 -0.61392251266E+03  0.17427927410E+04  0.40537423484E+03  0.18917070783E+04  0.10100000352E+00 0. -1.
       -3    1    3    3    0  502  0.61392251266E+03 -0.17427927410E+04 -0.95500042489E+02  0.18502290825E+04  0.10100000352E+00 0.  1.
</event>
<event>
 5   0  0.2282000E-08  0.3698663E+04  0.7818609E-02  0.8068258E-01
       -1   -1    0    0    0  501  0.00000000000E+00  0.00000000000E+00  0.18528253961E+04  0.18528253961E+04  0.50400001928E-02 0.  1.
        1   -1    0    0  501    0  0.00000000000E+00  0.00000000000E+00 -0.18458444525E+04  0.18458444525E+04  0.50400001928E-02 0. -1.
    10030    2    1    2    0    0  0.00000000000E+00  0.00000000000E+00  0.69809436318E+01  0.36986698487E+04  0.36986632607E+04 0.  0.
        2    1    3    3  502    0 -0.63280268446E+03  0.17342438139E+04  0.11297416089E+03  0.18495415660E+04  0.25500000920E-02 0.  1.
       -2    1    3    3    0  502  0.63280268446E+03 -0.17342438139E+04 -0.10599321726E+03  0.18491282826E+04  0.25500000920E-02 0. -1.
</event>
<event>
 5   0  0.2282000E-08  0.3685302E+04  0.7818609E-02  0.8071227E-01
       -1   -1    0    0    0  501  0.00000000000E+00  0.00000000000E+00  0.18873271390E+04  0.18873271390E+04  0.50400001928E-02 0. -1.
        1   -1    0    0  501    0  0.00000000000E+00  0.00000000000E+00 -0.17990325590E+04  0.17990325590E+04  0.50400001928E-02 0.  1.
    10030    2    1    2    0    0  0.00000000000E+00  0.00000000000E+00  0.88294579971E+02  0.36863596980E+04  0.36853021437E+04 0.  0.
        1    1    3    3  502    0  0.12458647488E+03 -0.17666569319E+04 -0.46468765582E+03  0.18309923873E+04  0.50400001928E-02 0. -1.
       -1    1    3    3    0  502 -0.12458647488E+03  0.17666569319E+04  0.55298223579E+03  0.18553673108E+04  0.50400001928E-02 0.  1.
</event>
<event>
 5   0  0.7203049E-08  0.3711690E+04  0.7818609E-02  0.8065376E-01
       -2   -1    0    0    0  501  0.00000000000E+00  0.00000000000E+00  0.18090271013E+04  0.18090271013E+04  0.25500000920E-02 0.  1.
        2   -1    0    0  501    0  0.00000000000E+00  0.00000000000E+00 -0.19038744041E+04  0.19038744041E+04  0.25500000920E-02 0. -1.
    10030    2    1    2    0    0  0.00000000000E+00  0.00000000000E+00 -0.94847302806E+02  0.37129015054E+04  0.37116898548E+04 0.  0.
        4    1    3    3  502    0  0.11457882916E+04  0.12475750352E+04  0.71103524528E+03  0.18370756681E+04  0.12699999809E+01 0.  1.
       -4    1    3    3    0  502 -0.11457882916E+04 -0.12475750352E+04 -0.80588254808E+03  0.18758258373E+04  0.12699999809E+01 0. -1.
</event>
<event>
 5   0  0.7203049E-08  0.3699982E+04  0.7818609E-02  0.8067966E-01
       -2   -1    0    0    0  501  0.00000000000E+00  0.00000000000E+00  0.24033630148E+04  0.24033630148E+04  0.25500000920E-02 0.  1.
        2   -1    0    0  501    0  0.00000000000E+00  0.00000000000E+00 -0.14240322462E+04  0.14240322462E+04  0.25500000920E-02 0. -1.
    10030    2    1    2    0    0  0.00000000000E+00  0.00000000000E+00  0.97933076860E+03  0.38273952609E+04  0.36999818552E+04 0.  0.
        4    1    3    3  502    0 -0.10316500977E+04  0.15063411822E+04  0.79843920529E+03  0.19927048097E+04  0.12699999809E+01 0. -1.
       -4    1    3    3    0  502  0.10316500977E+04 -0.15063411822E+04  0.18089156331E+03  0.18346904512E+04  0.12699999809E+01 0.  1.
</event>
<event>
 5   0  0.7203049E-08  0.3702539E+04  0.7818609E-02  0.8067399E-01
       -2   -1    0    0    0  501  0.00000000000E+00  0.00000000000E+00  0.22048531343E+04  0.22048531343E+04  0.25500000920E-02 0. -1.
        2   -1    0    0  501    0  0.00000000000E+00  0.00000000000E+00 -0.15543884966E+04  0.15543884966E+04  0.25500000920E-02 0.  1.
    10030    2    1    2    0    0  0.00000000000E+00  0.00000000000E+00  0.65046463766E+03  0.37592416309E+04  0.37025387769E+04 0.  0.
        4    1    3    3  502    0 -0.68225736399E+03 -0.10834988608E+04  0.16827773460E+04  0.21145179359E+04  0.12699999809E+01 0. -1.
       -4    1    3    3    0  502  0.68225736399E+03  0.10834988608E+04 -0.10323127083E+04  0.16447236950E+04  0.12699999809E+01 0.  1.
</event>
<event>
 5   0  0.2282000E-08  0.3702401E+04  0.7818609E-02  0.8067430E-01
       -1   -1    0    0    0  501  0.00000000000E+00  0.00000000000E+00  0.13563928526E+04  0.13563928526E+04  0.50400001928E-02 0. -1.
        1   -1    0    0  501    0  0.00000000000E+00  0.00000000000E+00 -0.25265126169E+04  0.25265126169E+04  0.50400001928E-02 0.  1.
    10030    2    1    2    0    0  0.00000000000E+00  0.00000000000E+00 -0.11701197643E+04  0.38829054695E+04  0.37024011968E+04 0.  0.
        3    1    3    3  502    0  0.60439400323E+03  0.15489612730E+04 -0.14385997945E+04  0.21986683504E+04  0.10100000352E+00 0.  1.
       -3    1    3    3    0  502 -0.60439400323E+03 -0.15489612730E+04  0.26848003021E+03  0.16842371190E+04  0.10100000352E+00 0. -1.
</event>
<event>
 5   0  0.7254493E-08  0.3703825E+04  0.7818609E-02  0.8067115E-01
        2   -1    0    0  501    0  0.00000000000E+00  0.00000000000E+00  0.28840351481E+04  0.28840351481E+04  0.25500000920E-02 0. -1.
       -2   -1    0    0    0  501  0.00000000000E+00  0.00000000000E+00 -0.11891603043E+04  0.11891603043E+04  0.25500000920E-02 0.  1.
    10030    2    1    2    0    0  0.00000000000E+00  0.00000000000E+00  0.16948748439E+04  0.40731954524E+04  0.37038251116E+04 0.  0.
        3    1    3    3  502    0 -0.10326584162E+04 -0.11941278109E+04 -0.21722952266E+03  0.15935850492E+04  0.10100000352E+00 0. -1.
       -3    1    3    3    0  502  0.10326584162E+04  0.11941278109E+04  0.19121043665E+04  0.24796104032E+04  0.10100000352E+00 0.  1.
</event>
<event>
 5   0  0.7362817E-08  0.3671856E+04  0.7818609E-02  0.8074228E-01
        2   -1    0    0  501    0  0.00000000000E+00  0.00000000000E+00  0.27230265579E+04  0.27230265579E+04  0.25500000920E-02 0.  1.
       -2   -1    0    0    0  501  0.00000000000E+00  0.00000000000E+00 -0.12378257503E+04  0.12378257503E+04  0.25500000920E-02 0. -1.
    10030    2    1    2    0    0  0.00000000000E+00  0.00000000000E+00  0.14852008076E+04  0.39608523082E+04  0.36718564199E+04 0.  0.
        1    1    3    3  502    0  0.16478939509E+04  0.33005867866E+03 -0.54576353828E+02  0.16815087817E+04  0.50400001928E-02 0. -1.
       -1    1    3    3    0  502 -0.16478939509E+04 -0.33005867866E+03  0.15397771614E+04  0.22793435264E+04  0.50400001928E-02 0.  1.
</event>
<event>
 5   0  0.2282000E-08  0.3694498E+04  0.7818609E-02  0.8069182E-01
        1   -1    0    0  501    0  0.00000000000E+00  0.00000000000E+00  0.18428498618E+04  0.18428498618E+04  0.50400001928E-02 0. -1.
       -1   -1    0    0    0  501  0.00000000000E+00  0.00000000000E+00 -0.18516590265E+04  0.18516590266E+04  0.50400001928E-02 0.  1.
    10030    2    1    2    0    0  0.00000000000E+00  0.00000000000E+00 -0.88091647513E+01  0.36945088884E+04  0.36944983861E+04 0.  0.
        2    1    3    3  502    0 -0.17104943415E+03 -0.14800743266E+04  0.10875928716E+04  0.18446506920E+04  0.25500000920E-02 0. -1.
       -2    1    3    3    0  502  0.17104943415E+03  0.14800743266E+04 -0.10964020363E+04  0.18498581963E+04  0.25500000920E-02 0.  1.
</event>
<event>
 5   0  0.2282000E-08  0.3706652E+04  0.7818609E-02  0.8066489E-01
        1   -1    0    0  501    0  0.00000000000E+00  0.00000000000E+00  0.11501099325E+04  0.11501099325E+04  0.50400001928E-02 0.  1.
       -1   -1    0    0    0  501  0.00000000000E+00  0.00000000000E+00 -0.29865126190E+04  0.29865126190E+04  0.50400001928E-02 0. -1.
    10030    2    1    2    0    0  0.00000000000E+00  0.00000000000E+00 -0.18364026865E+04  0.41366225515E+04  0.37066523045E+04 0.  0.
        1    1    3    3  502    0  0.58763692779E+03 -0.12449116883E+04  0.46658086035E+03  0.14535542542E+04  0.50400001928E-02 0.  1.
       -1    1    3    3    0  502 -0.58763692779E+03  0.12449116883E+04 -0.23029835469E+04  0.26830682973E+04  0.50400001928E-02 0. -1.
</event>
<event>
 5   0  0.2282000E-08  0.3678629E+04  0.7818609E-02  0.8072714E-01
        1   -1    0    0  501    0  0.00000000000E+00  0.00000000000E+00  0.21029184172E+04  0.21029184172E+04  0.50400001928E-02 0.  1.
       -1   -1    0    0    0  501  0.00000000000E+00  0.00000000000E+00 -0.16087538998E+04  0.16087538998E+04  0.50400001928E-02 0. -1.
    10030    2    1    2    0    0  0.00000000000E+00  0.00000000000E+00  0.49416451738E+03  0.37116723169E+04  0.36786292037E+04 0.  0.
        2    1    3    3  502    0 -0.16075669120E+04 -0.37349089801E+02  0.11480826146E+04  0.19757935168E+04  0.25500000920E-02 0.  1.
       -2    1    3    3    0  502  0.16075669120E+04  0.37349089801E+02 -0.65391809720E+03  0.17358788002E+04  0.25500000920E-02 0. -1.
</event>
<event>
 5   0  0.7254493E-08  0.3697083E+04  0.7818609E-02  0.8068609E-01
        2   -1    0    0  501    0  0.00000000000E+00  0.00000000000E+00  0.30741226355E+04  0.30741226355E+04  0.25500000920E-02 0. -1.
       -2   -1    0    0    0  501  0.00000000000E+00  0.00000000000E+00 -0.11115708047E+04  0.11115708048E+04  0.25500000920E-02 0.  1.
    10030    2    1    2    0    0  0.00000000000E+00  0.00000000000E+00  0.19625518307E+04  0.41856934402E+04  0.36970826184E+04 0.  0.
        3    1    3    3  502    0  0.14311599746E+04  0.74370166136E+03 -0.41306913569E+02  0.16133869050E+04  0.10100000352E+00 0.  1.
       -3    1    3    3    0  502 -0.14311599746E+04 -0.74370166136E+03  0.20038587443E+04  0.25723065352E+04  0.10100000352E+00 0. -1.
</event>
<event>
 5   0  0.2282000E-08  0.3675463E+04  0.7818609E-02  0.8073421E-01
        1   -1    0    0  501    0  0.00000000000E+00  0.00000000000E+00  0.20720807103E+04  0.20720807103E+04  0.50400001928E-02 0. -1.
       -1   -1    0    0    0  501  0.00000000000E+00  0.00000000000E+00 -0.16298868727E+04  0.16298868727E+04  0.50400001928E-02 0.  1.
    10030    2    1    2    0    0  0.00000000000E+00  0.00000000000E+00  0.44219383760E+03  0.37019675831E+04  0.36754630451E+04 0.  0.
        2    1    3    3  502    0 -0.36833778531E+03 -0.50845269791E+03 -0.15185117597E+04  0.16431904438E+04  0.25500000920E-02 0.  1.
       -2    1    3    3    0  502  0.36833778531E+03  0.50845269791E+03  0.19607055973E+04  0.20587771393E+04  0.25500000920E-02 0. -1.
</event>
<event>
 5   0  0.7203049E-08  0.3704020E+04  0.7818609E-02  0.8067071E-01
       -2   -1    0    0    0  501  0.00000000000E+00  0.00000000000E+00  0.22650398112E+04  0.22650398112E+04  0.25500000920E-02 0. -1.
        2   -1    0    0  501    0  0.00000000000E+00  0.00000000000E+00 -0.15142962976E+04  0.15142962976E+04  0.25500000920E-02 0.  1.
    10030    2    1    2    0    0  0.00000000000E+00  0.00000000000E+00  0.75074351360E+03  0.37793361088E+04  0.37040201943E+04 0.  0.
        4    1    3    3  502    0 -0.17572779392E+04  0.56994686115E+03  0.50869857952E+03  0.19161526656E+04  0.12699999809E+01 0. -1.
       -4    1    3    3    0  502  0.17572779392E+04 -0.56994686115E+03  0.24204493409E+03  0.18631834432E+04  0.12699999809E+01 0.  1.
</event>
<event>
 5   0  0.2282000E-08  0.3700980E+04  0.7818609E-02  0.8067745E-01
        1   -1    0    0  501    0  0.00000000000E+00  0.00000000000E+00  0.14384248374E+04  0.14384248374E+04  0.50400001928E-02 0.  1.
       -1   -1    0    0    0  501  0.00000000000E+00  0.00000000000E+00 -0.23805991350E+04  0.23805991350E+04  0.50400001928E-02 0. -1.
    10030    2    1    2    0    0  0.00000000000E+00  0.00000000000E+00 -0.94217429756E+03  0.38190239724E+04  0.37009798290E+04 0.  0.
        3    1    3    3  502    0  0.26074640004E+03  0.87664777119E+03 -0.21310642771E+04  0.23190375080E+04  0.10100000352E+00 0. -1.
       -3    1    3    3    0  502 -0.26074640004E+03 -0.87664777119E+03  0.11888899796E+04  0.14999864645E+04  0.10100000352E+00 0.  1.
</event>
<event>
 5   0  0.2282000E-08  0.3685606E+04  0.7818609E-02  0.8071159E-01
       -1   -1    0    0    0  501  0.00000000000E+00  0.00000000000E+00  0.15463662852E+04  0.15463662852E+04  0.50400001928E-02 0.  1.
        1   -1    0    0  501    0  0.00000000000E+00  0.00000000000E+00 -0.21960665840E+04  0.21960665840E+04  0.50400001928E-02 0. -1.
    10030    2    1    2    0    0  0.00000000000E+00  0.00000000000E+00 -0.64970029880E+03  0.37424328693E+04  0.36856062327E+04 0.  0.
        1    1    3    3  502    0  0.66772806858E+03 -0.33482145254E+02  0.14188755312E+04  0.15684991555E+04  0.50400001928E-02 0.  1.
       -1    1    3    3    0  502 -0.66772806858E+03  0.33482145254E+02 -0.20685758300E+04  0.21739337138E+04  0.50400001928E-02 0. -1.
</event>
<event>
 5   0  0.7203049E-08  0.3700519E+04  0.7818609E-02  0.8067847E-01
       -2   -1    0    0    0  501  0.00000000000E+00  0.00000000000E+00  0.17760952549E+04  0.17760952549E+04  0.25500000920E-02 0.  1.
        2   -1    0    0  501    0  0.00000000000E+00  0.00000000000E+00 -0.19275210646E+04  0.19275210646E+04  0.25500000920E-02 0. -1.
    10030    2    1    2    0    0  0.00000000000E+00  0.00000000000E+00 -0.15142580977E+03  0.37036163195E+04  0.37005194319E+04 0.  0.
        4    1    3    3  502    0 -0.88265336463E+02  0.16678515317E+03  0.17664391420E+04  0.17764900541E+04  0.12699999809E+01 0.  1.
       -4    1    3    3    0  502  0.88265336463E+02 -0.16678515317E+03 -0.19178649517E+04  0.19271262654E+04  0.12699999809E+01 0. -1.
</event>
<event>
 5   0  0.7191801E-08  0.3710040E+04  0.7818609E-02  0.8065740E-01
       -2   -1    0    0    0  501  0.00000000000E+00  0.00000000000E+00  0.14386908798E+04  0.14386908798E+04  0.25500000920E-02 0.  1.
        2   -1    0    0  501    0  0.00000000000E+00  0.00000000000E+00 -0.23918267770E+04  0.23918267770E+04  0.25500000920E-02 0. -1.
    10030    2    1    2    0    0  0.00000000000E+00  0.00000000000E+00 -0.95313589715E+03  0.38305176568E+04  0.37100400915E+04 0.  0.
        5    1    3    3  502    0 -0.10715569484E+04 -0.13374061192E+04  0.25655203459E+03  0.17328388435E+04  0.46999998093E+01 0.  1.
       -5    1    3    3    0  502  0.10715569484E+04  0.13374061192E+04 -0.12096879317E+04  0.20976788132E+04  0.46999998093E+01 0. -1.
</event>
<event>
 5   0  0.2282000E-08  0.3704067E+04  0.7818609E-02  0.8067061E-01
       -1   -1    0    0    0  501  0.00000000000E+00  0.00000000000E+00  0.11134484003E+04  0.11134484003E+04  0.50400001928E-02 0. -1.
        1   -1    0    0  501    0  0.00000000000E+00  0.00000000000E+00 -0.30805445319E+04  0.30805445319E+04  0.50400001928E-02 0.  1.
    10030    2    1    2    0    0  0.00000000000E+00  0.00000000000E+00 -0.19670961317E+04  0.41939929322E+04  0.37040666198E+04 0.  0.
        2    1    3    3  502    0 -0.11692090964E+04  0.57362494291E+03  0.50740826271E+03  0.13976976180E+04  0.25500000920E-02 0. -1.
       -2    1    3    3    0  502  0.11692090964E+04 -0.57362494291E+03 -0.24745043944E+04  0.27962953142E+04  0.25500000920E-02 0.  1.
</event>
<event>
 5   0  0.2282000E-08  0.3686404E+04  0.7818609E-02  0.8070982E-01
       -1   -1    0    0    0  501  0.00000000000E+00  0.00000000000E+00  0.15394959000E+04  0.15394959000E+04  0.50400001928E-02 0.  1.
        1   -1    0    0  501    0  0.00000000000E+00  0.00000000000E+00 -0.22068218659E+04  0.22068218659E+04  0.50400001928E-02 0. -1.
    10030    2    1    2    0    0  0.00000000000E+00  0.00000000000E+00 -0.66732596591E+03  0.37463177659E+04  0.36864037839E+04 0.  0.
        4    1    3    3  502    0 -0.16462531514E+04  0.23667229351E+03  0.47374858961E+03  0.17293358703E+04  0.12699999809E+01 0.  1.
       -4    1    3    3    0  502  0.16462531514E+04 -0.23667229351E+03 -0.11410745555E+04  0.20169818956E+04  0.12699999809E+01 0. -1.
</event>
<event>
 5   0  0.2282000E-08  0.3702312E+04  0.7818609E-02  0.8067450E-01
        1   -1    0    0  501    0  0.00000000000E+00  0.00000000000E+00  0.19061988238E+04  0.19061988238E+04  0.50400001928E-02 0. -1.
       -1   -1    0    0    0  501  0.00000000000E+00  0.00000000000E+00 -0.17977025376E+04  0.17977025376E+04  0.50400001928E-02 0.  1.
    10030    2    1    2    0    0  0.00000000000E+00  0.00000000000E+00  0.10849628615E+03  0.37039013614E+04  0.37023119603E+04 0.  0.
        1    1    3    3  502    0  0.12726237679E+04  0.10645617738E+04 -0.76702780662E+03  0.18278935092E+04  0.50400001928E-02 0.  1.
       -1    1    3    3    0  502 -0.12726237679E+04 -0.10645617738E+04  0.87552409277E+03  0.18760078523E+04  0.50400001928E-02 0. -1.
</event>
<event>
 5   0  0.2282000E-08  0.3695076E+04  0.7818609E-02  0.8069054E-01
        1   -1    0    0  501    0  0.00000000000E+00  0.00000000000E+00  0.24522888185E+04  0.24522888185E+04  0.50400001928E-02 0. -1.
       -1   -1    0    0    0  501  0.00000000000E+00  0.00000000000E+00 -0.13919227952E+04  0.13919227952E+04  0.50400001928E-02 0.  1.
    10030    2    1    2    0    0  0.00000000000E+00  0.00000000000E+00  0.10603660233E+04  0.38442116137E+04  0.36950760246E+04 0.  0.
        5    1    3    3  502    0  0.90399794956E+03  0.16058265738E+04  0.66774425664E+03  0.19600499382E+04  0.46999998093E+01 0. -1.
       -5    1    3    3    0  502 -0.90399794956E+03 -0.16058265738E+04  0.39262176668E+03  0.18841616755E+04  0.46999998093E+01 0.  1.
</event>
<event>
 5   0  0.2282000E-08  0.3696379E+04  0.7818609E-02  0.8068765E-01
       -1   -1    0    0    0  501  0.00000000000E+00  0.00000000000E+00  0.17435354418E+04  0.17435354418E+04  0.50400001928E-02 0.  1.
        1   -1    0    0  501    0  0.00000000000E+00  0.00000000000E+00 -0.19591254621E+04  0.19591254621E+04  0.50400001928E-02 0. -1.
    10030    2    1    2    0    0  0.00000000000E+00  0.00000000000E+00 -0.21559002028E+03  0.37026609040E+04  0.36963791354E+04 0.  0.
        3    1    3    3  502    0 -0.18043764568E+04 -0.39956048012E+03 -0.88224842742E+02  0.18501909653E+04  0.10100000352E+00 0.  1.
       -3    1    3    3    0  502  0.18043764568E+04  0.39956048012E+03 -0.12736517754E+03  0.18524699387E+04  0.10100000352E+00 0. -1.
</event>
<event>
 5   0  0.7362817E-08  0.3697956E+04  0.7818609E-02  0.8068415E-01
        2   -1    0    0  501    0  0.00000000000E+00  0.00000000000E+00  0.14117862457E+04  0.14117862457E+04  0.25500000920E-02 0.  1.
       -2   -1    0    0    0  501  0.00000000000E+00  0.00000000000E+00 -0.24215563360E+04  0.24215563360E+04  0.25500000920E-02 0. -1.
    10030    2    1    2    0    0  0.00000000000E+00  0.00000000000E+00 -0.10097700903E+04  0.38333425817E+04  0.36979561535E+04 0.  0.
        1    1    3    3  502    0  0.19254272277E+03 -0.74074523611E+03 -0.22496416444E+04  0.23762709721E+04  0.50400001928E-02 0. -1.
       -1    1    3    3    0  502 -0.19254272277E+03  0.74074523611E+03  0.12398715541E+04  0.14570716096E+04  0.50400001928E-02 0.  1.
</event>
<event>
 5   0  0.2282000E-08  0.3700410E+04  0.7818609E-02  0.8067871E-01
       -1   -1    0    0    0  501  0.00000000000E+00  0.00000000000E+00  0.25098024517E+04  0.25098024517E+04  0.50400001928E-02 0. -1.
        1   -1    0    0  501    0  0.00000000000E+00  0.00000000000E+00 -0.13639554782E+04  0.13639554782E+04  0.50400001928E-02 0.  1.
    10030    2    1    2    0    0  0.00000000000E+00  0.00000000000E+00  0.11458469735E+04  0.38737579299E+04  0.37004101412E+04 0.  0.
        5    1    3    3  502    0 -0.83861783855E+03 -0.12527539864E+04  0.16958156735E+04  0.22690273947E+04  0.46999998093E+01 0. -1.
       -5    1    3    3    0  502  0.83861783855E+03  0.12527539864E+04 -0.54996870000E+03  0.16047305352E+04  0.46999998093E+01 0.  1.
</event>
<event>
 5   0  0.2282000E-08  0.3715226E+04  0.7818609E-02  0.8064596E-01
        1   -1    0    0  501    0  0.00000000000E+00  0.00000000000E+00  0.21765278333E+04  0.21765278333E+04  0.50400001928E-02 0. -1.
       -1   -1    0    0    0  501  0.00000000000E+00  0.00000000000E+00 -0.15854272479E+04  0.15854272479E+04  0.50400001928E-02 0.  1.
    10030    2    1    2    0    0  0.00000000000E+00  0.00000000000E+00  0.59110058547E+03  0.37619550812E+04  0.37152262557E+04 0.  0.
        1    1    3    3  502    0  0.65813771301E+03 -0.11435631435E+04  0.16196072313E+04  0.20890211814E+04  0.50400001928E-02 0. -1.
       -1    1    3    3    0  502 -0.65813771301E+03  0.11435631435E+04 -0.10285066459E+04  0.16729338998E+04  0.50400001928E-02 0.  1.
</event>
<event>
 5   0  0.2282000E-08  0.3698474E+04  0.7818609E-02  0.8068300E-01
       -1   -1    0    0    0  501  0.00000000000E+00  0.00000000000E+00  0.25303511813E+04  0.25303511813E+04  0.50400001928E-02 0.  1.
        1   -1    0    0  501    0  0.00000000000E+00  0.00000000000E+00 -0.13514639143E+04  0.13514639143E+04  0.50400001928E-02 0. -1.
    10030    2    1    2    0    0  0.00000000000E+00  0.00000000000E+00  0.11788872670E+04  0.38818150956E+04  0.36984744488E+04 0.  0.
        3    1    3    3  502    0 -0.84334750585E+02  0.61836436181E+03 -0.12375930085E+04  0.13860459224E+04  0.10100000352E+00 0. -1.
       -3    1    3    3    0  502  0.84334750585E+02 -0.61836436181E+03  0.24164802754E+04  0.24957691732E+04  0.10100000352E+00 0.  1.
</event>
<event>
 5   0  0.2282000E-08  0.3694813E+04  0.7818609E-02  0.8069112E-01
       -1   -1    0    0    0  501  0.00000000000E+00  0.00000000000E+00  0.14012731836E+04  0.14012731836E+04  0.50400001928E-02 0. -1.
        1   -1    0    0  501    0  0.00000000000E+00  0.00000000000E+00 -0.24355788780E+04  0.24355788780E+04  0.50400001928E-02 0.  1.
    10030    2    1    2    0    0  0.00000000000E+00  0.00000000000E+00 -0.10343056944E+04  0.38368520616E+04  0.36948133204E+04 0.  0.
        4    1    3    3  502    0  0.10391804428E+04 -0.59930401669E+03 -0.19760996514E+04  0.23117164061E+04  0.12699999809E+01 0.  1.
       -4    1    3    3    0  502 -0.10391804428E+04  0.59930401669E+03  0.94179395697E+03  0.15251356554E+04  0.12699999809E+01 0. -1.
</event>
<event>
 5   0  0.2282000E-08  0.3700401E+04  0.7818609E-02  0.8067873E-01
       -1   -1    0    0    0  501  0.00000000000E+00  0.00000000000E+00  0.13813641517E+04  0.13813641517E+04  0.50400001928E-02 0.  1.
        1   -1    0    0  501    0  0.00000000000E+00  0.00000000000E+00 -0.24781608298E+04  0.24781608298E+04  0.50400001928E-02 0. -1.
    10030    2    1    2    0    0  0.00000000000E+00  0.00000000000E+00 -0.10967966781E+04  0.38595249816E+04  0.37004013472E+04 0.  0.
        3    1    3    3  502    0  0.17542431788E+04 -0.56952321179E+03 -0.39540487105E+03  0.18862849312E+04  0.10100000352E+00 0. -1.
       -3    1    3    3    0  502 -0.17542431788E+04  0.56952321179E+03 -0.70139180706E+03  0.19732400504E+04  0.10100000352E+00 0.  1.
</event>
<event>
 5   0  0.7362817E-08  0.3705394E+04  0.7818609E-02  0.8066767E-01
       -2   -1    0    0    0  501  0.00000000000E+00  0.00000000000E+00  0.12459570109E+04  0.12459570109E+04  0.25500000920E-02 0. -1.
        2   -1    0    0  501    0  0.00000000000E+00  0.00000000000E+00 -0.27548998492E+04  0.27548998492E+04  0.25500000920E-02 0.  1.
    10030    2    1    2    0    0  0.00000000000E+00  0.00000000000E+00 -0.15089428383E+04  0.40008568602E+04  0.37053943280E+04 0.  0.
        1    1    3    3  502    0  0.81663685119E+02  0.14943130707E+03  0.12374889796E+04  0.12491507706E+04  0.50400001928E-02 0. -1.
       -1    1    3    3    0  502 -0.81663685119E+02 -0.14943130707E+03 -0.27464318179E+04  0.27517060896E+04  0.50400001928E-02 0.  1.
</event>
<event>
 5   0  0.7254493E-08  0.3696290E+04  0.7818609E-02  0.8068785E-01
       -2   -1    0    0    0  501  0.00000000000E+00  0.00000000000E+00  0.11831830513E+04  0.11831830513E+04  0.25500000920E-02 0. -1.
        2   -1    0    0  501    0  0.00000000000E+00  0.00000000000E+00 -0.28868223720E+04  0.28868223720E+04  0.25500000920E-02 0.  1.
    10030    2    1    2    0    0  0.00000000000E+00  0.00000000000E+00 -0.17036393207E+04  0.40700054233E+04  0.36962896546E+04 0.  0.
        3    1    3    3  502    0 -0.10188889614E+04 -0.15382864258E+04 -0.73539655207E+03  0.19862698564E+04  0.10100000352E+00 0.  1.
       -3    1    3    3    0  502  0.10188889614E+04  0.15382864258E+04 -0.96824276865E+03  0.20837355669E+04  0.10100000352E+00 0. -1.
</event>
<event>
 5   0  0.2282000E-08  0.3700260E+04  0.7818609E-02  0.8067904E-01
        1   -1    0    0  501    0  0.00000000000E+00  0.00000000000E+00  0.24140471844E+04  0.24140471844E+04  0.50400001928E-02 0. -1.
       -1   -1    0    0    0  501  0.00000000000E+00  0.00000000000E+00 -0.14179425074E+04  0.14179425074E+04  0.50400001928E-02 0.  1.
    10030    2    1    2    0    0  0.00000000000E+00  0.00000000000E+00  0.99610467693E+03  0.38319896918E+04  0.37002595139E+04 0.  0.
        3    1    3    3  502    0  0.16525228692E+04  0.31392180412E+03  0.12959360466E+04  0.21234003342E+04  0.10100000352E+00 0. -1.
       -3    1    3    3    0  502 -0.16525228692E+04 -0.31392180412E+03 -0.29983136968E+03  0.17085893576E+04  0.10100000352E+00 0.  1.
</event>
<event>
 5   0  0.2282000E-08  0.3706668E+04  0.7818609E-02  0.8066486E-01
        1   -1    0    0  501    0  0.00000000000E+00  0.00000000000E+00  0.20480425626E+04  0.20480425626E+04  0.50400001928E-02 0.  1.
       -1   -1    0    0    0  501  0.00000000000E+00  0.00000000000E+00 -0.16771365480E+04  0.16771365480E+04  0.50400001928E-02 0. -1.
    10030    2    1    2    0    0  0.00000000000E+00  0.00000000000E+00  0.37090601458E+03  0.37251791106E+04  0.37066680636E+04 0.  0.
        2    1    3    3  502    0  0.14148062424E+04  0.10385255853E+04  0.78393932014E+03  0.19221792197E+04  0.25500000920E-02 0.  1.
       -2    1    3    3    0  502 -0.14148062424E+04 -0.10385255853E+04 -0.41303330556E+03  0.18029998909E+04  0.25500000920E-02 0. -1.
</event>
<event>
 5   0  0.2282000E-08  0.3694821E+04  0.7818609E-02  0.8069110E-01
       -1   -1    0    0    0  501  0.00000000000E+00  0.00000000000E+00  0.22638443465E+04  0.22638443465E+04  0.50400001928E-02 0. -1.
        1   -1    0    0  501    0  0.00000000000E+00  0.00000000000E+00 -0.15075797421E+04  0.15075797421E+04  0.50400001928E-02 0.  1.
    10030    2    1    2    0    0  0.00000000000E+00  0.00000000000E+00  0.75626460441E+03  0.37714240886E+04  0.36948211735E+04 0.  0.
        4    1    3    3  502    0 -0.71623560884E+03  0.11445758248E+04  0.16651772372E+04  0.21437966579E+04  0.12699999809E+01 0. -1.
       -4    1    3    3    0  502  0.71623560884E+03 -0.11445758248E+04 -0.90891263284E+03  0.16276274307E+04  0.12699999809E+01 0.  1.
</event>
<event>
 5   0  0.2282000E-08  0.3700314E+04  0.7818609E-02  0.8067892E-01
        1   -1    0    0  501    0  0.00000000000E+00  0.00000000000E+00  0.20645885003E+04  0.20645885003E+04  0.50400001928E-02 0. -1.
       -1   -1    0    0    0  501  0.00000000000E+00  0.00000000000E+00 -0.16579966517E+04  0.16579966517E+04  0.50400001928E-02 0.  1.
    10030    2    1    2    0    0  0.00000000000E+00  0.00000000000E+00  0.40659184863E+03  0.37225851519E+04  0.37003139437E+04 0.  0.
        2    1    3    3  502    0 -0.37543824598E+03  0.16893891639E+04 -0.45492883913E+03  0.17893993049E+04  0.25500000920E-02 0.  1.
       -2    1    3    3    0  502  0.37543824598E+03 -0.16893891639E+04  0.86152068776E+03  0.19331858470E+04  0.25500000920E-02 0. -1.
</event>
<event>
 5   0  0.2282000E-08  0.3696347E+04  0.7818609E-02  0.8068772E-01
       -1   -1    0    0    0  501  0.00000000000E+00  0.00000000000E+00  0.23129613569E+04  0.23129613569E+04  0.50400001928E-02 0.  1.
        1   -1    0    0  501    0  0.00000000000E+00  0.00000000000E+00 -0.14767846037E+04  0.14767846037E+04  0.50400001928E-02 0. -1.
    10030    2    1    2    0    0  0.00000000000E+00  0.00000000000E+00  0.83617675326E+03  0.37897459606E+04  0.36963472352E+04 0.  0.
        1    1    3    3  502    0  0.78741367922E+03 -0.13836575831E+04 -0.54436299859E+03  0.16825158792E+04  0.50400001928E-02 0. -1.
       -1    1    3    3    0  502 -0.78741367922E+03  0.13836575831E+04  0.13805397518E+04  0.21072300814E+04  0.50400001928E-02 0.  1.
</event>
<event>
 5   0  0.2282000E-08  0.3692393E+04  0.7818609E-02  0.8069650E-01
       -1   -1    0    0    0  501  0.00000000000E+00  0.00000000000E+00  0.21378229825E+04  0.21378229825E+04  0.50400001928E-02 0.  1.
        1   -1    0    0  501    0  0.00000000000E+00  0.00000000000E+00 -0.15943518726E+04  0.15943518726E+04  0.50400001928E-02 0. -1.
    10030    2    1    2    0    0  0.00000000000E+00  0.00000000000E+00  0.54347110994E+03  0.37321748551E+04  0.36923933027E+04 0.  0.
        5    1    3    3  502    0  0.13201550483E+04  0.12905541495E+04  0.26265989356E+03  0.18647658497E+04  0.46999998093E+01 0.  1.
       -5    1    3    3    0  502 -0.13201550483E+04 -0.12905541495E+04  0.28081121638E+03  0.18674090054E+04  0.46999998093E+01 0. -1.
</event>
<event>
 5   0  0.7191801E-08  0.3707739E+04  0.7818609E-02  0.8066249E-01
        2   -1    0    0  501    0  0.00000000000E+00  0.00000000000E+00  0.32927755168E+04  0.32927755168E+04  0.25500000920E-02 0.  1.
       -2   -1    0    0    0  501  0.00000000000E+00  0.00000000000E+00 -0.10437495335E+04  0.10437495335E+04  0.25500000920E-02 0. -1.
    10030    2    1    2    0    0  0.00000000000E+00  0.00000000000E+00  0.22490259833E+04  0.43365250503E+04  0.37077394243E+04 0.  0.
        5    1    3    3  502    0 -0.11310791504E+04 -0.36029553615E+03 -0.54093086491E+03  0.13045233645E+04  0.46999998093E+01 0. -1.
       -5    1    3    3    0  502  0.11310791504E+04  0.36029553615E+03  0.27899568482E+04  0.30320016858E+04  0.46999998093E+01 0.  1.
</event>
<event>
 5   0  0.7203049E-08  0.3700656E+04  0.7818609E-02  0.8067816E-01
        2   -1    0    0  501    0  0.00000000000E+00  0.00000000000E+00  0.20820208765E+04  0.20820208765E+04  0.25500000920E-02 0.  1.
       -2   -1    0    0    0  501  0.00000000000E+00  0.00000000000E+00 -0.16444186300E+04  0.16444186300E+04  0.25500000920E-02 0. -1.
    10030    2    1    2    0    0  0.00000000000E+00  0.00000000000E+00  0.43760224648E+03  0.37264395066E+04  0.37006561134E+04 0.  0.
        4    1    3    3  502    0  0.10726096617E+04 -0.12334681590E+04  0.10918928991E+04  0.19657484329E+04  0.12699999809E+01 0.  1.
       -4    1    3    3    0  502 -0.10726096617E+04  0.12334681590E+04 -0.65429065262E+03  0.17606910736E+04  0.12699999809E+01 0. -1.
</event>
<event>
 5   0  0.2282000E-08  0.3642928E+04  0.7818609E-02  0.8080729E-01
        1   -1    0    0  501    0  0.00000000000E+00  0.00000000000E+00  0.19001383136E+04  0.19001383136E+04  0.50400001928E-02 0.  1.
       -1   -1    0    0    0  501  0.00000000000E+00  0.00000000000E+00 -0.17460472380E+04  0.17460472380E+04  0.50400001928E-02 0. -1.
    10030    2    1    2    0    0  0.00000000000E+00  0.00000000000E+00  0.15409107557E+03  0.36461855516E+04  0.36429280829E+04 0.  0.
        5    1    3    3  502    0 -0.63761738049E+03 -0.15120776025E+04 -0.71408807787E+03  0.17896587588E+04  0.46999998093E+01 0. -1.
       -5    1    3    3    0  502  0.63761738049E+03  0.15120776025E+04  0.86817915344E+03  0.18565267928E+04  0.46999998093E+01 0.  1.
</event>
<event>
 5   0  0.7362817E-08  0.3709960E+04  0.7818609E-02  0.8065758E-01
        2   -1    0    0  501    0  0.00000000000E+00  0.00000000000E+00  0.18032491090E+04  0.18032491090E+04  0.25500000920E-02 0. -1.
       -2   -1    0    0    0  501  0.00000000000E+00  0.00000000000E+00 -0.19081947443E+04  0.19081947443E+04  0.25500000920E-02 0.  1.
    10030    2    1    2    0    0  0.00000000000E+00  0.00000000000E+00 -0.10494563525E+03  0.37114438533E+04  0.37099598232E+04 0.  0.
        1    1    3    3  502    0  0.17379610243E+04 -0.54632555270E+03 -0.40185504335E+03  0.18656011384E+04  0.50400001928E-02 0. -1.
       -1    1    3    3    0  502 -0.17379610243E+04  0.54632555270E+03  0.29690940810E+03  0.18458427149E+04  0.50400001928E-02 0.  1.
</event>
<event>
 5   0  0.7203049E-08  0.3697516E+04  0.7818609E-02  0.8068512E-01
       -2   -1    0    0    0  501  0.00000000000E+00  0.00000000000E+00  0.15907708661E+04  0.15907708661E+04  0.25500000920E-02 0. -1.
        2   -1    0    0  501    0  0.00000000000E+00  0.00000000000E+00 -0.21485853920E+04  0.21485853920E+04  0.25500000920E-02 0.  1.
    10030    2    1    2    0    0  0.00000000000E+00  0.00000000000E+00 -0.55781452590E+03  0.37393562582E+04  0.36975164882E+04 0.  0.
        4    1    3    3  502    0 -0.91556377205E+03  0.11104731477E+04 -0.14524247031E+04  0.20447363555E+04  0.12699999809E+01 0.  1.
       -4    1    3    3    0  502  0.91556377205E+03 -0.11104731477E+04  0.89461017720E+03  0.16946199027E+04  0.12699999809E+01 0. -1.
</event>
<event>
 5   0  0.7203049E-08  0.3697316E+04  0.7818609E-02  0.8068557E-01
        2   -1    0    0  501    0  0.00000000000E+00  0.00000000000E+00  0.19981109722E+04  0.19981109722E+04  0.25500000920E-02 0.  1.
       -2   -1    0    0    0  501  0.00000000000E+00  0.00000000000E+00 -0.17103839777E+04  0.17103839777E+04  0.25500000920E-02 0. -1.
    10030    2    1    2    0    0  0.00000000000E+00  0.00000000000E+00  0.28772699449E+03  0.37084949499E+04  0.36973163200E+04 0.  0.
        4    1    3    3  502    0  0.97319228116E+03 -0.10860967467E+04 -0.99571682073E+03  0.17658320869E+04  0.12699999809E+01 0. -1.
       -4    1    3    3    0  502 -0.97319228116E+03  0.10860967467E+04  0.12834438152E+04  0.19426628629E+04  0.12699999809E+01 0.  1.
</event>
<event>
 5   0  0.2282000E-08  0.3688408E+04  0.7818609E-02  0.8070536E-01
        1   -1    0    0  501    0  0.00000000000E+00  0.00000000000E+00  0.16980012837E+04  0.16980012837E+04  0.50400001928E-02 0. -1.
       -1   -1    0    0    0  501  0.00000000000E+00  0.00000000000E+00 -0.20029952694E+04  0.20029952694E+04  0.50400001928E-02 0.  1.
    10030    2    1    2    0    0  0.00000000000E+00  0.00000000000E+00 -0.30499398579E+03  0.37009965531E+04  0.36884080787E+04 0.  0.
        1    1    3    3  502    0  0.38111629498E+03 -0.10480596200E+04  0.13213284646E+04  0.17290423675E+04  0.50400001928E-02 0. -1.
       -1    1    3    3    0  502 -0.38111629498E+03  0.10480596200E+04 -0.16263224504E+04  0.19719541856E+04  0.50400001928E-02 0.  1.
</event>
<event>
 5   0  0.2282000E-08  0.3696101E+04  0.7818609E-02  0.8068827E-01
       -1   -1    0    0    0  501  0.00000000000E+00  0.00000000000E+00  0.26430120586E+04  0.26430120586E+04  0.50400001928E-02 0.  1.
        1   -1    0    0  501    0  0.00000000000E+00  0.00000000000E+00 -0.12921960622E+04  0.12921960622E+04  0.50400001928E-02 0. -1.
    10030    2    1    2    0    0  0.00000000000E+00  0.00000000000E+00  0.13508159964E+04  0.39352081208E+04  0.36961005259E+04 0.  0.
        5    1    3    3  502    0  0.30370336497E+03 -0.48587644184E+02 -0.12647489723E+04  0.13016176650E+04  0.46999998093E+01 0. -1.
       -5    1    3    3    0  502 -0.30370336497E+03  0.48587644184E+02  0.26155649687E+04  0.26335904557E+04  0.46999998093E+01 0.  1.
</event>
<event>
 5   0  0.2282000E-08  0.3700211E+04  0.7818609E-02  0.8067915E-01
        1   -1    0    0  501    0  0.00000000000E+00  0.00000000000E+00  0.21034108082E+04  0.21034108082E+04  0.50400001928E-02 0.  1.
       -1   -1    0    0    0  501  0.00000000000E+00  0.00000000000E+00 -0.16273045572E+04  0.16273045573E+04  0.50400001928E-02 0. -1.
    10030    2    1    2    0    0  0.00000000000E+00  0.00000000000E+00  0.47610625093E+03  0.37307153654E+04  0.37002108015E+04 0.  0.
        3    1    3    3  502    0  0.40241635317E+03  0.58684645866E+03 -0.14838205159E+04  0.16456156966E+04  0.10100000352E+00 0. -1.
       -3    1    3    3    0  502 -0.40241635317E+03 -0.58684645866E+03  0.19599267668E+04  0.20850996688E+04  0.10100000352E+00 0.  1.
</event>
<event>
 5   0  0.7203049E-08  0.3724210E+04  0.7818609E-02  0.8062618E-01
        2   -1    0    0  501    0  0.00000000000E+00  0.00000000000E+00  0.19203218737E+04  0.19203218737E+04  0.25500000920E-02 0.  1.
       -2   -1    0    0    0  501  0.00000000000E+00  0.00000000000E+00 -0.18056527114E+04  0.18056527114E+04  0.25500000920E-02 0. -1.
    10030    2    1    2    0    0  0.00000000000E+00  0.00000000000E+00  0.11466916230E+03  0.37259745852E+04  0.37242096601E+04 0.  0.
        4    1    3    3  502    0 -0.64716489669E+03 -0.85647615958E+03 -0.14649182658E+04  0.18161390238E+04  0.12699999809E+01 0. -1.
       -4    1    3    3    0  502  0.64716489669E+03  0.85647615958E+03  0.15795874281E+04  0.19098355613E+04  0.12699999809E+01 0.  1.
</event>
<event>
 5   0  0.2282000E-08  0.3680697E+04  0.7818609E-02  0.8072253E-01
        1   -1    0    0  501    0  0.00000000000E+00  0.00000000000E+00  0.13137150927E+04  0.13137150927E+04  0.50400001928E-02 0. -1.
       -1   -1    0    0    0  501  0.00000000000E+00  0.00000000000E+00 -0.25780957822E+04  0.25780957822E+04  0.50400001928E-02 0.  1.
    10030    2    1    2    0    0  0.00000000000E+00  0.00000000000E+00 -0.12643806895E+04  0.38918108749E+04  0.36806974010E+04 0.  0.
        4    1    3    3  502    0 -0.53382043115E+03 -0.12341352345E+04 -0.19607742316E+04  0.23775389019E+04  0.12699999809E+01 0.  1.
       -4    1    3    3    0  502  0.53382043115E+03  0.12341352345E+04  0.69639354206E+03  0.15142719730E+04  0.12699999809E+01 0. -1.
</event>
<event>
 5   0  0.7362817E-08  0.3695185E+04  0.7818609E-02  0.8069030E-01
        2   -1    0    0  501    0  0.00000000000E+00  0.00000000000E+00  0.16938373043E+04  0.16938373043E+04  0.25500000920E-02 0.  1.
       -2   -1    0    0    0  501  0.00000000000E+00  0.00000000000E+00 -0.20153050530E+04  0.20153050530E+04  0.25500000920E-02 0. -1.
    10030    2    1    2    0    0  0.00000000000E+00  0.00000000000E+00 -0.32146774875E+03  0.37091423573E+04  0.36951854505E+04 0.  0.
        1    1    3    3  502    0 -0.17771731623E+03  0.16203334808E+04  0.71234148345E+03  0.17789025894E+04  0.50400001928E-02 0.  1.
       -1    1    3    3    0  502  0.17771731623E+03 -0.16203334808E+04 -0.10338092322E+04  0.19302397680E+04  0.50400001928E-02 0. -1.
</event>
<event>
 5   0  0.2282000E-08  0.3700965E+04  0.7818609E-02  0.8067748E-01
        1   -1    0    0  501    0  0.00000000000E+00  0.00000000000E+00  0.10420128654E+04  0.10420128654E+04  0.50400001928E-02 0.  1.
       -1   -1    0    0    0  501  0.00000000000E+00  0.00000000000E+00 -0.32862216574E+04  0.32862216575E+04  0.50400001928E-02 0. -1.
    10030    2    1    2    0    0  0.00000000000E+00  0.00000000000E+00 -0.22442087921E+04  0.43282345228E+04  0.37009648718E+04 0.  0.
        5    1    3    3  502    0  0.13943229989E+04 -0.12106269728E+04 -0.12629724492E+04  0.22371579716E+04  0.46999998093E+01 0. -1.
       -5    1    3    3    0  502 -0.13943229989E+04  0.12106269728E+04 -0.98123634282E+03  0.20910765512E+04  0.46999998093E+01 0.  1.
</event>
<event>
 5   0  0.7254493E-08  0.3712176E+04  0.7818609E-02  0.8065269E-01
       -2   -1    0    0    0  501  0.00000000000E+00  0.00000000000E+00  0.30114931377E+04  0.30114931377E+04  0.25500000920E-02 0. -1.
        2   -1    0    0  501    0  0.00000000000E+00  0.00000000000E+00 -0.11439714711E+04  0.11439714711E+04  0.25500000920E-02 0.  1.
    10030    2    1    2    0    0  0.00000000000E+00  0.00000000000E+00  0.18675216666E+04  0.41554646089E+04  0.37121757691E+04 0.  0.
        3    1    3    3  502    0  0.35226721168E+03  0.16506202620E+04  0.69254517790E+02  0.16892115427E+04  0.10100000352E+00 0.  1.
       -3    1    3    3    0  502 -0.35226721168E+03 -0.16506202620E+04  0.17982671488E+04  0.24662530662E+04  0.10100000352E+00 0. -1.
</event>
<event>
 5   0  0.7362817E-08  0.3671436E+04  0.7818609E-02  0.8074321E-01
       -2   -1    0    0    0  501  0.00000000000E+00  0.00000000000E+00  0.22564315467E+04  0.22564315467E+04  0.25500000920E-02 0. -1.
        2   -1    0    0  501    0  0.00000000000E+00  0.00000000000E+00 -0.14934472173E+04  0.14934472173E+04  0.25500000920E-02 0.  1.
    10030    2    1    2    0    0  0.00000000000E+00  0.00000000000E+00  0.76298432942E+03  0.37498787640E+04  0.36714364570E+04 0.  0.
        1    1    3    3  502    0 -0.63410501595E+03 -0.14300228085E+04 -0.59966064842E+03  0.16753051356E+04  0.50400001928E-02 0.  1.
       -1    1    3    3    0  502  0.63410501595E+03  0.14300228085E+04  0.13626449778E+04  0.20745736284E+04  0.50400001928E-02 0. -1.
</event>
<event>
 5   0  0.2282000E-08  0.3704066E+04  0.7818609E-02  0.8067061E-01
       -1   -1    0    0    0  501  0.00000000000E+00  0.00000000000E+00  0.14227452875E+04  0.14227452875E+04  0.50400001928E-02 0.  1.
        1   -1    0    0  501    0  0.00000000000E+00  0.00000000000E+00 -0.24108509621E+04  0.24108509622E+04  0.50400001928E-02 0. -1.
    10030    2    1    2    0    0  0.00000000000E+00  0.00000000000E+00 -0.98810567462E+03  0.38335962497E+04  0.37040663306E+04 0.  0.
        5    1    3    3  502    0  0.64269525983E+03  0.15958484737E+04  0.21564903597E+03  0.17338731629E+04  0.46999998093E+01 0.  1.
       -5    1    3    3    0  502 -0.64269525983E+03 -0.15958484737E+04 -0.12037547106E+04  0.20997230868E+04  0.46999998093E+01 0. -1.
</event>
<event>
 5   0  0.2282000E-08  0.3706919E+04  0.7818609E-02  0.8066430E-01
       -1   -1    0    0    0  501  0.00000000000E+00  0.00000000000E+00  0.17597217740E+04  0.17597217740E+04  0.50400001928E-02 0.  1.
        1   -1    0    0  501    0  0.00000000000E+00  0.00000000000E+00 -0.19521903395E+04  0.19521903395E+04  0.50400001928E-02 0. -1.
    10030    2    1    2    0    0  0.00000000000E+00  0.00000000000E+00 -0.19246856546E+03  0.37119121135E+04  0.37069188539E+04 0.  0.
        2    1    3    3  502    0  0.18313711833E+04  0.26615081543E+03  0.66425109108E+01  0.18506217308E+04  0.25500000920E-02 0. -1.
       -2    1    3    3    0  502 -0.18313711833E+04 -0.26615081543E+03 -0.19911107637E+03  0.18612903826E+04  0.25500000920E-02 0.  1.
</event>
<event>
 5   0  0.7309833E-08  0.3692666E+04  0.7818609E-02  0.8069589E-01
       -2   -1    0    0    0  501  0.00000000000E+00  0.00000000000E+00  0.10188023662E+04  0.10188023662E+04  0.25500000920E-02 0. -1.
        2   -1    0    0  501    0  0.00000000000E+00  0.00000000000E+00 -0.33460313917E+04  0.33460313917E+04  0.25500000920E-02 0.  1.
    10030    2    1    2    0    0  0.00000000000E+00  0.00000000000E+00 -0.23272290255E+04  0.43648337579E+04  0.36926655408E+04 0.  0.
        2    1    3    3  502    0  0.79189487657E+03  0.60878324669E+03 -0.29990835707E+04  0.31610467888E+04  0.25500000920E-02 0.  1.
       -2    1    3    3    0  502 -0.79189487657E+03 -0.60878324669E+03  0.67185454516E+03  0.12037869690E+04  0.25500000920E-02 0. -1.
</event>
<event>
 5   0  0.7309833E-08  0.3702985E+04  0.7818609E-02  0.8067301E-01
        2   -1    0    0  501    0  0.00000000000E+00  0.00000000000E+00  0.13849099878E+04  0.13849099878E+04  0.25500000920E-02 0.  1.
       -2   -1    0    0    0  501  0.00000000000E+00  0.00000000000E+00 -0.24752689690E+04  0.24752689690E+04  0.25500000920E-02 0. -1.
    10030    2    1    2    0    0  0.00000000000E+00  0.00000000000E+00 -0.10903589811E+04  0.38601789568E+04  0.37029851297E+04 0.  0.
        2    1    3    3  502    0  0.51092234400E+02 -0.37189897549E+03 -0.24351816018E+04  0.24639457580E+04  0.25500000920E-02 0. -1.
       -2    1    3    3    0  502 -0.51092234400E+02  0.37189897549E+03  0.13448226207E+04  0.13962331988E+04  0.25500000920E-02 0.  1.
</event>
<event>
 5   0  0.2282000E-08  0.3703720E+04  0.7818609E-02  0.8067138E-01
       -1   -1    0    0    0  501  0.00000000000E+00  0.00000000000E+00  0.17074359993E+04  0.17074359993E+04  0.50400001928E-02 0.  1.
        1   -1    0    0  501    0  0.00000000000E+00  0.00000000000E+00 -0.20085005240E+04  0.20085005240E+04  0.50400001928E-02 0. -1.
    10030    2    1    2    0    0  0.00000000000E+00  0.00000000000E+00 -0.30106452466E+03  0.37159365233E+04  0.37037203454E+04 0.  0.
        3    1    3    3  502    0  0.18094725122E+04  0.48598926226E+01 -0.54574993463E+03  0.18899887281E+04  0.10100000352E+00 0. -1.
       -3    1    3    3    0  502 -0.18094725122E+04 -0.48598926226E+01  0.24468540997E+03  0.18259477952E+04  0.10100000352E+00 0.  1.
</event>
<event>
 5   0  0.2282000E-08  0.3718567E+04  0.7818609E-02  0.8063860E-01
       -1   -1    0    0    0  501  0.00000000000E+00  0.00000000000E+00  0.22515952468E+04  0.22515952468E+04  0.50400001928E-02 0. -1.
        1   -1    0    0  501    0  0.00000000000E+00  0.00000000000E+00 -0.15353267146E+04  0.15353267146E+04  0.50400001928E-02 0.  1.
    10030    2    1    2    0    0  0.00000000000E+00  0.00000000000E+00  0.71626853217E+03  0.37869219615E+04  0.37185665695E+04 0.  0.
        2    1    3    3  502    0  0.16286179135E+04 -0.56699834349E+03 -0.34966033273E+03  0.17595868203E+04  0.25500000920E-02 0.  1.
       -2    1    3    3    0  502 -0.16286179135E+04  0.56699834349E+03  0.10659288649E+04  0.20273351412E+04  0.25500000920E-02 0. -1.
</event>
<event>
 5   0  0.7362817E-08  0.3732346E+04  0.7818609E-02  0.8060831E-01
       -2   -1    0    0    0  501  0.00000000000E+00  0.00000000000E+00  0.19192477495E+04  0.19192477495E+04  0.25500000920E-02 0.  1.
        2   -1    0    0  501    0  0.00000000000E+00  0.00000000000E+00 -0.18145664529E+04  0.18145664529E+04  0.25500000920E-02 0. -1.
    10030    2    1    2    0    0  0.00000000000E+00  0.00000000000E+00  0.10468129658E+03  0.37338142023E+04  0.37323464903E+04 0.  0.
        1    1    3    3  502    0 -0.46797553974E+03 -0.10220008026E+04 -0.14379148576E+04  0.18251262652E+04  0.50400001928E-02 0.  1.
       -1    1    3    3    0  502  0.46797553974E+03  0.10220008026E+04  0.15425961542E+04  0.19086879371E+04  0.50400001928E-02 0. -1.
</event>
<event>
 5   0  0.2282000E-08  0.3684684E+04  0.7818609E-02  0.8071365E-01
        1   -1    0    0  501    0  0.00000000000E+00  0.00000000000E+00  0.23970746455E+04  0.23970746455E+04  0.50400001928E-02 0. -1.
       -1   -1    0    0    0  501  0.00000000000E+00  0.00000000000E+00 -0.14159859514E+04  0.14159859514E+04  0.50400001928E-02 0.  1.
    10030    2    1    2    0    0  0.00000000000E+00  0.00000000000E+00  0.98108869413E+03  0.38130605969E+04  0.36846839878E+04 0.  0.
        4    1    3    3  502    0 -0.12716648077E+04  0.17102842314E+03 -0.87757610426E+03  0.15545171393E+04  0.12699999809E+01 0.  1.
       -4    1    3    3    0  502  0.12716648077E+04 -0.17102842314E+03  0.18586647984E+04  0.22585434577E+04  0.12699999809E+01 0. -1.
</event>
<event>
 5   0  0.7362817E-08  0.3667838E+04  0.7818609E-02  0.8075127E-01
        2   -1    0    0  501    0  0.00000000000E+00  0.00000000000E+00  0.23654655060E+04  0.23654655060E+04  0.25500000920E-02 0.  1.
       -2   -1    0    0    0  501  0.00000000000E+00  0.00000000000E+00 -0.14218171363E+04  0.14218171363E+04  0.25500000920E-02 0. -1.
    10030    2    1    2    0    0  0.00000000000E+00  0.00000000000E+00  0.94364836972E+03  0.37872826422E+04  0.36678382689E+04 0.  0.
        1    1    3    3  502    0  0.25402810621E+02  0.18575697943E+03 -0.14118954896E+04  0.14242892374E+04  0.50400001928E-02 0. -1.
       -1    1    3    3    0  502 -0.25402810621E+02 -0.18575697943E+03  0.23555438593E+04  0.23629934049E+04  0.50400001928E-02 0.  1.
</event>
<event>
 5   0  0.2282000E-08  0.3707082E+04  0.7818609E-02  0.8066394E-01
       -1   -1    0    0    0  501  0.00000000000E+00  0.00000000000E+00  0.23327259439E+04  0.23327259439E+04  0.50400001928E-02 0.  1.
        1   -1    0    0  501    0  0.00000000000E+00  0.00000000000E+00 -0.14727897851E+04  0.14727897851E+04  0.50400001928E-02 0. -1.
    10030    2    1    2    0    0  0.00000000000E+00  0.00000000000E+00  0.85993615888E+03  0.38055157290E+04  0.37070823792E+04 0.  0.
        1    1    3    3  502    0  0.42541483159E+03 -0.14368907322E+04  0.15497965745E+04  0.21558066188E+04  0.50400001928E-02 0.  1.
       -1    1    3    3    0  502 -0.42541483159E+03  0.14368907322E+04 -0.68986041558E+03  0.16497091102E+04  0.50400001928E-02 0. -1.
</event>
<event>
 5   0  0.7203049E-08  0.3709411E+04  0.7818609E-02  0.8065879E-01
       -2   -1    0    0    0  501  0.00000000000E+00  0.00000000000E+00  0.12050967470E+04  0.12050967470E+04  0.25500000920E-02 0. -1.
        2   -1    0    0  501    0  0.00000000000E+00  0.00000000000E+00 -0.28544865295E+04  0.28544865295E+04  0.25500000920E-02 0.  1.
    10030    2    1    2    0    0  0.00000000000E+00  0.00000000000E+00 -0.16493897825E+04  0.40595832765E+04  0.37094109673E+04 0.  0.
        4    1    3    3  502    0 -0.14231767108E+04  0.68932333198E+03  0.23598933618E+03  0.15988405755E+04  0.12699999809E+01 0. -1.
       -4    1    3    3    0  502  0.14231767108E+04 -0.68932333198E+03 -0.18853791187E+04  0.24607427010E+04  0.12699999809E+01 0.  1.
</event>
<event>
 5   0  0.7254493E-08  0.3700362E+04  0.7818609E-02  0.8067882E-01
       -2   -1    0    0    0  501  0.00000000000E+00  0.00000000000E+00  0.12610252431E+04  0.12610252431E+04  0.25500000920E-02 0.  1.
        2   -1    0    0  501    0  0.00000000000E+00  0.00000000000E+00 -0.27145928052E+04  0.27145928052E+04  0.25500000920E-02 0. -1.
    10030    2    1    2    0    0  0.00000000000E+00  0.00000000000E+00 -0.14535675620E+04  0.39756180483E+04  0.37003621726E+04 0.  0.
        3    1    3    3  502    0  0.68749361858E+03  0.37127613133E+03  0.10750732176E+04  0.13290131205E+04  0.10100000352E+00 0.  1.
       -3    1    3    3    0  502 -0.68749361858E+03 -0.37127613133E+03 -0.25286407796E+04  0.26466049278E+04  0.10100000352E+00 0. -1.
</event>
<event>
 5   0  0.7309833E-08  0.3703548E+04  0.7818609E-02  0.8067176E-01
        2   -1    0    0  501    0  0.00000000000E+00  0.00000000000E+00  0.19259983996E+04  0.19259983996E+04  0.25500000920E-02 0. -1.
       -2   -1    0    0    0  501  0.00000000000E+00  0.00000000000E+00 -0.17804105398E+04  0.17804105398E+04  0.25500000920E-02 0.  1.
    10030    2    1    2    0    0  0.00000000000E+00  0.00000000000E+00  0.14558785979E+03  0.37064089395E+04  0.37035484878E+04 0.  0.
        2    1    3    3  502    0  0.54713367327E+03 -0.57874088171E+02  0.18423120476E+04  0.19227111971E+04  0.25500000920E-02 0. -1.
       -2    1    3    3    0  502 -0.54713367327E+03  0.57874088171E+02 -0.16967241879E+04  0.17836977424E+04  0.25500000920E-02 0.  1.
</event>
<event>
 5   0  0.7362817E-08  0.3700330E+04  0.7818609E-02  0.8067889E-01
       -2   -1    0    0    0  501  0.00000000000E+00  0.00000000000E+00  0.15105133159E+04  0.15105133159E+04  0.25500000920E-02 0.  1.
        2   -1    0    0  501    0  0.00000000000E+00  0.00000000000E+00 -0.22661901330E+04  0.22661901330E+04  0.25500000920E-02 0. -1.
    10030    2    1    2    0    0  0.00000000000E+00  0.00000000000E+00 -0.75567681715E+03  0.37767034489E+04  0.37003299163E+04 0.  0.
        1    1    3    3  502    0 -0.13278480834E+03 -0.11496122826E+04  0.10955178308E+04  0.15935493476E+04  0.50400001928E-02 0.  1.
       -1    1    3    3    0  502  0.13278480834E+03  0.11496122826E+04 -0.18511946480E+04  0.21831541013E+04  0.50400001928E-02 0. -1.
</event>
<event>
 5   0  0.2282000E-08  0.3698882E+04  0.7818609E-02  0.8068210E-01
       -1   -1    0    0    0  501  0.00000000000E+00  0.00000000000E+00  0.17514422204E+04  0.17514422204E+04  0.50400001928E-02 0. -1.
        1   -1    0    0  501    0  0.00000000000E+00  0.00000000000E+00 -0.19529235870E+04  0.19529235870E+04  0.50400001928E-02 0.  1.
    10030    2    1    2    0    0  0.00000000000E+00  0.00000000000E+00 -0.20148136662E+03  0.37043658074E+04  0.36988824385E+04 0.  0.
        4    1    3    3  502    0 -0.49224051181E+03  0.17422221953E+04  0.27769819838E+03  0.18315995199E+04  0.12699999809E+01 0. -1.
       -4    1    3    3    0  502  0.49224051181E+03 -0.17422221953E+04 -0.47917956499E+03  0.18727662875E+04  0.12699999809E+01 0.  1.
</event>
<event>
 5   0  0.7309833E-08  0.3684112E+04  0.7818609E-02  0.8071492E-01
        2   -1    0    0  501    0  0.00000000000E+00  0.00000000000E+00  0.21084986035E+04  0.21084986035E+04  0.25500000920E-02 0.  1.
       -2   -1    0    0    0  501  0.00000000000E+00  0.00000000000E+00 -0.16092826248E+04  0.16092826248E+04  0.25500000920E-02 0. -1.
    10030    2    1    2    0    0  0.00000000000E+00  0.00000000000E+00  0.49921597867E+03  0.37177812283E+04  0.36841119239E+04 0.  0.
        2    1    3    3  502    0  0.10283383760E+03  0.17306363560E+04 -0.37857047256E+03  0.17745401087E+04  0.25500000920E-02 0. -1.
       -2    1    3    3    0  502 -0.10283383760E+03 -0.17306363560E+04  0.87778645123E+03  0.19432411196E+04  0.25500000920E-02 0.  1.
</event>
<event>
 5   0  0.2282000E-08  0.3702663E+04  0.7818609E-02  0.8067372E-01
        1   -1    0    0  501    0  0.00000000000E+00  0.00000000000E+00  0.19094125494E+04  0.19094125494E+04  0.50400001928E-02 0.  1.
       -1   -1    0    0    0  501  0.00000000000E+00  0.00000000000E+00 -0.17950168105E+04  0.17950168105E+04  0.50400001928E-02 0. -1.
    10030    2    1    2    0    0  0.00000000000E+00  0.00000000000E+00  0.11439573883E+03  0.37044293599E+04  0.37026626227E+04 0.  0.
        5    1    3    3  502    0 -0.17604585226E+04  0.57061905688E+03  0.63285844548E+01  0.18506437958E+04  0.46999998093E+01 0. -1.
       -5    1    3    3    0  502  0.17604585226E+04 -0.57061905688E+03  0.10806715438E+03  0.18537855641E+04  0.46999998093E+01 0.  1.
</event>
<event>
 5   0  0.2282000E-08  0.3711127E+04  0.7818609E-02  0.8065500E-01
        1   -1    0    0  501    0  0.00000000000E+00  0.00000000000E+00  0.25016411870E+04  0.25016411870E+04  0.50400001928E-02 0. -1.
       -1   -1    0    0    0  501  0.00000000000E+00  0.00000000000E+00 -0.13763430216E+04  0.13763430216E+04  0.50400001928E-02 0.  1.
    10030    2    1    2    0    0  0.00000000000E+00  0.00000000000E+00  0.11252981653E+04  0.38779842086E+04  0.37111272628E+04 0.  0.
        4    1    3    3  502    0 -0.37184519487E+03  0.86195123610E+03  0.22352028525E+04  0.24243271617E+04  0.12699999809E+01 0. -1.
       -4    1    3    3    0  502  0.37184519487E+03 -0.86195123610E+03 -0.11099046872E+04  0.14536570468E+04  0.12699999809E+01 0.  1.
</event>
<event>
 5   0  0.2282000E-08  0.3692126E+04  0.7818609E-02  0.8069709E-01
       -1   -1    0    0    0  501  0.00000000000E+00  0.00000000000E+00  0.18289442761E+04  0.18289442761E+04  0.50400001928E-02 0. -1.
        1   -1    0    0  501    0  0.00000000000E+00  0.00000000000E+00 -0.18633419255E+04  0.18633419256E+04  0.50400001928E-02 0.  1.
    10030    2    1    2    0    0  0.00000000000E+00  0.00000000000E+00 -0.34397649439E+02  0.36922862017E+04  0.36921259725E+04 0.  0.
        2    1    3    3  502    0  0.10839956468E+04 -0.37518266717E+03 -0.14636847543E+04  0.18596186857E+04  0.25500000920E-02 0.  1.
       -2    1    3    3    0  502 -0.10839956468E+04  0.37518266717E+03  0.14292871049E+04  0.18326675160E+04  0.25500000920E-02 0. -1.
</event>
<event>
 5   0  0.2282000E-08  0.3707241E+04  0.7818609E-02  0.8066359E-01
        1   -1    0    0  501    0  0.00000000000E+00  0.00000000000E+00  0.22785433340E+04  0.22785433340E+04  0.50400001928E-02 0.  1.
       -1   -1    0    0    0  501  0.00000000000E+00  0.00000000000E+00 -0.15079412652E+04  0.15079412652E+04  0.50400001928E-02 0. -1.
    10030    2    1    2    0    0  0.00000000000E+00  0.00000000000E+00  0.77060206875E+03  0.37864845992E+04  0.37072413021E+04 0.  0.
        5    1    3    3  502    0 -0.87828110910E+03 -0.56473999830E+03 -0.11789639427E+04  0.15748927076E+04  0.46999998093E+01 0. -1.
       -5    1    3    3    0  502  0.87828110910E+03  0.56473999830E+03  0.19495660114E+04  0.22115918916E+04  0.46999998093E+01 0.  1.
</event>
<event>
 5   0  0.7254493E-08  0.3701984E+04  0.7818609E-02  0.8067522E-01
       -2   -1    0    0    0  501  0.00000000000E+00  0.00000000000E+00  0.17188837395E+04  0.17188837395E+04  0.25500000920E-02 0. -1.
        2   -1    0    0  501    0  0.00000000000E+00  0.00000000000E+00 -0.19932535897E+04  0.19932535897E+04  0.25500000920E-02 0.  1.
    10030    2    1    2    0    0  0.00000000000E+00  0.00000000000E+00 -0.27436985019E+03  0.37121373292E+04  0.37019838920E+04 0.  0.
        3    1    3    3  502    0  0.13276592934E+04 -0.12372310787E+04  0.22816480488E+03  0.18290650972E+04  0.10100000352E+00 0.  1.
       -3    1    3    3    0  502 -0.13276592934E+04  0.12372310787E+04 -0.50253465508E+03  0.18830722321E+04  0.10100000352E+00 0. -1.
</event>
<event>
 5   0  0.7203049E-08  0.3698527E+04  0.7818609E-02  0.8068288E-01
        2   -1    0    0  501    0  0.00000000000E+00  0.00000000000E+00  0.18074592391E+04  0.18074592391E+04  0.25500000920E-02 0. -1.
       -2   -1    0    0    0  501  0.00000000000E+00  0.00000000000E+00 -0.18920343249E+04  0.18920343249E+04  0.25500000920E-02 0.  1.
    10030    2    1    2    0    0  0.00000000000E+00  0.00000000000E+00 -0.84575085787E+02  0.36994935640E+04  0.36985266911E+04 0.  0.
        4    1    3    3  502    0 -0.88743260848E+03 -0.51452838340E+03 -0.15813571338E+04  0.18849318527E+04  0.12699999809E+01 0.  1.
       -4    1    3    3    0  502  0.88743260848E+03  0.51452838340E+03  0.14967820480E+04  0.18145617113E+04  0.12699999809E+01 0. -1.
</event>
<event>
 5   0  0.7191801E-08  0.3701068E+04  0.7818609E-02  0.8067725E-01
        2   -1    0    0  501    0  0.00000000000E+00  0.00000000000E+00  0.19655637521E+04  0.19655637521E+04  0.25500000920E-02 0. -1.
       -2   -1    0    0    0  501  0.00000000000E+00  0.00000000000E+00 -0.17422361181E+04  0.17422361181E+04  0.25500000920E-02 0.  1.
    10030    2    1    2    0    0  0.00000000000E+00  0.00000000000E+00  0.22332763395E+03  0.37077998702E+04  0.37010680411E+04 0.  0.
        5    1    3    3  502    0  0.27407368296E+03  0.14761933184E+04  0.11953850629E+04  0.19191744672E+04  0.46999998093E+01 0. -1.
       -5    1    3    3    0  502 -0.27407368296E+03 -0.14761933184E+04 -0.97205742893E+03  0.17886254030E+04  0.46999998093E+01 0.  1.
</event>
<event>
 5   0  0.2282000E-08  0.3697575E+04  0.7818609E-02  0.8068500E-01
       -1   -1    0    0    0  501  0.00000000000E+00  0.00000000000E+00  0.11433581403E+04  0.11433581404E+04  0.50400001928E-02 0. -1.
        1   -1    0    0  501    0  0.00000000000E+00  0.00000000000E+00 -0.29894524216E+04  0.29894524216E+04  0.50400001928E-02 0.  1.
    10030    2    1    2    0    0  0.00000000000E+00  0.00000000000E+00 -0.18460942813E+04  0.41328105620E+04  0.36975747519E+04 0.  0.
        2    1    3    3  502    0  0.11895937397E+04 -0.33822993576E+03 -0.24590250218E+04  0.27525146344E+04  0.25500000920E-02 0.  1.
       -2    1    3    3    0  502 -0.11895937397E+04  0.33822993576E+03  0.61293074052E+03  0.13802959275E+04  0.25500000920E-02 0. -1.
</event>
<event>
 5   0  0.2282000E-08  0.3700438E+04  0.7818609E-02  0.8067865E-01
        1   -1    0    0  501    0  0.00000000000E+00  0.00000000000E+00  0.10387156999E+04  0.10387156999E+04  0.50400001928E-02 0.  1.
       -1   -1    0    0    0  501  0.00000000000E+00  0.00000000000E+00 -0.32957152864E+04  0.32957152864E+04  0.50400001928E-02 0. -1.
    10030    2    1    2    0    0  0.00000000000E+00  0.00000000000E+00 -0.22569995864E+04  0.43344309863E+04  0.37004384662E+04 0.  0.
        2    1    3    3  502    0 -0.10719683317E+04  0.14643725403E+04 -0.70648282010E+03  0.19474652799E+04  0.25500000920E-02 0. -1.
       -2    1    3    3    0  502  0.10719683317E+04 -0.14643725403E+04 -0.15505167663E+04  0.23869657065E+04  0.25500000920E-02 0.  1.
</event>
<event>
 5   0  0.2282000E-08  0.3710279E+04  0.7818609E-02  0.8065688E-01
        1   -1    0    0  501    0  0.00000000000E+00  0.00000000000E+00  0.18376740161E+04  0.18376740161E+04  0.50400001928E-02 0. -1.
       -1   -1    0    0    0  501  0.00000000000E+00  0.00000000000E+00 -0.18727707096E+04  0.18727707096E+04  0.50400001928E-02 0.  1.
    10030    2    1    2    0    0  0.00000000000E+00  0.00000000000E+00 -0.35096693469E+02  0.37104447258E+04  0.37102787341E+04 0.  0.
        4    1    3    3  502    0  0.71901357659E+03  0.10387233811E+04 -0.13761427732E+04  0.18680731599E+04  0.12699999809E+01 0.  1.
       -4    1    3    3    0  502 -0.71901357659E+03 -0.10387233811E+04  0.13410460797E+04  0.18423715658E+04  0.12699999809E+01 0. -1.
</event>
<event>
 5   0  0.2282000E-08  0.3734113E+04  0.7818609E-02  0.8060444E-01
        1   -1    0    0  501    0  0.00000000000E+00  0.00000000000E+00  0.12238259921E+04  0.12238259921E+04  0.50400001928E-02 0.  1.
       -1   -1    0    0    0  501  0.00000000000E+00  0.00000000000E+00 -0.28483622478E+04  0.28483622478E+04  0.50400001928E-02 0. -1.
    10030    2    1    2    0    0  0.00000000000E+00  0.00000000000E+00 -0.16245362557E+04  0.40721882399E+04  0.37341128820E+04 0.  0.
        3    1    3    3  502    0 -0.17933642069E+04  0.46342928871E+02 -0.13764003940E+04  0.22611459264E+04  0.10100000352E+00 0.  1.
       -3    1    3    3    0  502  0.17933642069E+04 -0.46342928871E+02 -0.24813586167E+03  0.18110423136E+04  0.10100000352E+00 0. -1.
</event>
<event>
 5   0  0.7203049E-08  0.3696126E+04  0.7818609E-02  0.8068821E-01
        2   -1    0    0  501    0  0.00000000000E+00  0.00000000000E+00  0.25639711015E+04  0.25639711015E+04  0.25500000920E-02 0. -1.
       -2   -1    0    0    0  501  0.00000000000E+00  0.00000000000E+00 -0.13320499189E+04  0.13320499189E+04  0.25500000920E-02 0.  1.
    10030    2    1    2    0    0  0.00000000000E+00  0.00000000000E+00  0.12319211826E+04  0.38960210203E+04  0.36961263494E+04 0.  0.
        4    1    3    3  502    0 -0.16991866472E+04  0.13859715847E+03  0.13679072949E+04  0.21857759297E+04  0.12699999809E+01 0. -1.
       -4    1    3    3    0  502  0.16991866472E+04 -0.13859715847E+03 -0.13598611225E+03  0.17102450907E+04  0.12699999809E+01 0.  1.
</event>
<event>
 5   0  0.7191801E-08  0.3712124E+04  0.7818609E-02  0.8065280E-01
       -2   -1    0    0    0  501  0.00000000000E+00  0.00000000000E+00  0.21885056556E+04  0.21885056556E+04  0.25500000920E-02 0.  1.
        2   -1    0    0  501    0  0.00000000000E+00  0.00000000000E+00 -0.15741181603E+04  0.15741181603E+04  0.25500000920E-02 0. -1.
    10030    2    1    2    0    0  0.00000000000E+00  0.00000000000E+00  0.61438749537E+03  0.37626238159E+04  0.37121241878E+04 0.  0.
        5    1    3    3  502    0  0.11374701792E+04  0.59052347711E+02 -0.11782181682E+04  0.16387634760E+04  0.46999998093E+01 0. -1.
       -5    1    3    3    0  502 -0.11374701792E+04 -0.59052347711E+02  0.17926056636E+04  0.21238603399E+04  0.46999998093E+01 0.  1.
</event>
<event>
 5   0  0.2282000E-08  0.3697808E+04  0.7818609E-02  0.8068448E-01
       -1   -1    0    0    0  501  0.00000000000E+00  0.00000000000E+00  0.13348648026E+04  0.13348648026E+04  0.50400001928E-02 0. -1.
        1   -1    0    0  501    0  0.00000000000E+00  0.00000000000E+00 -0.25608933575E+04  0.25608933575E+04  0.50400001928E-02 0.  1.
    10030    2    1    2    0    0  0.00000000000E+00  0.00000000000E+00 -0.12260285549E+04  0.38957581601E+04  0.36978082191E+04 0.  0.
        5    1    3    3  502    0 -0.35413492386E+03 -0.16335957066E+04 -0.14454895568E+04  0.22098662009E+04  0.46999998093E+01 0.  1.
       -5    1    3    3    0  502  0.35413492386E+03  0.16335957066E+04  0.21946100195E+03  0.16858919593E+04  0.46999998093E+01 0. -1.
</event>
<event>
 5   0  0.7362817E-08  0.3705880E+04  0.7818609E-02  0.8066660E-01
        2   -1    0    0  501    0  0.00000000000E+00  0.00000000000E+00  0.18863437551E+04  0.18863437551E+04  0.25500000920E-02 0.  1.
       -2   -1    0    0    0  501  0.00000000000E+00  0.00000000000E+00 -0.18201275213E+04  0.18201275213E+04  0.25500000920E-02 0. -1.
    10030    2    1    2    0    0  0.00000000000E+00  0.00000000000E+00  0.66216233794E+02  0.37064712763E+04  0.37058797515E+04 0.  0.
        1    1    3    3  502    0  0.23201677754E+03 -0.52461426204E+03  0.17953014570E+04  0.18847172813E+04  0.50400001928E-02 0.  1.
       -1    1    3    3    0  502 -0.23201677754E+03  0.52461426204E+03 -0.17290852232E+04  0.18217539950E+04  0.50400001928E-02 0. -1.
</event>
<event>
 5   0  0.7309833E-08  0.3704209E+04  0.7818609E-02  0.8067030E-01
       -2   -1    0    0    0  501  0.00000000000E+00  0.00000000000E+00  0.18023184704E+04  0.18023184704E+04  0.25500000920E-02 0.  1.
        2   -1    0    0  501    0  0.00000000000E+00  0.00000000000E+00 -0.19032656626E+04  0.19032656626E+04  0.25500000920E-02 0. -1.
    10030    2    1    2    0    0  0.00000000000E+00  0.00000000000E+00 -0.10094719212E+03  0.37055841330E+04  0.37042088806E+04 0.  0.
        2    1    3    3  502    0 -0.78241014655E+03 -0.48623242442E+03 -0.16578380882E+04  0.18965797465E+04  0.25500000920E-02 0. -1.
       -2    1    3    3    0  502  0.78241014655E+03  0.48623242442E+03  0.15568908961E+04  0.18090043865E+04  0.25500000920E-02 0.  1.
</event>
<event>
 5   0  0.7309833E-08  0.3697563E+04  0.7818609E-02  0.8068502E-01
        2   -1    0    0  501    0  0.00000000000E+00  0.00000000000E+00  0.15384729190E+04  0.15384729190E+04  0.25500000920E-02 0. -1.
       -2   -1    0    0    0  501  0.00000000000E+00  0.00000000000E+00 -0.22216785219E+04  0.22216785219E+04  0.25500000920E-02 0.  1.
    10030    2    1    2    0    0  0.00000000000E+00  0.00000000000E+00 -0.68320560290E+03  0.37601514409E+04  0.36975625705E+04 0.  0.
        2    1    3    3  502    0 -0.73742504520E+03  0.10324810840E+04  0.10258443717E+04  0.16316156291E+04  0.25500000920E-02 0. -1.
       -2    1    3    3    0  502  0.73742504520E+03 -0.10324810840E+04 -0.17090499746E+04  0.21285358118E+04  0.25500000920E-02 0.  1.
</event>
<event>
 5   0  0.2282000E-08  0.3697968E+04  0.7818609E-02  0.8068412E-01
        1   -1    0    0  501    0  0.00000000000E+00  0.00000000000E+00  0.17174850284E+04  0.17174850284E+04  0.50400001928E-02 0. -1.
       -1   -1    0    0    0  501  0.00000000000E+00  0.00000000000E+00 -0.19905510241E+04  0.19905510241E+04  0.50400001928E-02 0.  1.
    10030    2    1    2    0    0  0.00000000000E+00  0.00000000000E+00 -0.27306599568E+03  0.37080360525E+04  0.36979678647E+04 0.  0.
        4    1    3    3  502    0 -0.12296798344E+04 -0.47019619641E+03  0.11652863890E+04  0.17581498626E+04  0.12699999809E+01 0. -1.
       -4    1    3    3    0  502  0.12296798344E+04  0.47019619641E+03 -0.14383523846E+04  0.19498861899E+04  0.12699999809E+01 0.  1.
</event>
<event>
 5   0  0.2282000E-08  0.3703391E+04  0.7818609E-02  0.8067211E-01
        1   -1    0    0  501    0  0.00000000000E+00  0.00000000000E+00  0.14867227637E+04  0.14867227637E+04  0.50400001928E-02 0. -1.
       -1   -1    0    0    0  501  0.00000000000E+00  0.00000000000E+00 -0.23062648209E+04  0.23062648210E+04  0.50400001928E-02 0.  1.
    10030    2    1    2    0    0  0.00000000000E+00  0.00000000000E+00 -0.81954205726E+03  0.37929875847E+04  0.37033910992E+04 0.  0.
        1    1    3    3  502    0  0.10584203997E+04  0.64964670568E+03 -0.18164926262E+04  0.22004408753E+04  0.50400001928E-02 0.  1.
       -1    1    3    3    0  502 -0.10584203997E+04 -0.64964670568E+03  0.99695056890E+03  0.15925467094E+04  0.50400001928E-02 0. -1.
</event>
<event>
 5   0  0.7191801E-08  0.3697999E+04  0.7818609E-02  0.8068405E-01
       -2   -1    0    0    0  501  0.00000000000E+00  0.00000000000E+00  0.11292897033E+04  0.11292897033E+04  0.25500000920E-02 0. -1.
        2   -1    0    0  501    0  0.00000000000E+00  0.00000000000E+00 -0.30273893746E+04  0.30273893746E+04  0.25500000920E-02 0.  1.
    10030    2    1    2    0    0  0.00000000000E+00  0.00000000000E+00 -0.18980996713E+04  0.41566790779E+04  0.36979992691E+04 0.  0.
        5    1    3    3  502    0  0.61953809975E+02 -0.86467001359E+03 -0.27848034419E+04  0.29166152998E+04  0.46999998093E+01 0.  1.
       -5    1    3    3    0  502 -0.61953809975E+02  0.86467001359E+03  0.88670377061E+03  0.12400637781E+04  0.46999998093E+01 0. -1.
</event>
<event>
 5   0  0.2282000E-08  0.3698525E+04  0.7818609E-02  0.8068289E-01
       -1   -1    0    0    0  501  0.00000000000E+00  0.00000000000E+00  0.27996331298E+04  0.27996331298E+04  0.50400001928E-02 0.  1.
        1   -1    0    0  501    0  0.00000000000E+00  0.00000000000E+00 -0.12215071483E+04  0.12215071483E+04  0.50400001928E-02 0. -1.
    10030    2    1    2    0    0  0.00000000000E+00  0.00000000000E+00  0.15781259815E+04  0.40211402782E+04  0.36985250470E+04 0.  0.
        5    1    3    3  502    0 -0.10371262186E+03  0.19687643145E+02 -0.12182220777E+04  0.12227963984E+04  0.46999998093E+01 0. -1.
       -5    1    3    3    0  502  0.10371262186E+03 -0.19687643145E+02  0.27963480592E+04  0.27983438798E+04  0.46999998093E+01 0.  1.
</event>
<event>
 5   0  0.7309833E-08  0.3699931E+04  0.7818609E-02  0.8067977E-01
       -2   -1    0    0    0  501  0.00000000000E+00  0.00000000000E+00  0.29147402938E+04  0.29147402939E+04  0.25500000920E-02 0.  1.
        2   -1    0    0  501    0  0.00000000000E+00  0.00000000000E+00 -0.11741600156E+04  0.11741600156E+04  0.25500000920E-02 0. -1.
    10030    2    1    2    0    0  0.00000000000E+00  0.00000000000E+00  0.17405802782E+04  0.40889003095E+04  0.36999305448E+04 0.  0.
        2    1    3    3  502    0 -0.86119962492E+03 -0.29271577667E+03 -0.90997077076E+03  0.12866212044E+04  0.25500000920E-02 0. -1.
       -2    1    3    3    0  502  0.86119962492E+03  0.29271577667E+03  0.26505510490E+04  0.28022791051E+04  0.25500000920E-02 0.  1.
</event>
<event>
 5   0  0.7203049E-08  0.3698033E+04  0.7818609E-02  0.8068398E-01
       -2   -1    0    0    0  501  0.00000000000E+00  0.00000000000E+00  0.25705685666E+04  0.25705685666E+04  0.25500000920E-02 0. -1.
        2   -1    0    0  501    0  0.00000000000E+00  0.00000000000E+00 -0.13300021984E+04  0.13300021984E+04  0.25500000920E-02 0.  1.
    10030    2    1    2    0    0  0.00000000000E+00  0.00000000000E+00  0.12405663682E+04  0.39005707649E+04  0.36980329066E+04 0.  0.
        4    1    3    3  502    0 -0.83548216925E+03 -0.97862545499E+03  0.20208330352E+04  0.23957266132E+04  0.12699999809E+01 0. -1.
       -4    1    3    3    0  502  0.83548216925E+03  0.97862545499E+03 -0.78026666705E+03  0.15048441517E+04  0.12699999809E+01 0.  1.
</event>
<event>
 5   0  0.2282000E-08  0.3700708E+04  0.7818609E-02  0.8067805E-01
       -1   -1    0    0    0  501  0.00000000000E+00  0.00000000000E+00  0.14345047889E+04  0.14345047889E+04  0.50400001928E-02 0.  1.
        1   -1    0    0  501    0  0.00000000000E+00  0.00000000000E+00 -0.23867538159E+04  0.23867538159E+04  0.50400001928E-02 0. -1.
    10030    2    1    2    0    0  0.00000000000E+00  0.00000000000E+00 -0.95224902704E+03  0.38212586048E+04  0.37007079209E+04 0.  0.
        4    1    3    3  502    0 -0.64816318615E+03  0.14883152013E+04  0.44084078554E+03  0.16821236177E+04  0.12699999809E+01 0. -1.
       -4    1    3    3    0  502  0.64816318615E+03 -0.14883152013E+04 -0.13930898126E+04  0.21391349871E+04  0.12699999809E+01 0.  1.
</event>
<event>
 5   0  0.7191801E-08  0.3701279E+04  0.7818609E-02  0.8067678E-01
        2   -1    0    0  501    0  0.00000000000E+00  0.00000000000E+00  0.22487425079E+04  0.22487425079E+04  0.25500000920E-02 0. -1.
       -2   -1    0    0    0  501  0.00000000000E+00  0.00000000000E+00 -0.15230143796E+04  0.15230143796E+04  0.25500000920E-02 0.  1.
    10030    2    1    2    0    0  0.00000000000E+00  0.00000000000E+00  0.72572812827E+03  0.37717568875E+04  0.37012793332E+04 0.  0.
        5    1    3    3  502    0  0.16818414829E+04 -0.62461854619E+03 -0.99769491794E+02  0.17968625833E+04  0.46999998093E+01 0.  1.
       -5    1    3    3    0  502 -0.16818414829E+04  0.62461854619E+03  0.82549762006E+03  0.19748943042E+04  0.46999998093E+01 0. -1.
</event>
<event>
 5   0  0.7254493E-08  0.3693497E+04  0.7818609E-02  0.8069405E-01
        2   -1    0    0  501    0  0.00000000000E+00  0.00000000000E+00  0.22065469299E+04  0.22065469299E+04  0.25500000920E-02 0. -1.
       -2   -1    0    0    0  501  0.00000000000E+00  0.00000000000E+00 -0.15456183850E+04  0.15456183850E+04  0.25500000920E-02 0.  1.
    10030    2    1    2    0    0  0.00000000000E+00  0.00000000000E+00  0.66092854490E+03  0.37521653150E+04  0.36934967185E+04 0.  0.
        3    1    3    3  502    0 -0.74304300086E+03 -0.15578041314E+04  0.99787232863E+03  0.19936438517E+04  0.10100000352E+00 0.  1.
       -3    1    3    3    0  502  0.74304300086E+03  0.15578041314E+04 -0.33694378373E+03  0.17585214632E+04  0.10100000352E+00 0. -1.
</event>
<event>
 5   0  0.7203049E-08  0.3700237E+04  0.7818609E-02  0.8067909E-01
       -2   -1    0    0    0  501  0.00000000000E+00  0.00000000000E+00  0.11278313424E+04  0.11278313424E+04  0.25500000920E-02 0. -1.
        2   -1    0    0  501    0  0.00000000000E+00  0.00000000000E+00 -0.30349733794E+04  0.30349733794E+04  0.25500000920E-02 0.  1.
    10030    2    1    2    0    0  0.00000000000E+00  0.00000000000E+00 -0.19071420370E+04  0.41628047218E+04  0.37002368036E+04 0.  0.
        4    1    3    3  502    0  0.81588875140E+03  0.14221214848E+04 -0.19179565867E+04  0.25232247331E+04  0.12699999809E+01 0.  1.
       -4    1    3    3    0  502 -0.81588875140E+03 -0.14221214848E+04  0.10814549751E+02  0.16395799887E+04  0.12699999809E+01 0. -1.
</event>
<event>
 5   0  0.2282000E-08  0.3724291E+04  0.7818609E-02  0.8062600E-01
       -1   -1    0    0    0  501  0.00000000000E+00  0.00000000000E+00  0.15653130353E+04  0.15653130353E+04  0.50400001928E-02 0.  1.
        1   -1    0    0  501    0  0.00000000000E+00  0.00000000000E+00 -0.22152672356E+04  0.22152672356E+04  0.50400001928E-02 0. -1.
    10030    2    1    2    0    0  0.00000000000E+00  0.00000000000E+00 -0.64995420025E+03  0.37805802709E+04  0.37242914390E+04 0.  0.
        2    1    3    3  502    0  0.23168783653E+03 -0.12650463663E+04 -0.16920176024E+04  0.21253105960E+04  0.25500000920E-02 0. -1.
       -2    1    3    3    0  502 -0.23168783653E+03  0.12650463663E+04  0.10420634022E+04  0.16552696749E+04  0.25500000920E-02 0.  1.
</event>
<event>
 5   0  0.7191801E-08  0.3722859E+04  0.7818609E-02  0.8062915E-01
       -2   -1    0    0    0  501  0.00000000000E+00  0.00000000000E+00  0.18541007314E+04  0.18541007314E+04  0.25500000920E-02 0. -1.
        2   -1    0    0  501    0  0.00000000000E+00  0.00000000000E+00 -0.18687876746E+04  0.18687876746E+04  0.25500000920E-02 0.  1.
    10030    2    1    2    0    0  0.00000000000E+00  0.00000000000E+00 -0.14686943283E+02  0.37228884060E+04  0.37228594356E+04 0.  0.
        5    1    3    3  502    0  0.13698244992E+04  0.32209752609E+03 -0.12258489649E+04  0.18662512558E+04  0.46999998093E+01 0.  1.
       -5    1    3    3    0  502 -0.13698244992E+04 -0.32209752609E+03  0.12111620216E+04  0.18566371502E+04  0.46999998093E+01 0. -1.
</event>
<event>
 5   0  0.2282000E-08  0.3693667E+04  0.7818609E-02  0.8069367E-01
       -1   -1    0    0    0  501  0.00000000000E+00  0.00000000000E+00  0.18677690561E+04  0.18677690561E+04  0.50400001928E-02 0.  1.
        1   -1    0    0  501    0  0.00000000000E+00  0.00000000000E+00 -0.18261330848E+04  0.18261330848E+04  0.50400001928E-02 0. -1.
    10030    2    1    2    0    0  0.00000000000E+00  0.00000000000E+00  0.41635971378E+02  0.36939021409E+04  0.36936674827E+04 0.  0.
        5    1    3    3  502    0 -0.44528677292E+03 -0.17296504927E+04 -0.44910721810E+03  0.18416542890E+04  0.46999998093E+01 0. -1.
       -5    1    3    3    0  502  0.44528677292E+03  0.17296504927E+04  0.49074318947E+03  0.18522478519E+04  0.46999998093E+01 0.  1.
</event>
<event>
 5   0  0.7203049E-08  0.3698379E+04  0.7818609E-02  0.8068321E-01
       -2   -1    0    0    0  501  0.00000000000E+00  0.00000000000E+00  0.24654218408E+04  0.24654218408E+04  0.25500000920E-02 0.  1.
        2   -1    0    0  501    0  0.00000000000E+00  0.00000000000E+00 -0.13869841182E+04  0.13869841182E+04  0.25500000920E-02 0. -1.
    10030    2    1    2    0    0  0.00000000000E+00  0.00000000000E+00  0.10784377226E+04  0.38524059591E+04  0.36983785301E+04 0.  0.
        4    1    3    3  502    0  0.38390680457E+03 -0.13351732395E+04 -0.73202931594E+03  0.15703313492E+04  0.12699999809E+01 0. -1.
       -4    1    3    3    0  502 -0.38390680457E+03  0.13351732395E+04  0.18104670386E+04  0.22820746098E+04  0.12699999809E+01 0.  1.
</event>
<event>
 5   0  0.2282000E-08  0.3703988E+04  0.7818609E-02  0.8067079E-01
       -1   -1    0    0    0  501  0.00000000000E+00  0.00000000000E+00  0.19148954286E+04  0.19148954286E+04  0.50400001928E-02 0. -1.
        1   -1    0    0  501    0  0.00000000000E+00  0.00000000000E+00 -0.17911586099E+04  0.17911586099E+04  0.50400001928E-02 0.  1.
    10030    2    1    2    0    0  0.00000000000E+00  0.00000000000E+00  0.12373681866E+03  0.37060540385E+04  0.37039878153E+04 0.  0.
        1    1    3    3  502    0  0.21146148079E+03 -0.24720698674E+03  0.18860843451E+04  0.19139334912E+04  0.50400001928E-02 0. -1.
       -1    1    3    3    0  502 -0.21146148079E+03  0.24720698674E+03 -0.17623475264E+04  0.17921205473E+04  0.50400001928E-02 0.  1.
</event>
<event>
 5   0  0.7191801E-08  0.3705428E+04  0.7818609E-02  0.8066760E-01
        2   -1    0    0  501    0  0.00000000000E+00  0.00000000000E+00  0.18083482178E+04  0.18083482178E+04  0.25500000920E-02 0. -1.
       -2   -1    0    0    0  501  0.00000000000E+00  0.00000000000E+00 -0.18981686012E+04  0.18981686012E+04  0.25500000920E-02 0.  1.
    10030    2    1    2    0    0  0.00000000000E+00  0.00000000000E+00 -0.89820383416E+02  0.37065168189E+04  0.37054283461E+04 0.  0.
        5    1    3    3  502    0 -0.16403856043E+03 -0.12781114916E+04 -0.13764849430E+04  0.18855265902E+04  0.46999998093E+01 0.  1.
       -5    1    3    3    0  502  0.16403856043E+03  0.12781114916E+04  0.12866645596E+04  0.18209902287E+04  0.46999998093E+01 0. -1.
</event>
<event>
 5   0  0.2282000E-08  0.3709230E+04  0.7818609E-02  0.8065920E-01
       -1   -1    0    0    0  501  0.00000000000E+00  0.00000000000E+00  0.18019670161E+04  0.18019670161E+04  0.50400001928E-02 0.  1.
        1   -1    0    0  501    0  0.00000000000E+00  0.00000000000E+00 -0.19088007868E+04  0.19088007869E+04  0.50400001928E-02 0. -1.
    10030    2    1    2    0    0  0.00000000000E+00  0.00000000000E+00 -0.10683377071E+03  0.37107678030E+04  0.37092296010E+04 0.  0.
        5    1    3    3  502    0 -0.12511481104E+04 -0.32178312117E+03  0.12777956711E+04  0.18170580173E+04  0.46999998093E+01 0.  1.
       -5    1    3    3    0  502  0.12511481104E+04  0.32178312117E+03 -0.13846294418E+04  0.18937097857E+04  0.46999998093E+01 0. -1.
</event>
<event>
 5   0  0.2282000E-08  0.3684708E+04  0.7818609E-02  0.8071359E-01
       -1   -1    0    0    0  501  0.00000000000E+00  0.00000000000E+00  0.18385571797E+04  0.18385571797E+04  0.50400001928E-02 0.  1.
        1   -1    0    0  501    0  0.00000000000E+00  0.00000000000E+00 -0.18461585282E+04  0.18461585282E+04  0.50400001928E-02 0. -1.
    10030    2    1    2    0    0  0.00000000000E+00  0.00000000000E+00 -0.76013485325E+01  0.36847157079E+04  0.36847078673E+04 0.  0.
        5    1    3    3  502    0  0.15910980536E+04 -0.85165320995E+03 -0.37439520369E+03  0.18431223683E+04  0.46999998093E+01 0. -1.
       -5    1    3    3    0  502 -0.15910980536E+04  0.85165320995E+03  0.36679385516E+03  0.18415933396E+04  0.46999998093E+01 0.  1.
</event>
<event>
 5   0  0.7191801E-08  0.3704110E+04  0.7818609E-02  0.8067052E-01
       -2   -1    0    0    0  501  0.00000000000E+00  0.00000000000E+00  0.28105109039E+04  0.28105109039E+04  0.25500000920E-02 0. -1.
        2   -1    0    0  501    0  0.00000000000E+00  0.00000000000E+00 -0.12204567486E+04  0.12204567486E+04  0.25500000920E-02 0.  1.
    10030    2    1    2    0    0  0.00000000000E+00  0.00000000000E+00  0.15900541554E+04  0.40309676525E+04  0.37041096094E+04 0.  0.
        5    1    3    3  502    0 -0.10272138555E+04  0.37682168203E+03  0.24211832887E+04  0.26569368627E+04  0.46999998093E+01 0. -1.
       -5    1    3    3    0  502  0.10272138555E+04 -0.37682168203E+03 -0.83112913335E+03  0.13740307898E+04  0.46999998093E+01 0.  1.
</event>
<event>
 5   0  0.2282000E-08  0.3688993E+04  0.7818609E-02  0.8070405E-01
       -1   -1    0    0    0  501  0.00000000000E+00  0.00000000000E+00  0.13756237420E+04  0.13756237420E+04  0.50400001928E-02 0.  1.
        1   -1    0    0  501    0  0.00000000000E+00  0.00000000000E+00 -0.24731821280E+04  0.24731821280E+04  0.50400001928E-02 0. -1.
    10030    2    1    2    0    0  0.00000000000E+00  0.00000000000E+00 -0.10975583859E+04  0.38488058700E+04  0.36889933877E+04 0.  0.
        1    1    3    3  502    0  0.69585024955E+03  0.10970918496E+04  0.81727481540E+03  0.15348472954E+04  0.50400001928E-02 0.  1.
       -1    1    3    3    0  502 -0.69585024955E+03 -0.10970918496E+04 -0.19148332013E+04  0.23139585746E+04  0.50400001928E-02 0. -1.
</event>
<event>
 5   0  0.2282000E-08  0.3693398E+04  0.7818609E-02  0.8069427E-01
       -1   -1    0    0    0  501  0.00000000000E+00  0.00000000000E+00  0.22855990280E+04  0.22855990280E+04  0.50400001928E-02 0.  1.
        1   -1    0    0  501    0  0.00000000000E+00  0.00000000000E+00 -0.14920801635E+04  0.14920801635E+04  0.50400001928E-02 0. -1.
    10030    2    1    2    0    0  0.00000000000E+00  0.00000000000E+00  0.79351886454E+03  0.37776791915E+04  0.36933978780E+04 0.  0.
        4    1    3    3  502    0  0.20154831134E+03 -0.13543314301E+04  0.16641726563E+04  0.21550655645E+04  0.12699999809E+01 0.  1.
       -4    1    3    3    0  502 -0.20154831134E+03  0.13543314301E+04 -0.87065379181E+03  0.16226136269E+04  0.12699999809E+01 0. -1.
</event>
<event>
 5   0  0.2282000E-08  0.3697178E+04  0.7818609E-02  0.8068587E-01
        1   -1    0    0  501    0  0.00000000000E+00  0.00000000000E+00  0.18256644754E+04  0.18256644754E+04  0.50400001928E-02 0.  1.
       -1   -1    0    0    0  501  0.00000000000E+00  0.00000000000E+00 -0.18718017090E+04  0.18718017090E+04  0.50400001928E-02 0. -1.
    10030    2    1    2    0    0  0.00000000000E+00  0.00000000000E+00 -0.46137233634E+02  0.36974661844E+04  0.36971783214E+04 0.  0.
        5    1    3    3  502    0  0.15374659508E+04 -0.95794148252E+03  0.34547922279E+03  0.18441343273E+04  0.46999998093E+01 0.  1.
       -5    1    3    3    0  502 -0.15374659508E+04  0.95794148252E+03 -0.39161645642E+03  0.18533318571E+04  0.46999998093E+01 0. -1.
</event>
<event>
 5   0  0.2282000E-08  0.3698011E+04  0.7818609E-02  0.8068403E-01
       -1   -1    0    0    0  501  0.00000000000E+00  0.00000000000E+00  0.17338207571E+04  0.17338207571E+04  0.50400001928E-02 0.  1.
        1   -1    0    0  501    0  0.00000000000E+00  0.00000000000E+00 -0.19718426837E+04  0.19718426837E+04  0.50400001928E-02 0. -1.
    10030    2    1    2    0    0  0.00000000000E+00  0.00000000000E+00 -0.23802192655E+03  0.37056634408E+04  0.36980112357E+04 0.  0.
        4    1    3    3  502    0 -0.17218623806E+04 -0.23686481118E+03 -0.75111350268E+03  0.18934328885E+04  0.12699999809E+01 0. -1.
       -4    1    3    3    0  502  0.17218623806E+04  0.23686481118E+03  0.51309157613E+03  0.18122305523E+04  0.12699999809E+01 0.  1.
</event>
<event>
 5   0  0.2282000E-08  0.3687372E+04  0.7818609E-02  0.8070766E-01
        1   -1    0    0  501    0  0.00000000000E+00  0.00000000000E+00  0.27553617958E+04  0.27553617958E+04  0.50400001928E-02 0.  1.
       -1   -1    0    0    0  501  0.00000000000E+00  0.00000000000E+00 -0.12336592855E+04  0.12336592855E+04  0.50400001928E-02 0. -1.
    10030    2    1    2    0    0  0.00000000000E+00  0.00000000000E+00  0.15217025104E+04  0.39890210813E+04  0.36873717818E+04 0.  0.
        4    1    3    3  502    0  0.10796634597E+04 -0.90050925289E+03 -0.52944269595E+03  0.15022986660E+04  0.12699999809E+01 0. -1.
       -4    1    3    3    0  502 -0.10796634597E+04  0.90050925289E+03  0.20511452063E+04  0.24867224153E+04  0.12699999809E+01 0.  1.
</event>
<event>
 5   0  0.2282000E-08  0.3633798E+04  0.7818609E-02  0.8082794E-01
        1   -1    0    0  501    0  0.00000000000E+00  0.00000000000E+00  0.19930850695E+04  0.19930850695E+04  0.50400001928E-02 0.  1.
       -1   -1    0    0    0  501  0.00000000000E+00  0.00000000000E+00 -0.16562872856E+04  0.16562872856E+04  0.50400001928E-02 0. -1.
    10030    2    1    2    0    0  0.00000000000E+00  0.00000000000E+00  0.33679778384E+03  0.36493723551E+04  0.36337977158E+04 0.  0.
        4    1    3    3  502    0  0.16400064794E+03  0.16157935335E+04 -0.64960728741E+03  0.17491930128E+04  0.12699999809E+01 0. -1.
       -4    1    3    3    0  502 -0.16400064794E+03 -0.16157935335E+04  0.98640507125E+03  0.19001793423E+04  0.12699999809E+01 0.  1.
</event>
<event>
 5   0  0.2282000E-08  0.3702551E+04  0.7818609E-02  0.8067397E-01
       -1   -1    0    0    0  501  0.00000000000E+00  0.00000000000E+00  0.13955961170E+04  0.13955961170E+04  0.50400001928E-02 0.  1.
        1   -1    0    0  501    0  0.00000000000E+00  0.00000000000E+00 -0.24557402588E+04  0.24557402588E+04  0.50400001928E-02 0. -1.
    10030    2    1    2    0    0  0.00000000000E+00  0.00000000000E+00 -0.10601441418E+04  0.38513363758E+04  0.37025513201E+04 0.  0.
        3    1    3    3  502    0 -0.17200745907E+04  0.28793949786E+02 -0.12414668983E+04  0.21214913997E+04  0.10100000352E+00 0. -1.
       -3    1    3    3    0  502  0.17200745907E+04 -0.28793949786E+02  0.18132275645E+03  0.17298449761E+04  0.10100000352E+00 0.  1.
</event>
<event>
 5   0  0.7309833E-08  0.3706538E+04  0.7818609E-02  0.8066515E-01
       -2   -1    0    0    0  501  0.00000000000E+00  0.00000000000E+00  0.20117101969E+04  0.20117101969E+04  0.25500000920E-02 0.  1.
        2   -1    0    0  501    0  0.00000000000E+00  0.00000000000E+00 -0.17073060855E+04  0.17073060855E+04  0.25500000920E-02 0. -1.
    10030    2    1    2    0    0  0.00000000000E+00  0.00000000000E+00  0.30440411139E+03  0.37190162823E+04  0.37065375008E+04 0.  0.
        2    1    3    3  502    0  0.10027653997E+04 -0.77651228816E+03  0.15080825042E+04  0.19704879142E+04  0.25500000920E-02 0.  1.
       -2    1    3    3    0  502 -0.10027653997E+04  0.77651228816E+03 -0.12036783929E+04  0.17485283681E+04  0.25500000920E-02 0. -1.
</event>
<event>
 5   0  0.2282000E-08  0.3702211E+04  0.7818609E-02  0.8067472E-01
        1   -1    0    0  501    0  0.00000000000E+00  0.00000000000E+00  0.14064932782E+04  0.14064932782E+04  0.50400001928E-02 0. -1.
       -1   -1    0    0    0  501  0.00000000000E+00  0.00000000000E+00 -0.24362653994E+04  0.24362653994E+04  0.50400001928E-02 0.  1.
    10030    2    1    2    0    0  0.00000000000E+00  0.00000000000E+00 -0.10297721212E+04  0.38427586776E+04  0.37022106413E+04 0.  0.
        3    1    3    3  502    0 -0.12379263845E+04  0.33529807421E+02  0.91321143689E+03  0.15386816175E+04  0.10100000352E+00 0. -1.
       -3    1    3    3    0  502  0.12379263845E+04 -0.33529807421E+02 -0.19429835581E+04  0.23040770601E+04  0.10100000352E+00 0.  1.
</event>
<event>
 5   0  0.2282000E-08  0.3701673E+04  0.7818609E-02  0.8067591E-01
        1   -1    0    0  501    0  0.00000000000E+00  0.00000000000E+00  0.26133004825E+04  0.26133004825E+04  0.50400001928E-02 0.  1.
       -1   -1    0    0    0  501  0.00000000000E+00  0.00000000000E+00 -0.13108309780E+04  0.13108309780E+04  0.50400001928E-02 0. -1.
    10030    2    1    2    0    0  0.00000000000E+00  0.00000000000E+00  0.13024695045E+04  0.39241314605E+04  0.37016727177E+04 0.  0.
        1    1    3    3  502    0  0.50327391640E+03 -0.12899142880E+04  0.19532268802E+04  0.23942135976E+04  0.50400001928E-02 0.  1.
       -1    1    3    3    0  502 -0.50327391640E+03  0.12899142880E+04 -0.65075737572E+03  0.15299178629E+04  0.50400001928E-02 0. -1.
</event>
<event>
 5   0  0.7191801E-08  0.3698688E+04  0.7818609E-02  0.8068253E-01
       -2   -1    0    0    0  501  0.00000000000E+00  0.00000000000E+00  0.13654565659E+04  0.13654565659E+04  0.25500000920E-02 0.  1.
        2   -1    0    0  501    0  0.00000000000E+00  0.00000000000E+00 -0.25047100635E+04  0.25047100635E+04  0.25500000920E-02 0. -1.
    10030    2    1    2    0    0  0.00000000000E+00  0.00000000000E+00 -0.11392534976E+04  0.38701666295E+04  0.36986877684E+04 0.  0.
        5    1    3    3  502    0  0.97535976761E+03  0.15496442810E+04 -0.84113026411E+03  0.20150052817E+04  0.46999998093E+01 0.  1.
       -5    1    3    3    0  502 -0.97535976761E+03 -0.15496442810E+04 -0.29812323348E+03  0.18551613478E+04  0.46999998093E+01 0. -1.
</event>
<event>
 5   0  0.2282000E-08  0.3708476E+04  0.7818609E-02  0.8066086E-01
        1   -1    0    0  501    0  0.00000000000E+00  0.00000000000E+00  0.11259479124E+04  0.11259479124E+04  0.50400001928E-02 0.  1.
       -1   -1    0    0    0  501  0.00000000000E+00  0.00000000000E+00 -0.30536041180E+04  0.30536041180E+04  0.50400001928E-02 0. -1.
    10030    2    1    2    0    0  0.00000000000E+00  0.00000000000E+00 -0.19276562057E+04  0.41795520304E+04  0.37084763351E+04 0.  0.
        2    1    3    3  502    0  0.63073026162E+03  0.57560335309E+03 -0.28188262484E+04  0.29453219351E+04  0.25500000920E-02 0. -1.
       -2    1    3    3    0  502 -0.63073026162E+03 -0.57560335309E+03  0.89117004273E+03  0.12342300953E+04  0.25500000920E-02 0.  1.
</event>
<event>
 5   0  0.2282000E-08  0.3667433E+04  0.7818609E-02  0.8075218E-01
       -1   -1    0    0    0  501  0.00000000000E+00  0.00000000000E+00  0.23509546248E+04  0.23509546248E+04  0.50400001928E-02 0. -1.
        1   -1    0    0  501    0  0.00000000000E+00  0.00000000000E+00 -0.14302767654E+04  0.14302767654E+04  0.50400001928E-02 0.  1.
    10030    2    1    2    0    0  0.00000000000E+00  0.00000000000E+00  0.92067785944E+03  0.37812313903E+04  0.36674327677E+04 0.  0.
        5    1    3    3  502    0  0.10092176328E+04 -0.15004944601E+04  0.77389707518E+03  0.19669627928E+04  0.46999998093E+01 0. -1.
       -5    1    3    3    0  502 -0.10092176328E+04  0.15004944601E+04  0.14678078426E+03  0.18142685975E+04  0.46999998093E+01 0.  1.
</event>
<event>
 5   0  0.2282000E-08  0.3754994E+04  0.7818609E-02  0.8055883E-01
       -1   -1    0    0    0  501  0.00000000000E+00  0.00000000000E+00  0.17557746900E+04  0.17557746900E+04  0.50400001928E-02 0.  1.
        1   -1    0    0  501    0  0.00000000000E+00  0.00000000000E+00 -0.20076574901E+04  0.20076574901E+04  0.50400001928E-02 0. -1.
    10030    2    1    2    0    0  0.00000000000E+00  0.00000000000E+00 -0.25188280007E+03  0.37634321801E+04  0.37549935858E+04 0.  0.
        4    1    3    3  502    0  0.15282769051E+04 -0.48883607177E+03 -0.11030176837E+04  0.19471108410E+04  0.12699999809E+01 0. -1.
       -4    1    3    3    0  502 -0.15282769051E+04  0.48883607177E+03  0.85113488368E+03  0.18163213391E+04  0.12699999809E+01 0.  1.
</event>
<event>
 5   0  0.2282000E-08  0.3698879E+04  0.7818609E-02  0.8068210E-01
        1   -1    0    0  501    0  0.00000000000E+00  0.00000000000E+00  0.93721147197E+03  0.93721147199E+03  0.50400001928E-02 0. -1.
       -1   -1    0    0    0  501  0.00000000000E+00  0.00000000000E+00 -0.36495777704E+04  0.36495777704E+04  0.50400001928E-02 0.  1.
    10030    2    1    2    0    0  0.00000000000E+00  0.00000000000E+00 -0.27123662984E+04  0.45867892424E+04  0.36988788325E+04 0.  0.
        4    1    3    3  502    0  0.14632011794E+04 -0.98325620960E+03 -0.66278190266E+03  0.18833565590E+04  0.12699999809E+01 0.  1.
       -4    1    3    3    0  502 -0.14632011794E+04  0.98325620960E+03 -0.20495843958E+04  0.27034326833E+04  0.12699999809E+01 0. -1.
</event>
<event>
 5   0  0.7203049E-08  0.3693975E+04  0.7818609E-02  0.8069298E-01
        2   -1    0    0  501    0  0.00000000000E+00  0.00000000000E+00  0.26487505969E+04  0.26487505969E+04  0.25500000920E-02 0.  1.
       -2   -1    0    0    0  501  0.00000000000E+00  0.00000000000E+00 -0.12879141375E+04  0.12879141375E+04  0.25500000920E-02 0. -1.
    10030    2    1    2    0    0  0.00000000000E+00  0.00000000000E+00  0.13608364594E+04  0.39366647344E+04  0.36939752790E+04 0.  0.
        4    1    3    3  502    0  0.85165083412E+02  0.81465225141E+03 -0.10837720047E+04  0.13584825186E+04  0.12699999809E+01 0. -1.
       -4    1    3    3    0  502 -0.85165083412E+02 -0.81465225141E+03  0.24446084641E+04  0.25781822158E+04  0.12699999809E+01 0.  1.
</event>
<event>
 5   0  0.2282000E-08  0.3687356E+04  0.7818609E-02  0.8070770E-01
        1   -1    0    0  501    0  0.00000000000E+00  0.00000000000E+00  0.19483134987E+04  0.19483134987E+04  0.50400001928E-02 0.  1.
       -1   -1    0    0    0  501  0.00000000000E+00  0.00000000000E+00 -0.17446622630E+04  0.17446622631E+04  0.50400001928E-02 0. -1.
    10030    2    1    2    0    0  0.00000000000E+00  0.00000000000E+00  0.20365123570E+03  0.36929757618E+04  0.36873562550E+04 0.  0.
        3    1    3    3  502    0  0.11852550475E+04  0.10809345263E+04 -0.80834980512E+03  0.17962957428E+04  0.10100000352E+00 0. -1.
       -3    1    3    3    0  502 -0.11852550475E+04 -0.10809345263E+04  0.10120010408E+04  0.18966800190E+04  0.10100000352E+00 0.  1.
</event>
<event>
 5   0  0.7309833E-08  0.3704166E+04  0.7818609E-02  0.8067039E-01
        2   -1    0    0  501    0  0.00000000000E+00  0.00000000000E+00  0.23311918390E+04  0.23311918390E+04  0.25500000920E-02 0.  1.
       -2   -1    0    0    0  501  0.00000000000E+00  0.00000000000E+00 -0.14714412688E+04  0.14714412688E+04  0.25500000920E-02 0. -1.
    10030    2    1    2    0    0  0.00000000000E+00  0.00000000000E+00  0.85975057015E+03  0.38026331078E+04  0.37041662367E+04 0.  0.
        2    1    3    3  502    0  0.34849085674E+03  0.17717933859E+04  0.85254097550E+03  0.19968785127E+04  0.25500000920E-02 0.  1.
       -2    1    3    3    0  502 -0.34849085674E+03 -0.17717933859E+04  0.72095946440E+01  0.18057545951E+04  0.25500000920E-02 0. -1.
</event>
<event>
 5   0  0.7191801E-08  0.3716458E+04  0.7818609E-02  0.8064324E-01
       -2   -1    0    0    0  501  0.00000000000E+00  0.00000000000E+00  0.25885896912E+04  0.25885896912E+04  0.25500000920E-02 0. -1.
        2   -1    0    0  501    0  0.00000000000E+00  0.00000000000E+00 -0.13339364705E+04  0.13339364705E+04  0.25500000920E-02 0.  1.
    10030    2    1    2    0    0  0.00000000000E+00  0.00000000000E+00  0.12546532207E+04  0.39225261617E+04  0.37164575586E+04 0.  0.
        5    1    3    3  502    0  0.17119806857E+04  0.51032120159E+03  0.11672440283E+04  0.21339602407E+04  0.46999998093E+01 0.  1.
       -5    1    3    3    0  502 -0.17119806857E+04 -0.51032120159E+03  0.87409192380E+02  0.17885659210E+04  0.46999998093E+01 0. -1.
</event>
<event>
 5   0  0.7254493E-08  0.3702731E+04  0.7818609E-02  0.8067357E-01
       -2   -1    0    0    0  501  0.00000000000E+00  0.00000000000E+00  0.14040751109E+04  0.14040751109E+04  0.25500000920E-02 0.  1.
        2   -1    0    0  501    0  0.00000000000E+00  0.00000000000E+00 -0.24411467432E+04  0.24411467432E+04  0.25500000920E-02 0. -1.
    10030    2    1    2    0    0  0.00000000000E+00  0.00000000000E+00 -0.10370716323E+04  0.38452218542E+04  0.37027305515E+04 0.  0.
        3    1    3    3  502    0 -0.60547080758E+03  0.16299385305E+04 -0.11788172217E+04  0.21006914491E+04  0.10100000352E+00 0. -1.
       -3    1    3    3    0  502  0.60547080758E+03 -0.16299385305E+04  0.14174558938E+03  0.17445304051E+04  0.10100000352E+00 0.  1.
</event>
<event>
 5   0  0.2282000E-08  0.3698094E+04  0.7818609E-02  0.8068384E-01
        1   -1    0    0  501    0  0.00000000000E+00  0.00000000000E+00  0.10248903000E+04  0.10248903000E+04  0.50400001928E-02 0.  1.
       -1   -1    0    0    0  501  0.00000000000E+00  0.00000000000E+00 -0.33359419347E+04  0.33359419347E+04  0.50400001928E-02 0. -1.
    10030    2    1    2    0    0  0.00000000000E+00  0.00000000000E+00 -0.23110516347E+04  0.43608322347E+04  0.36980938497E+04 0.  0.
        2    1    3    3  502    0  0.16253686647E+04 -0.79402043973E+03 -0.70389766060E+03  0.19410728146E+04  0.25500000920E-02 0.  1.
       -2    1    3    3    0  502 -0.16253686647E+04  0.79402043973E+03 -0.16071539741E+04  0.24197594201E+04  0.25500000920E-02 0. -1.
</event>
<event>
 5   0  0.7254493E-08  0.3695895E+04  0.7818609E-02  0.8068872E-01
       -2   -1    0    0    0  501  0.00000000000E+00  0.00000000000E+00  0.31600444329E+04  0.31600444329E+04  0.25500000920E-02 0.  1.
        2   -1    0    0  501    0  0.00000000000E+00  0.00000000000E+00 -0.10806527916E+04  0.10806527916E+04  0.25500000920E-02 0. -1.
    10030    2    1    2    0    0  0.00000000000E+00  0.00000000000E+00  0.20793916413E+04  0.42406972245E+04  0.36958954736E+04 0.  0.
        3    1    3    3  502    0 -0.77333538894E+03 -0.14206492944E+04  0.14309907146E+02  0.16175589093E+04  0.10100000352E+00 0. -1.
       -3    1    3    3    0  502  0.77333538894E+03  0.14206492944E+04  0.20650817342E+04  0.26231383152E+04  0.10100000352E+00 0.  1.
</event>
<event>
 5   0  0.2282000E-08  0.3699585E+04  0.7818609E-02  0.8068054E-01
       -1   -1    0    0    0  501  0.00000000000E+00  0.00000000000E+00  0.23277600780E+04  0.23277600780E+04  0.50400001928E-02 0.  1.
        1   -1    0    0  501    0  0.00000000000E+00  0.00000000000E+00 -0.14699673988E+04  0.14699673988E+04  0.50400001928E-02 0. -1.
    10030    2    1    2    0    0  0.00000000000E+00  0.00000000000E+00  0.85779267920E+03  0.37977274769E+04  0.36995845318E+04 0.  0.
        5    1    3    3  502    0 -0.12009646913E+04 -0.73289420681E+03  0.16616959973E+04  0.21773161887E+04  0.46999998093E+01 0.  1.
       -5    1    3    3    0  502  0.12009646913E+04  0.73289420681E+03 -0.80390331808E+03  0.16204112882E+04  0.46999998093E+01 0. -1.
</event>
<event>
 5   0  0.2282000E-08  0.3706998E+04  0.7818609E-02  0.8066413E-01
        1   -1    0    0  501    0  0.00000000000E+00  0.00000000000E+00  0.25432313290E+04  0.25432313290E+04  0.50400001928E-02 0.  1.
       -1   -1    0    0    0  501  0.00000000000E+00  0.00000000000E+00 -0.13508245135E+04  0.13508245135E+04  0.50400001928E-02 0. -1.
    10030    2    1    2    0    0  0.00000000000E+00  0.00000000000E+00  0.11924068155E+04  0.38940558425E+04  0.37069983668E+04 0.  0.
        3    1    3    3  502    0 -0.16865513739E+03  0.12639856909E+04 -0.81679493544E+03  0.15143508045E+04  0.10100000352E+00 0. -1.
       -3    1    3    3    0  502  0.16865513739E+03 -0.12639856909E+04  0.20092017509E+04  0.23797050381E+04  0.10100000352E+00 0.  1.
</event>
<event>
 5   0  0.2282000E-08  0.3699871E+04  0.7818609E-02  0.8067990E-01
       -1   -1    0    0    0  501  0.00000000000E+00  0.00000000000E+00  0.26444312532E+04  0.26444312532E+04  0.50400001928E-02 0.  1.
        1   -1    0    0  501    0  0.00000000000E+00  0.00000000000E+00 -0.12941387432E+04  0.12941387433E+04  0.50400001928E-02 0. -1.
    10030    2    1    2    0    0  0.00000000000E+00  0.00000000000E+00  0.13502925100E+04  0.39385699965E+04  0.36998707754E+04 0.  0.
        1    1    3    3  502    0  0.33877082798E+03  0.10760285711E+04  0.22359082297E+04  0.25043739280E+04  0.50400001928E-02 0.  1.
       -1    1    3    3    0  502 -0.33877082798E+03 -0.10760285711E+04 -0.88561571974E+03  0.14341960684E+04  0.50400001928E-02 0. -1.
</event>
<event>
 5   0  0.7203049E-08  0.3696326E+04  0.7818609E-02  0.8068777E-01
       -2   -1    0    0    0  501  0.00000000000E+00  0.00000000000E+00  0.13380175513E+04  0.13380175513E+04  0.25500000920E-02 0.  1.
        2   -1    0    0  501    0  0.00000000000E+00  0.00000000000E+00 -0.25528112916E+04  0.25528112916E+04  0.25500000920E-02 0. -1.
    10030    2    1    2    0    0  0.00000000000E+00  0.00000000000E+00 -0.12147937403E+04  0.38908288429E+04  0.36963259128E+04 0.  0.
        4    1    3    3  502    0  0.10033261350E+04 -0.15408224210E+04 -0.41072960461E+03  0.18840110103E+04  0.12699999809E+01 0.  1.
       -4    1    3    3    0  502 -0.10033261350E+04  0.15408224210E+04 -0.80406413569E+03  0.20068178326E+04  0.12699999809E+01 0. -1.
</event>
<event>
 5   0  0.2282000E-08  0.3700349E+04  0.7818609E-02  0.8067885E-01
       -1   -1    0    0    0  501  0.00000000000E+00  0.00000000000E+00  0.15608063828E+04  0.15608063828E+04  0.50400001928E-02 0.  1.
        1   -1    0    0  501    0  0.00000000000E+00  0.00000000000E+00 -0.21931901042E+04  0.21931901042E+04  0.50400001928E-02 0. -1.
    10030    2    1    2    0    0  0.00000000000E+00  0.00000000000E+00 -0.63238372147E+03  0.37539964870E+04  0.37003486934E+04 0.  0.
        4    1    3    3  502    0 -0.18017682902E+03 -0.18328543094E+04 -0.13663748362E+03  0.18467512079E+04  0.12699999809E+01 0.  1.
       -4    1    3    3    0  502  0.18017682902E+03  0.18328543094E+04 -0.49574623785E+03  0.19072452790E+04  0.12699999809E+01 0. -1.
</event>
<event>
 5   0  0.7191801E-08  0.3696475E+04  0.7818609E-02  0.8068743E-01
        2   -1    0    0  501    0  0.00000000000E+00  0.00000000000E+00  0.23418154966E+04  0.23418154966E+04  0.25500000920E-02 0.  1.
       -2   -1    0    0    0  501  0.00000000000E+00  0.00000000000E+00 -0.14586897529E+04  0.14586897529E+04  0.25500000920E-02 0. -1.
    10030    2    1    2    0    0  0.00000000000E+00  0.00000000000E+00  0.88312574370E+03  0.38005052496E+04  0.36964752228E+04 0.  0.
        5    1    3    3  502    0  0.16430144113E+04  0.72325416416E+02  0.13086434190E+04  0.21017366651E+04  0.46999998093E+01 0.  1.
       -5    1    3    3    0  502 -0.16430144113E+04 -0.72325416416E+02 -0.42551767525E+03  0.16987685845E+04  0.46999998093E+01 0. -1.
</event>
<event>
 5   0  0.2282000E-08  0.3696849E+04  0.7818609E-02  0.8068660E-01
        1   -1    0    0  501    0  0.00000000000E+00  0.00000000000E+00  0.19431098599E+04  0.19431098599E+04  0.50400001928E-02 0. -1.
       -1   -1    0    0    0  501  0.00000000000E+00  0.00000000000E+00 -0.17583533673E+04  0.17583533673E+04  0.50400001928E-02 0.  1.
    10030    2    1    2    0    0  0.00000000000E+00  0.00000000000E+00  0.18475649262E+03  0.37014632273E+04  0.36968493425E+04 0.  0.
        5    1    3    3  502    0 -0.14262631934E+04 -0.10441760709E+04  0.63353528045E+03  0.18777431681E+04  0.46999998093E+01 0.  1.
       -5    1    3    3    0  502  0.14262631934E+04  0.10441760709E+04 -0.44877878783E+03  0.18237200592E+04  0.46999998093E+01 0. -1.
</event>
<event>
 5   0  0.7309833E-08  0.3698299E+04  0.7818609E-02  0.8068339E-01
       -2   -1    0    0    0  501  0.00000000000E+00  0.00000000000E+00  0.19936662310E+04  0.19936662310E+04  0.25500000920E-02 0.  1.
        2   -1    0    0  501    0  0.00000000000E+00  0.00000000000E+00 -0.17151083721E+04  0.17151083721E+04  0.25500000920E-02 0. -1.
    10030    2    1    2    0    0  0.00000000000E+00  0.00000000000E+00  0.27855785892E+03  0.37087746031E+04  0.36982988759E+04 0.  0.
        2    1    3    3  502    0  0.77371433752E+03  0.81062689731E+03 -0.13358069400E+04  0.17435968639E+04  0.25500000920E-02 0. -1.
       -2    1    3    3    0  502 -0.77371433752E+03 -0.81062689731E+03  0.16143647989E+04  0.19651777392E+04  0.25500000920E-02 0.  1.
</event>
<event>
 5   0  0.7203049E-08  0.3706365E+04  0.7818609E-02  0.8066553E-01
       -2   -1    0    0    0  501  0.00000000000E+00  0.00000000000E+00  0.17643306895E+04  0.17643306895E+04  0.25500000920E-02 0. -1.
        2   -1    0    0  501    0  0.00000000000E+00  0.00000000000E+00 -0.19465084379E+04  0.19465084379E+04  0.25500000920E-02 0.  1.
    10030    2    1    2    0    0  0.00000000000E+00  0.00000000000E+00 -0.18217774835E+03  0.37108391274E+04  0.37063645662E+04 0.  0.
        4    1    3    3  502    0  0.42328874096E+03 -0.88558414016E+03  0.14827026856E+04  0.17781567687E+04  0.12699999809E+01 0. -1.
       -4    1    3    3    0  502 -0.42328874096E+03  0.88558414016E+03 -0.16648804339E+04  0.19326823587E+04  0.12699999809E+01 0.  1.
</event>
<event>
 5   0  0.7309833E-08  0.3700986E+04  0.7818609E-02  0.8067743E-01
        2   -1    0    0  501    0  0.00000000000E+00  0.00000000000E+00  0.20340835274E+04  0.20340835274E+04  0.25500000920E-02 0.  1.
       -2   -1    0    0    0  501  0.00000000000E+00  0.00000000000E+00 -0.16834729341E+04  0.16834729341E+04  0.25500000920E-02 0. -1.
    10030    2    1    2    0    0  0.00000000000E+00  0.00000000000E+00  0.35061059330E+03  0.37175564615E+04  0.37009861194E+04 0.  0.
        2    1    3    3  502    0  0.14195390411E+04 -0.36773516338E+03 -0.95846628757E+03  0.17518498406E+04  0.25500000920E-02 0. -1.
       -2    1    3    3    0  502 -0.14195390411E+04  0.36773516338E+03  0.13090768809E+04  0.19657066209E+04  0.25500000920E-02 0.  1.
</event>
<event>
 5   0  0.2282000E-08  0.3728139E+04  0.7818609E-02  0.8061754E-01
        1   -1    0    0  501    0  0.00000000000E+00  0.00000000000E+00  0.23678054612E+04  0.23678054612E+04  0.50400001928E-02 0.  1.
       -1   -1    0    0    0  501  0.00000000000E+00  0.00000000000E+00 -0.14674998739E+04  0.14674998739E+04  0.50400001928E-02 0. -1.
    10030    2    1    2    0    0  0.00000000000E+00  0.00000000000E+00  0.90030558735E+03  0.38353053351E+04  0.37281385252E+04 0.  0.
        4    1    3    3  502    0 -0.16364104679E+04  0.26477852729E+03 -0.42688249967E+03  0.17117760278E+04  0.12699999809E+01 0. -1.
       -4    1    3    3    0  502  0.16364104679E+04 -0.26477852729E+03  0.13271880870E+04  0.21235293073E+04  0.12699999809E+01 0.  1.
</event>
<event>
 5   0  0.7191801E-08  0.3701474E+04  0.7818609E-02  0.8067635E-01
        2   -1    0    0  501    0  0.00000000000E+00  0.00000000000E+00  0.16088023949E+04  0.16088023949E+04  0.25500000920E-02 0.  1.
       -2   -1    0    0    0  501  0.00000000000E+00  0.00000000000E+00 -0.21290546602E+04  0.21290546602E+04  0.25500000920E-02 0. -1.
    10030    2    1    2    0    0  0.00000000000E+00  0.00000000000E+00 -0.52025226537E+03  0.37378570551E+04  0.37014744285E+04 0.  0.
        5    1    3    3  502    0  0.15036047525E+04  0.93177454916E+03 -0.80969509279E+03  0.19454200820E+04  0.46999998093E+01 0. -1.
       -5    1    3    3    0  502 -0.15036047525E+04 -0.93177454916E+03  0.28944282742E+03  0.17924369731E+04  0.46999998093E+01 0.  1.
</event>
<event>
 5   0  0.2282000E-08  0.3705060E+04  0.7818609E-02  0.8066841E-01
        1   -1    0    0  501    0  0.00000000000E+00  0.00000000000E+00  0.19879656201E+04  0.19879656201E+04  0.50400001928E-02 0.  1.
       -1   -1    0    0    0  501  0.00000000000E+00  0.00000000000E+00 -0.17263216902E+04  0.17263216902E+04  0.50400001928E-02 0. -1.
    10030    2    1    2    0    0  0.00000000000E+00  0.00000000000E+00  0.26164392986E+03  0.37142873103E+04  0.37050604148E+04 0.  0.
        2    1    3    3  502    0  0.81266592203E+02  0.17080947868E+04  0.84511031009E+03  0.19074599592E+04  0.25500000920E-02 0. -1.
       -2    1    3    3    0  502 -0.81266592203E+02 -0.17080947868E+04 -0.58346638023E+03  0.18068273511E+04  0.25500000920E-02 0.  1.
</event>
<event>
 5   0  0.2282000E-08  0.3698094E+04  0.7818609E-02  0.8068384E-01
       -1   -1    0    0    0  501  0.00000000000E+00  0.00000000000E+00  0.20666723970E+04  0.20666723970E+04  0.50400001928E-02 0.  1.
        1   -1    0    0  501    0  0.00000000000E+00  0.00000000000E+00 -0.16543383625E+04  0.16543383625E+04  0.50400001928E-02 0. -1.
    10030    2    1    2    0    0  0.00000000000E+00  0.00000000000E+00  0.41233403454E+03  0.37210107595E+04  0.36980943358E+04 0.  0.
        1    1    3    3  502    0 -0.15698957846E+04  0.18177992940E+03 -0.75965547163E+03  0.17534802973E+04  0.50400001928E-02 0. -1.
       -1    1    3    3    0  502  0.15698957846E+04 -0.18177992940E+03  0.11719895062E+04  0.19675304622E+04  0.50400001928E-02 0.  1.
</event>
<event>
 5   0  0.2282000E-08  0.3696647E+04  0.7818609E-02  0.8068705E-01
       -1   -1    0    0    0  501  0.00000000000E+00  0.00000000000E+00  0.33319104962E+04  0.33319104962E+04  0.50400001928E-02 0. -1.
        1   -1    0    0  501    0  0.00000000000E+00  0.00000000000E+00 -0.10253275201E+04  0.10253275201E+04  0.50400001928E-02 0.  1.
    10030    2    1    2    0    0  0.00000000000E+00  0.00000000000E+00  0.23065829761E+04  0.43572380163E+04  0.36966468733E+04 0.  0.
        5    1    3    3  502    0 -0.10330497523E+04  0.59643056862E+02 -0.65190159812E+03  0.12230073052E+04  0.46999998093E+01 0.  1.
       -5    1    3    3    0  502  0.10330497523E+04 -0.59643056862E+02  0.29584845742E+04  0.31342307111E+04  0.46999998093E+01 0. -1.
</event>
<event>
 5   0  0.2282000E-08  0.3701108E+04  0.7818609E-02  0.8067716E-01
        1   -1    0    0  501    0  0.00000000000E+00  0.00000000000E+00  0.19020030197E+04  0.19020030197E+04  0.50400001928E-02 0.  1.
       -1   -1    0    0    0  501  0.00000000000E+00  0.00000000000E+00 -0.18004967918E+04  0.18004967919E+04  0.50400001928E-02 0. -1.
    10030    2    1    2    0    0  0.00000000000E+00  0.00000000000E+00  0.10150622789E+03  0.37024998116E+04  0.37011081233E+04 0.  0.
        4    1    3    3  502    0 -0.46214376424E+03  0.12900525903E+04  0.12948992476E+04  0.18853589098E+04  0.12699999809E+01 0.  1.
       -4    1    3    3    0  502  0.46214376424E+03 -0.12900525903E+04 -0.11933930197E+04  0.18171409018E+04  0.12699999809E+01 0. -1.
</event>
<event>
 5   0  0.7362817E-08  0.3704650E+04  0.7818609E-02  0.8066932E-01
        2   -1    0    0  501    0  0.00000000000E+00  0.00000000000E+00  0.18544082015E+04  0.18544082015E+04  0.25500000920E-02 0. -1.
       -2   -1    0    0    0  501  0.00000000000E+00  0.00000000000E+00 -0.18502440118E+04  0.18502440118E+04  0.25500000920E-02 0.  1.
    10030    2    1    2    0    0  0.00000000000E+00  0.00000000000E+00  0.41641897109E+01  0.37046522133E+04  0.37046498729E+04 0.  0.
        1    1    3    3  502    0  0.50156805377E+03  0.11976268110E+04  0.13231533966E+04  0.18538110481E+04  0.50400001928E-02 0. -1.
       -1    1    3    3    0  502 -0.50156805377E+03 -0.11976268110E+04 -0.13189892068E+04  0.18508411652E+04  0.50400001928E-02 0.  1.
</event>
<event>
 5   0  0.2282000E-08  0.3699502E+04  0.7818609E-02  0.8068072E-01
       -1   -1    0    0    0  501  0.00000000000E+00  0.00000000000E+00  0.12656210373E+04  0.12656210373E+04  0.50400001928E-02 0. -1.
        1   -1    0    0  501    0  0.00000000000E+00  0.00000000000E+00 -0.27034783442E+04  0.27034783442E+04  0.50400001928E-02 0.  1.
    10030    2    1    2    0    0  0.00000000000E+00  0.00000000000E+00 -0.14378573069E+04  0.39690993815E+04  0.36995021646E+04 0.  0.
        1    1    3    3  502    0 -0.62662599893E+03  0.17039564130E+04 -0.33892606168E+03  0.18468888638E+04  0.50400001928E-02 0. -1.
       -1    1    3    3    0  502  0.62662599893E+03 -0.17039564130E+04 -0.10989312452E+04  0.21222105177E+04  0.50400001928E-02 0.  1.
</event>
<event>
 5   0  0.7254493E-08  0.3697082E+04  0.7818609E-02  0.8068609E-01
       -2   -1    0    0    0  501  0.00000000000E+00  0.00000000000E+00  0.18484335212E+04  0.18484335212E+04  0.25500000920E-02 0. -1.
        2   -1    0    0  501    0  0.00000000000E+00  0.00000000000E+00 -0.18486482164E+04  0.18486482164E+04  0.25500000920E-02 0.  1.
    10030    2    1    2    0    0  0.00000000000E+00  0.00000000000E+00 -0.21469527530E+00  0.36970817376E+04  0.36970817314E+04 0.  0.
        3    1    3    3  502    0 -0.42829220325E+03 -0.29915689063E+03  0.17730746159E+04  0.18484378974E+04  0.10100000352E+00 0. -1.
       -3    1    3    3    0  502  0.42829220325E+03  0.29915689063E+03 -0.17732893112E+04  0.18486438402E+04  0.10100000352E+00 0.  1.
</event>
<event>
 5   0  0.7362817E-08  0.3727599E+04  0.7818609E-02  0.8061873E-01
        2   -1    0    0  501    0  0.00000000000E+00  0.00000000000E+00  0.23447801911E+04  0.23447801911E+04  0.25500000920E-02 0.  1.
       -2   -1    0    0    0  501  0.00000000000E+00  0.00000000000E+00 -0.14814811756E+04  0.14814811756E+04  0.25500000920E-02 0. -1.
    10030    2    1    2    0    0  0.00000000000E+00  0.00000000000E+00  0.86329901543E+03  0.38262613667E+04  0.37275985374E+04 0.  0.
        1    1    3    3  502    0 -0.10038108914E+04  0.47260032549E+03  0.19688727209E+04  0.22599661865E+04  0.50400001928E-02 0.  1.
       -1    1    3    3    0  502  0.10038108914E+04 -0.47260032549E+03 -0.11055737054E+04  0.15662951802E+04  0.50400001928E-02 0. -1.
</event>
<event>
 5   0  0.7362817E-08  0.3705265E+04  0.7818609E-02  0.8066796E-01
       -2   -1    0    0    0  501  0.00000000000E+00  0.00000000000E+00  0.15006909016E+04  0.15006909016E+04  0.25500000920E-02 0. -1.
        2   -1    0    0  501    0  0.00000000000E+00  0.00000000000E+00 -0.22871107508E+04  0.22871107508E+04  0.25500000920E-02 0.  1.
    10030    2    1    2    0    0  0.00000000000E+00  0.00000000000E+00 -0.78641984915E+03  0.37878016524E+04  0.37052645221E+04 0.  0.
        1    1    3    3  502    0 -0.11418346823E+03 -0.97216066014E+03 -0.20011790146E+04  0.22277458702E+04  0.50400001928E-02 0.  1.
       -1    1    3    3    0  502  0.11418346823E+03  0.97216066014E+03  0.12147591655E+04  0.15600557822E+04  0.50400001928E-02 0. -1.
</event>
<event>
 5   0  0.7191801E-08  0.3705188E+04  0.7818609E-02  0.8066813E-01
       -2   -1    0    0    0  501  0.00000000000E+00  0.00000000000E+00  0.18489834394E+04  0.18489834394E+04  0.25500000920E-02 0.  1.
        2   -1    0    0  501    0  0.00000000000E+00  0.00000000000E+00 -0.18562118089E+04  0.18562118089E+04  0.25500000920E-02 0. -1.
    10030    2    1    2    0    0  0.00000000000E+00  0.00000000000E+00 -0.72283694294E+01  0.37051952483E+04  0.37051881975E+04 0.  0.
        5    1    3    3  502    0  0.10503189424E+04  0.38343326082E+03 -0.14807398268E+04  0.18554793103E+04  0.46999998093E+01 0. -1.
       -5    1    3    3    0  502 -0.10503189424E+04 -0.38343326082E+03  0.14735114574E+04  0.18497159380E+04  0.46999998093E+01 0.  1.
</event>
<event>
 5   0  0.2282000E-08  0.3716143E+04  0.7818609E-02  0.8064394E-01
       -1   -1    0    0    0  501  0.00000000000E+00  0.00000000000E+00  0.13247146013E+04  0.13247146013E+04  0.50400001928E-02 0.  1.
        1   -1    0    0  501    0  0.00000000000E+00  0.00000000000E+00 -0.26061684581E+04  0.26061684581E+04  0.50400001928E-02 0. -1.
    10030    2    1    2    0    0  0.00000000000E+00  0.00000000000E+00 -0.12814538568E+04  0.39308830595E+04  0.37161428444E+04 0.  0.
        5    1    3    3  502    0 -0.25952071246E+03 -0.59343766494E+03  0.12014269941E+04  0.13649059215E+04  0.46999998093E+01 0.  1.
       -5    1    3    3    0  502  0.25952071246E+03  0.59343766494E+03 -0.24828808510E+04  0.25659771379E+04  0.46999998093E+01 0. -1.
</event>
<event>
 5   0  0.7254493E-08  0.3695416E+04  0.7818609E-02  0.8068979E-01
       -2   -1    0    0    0  501  0.00000000000E+00  0.00000000000E+00  0.22604075311E+04  0.22604075311E+04  0.25500000920E-02 0. -1.
        2   -1    0    0  501    0  0.00000000000E+00  0.00000000000E+00 -0.15103577983E+04  0.15103577983E+04  0.25500000920E-02 0.  1.
    10030    2    1    2    0    0  0.00000000000E+00  0.00000000000E+00  0.75004973286E+03  0.37707653294E+04  0.36954156150E+04 0.  0.
        3    1    3    3  502    0  0.14801690488E+04 -0.29071111819E+03  0.14638392725E+04  0.21019607021E+04  0.10100000352E+00 0.  1.
       -3    1    3    3    0  502 -0.14801690488E+04  0.29071111819E+03 -0.71378953960E+03  0.16688046274E+04  0.10100000352E+00 0. -1.
</event>
<event>
 5   0  0.2282000E-08  0.3702945E+04  0.7818609E-02  0.8067310E-01
       -1   -1    0    0    0  501  0.00000000000E+00  0.00000000000E+00  0.16278992569E+04  0.16278992569E+04  0.50400001928E-02 0. -1.
        1   -1    0    0  501    0  0.00000000000E+00  0.00000000000E+00 -0.21057503921E+04  0.21057503921E+04  0.50400001928E-02 0.  1.
    10030    2    1    2    0    0  0.00000000000E+00  0.00000000000E+00 -0.47785113522E+03  0.37336496489E+04  0.37029445032E+04 0.  0.
        4    1    3    3  502    0 -0.12682943845E+04  0.75204358542E+03  0.89009492184E+03  0.17223271417E+04  0.12699999809E+01 0. -1.
       -4    1    3    3    0  502  0.12682943845E+04 -0.75204358542E+03 -0.13679460571E+04  0.20113225072E+04  0.12699999809E+01 0.  1.
</event>
<event>
 5   0  0.2282000E-08  0.3700213E+04  0.7818609E-02  0.8067915E-01
        1   -1    0    0  501    0  0.00000000000E+00  0.00000000000E+00  0.18116341388E+04  0.18116341388E+04  0.50400001928E-02 0. -1.
       -1   -1    0    0    0  501  0.00000000000E+00  0.00000000000E+00 -0.18893957949E+04  0.18893957949E+04  0.50400001928E-02 0.  1.
    10030    2    1    2    0    0  0.00000000000E+00  0.00000000000E+00 -0.77761656087E+02  0.37010299337E+04  0.37002129256E+04 0.  0.
        1    1    3    3  502    0 -0.15466251899E+04 -0.17214941284E+03  0.96194443564E+03  0.18294868121E+04  0.50400001928E-02 0. -1.
       -1    1    3    3    0  502  0.15466251899E+04  0.17214941284E+03 -0.10397060917E+04  0.18715431215E+04  0.50400001928E-02 0.  1.
</event>
<event>
 5   0  0.2282000E-08  0.3697589E+04  0.7818609E-02  0.8068496E-01
       -1   -1    0    0    0  501  0.00000000000E+00  0.00000000000E+00  0.27831743762E+04  0.27831743762E+04  0.50400001928E-02 0.  1.
        1   -1    0    0  501    0  0.00000000000E+00  0.00000000000E+00 -0.12281086147E+04  0.12281086147E+04  0.50400001928E-02 0. -1.
    10030    2    1    2    0    0  0.00000000000E+00  0.00000000000E+00  0.15550657614E+04  0.40112829909E+04  0.36975886346E+04 0.  0.
        3    1    3    3  502    0 -0.12987798999E+04  0.28879395789E+03  0.21701065380E+04  0.25455045816E+04  0.10100000352E+00 0.  1.
       -3    1    3    3    0  502  0.12987798999E+04 -0.28879395789E+03 -0.61504077653E+03  0.14657784094E+04  0.10100000352E+00 0. -1.
</event>
<event>
 5   0  0.2282000E-08  0.3704135E+04  0.7818609E-02  0.8067046E-01
       -1   -1    0    0    0  501  0.00000000000E+00  0.00000000000E+00  0.20133825740E+04  0.20133825740E+04  0.50400001928E-02 0.  1.
        1   -1    0    0  501    0  0.00000000000E+00  0.00000000000E+00 -0.17036770364E+04  0.17036770364E+04  0.50400001928E-02 0. -1.
    10030    2    1    2    0    0  0.00000000000E+00  0.00000000000E+00  0.30970553763E+03  0.37170596104E+04  0.37041348014E+04 0.  0.
        3    1    3    3  502    0 -0.11195323819E+04  0.14387058072E+04 -0.17328438269E+03  0.18311894062E+04  0.10100000352E+00 0. -1.
       -3    1    3    3    0  502  0.11195323819E+04 -0.14387058072E+04  0.48298992032E+03  0.18858702042E+04  0.10100000352E+00 0.  1.
</event>
<event>
 5   0  0.7309833E-08  0.3699220E+04  0.7818609E-02  0.8068135E-01
       -2   -1    0    0    0  501  0.00000000000E+00  0.00000000000E+00  0.17966339201E+04  0.17966339201E+04  0.25500000920E-02 0. -1.
        2   -1    0    0  501    0  0.00000000000E+00  0.00000000000E+00 -0.19041485658E+04  0.19041485658E+04  0.25500000920E-02 0.  1.
    10030    2    1    2    0    0  0.00000000000E+00  0.00000000000E+00 -0.10751464574E+03  0.37007824859E+04  0.36992204055E+04 0.  0.
        2    1    3    3  502    0 -0.17910984755E+04  0.46138905413E+03 -0.65774630697E+02  0.18507403682E+04  0.25500000920E-02 0.  1.
       -2    1    3    3    0  502  0.17910984755E+04 -0.46138905413E+03 -0.41740015040E+02  0.18500421177E+04  0.25500000920E-02 0. -1.
</event>
<event>
 5   0  0.2282000E-08  0.3708004E+04  0.7818609E-02  0.8066190E-01
       -1   -1    0    0    0  501  0.00000000000E+00  0.00000000000E+00  0.18152485786E+04  0.18152485786E+04  0.50400001928E-02 0. -1.
        1   -1    0    0  501    0  0.00000000000E+00  0.00000000000E+00 -0.18935823449E+04  0.18935823449E+04  0.50400001928E-02 0.  1.
    10030    2    1    2    0    0  0.00000000000E+00  0.00000000000E+00 -0.78333766301E+02  0.37088309236E+04  0.37080035923E+04 0.  0.
        5    1    3    3  502    0 -0.89319512970E+03  0.16172465476E+04  0.11584070707E+03  0.18511415653E+04  0.46999998093E+01 0. -1.
       -5    1    3    3    0  502  0.89319512970E+03 -0.16172465476E+04 -0.19417447337E+03  0.18576893582E+04  0.46999998093E+01 0.  1.
</event>
<event>
 5   0  0.7191801E-08  0.3659386E+04  0.7818609E-02  0.8077022E-01
       -2   -1    0    0    0  501  0.00000000000E+00  0.00000000000E+00  0.17016147846E+04  0.17016147846E+04  0.25500000920E-02 0. -1.
        2   -1    0    0  501    0  0.00000000000E+00  0.00000000000E+00 -0.19674112391E+04  0.19674112391E+04  0.25500000920E-02 0.  1.
    10030    2    1    2    0    0  0.00000000000E+00  0.00000000000E+00 -0.26579645455E+03  0.36690260237E+04  0.36593857691E+04 0.  0.
        5    1    3    3  502    0 -0.10227925193E+04  0.83313262715E+03  0.11383296762E+04  0.17424210323E+04  0.46999998093E+01 0. -1.
       -5    1    3    3    0  502  0.10227925193E+04 -0.83313262715E+03 -0.14041261308E+04  0.19266049914E+04  0.46999998093E+01 0.  1.
</event>
<event>
 5   0  0.2282000E-08  0.3695592E+04  0.7818609E-02  0.8068939E-01
       -1   -1    0    0    0  501  0.00000000000E+00  0.00000000000E+00  0.21412395425E+04  0.21412395425E+04  0.50400001928E-02 0.  1.
        1   -1    0    0  501    0  0.00000000000E+00  0.00000000000E+00 -0.15945673499E+04  0.15945673499E+04  0.50400001928E-02 0. -1.
    10030    2    1    2    0    0  0.00000000000E+00  0.00000000000E+00  0.54667219268E+03  0.37358068924E+04  0.36955923275E+04 0.  0.
        2    1    3    3  502    0 -0.10080730946E+04  0.91981232746E+03 -0.98604756440E+03  0.16836139347E+04  0.25500000920E-02 0. -1.
       -2    1    3    3    0  502  0.10080730946E+04 -0.91981232746E+03  0.15327197571E+04  0.20521929577E+04  0.25500000920E-02 0.  1.
</event>
<event>
 5   0  0.2282000E-08  0.3696491E+04  0.7818609E-02  0.8068740E-01
        1   -1    0    0  501    0  0.00000000000E+00  0.00000000000E+00  0.17082644745E+04  0.17082644745E+04  0.50400001928E-02 0.  1.
       -1   -1    0    0    0  501  0.00000000000E+00  0.00000000000E+00 -0.19996967628E+04  0.19996967628E+04  0.50400001928E-02 0. -1.
    10030    2    1    2    0    0  0.00000000000E+00  0.00000000000E+00 -0.29143228833E+03  0.37079612373E+04  0.36964907356E+04 0.  0.
        2    1    3    3  502    0 -0.15470772273E+04  0.80364108522E+03 -0.76139920743E+03  0.19023710717E+04  0.25500000920E-02 0.  1.
       -2    1    3    3    0  502  0.15470772273E+04 -0.80364108522E+03  0.46996691910E+03  0.18055901656E+04  0.25500000920E-02 0. -1.
</event>
<event>
 5   0  0.2282000E-08  0.3695880E+04  0.7818609E-02  0.8068875E-01
       -1   -1    0    0    0  501  0.00000000000E+00  0.00000000000E+00  0.19221111129E+04  0.19221111129E+04  0.50400001928E-02 0.  1.
        1   -1    0    0  501    0  0.00000000000E+00  0.00000000000E+00 -0.17766312521E+04  0.17766312521E+04  0.50400001928E-02 0. -1.
    10030    2    1    2    0    0  0.00000000000E+00  0.00000000000E+00  0.14547986075E+03  0.36987423650E+04  0.36958802325E+04 0.  0.
        1    1    3    3  502    0 -0.15656095564E+01  0.17503670756E+04  0.66573176645E+03  0.18726948859E+04  0.50400001928E-02 0. -1.
       -1    1    3    3    0  502  0.15656095564E+01 -0.17503670756E+04 -0.52025190570E+03  0.18260474791E+04  0.50400001928E-02 0.  1.
</event>
<event>
 5   0  0.2282000E-08  0.3705627E+04  0.7818609E-02  0.8066716E-01
        1   -1    0    0  501    0  0.00000000000E+00  0.00000000000E+00  0.15840231376E+04  0.15840231376E+04  0.50400001928E-02 0. -1.
       -1   -1    0    0    0  501  0.00000000000E+00  0.00000000000E+00 -0.21672147977E+04  0.21672147977E+04  0.50400001928E-02 0.  1.
    10030    2    1    2    0    0  0.00000000000E+00  0.00000000000E+00 -0.58319166008E+03  0.37512379352E+04  0.37056272795E+04 0.  0.
        2    1    3    3  502    0  0.45985119808E+03 -0.16690154077E+04 -0.95990562876E+03  0.19795187222E+04  0.25500000920E-02 0.  1.
       -2    1    3    3    0  502 -0.45985119808E+03  0.16690154077E+04  0.37671396867E+03  0.17717192130E+04  0.25500000920E-02 0. -1.
</event>
<event>
 5   0  0.7362817E-08  0.3693875E+04  0.7818609E-02  0.8069321E-01
        2   -1    0    0  501    0  0.00000000000E+00  0.00000000000E+00  0.19633598265E+04  0.19633598265E+04  0.25500000920E-02 0. -1.
       -2   -1    0    0    0  501  0.00000000000E+00  0.00000000000E+00 -0.17374188804E+04  0.17374188804E+04  0.25500000920E-02 0.  1.
    10030    2    1    2    0    0  0.00000000000E+00  0.00000000000E+00  0.22594094608E+03  0.37007787070E+04  0.36938751639E+04 0.  0.
        1    1    3    3  502    0  0.10059343626E+04 -0.11262475034E+04  0.11783680021E+04  0.19154342926E+04  0.50400001928E-02 0. -1.
       -1    1    3    3    0  502 -0.10059343626E+04  0.11262475034E+04 -0.95242705601E+03  0.17853444144E+04  0.50400001928E-02 0.  1.
</event>
<event>
 5   0  0.7362817E-08  0.3686938E+04  0.7818609E-02  0.8070863E-01
       -2   -1    0    0    0  501  0.00000000000E+00  0.00000000000E+00  0.22210556338E+04  0.22210556338E+04  0.25500000920E-02 0.  1.
        2   -1    0    0  501    0  0.00000000000E+00  0.00000000000E+00 -0.15300732061E+04  0.15300732061E+04  0.25500000920E-02 0. -1.
    10030    2    1    2    0    0  0.00000000000E+00  0.00000000000E+00  0.69098242771E+03  0.37511288398E+04  0.36869378700E+04 0.  0.
        1    1    3    3  502    0  0.24757012328E+03 -0.18105535420E+04  0.59258293331E+03  0.19210803282E+04  0.50400001928E-02 0. -1.
       -1    1    3    3    0  502 -0.24757012328E+03  0.18105535420E+04  0.98399494401E+02  0.18300485116E+04  0.50400001928E-02 0.  1.
</event>
<event>
 5   0  0.2282000E-08  0.3702508E+04  0.7818609E-02  0.8067406E-01
       -1   -1    0    0    0  501  0.00000000000E+00  0.00000000000E+00  0.25370366702E+04  0.25370366702E+04  0.50400001928E-02 0. -1.
        1   -1    0    0  501    0  0.00000000000E+00  0.00000000000E+00 -0.13508441896E+04  0.13508441896E+04  0.50400001928E-02 0.  1.
    10030    2    1    2    0    0  0.00000000000E+00  0.00000000000E+00  0.11861924806E+04  0.38878808598E+04  0.37025079310E+04 0.  0.
        4    1    3    3  502    0  0.10852160105E+04 -0.39678801387E+03 -0.92569583156E+03  0.14805569570E+04  0.12699999809E+01 0.  1.
       -4    1    3    3    0  502 -0.10852160105E+04  0.39678801387E+03  0.21118883122E+04  0.24073239029E+04  0.12699999809E+01 0. -1.
</event>
<event>
 5   0  0.7191801E-08  0.3698960E+04  0.7818609E-02  0.8068192E-01
       -2   -1    0    0    0  501  0.00000000000E+00  0.00000000000E+00  0.21304794946E+04  0.21304794946E+04  0.25500000920E-02 0.  1.
        2   -1    0    0  501    0  0.00000000000E+00  0.00000000000E+00 -0.16055425068E+04  0.16055425068E+04  0.25500000920E-02 0. -1.
    10030    2    1    2    0    0  0.00000000000E+00  0.00000000000E+00  0.52493698777E+03  0.37360220015E+04  0.36989595232E+04 0.  0.
        5    1    3    3  502    0 -0.13407036314E+03  0.33532375224E+03  0.20945162860E+04  0.21254264145E+04  0.46999998093E+01 0.  1.
       -5    1    3    3    0  502  0.13407036314E+03 -0.33532375224E+03 -0.15695792983E+04  0.16105955869E+04  0.46999998093E+01 0. -1.
</event>
<event>
 5   0  0.2282000E-08  0.3642309E+04  0.7818609E-02  0.8080868E-01
        1   -1    0    0  501    0  0.00000000000E+00  0.00000000000E+00  0.13844512151E+04  0.13844512151E+04  0.50400001928E-02 0.  1.
       -1   -1    0    0    0  501  0.00000000000E+00  0.00000000000E+00 -0.23956091280E+04  0.23956091280E+04  0.50400001928E-02 0. -1.
    10030    2    1    2    0    0  0.00000000000E+00  0.00000000000E+00 -0.10111579129E+04  0.37800603431E+04  0.36423091402E+04 0.  0.
        5    1    3    3  502    0  0.12712882787E+04  0.26700123577E+03 -0.18302201126E+04  0.22443687972E+04  0.46999998093E+01 0. -1.
       -5    1    3    3    0  502 -0.12712882787E+04 -0.26700123577E+03  0.81906219963E+03  0.15356915459E+04  0.46999998093E+01 0.  1.
</event>
<event>
 5   0  0.2282000E-08  0.3702899E+04  0.7818609E-02  0.8067320E-01
       -1   -1    0    0    0  501  0.00000000000E+00  0.00000000000E+00  0.28612674154E+04  0.28612674154E+04  0.50400001928E-02 0. -1.
        1   -1    0    0  501    0  0.00000000000E+00  0.00000000000E+00 -0.11980235381E+04  0.11980235381E+04  0.50400001928E-02 0.  1.
    10030    2    1    2    0    0  0.00000000000E+00  0.00000000000E+00  0.16632438774E+04  0.40592909535E+04  0.37028992492E+04 0.  0.
        2    1    3    3  502    0  0.71192921564E+03  0.85239983272E+03 -0.79231756596E+03  0.13642565038E+04  0.25500000920E-02 0.  1.
       -2    1    3    3    0  502 -0.71192921564E+03 -0.85239983272E+03  0.24555614433E+04  0.26950344497E+04  0.25500000920E-02 0. -1.
</event>
<event>
 5   0  0.7191801E-08  0.3708136E+04  0.7818609E-02  0.8066161E-01
       -2   -1    0    0    0  501  0.00000000000E+00  0.00000000000E+00  0.15887288856E+04  0.15887288856E+04  0.25500000920E-02 0.  1.
        2   -1    0    0  501    0  0.00000000000E+00  0.00000000000E+00 -0.21637219133E+04  0.21637219133E+04  0.25500000920E-02 0. -1.
    10030    2    1    2    0    0  0.00000000000E+00  0.00000000000E+00 -0.57499302776E+03  0.37524507989E+04  0.37081356523E+04 0.  0.
        5    1    3    3  502    0  0.14039552295E+04 -0.11663905464E+04  0.41952486711E+02  0.18257434908E+04  0.46999998093E+01 0.  1.
       -5    1    3    3    0  502 -0.14039552295E+04  0.11663905464E+04 -0.61694551447E+03  0.19267073081E+04  0.46999998093E+01 0. -1.
</event>
<event>
 5   0  0.7362817E-08  0.3694611E+04  0.7818609E-02  0.8069157E-01
       -2   -1    0    0    0  501  0.00000000000E+00  0.00000000000E+00  0.12655668981E+04  0.12655668981E+04  0.25500000920E-02 0.  1.
        2   -1    0    0  501    0  0.00000000000E+00  0.00000000000E+00 -0.26964495913E+04  0.26964495913E+04  0.25500000920E-02 0. -1.
    10030    2    1    2    0    0  0.00000000000E+00  0.00000000000E+00 -0.14308826932E+04  0.39620164894E+04  0.36946108564E+04 0.  0.
        1    1    3    3  502    0 -0.38953157114E+03  0.41332273297E+03 -0.26004983365E+04  0.26617967850E+04  0.50400001928E-02 0. -1.
       -1    1    3    3    0  502  0.38953157114E+03 -0.41332273297E+03  0.11696156433E+04  0.13002197044E+04  0.50400001928E-02 0.  1.
</event>
<event>
 5   0  0.2282000E-08  0.3699162E+04  0.7818609E-02  0.8068148E-01
        1   -1    0    0  501    0  0.00000000000E+00  0.00000000000E+00  0.15442341734E+04  0.15442341734E+04  0.50400001928E-02 0. -1.
       -1   -1    0    0    0  501  0.00000000000E+00  0.00000000000E+00 -0.22153051197E+04  0.22153051197E+04  0.50400001928E-02 0.  1.
    10030    2    1    2    0    0  0.00000000000E+00  0.00000000000E+00 -0.67107094630E+03  0.37595392932E+04  0.36991619973E+04 0.  0.
        4    1    3    3  502    0 -0.82339183394E+03 -0.16761420516E+03  0.13390470966E+04  0.15808596946E+04  0.12699999809E+01 0. -1.
       -4    1    3    3    0  502  0.82339183394E+03  0.16761420516E+03 -0.20101180429E+04  0.21786795986E+04  0.12699999809E+01 0.  1.
</event>
<event>
 5   0  0.2282000E-08  0.3695651E+04  0.7818609E-02  0.8068926E-01
       -3   -1    0    0    0  501  0.00000000000E+00  0.00000000000E+00  0.11638730431E+04  0.11638730475E+04  0.10100000352E+00 0. -1.
        3   -1    0    0  501    0  0.00000000000E+00  0.00000000000E+00 -0.29337038876E+04  0.29337038893E+04  0.10100000352E+00 0.  1.
    10030    2    1    2    0    0  0.00000000000E+00  0.00000000000E+00 -0.17698308445E+04  0.40975769369E+04  0.36956508947E+04 0.  0.
        1    1    3    3  502    0  0.99912079505E+03 -0.59102346276E+03 -0.24789462937E+04  0.27372843885E+04  0.50400001928E-02 0.  1.
       -1    1    3    3    0  502 -0.99912079505E+03  0.59102346276E+03  0.70911544923E+03  0.13602925483E+04  0.50400001928E-02 0. -1.
</event>
<event>
 5   0  0.2282000E-08  0.3704471E+04  0.7818609E-02  0.8066972E-01
        1   -1    0    0  501    0  0.00000000000E+00  0.00000000000E+00  0.15791588676E+04  0.15791588676E+04  0.50400001928E-02 0.  1.
       -1   -1    0    0    0  501  0.00000000000E+00  0.00000000000E+00 -0.21725338755E+04  0.21725338755E+04  0.50400001928E-02 0. -1.
    10030    2    1    2    0    0  0.00000000000E+00  0.00000000000E+00 -0.59337500796E+03  0.37516927431E+04  0.37044708851E+04 0.  0.
        5    1    3    3  502    0  0.67179257113E+03 -0.36470956246E+02 -0.20444083886E+04  0.21522692998E+04  0.46999998093E+01 0. -1.
       -5    1    3    3    0  502 -0.67179257113E+03  0.36470956246E+02  0.14510333807E+04  0.15994234433E+04  0.46999998093E+01 0.  1.
</event>
<event>
 5   0  0.2282000E-08  0.3694622E+04  0.7818609E-02  0.8069155E-01
        1   -1    0    0  501    0  0.00000000000E+00  0.00000000000E+00  0.17834616652E+04  0.17834616652E+04  0.50400001928E-02 0. -1.
       -1   -1    0    0    0  501  0.00000000000E+00  0.00000000000E+00 -0.19134457039E+04  0.19134457039E+04  0.50400001928E-02 0.  1.
    10030    2    1    2    0    0  0.00000000000E+00  0.00000000000E+00 -0.12998403865E+03  0.36969073691E+04  0.36946215294E+04 0.  0.
        3    1    3    3  502    0  0.64389152757E+03  0.23780950982E+03 -0.17811062860E+04  0.19087926222E+04  0.10100000352E+00 0.  1.
       -3    1    3    3    0  502 -0.64389152757E+03 -0.23780950982E+03  0.16511222474E+04  0.17881147469E+04  0.10100000352E+00 0. -1.
</event>
<event>
 5   0  0.2282000E-08  0.3720949E+04  0.7818609E-02  0.8063335E-01
       -1   -1    0    0    0  501  0.00000000000E+00  0.00000000000E+00  0.14380794592E+04  0.14380794592E+04  0.50400001928E-02 0. -1.
        1   -1    0    0  501    0  0.00000000000E+00  0.00000000000E+00 -0.24069365984E+04  0.24069365985E+04  0.50400001928E-02 0.  1.
    10030    2    1    2    0    0  0.00000000000E+00  0.00000000000E+00 -0.96885713925E+03  0.38450160577E+04  0.37209493852E+04 0.  0.
        5    1    3    3  502    0  0.11651562241E+04  0.12740563473E+04 -0.12007485808E+04  0.21030044810E+04  0.46999998093E+01 0.  1.
       -5    1    3    3    0  502 -0.11651562241E+04 -0.12740563473E+04  0.23189144158E+03  0.17420115767E+04  0.46999998093E+01 0. -1.
</event>
<event>
 5   0  0.2282000E-08  0.3713908E+04  0.7818609E-02  0.8064887E-01
        1   -1    0    0  501    0  0.00000000000E+00  0.00000000000E+00  0.12830277025E+04  0.12830277025E+04  0.50400001928E-02 0.  1.
       -1   -1    0    0    0  501  0.00000000000E+00  0.00000000000E+00 -0.26876097873E+04  0.26876097873E+04  0.50400001928E-02 0. -1.
    10030    2    1    2    0    0  0.00000000000E+00  0.00000000000E+00 -0.14045820848E+04  0.39706374898E+04  0.37139078129E+04 0.  0.
        4    1    3    3  502    0  0.15928616182E+04  0.88399604959E+03 -0.10872048868E+04  0.21214790193E+04  0.12699999809E+01 0. -1.
       -4    1    3    3    0  502 -0.15928616182E+04 -0.88399604959E+03 -0.31737719799E+03  0.18491584705E+04  0.12699999809E+01 0.  1.
</event>
<event>
 5   0  0.2282000E-08  0.3760612E+04  0.7818609E-02  0.8054661E-01
        1   -1    0    0  501    0  0.00000000000E+00  0.00000000000E+00  0.20516755397E+04  0.20516755397E+04  0.50400001928E-02 0.  1.
       -1   -1    0    0    0  501  0.00000000000E+00  0.00000000000E+00 -0.17232499626E+04  0.17232499626E+04  0.50400001928E-02 0. -1.
    10030    2    1    2    0    0  0.00000000000E+00  0.00000000000E+00  0.32842557707E+03  0.37749255022E+04  0.37606115444E+04 0.  0.
        5    1    3    3  502    0  0.11472011165E+04 -0.11511260130E+04 -0.78509621781E+03  0.18048710925E+04  0.46999998093E+01 0. -1.
       -5    1    3    3    0  502 -0.11472011165E+04  0.11511260130E+04  0.11135217949E+04  0.19700544097E+04  0.46999998093E+01 0.  1.
</event>
<event>
 5   0  0.7203049E-08  0.3697069E+04  0.7818609E-02  0.8068612E-01
       -2   -1    0    0    0  501  0.00000000000E+00  0.00000000000E+00  0.11746690244E+04  0.11746690244E+04  0.25500000920E-02 0.  1.
        2   -1    0    0  501    0  0.00000000000E+00  0.00000000000E+00 -0.29089720979E+04  0.29089720979E+04  0.25500000920E-02 0. -1.
    10030    2    1    2    0    0  0.00000000000E+00  0.00000000000E+00 -0.17343030735E+04  0.40836411224E+04  0.36970687937E+04 0.  0.
        4    1    3    3  502    0 -0.14377726477E+04  0.32144675700E+03  0.36608550387E+03  0.15180706219E+04  0.12699999809E+01 0.  1.
       -4    1    3    3    0  502  0.14377726477E+04 -0.32144675700E+03 -0.21003885773E+04  0.25655705005E+04  0.12699999809E+01 0. -1.
</event>
<event>
 5   0  0.2282000E-08  0.3707105E+04  0.7818609E-02  0.8066389E-01
        1   -1    0    0  501    0  0.00000000000E+00  0.00000000000E+00  0.21992209725E+04  0.21992209725E+04  0.50400001928E-02 0. -1.
       -1   -1    0    0    0  501  0.00000000000E+00  0.00000000000E+00 -0.15622149948E+04  0.15622149948E+04  0.50400001928E-02 0.  1.
    10030    2    1    2    0    0  0.00000000000E+00  0.00000000000E+00  0.63700597770E+03  0.37614359672E+04  0.37071045197E+04 0.  0.
        5    1    3    3  502    0 -0.43383727612E+03  0.16706184152E+04  0.10040180156E+04  0.19968111921E+04  0.46999998093E+01 0.  1.
       -5    1    3    3    0  502  0.43383727612E+03 -0.16706184152E+04 -0.36701203786E+03  0.17646247752E+04  0.46999998093E+01 0. -1.
</event>
<event>
 5   0  0.7254493E-08  0.3701333E+04  0.7818609E-02  0.8067667E-01
        2   -1    0    0  501    0  0.00000000000E+00  0.00000000000E+00  0.25215673317E+04  0.25215673317E+04  0.25500000920E-02 0.  1.
       -2   -1    0    0    0  501  0.00000000000E+00  0.00000000000E+00 -0.13582688094E+04  0.13582688094E+04  0.25500000920E-02 0. -1.
    10030    2    1    2    0    0  0.00000000000E+00  0.00000000000E+00  0.11632985222E+04  0.38798361411E+04  0.37013328721E+04 0.  0.
        3    1    3    3  502    0  0.79539566147E+03  0.13286530527E+04  0.16439292325E+04  0.22584234599E+04  0.10100000352E+00 0.  1.
       -3    1    3    3    0  502 -0.79539566147E+03 -0.13286530527E+04 -0.48063071026E+03  0.16214126812E+04  0.10100000352E+00 0. -1.
</event>
<event>
 5   0  0.7254493E-08  0.3700024E+04  0.7818609E-02  0.8067957E-01
       -2   -1    0    0    0  501  0.00000000000E+00  0.00000000000E+00  0.10928842887E+04  0.10928842887E+04  0.25500000920E-02 0. -1.
        2   -1    0    0  501    0  0.00000000000E+00  0.00000000000E+00 -0.31316621437E+04  0.31316621437E+04  0.25500000920E-02 0.  1.
    10030    2    1    2    0    0  0.00000000000E+00  0.00000000000E+00 -0.20387778551E+04  0.42245464324E+04  0.37000239752E+04 0.  0.
        3    1    3    3  502    0 -0.17726473427E+04  0.36023928665E+03 -0.14623180898E+04  0.23260320615E+04  0.10100000352E+00 0.  1.
       -3    1    3    3    0  502  0.17726473427E+04 -0.36023928665E+03 -0.57645976530E+03  0.18985143709E+04  0.10100000352E+00 0. -1.
</event>
<event>
 5   0  0.2282000E-08  0.3703312E+04  0.7818609E-02  0.8067228E-01
        1   -1    0    0  501    0  0.00000000000E+00  0.00000000000E+00  0.23180039485E+04  0.23180039485E+04  0.50400001928E-02 0. -1.
       -1   -1    0    0    0  501  0.00000000000E+00  0.00000000000E+00 -0.14791301462E+04  0.14791301462E+04  0.50400001928E-02 0.  1.
    10030    2    1    2    0    0  0.00000000000E+00  0.00000000000E+00  0.83887380225E+03  0.37971340947E+04  0.37033117715E+04 0.  0.
        2    1    3    3  502    0 -0.14122330379E+04 -0.10240628854E+03  0.16428723236E+04  0.21688519251E+04  0.25500000920E-02 0. -1.
       -2    1    3    3    0  502  0.14122330379E+04  0.10240628854E+03 -0.80399852136E+03  0.16282821696E+04  0.25500000920E-02 0.  1.
</event>
<event>
 5   0  0.7191801E-08  0.3694272E+04  0.7818609E-02  0.8069233E-01
       -2   -1    0    0    0  501  0.00000000000E+00  0.00000000000E+00  0.18151376135E+04  0.18151376135E+04  0.25500000920E-02 0. -1.
        2   -1    0    0  501    0  0.00000000000E+00  0.00000000000E+00 -0.18796979654E+04  0.18796979654E+04  0.25500000920E-02 0.  1.
    10030    2    1    2    0    0  0.00000000000E+00  0.00000000000E+00 -0.64560351960E+02  0.36948355789E+04  0.36942715000E+04 0.  0.
        5    1    3    3  502    0 -0.17242369987E+02 -0.63297698846E+03 -0.17677486346E+04  0.18777418599E+04  0.46999998093E+01 0.  1.
       -5    1    3    3    0  502  0.17242369987E+02  0.63297698846E+03  0.17031882827E+04  0.18170937190E+04  0.46999998093E+01 0. -1.
</event>
<event>
 5   0  0.2282000E-08  0.3695553E+04  0.7818609E-02  0.8068948E-01
        1   -1    0    0  501    0  0.00000000000E+00  0.00000000000E+00  0.26811095321E+04  0.26811095321E+04  0.50400001928E-02 0. -1.
       -1   -1    0    0    0  501  0.00000000000E+00  0.00000000000E+00 -0.12734573398E+04  0.12734573398E+04  0.50400001928E-02 0.  1.
    10030    2    1    2    0    0  0.00000000000E+00  0.00000000000E+00  0.14076521923E+04  0.39545668719E+04  0.36955533348E+04 0.  0.
        5    1    3    3  502    0  0.17689029878E+04 -0.50611460880E+03  0.52132435570E+03  0.19123208286E+04  0.46999998093E+01 0. -1.
       -5    1    3    3    0  502 -0.17689029878E+04  0.50611460880E+03  0.88632783661E+03  0.20422460433E+04  0.46999998093E+01 0.  1.
</event>
<event>
 5   0  0.2282000E-08  0.3699676E+04  0.7818609E-02  0.8068034E-01
        1   -1    0    0  501    0  0.00000000000E+00  0.00000000000E+00  0.31426668032E+04  0.31426668032E+04  0.50400001928E-02 0. -1.
       -1   -1    0    0    0  501  0.00000000000E+00  0.00000000000E+00 -0.10888526833E+04  0.10888526833E+04  0.50400001928E-02 0.  1.
    10030    2    1    2    0    0  0.00000000000E+00  0.00000000000E+00  0.20538141199E+04  0.42315194865E+04  0.36996763002E+04 0.  0.
        2    1    3    3  502    0  0.10288495190E+04  0.12869079455E+04  0.65039348339E+02  0.16489067620E+04  0.25500000920E-02 0.  1.
       -2    1    3    3    0  502 -0.10288495190E+04 -0.12869079455E+04  0.19887747716E+04  0.25826127245E+04  0.25500000920E-02 0. -1.
</event>
<event>
 5   0  0.7191801E-08  0.3696908E+04  0.7818609E-02  0.8068647E-01
       -2   -1    0    0    0  501  0.00000000000E+00  0.00000000000E+00  0.11238359553E+04  0.11238359553E+04  0.25500000920E-02 0. -1.
        2   -1    0    0  501    0  0.00000000000E+00  0.00000000000E+00 -0.30402859699E+04  0.30402859699E+04  0.25500000920E-02 0.  1.
    10030    2    1    2    0    0  0.00000000000E+00  0.00000000000E+00 -0.19164500146E+04  0.41641219252E+04  0.36969082690E+04 0.  0.
        5    1    3    3  502    0  0.22482524821E+03 -0.10923697449E+04  0.70216030972E+03  0.13179033509E+04  0.46999998093E+01 0. -1.
       -5    1    3    3    0  502 -0.22482524821E+03  0.10923697449E+04 -0.26186103244E+04  0.28462185743E+04  0.46999998093E+01 0.  1.
</event>
<event>
 5   0  0.7362817E-08  0.3697593E+04  0.7818609E-02  0.8068495E-01
        2   -1    0    0  501    0  0.00000000000E+00  0.00000000000E+00  0.25100976294E+04  0.25100976294E+04  0.25500000920E-02 0.  1.
       -2   -1    0    0    0  501  0.00000000000E+00  0.00000000000E+00 -0.13617192678E+04  0.13617192678E+04  0.25500000920E-02 0. -1.
    10030    2    1    2    0    0  0.00000000000E+00  0.00000000000E+00  0.11483783616E+04  0.38718168973E+04  0.36975928960E+04 0.  0.
        1    1    3    3  502    0 -0.15023596790E+04 -0.44739335621E+03 -0.45220189305E+03  0.16314815268E+04  0.50400001928E-02 0. -1.
       -1    1    3    3    0  502  0.15023596790E+04  0.44739335621E+03  0.16005802547E+04  0.22403353704E+04  0.50400001928E-02 0.  1.
</event>
<event>
 5   0  0.2282000E-08  0.3695228E+04  0.7818609E-02  0.8069020E-01
        1   -1    0    0  501    0  0.00000000000E+00  0.00000000000E+00  0.18658203734E+04  0.18658203734E+04  0.50400001928E-02 0. -1.
       -1   -1    0    0    0  501  0.00000000000E+00  0.00000000000E+00 -0.18295856831E+04  0.18295856831E+04  0.50400001928E-02 0.  1.
    10030    2    1    2    0    0  0.00000000000E+00  0.00000000000E+00  0.36234690296E+02  0.36954060566E+04  0.36952284057E+04 0.  0.
        2    1    3    3  502    0  0.63307837705E+03  0.17153533769E+04 -0.24732488541E+03  0.18451002786E+04  0.25500000920E-02 0. -1.
       -2    1    3    3    0  502 -0.63307837705E+03 -0.17153533769E+04  0.28355957570E+03  0.18503057780E+04  0.25500000920E-02 0.  1.
</event>
<event>
 5   0  0.7362817E-08  0.3698780E+04  0.7818609E-02  0.8068232E-01
        2   -1    0    0  501    0  0.00000000000E+00  0.00000000000E+00  0.24473640187E+04  0.24473640187E+04  0.25500000920E-02 0. -1.
       -2   -1    0    0    0  501  0.00000000000E+00  0.00000000000E+00 -0.13975216548E+04  0.13975216548E+04  0.25500000920E-02 0.  1.
    10030    2    1    2    0    0  0.00000000000E+00  0.00000000000E+00  0.10498423639E+04  0.38448856735E+04  0.36987804548E+04 0.  0.
        1    1    3    3  502    0 -0.19318136377E+03  0.17046821353E+04 -0.19300001844E+03  0.17264151381E+04  0.50400001928E-02 0.  1.
       -1    1    3    3    0  502  0.19318136377E+03 -0.17046821353E+04  0.12428423824E+04  0.21184705354E+04  0.50400001928E-02 0. -1.
</event>
<event>
 5   0  0.2282000E-08  0.3695643E+04  0.7818609E-02  0.8068928E-01
        1   -1    0    0  501    0  0.00000000000E+00  0.00000000000E+00  0.18555935826E+04  0.18555935826E+04  0.50400001928E-02 0. -1.
       -1   -1    0    0    0  501  0.00000000000E+00  0.00000000000E+00 -0.18400815594E+04  0.18400815594E+04  0.50400001928E-02 0.  1.
    10030    2    1    2    0    0  0.00000000000E+00  0.00000000000E+00  0.15512023204E+02  0.36956751420E+04  0.36956425872E+04 0.  0.
        4    1    3    3  502    0  0.93934442039E+03 -0.14678841607E+04  0.62208224392E+03  0.18504161101E+04  0.12699999809E+01 0.  1.
       -4    1    3    3    0  502 -0.93934442039E+03  0.14678841607E+04 -0.60657022072E+03  0.18452590319E+04  0.12699999809E+01 0. -1.
</event>
<event>
 5   0  0.7254493E-08  0.3701127E+04  0.7818609E-02  0.8067712E-01
       -2   -1    0    0    0  501  0.00000000000E+00  0.00000000000E+00  0.26272540800E+04  0.26272540800E+04  0.25500000920E-02 0. -1.
        2   -1    0    0  501    0  0.00000000000E+00  0.00000000000E+00 -0.13034845621E+04  0.13034845621E+04  0.25500000920E-02 0.  1.
    10030    2    1    2    0    0  0.00000000000E+00  0.00000000000E+00  0.13237695179E+04  0.39307386421E+04  0.37011269278E+04 0.  0.
        3    1    3    3  502    0 -0.46762216787E+03  0.17180073086E+04  0.12624931282E+03  0.17849813734E+04  0.10100000352E+00 0.  1.
       -3    1    3    3    0  502  0.46762216787E+03 -0.17180073086E+04  0.11975202051E+04  0.21457572687E+04  0.10100000352E+00 0. -1.
</event>
<event>
 5   0  0.2282000E-08  0.3694055E+04  0.7818609E-02  0.8069281E-01
        1   -1    0    0  501    0  0.00000000000E+00  0.00000000000E+00  0.11434638814E+04  0.11434638814E+04  0.50400001928E-02 0.  1.
       -1   -1    0    0    0  501  0.00000000000E+00  0.00000000000E+00 -0.29834876879E+04  0.29834876879E+04  0.50400001928E-02 0. -1.
    10030    2    1    2    0    0  0.00000000000E+00  0.00000000000E+00 -0.18400238065E+04  0.41269515693E+04  0.36940549058E+04 0.  0.
        4    1    3    3  502    0  0.86468191259E+03 -0.10867070302E+04 -0.22804607762E+04  0.26700393151E+04  0.12699999809E+01 0. -1.
       -4    1    3    3    0  502 -0.86468191259E+03  0.10867070302E+04  0.44043696966E+03  0.14569122542E+04  0.12699999809E+01 0.  1.
</event>
<event>
 5   0  0.7254493E-08  0.3703952E+04  0.7818609E-02  0.8067087E-01
       -2   -1    0    0    0  501  0.00000000000E+00  0.00000000000E+00  0.12991626202E+04  0.12991626202E+04  0.25500000920E-02 0.  1.
        2   -1    0    0  501    0  0.00000000000E+00  0.00000000000E+00 -0.26400192957E+04  0.26400192957E+04  0.25500000920E-02 0. -1.
    10030    2    1    2    0    0  0.00000000000E+00  0.00000000000E+00 -0.13408566755E+04  0.39391819159E+04  0.37039516118E+04 0.  0.
        3    1    3    3  502    0 -0.11655846378E+04  0.14253109431E+04 -0.88237226932E+03  0.20417344744E+04  0.10100000352E+00 0. -1.
       -3    1    3    3    0  502  0.11655846378E+04 -0.14253109431E+04 -0.45848440616E+03  0.18974474415E+04  0.10100000352E+00 0.  1.
</event>
<event>
 5   0  0.7203049E-08  0.3697642E+04  0.7818609E-02  0.8068485E-01
        2   -1    0    0  501    0  0.00000000000E+00  0.00000000000E+00  0.27973222083E+04  0.27973222083E+04  0.25500000920E-02 0.  1.
       -2   -1    0    0    0  501  0.00000000000E+00  0.00000000000E+00 -0.12219327182E+04  0.12219327182E+04  0.25500000920E-02 0. -1.
    10030    2    1    2    0    0  0.00000000000E+00  0.00000000000E+00  0.15753894901E+04  0.40192549265E+04  0.36976422378E+04 0.  0.
        4    1    3    3  502    0 -0.72222314293E+03 -0.12168588409E+04 -0.50566548521E+03  0.15026812379E+04  0.12699999809E+01 0. -1.
       -4    1    3    3    0  502  0.72222314293E+03  0.12168588409E+04  0.20810549753E+04  0.25165736886E+04  0.12699999809E+01 0.  1.
</event>
<event>
 5   0  0.7309833E-08  0.3697456E+04  0.7818609E-02  0.8068526E-01
       -2   -1    0    0    0  501  0.00000000000E+00  0.00000000000E+00  0.14902402606E+04  0.14902402606E+04  0.25500000920E-02 0. -1.
        2   -1    0    0  501    0  0.00000000000E+00  0.00000000000E+00 -0.22934520434E+04  0.22934520434E+04  0.25500000920E-02 0.  1.
    10030    2    1    2    0    0  0.00000000000E+00  0.00000000000E+00 -0.80321178281E+03  0.37836923041E+04  0.36974556500E+04 0.  0.
        2    1    3    3  502    0  0.11416157737E+04  0.67301690383E+03  0.91747175754E+03  0.16118290087E+04  0.25500000920E-02 0. -1.
       -2    1    3    3    0  502 -0.11416157737E+04 -0.67301690383E+03 -0.17206835404E+04  0.21718632953E+04  0.25500000920E-02 0.  1.
</event>
<event>
 5   0  0.7309833E-08  0.3709802E+04  0.7818609E-02  0.8065793E-01
        2   -1    0    0  501    0  0.00000000000E+00  0.00000000000E+00  0.24455021960E+04  0.24455021960E+04  0.25500000920E-02 0.  1.
       -2   -1    0    0    0  501  0.00000000000E+00  0.00000000000E+00 -0.14069333293E+04  0.14069333293E+04  0.25500000920E-02 0. -1.
    10030    2    1    2    0    0  0.00000000000E+00  0.00000000000E+00  0.10385688667E+04  0.38524355253E+04  0.37098024456E+04 0.  0.
        2    1    3    3  502    0  0.24070353771E+03  0.37894797518E+03 -0.13496670747E+04  0.14223716017E+04  0.25500000920E-02 0. -1.
       -2    1    3    3    0  502 -0.24070353771E+03 -0.37894797518E+03  0.23882359414E+04  0.24300639236E+04  0.25500000920E-02 0.  1.
</event>
<event>
 5   0  0.2282000E-08  0.3707078E+04  0.7818609E-02  0.8066395E-01
        1   -1    0    0  501    0  0.00000000000E+00  0.00000000000E+00  0.14263475945E+04  0.14263475945E+04  0.50400001928E-02 0.  1.
       -1   -1    0    0    0  501  0.00000000000E+00  0.00000000000E+00 -0.24086738835E+04  0.24086738835E+04  0.50400001928E-02 0. -1.
    10030    2    1    2    0    0  0.00000000000E+00  0.00000000000E+00 -0.98232628902E+03  0.38350214779E+04  0.37070776628E+04 0.  0.
        4    1    3    3  502    0 -0.18036781972E+04  0.42414145499E+03 -0.43992001125E+03  0.19043850036E+04  0.12699999809E+01 0. -1.
       -4    1    3    3    0  502  0.18036781972E+04 -0.42414145499E+03 -0.54240627777E+03  0.19306364743E+04  0.12699999809E+01 0.  1.
</event>
<event>
 5   0  0.7309833E-08  0.3700239E+04  0.7818609E-02  0.8067909E-01
        2   -1    0    0  501    0  0.00000000000E+00  0.00000000000E+00  0.15409883636E+04  0.15409883636E+04  0.25500000920E-02 0. -1.
       -2   -1    0    0    0  501  0.00000000000E+00  0.00000000000E+00 -0.22212646975E+04  0.22212646975E+04  0.25500000920E-02 0.  1.
    10030    2    1    2    0    0  0.00000000000E+00  0.00000000000E+00 -0.68027633396E+03  0.37622530611E+04  0.37002394795E+04 0.  0.
        2    1    3    3  502    0 -0.85124887486E+03  0.76255873929E+02 -0.20085232786E+04  0.21827976008E+04  0.25500000920E-02 0.  1.
       -2    1    3    3    0  502  0.85124887486E+03 -0.76255873929E+02  0.13282469447E+04  0.15794554604E+04  0.25500000920E-02 0. -1.
</event>
<event>
 5   0  0.7191801E-08  0.3697327E+04  0.7818609E-02  0.8068554E-01
       -2   -1    0    0    0  501  0.00000000000E+00  0.00000000000E+00  0.14513430788E+04  0.14513430788E+04  0.25500000920E-02 0. -1.
        2   -1    0    0  501    0  0.00000000000E+00  0.00000000000E+00 -0.23547547748E+04  0.23547547748E+04  0.25500000920E-02 0.  1.
    10030    2    1    2    0    0  0.00000000000E+00  0.00000000000E+00 -0.90341169594E+03  0.38060978536E+04  0.36973271669E+04 0.  0.
        5    1    3    3  502    0 -0.10400898331E+04 -0.81513856370E+03  0.87911290695E+03  0.15871670776E+04  0.46999998093E+01 0. -1.
       -5    1    3    3    0  502  0.10400898331E+04  0.81513856370E+03 -0.17825246029E+04  0.22189307760E+04  0.46999998093E+01 0.  1.
</event>
<event>
 5   0  0.7191801E-08  0.3700330E+04  0.7818609E-02  0.8067889E-01
       -2   -1    0    0    0  501  0.00000000000E+00  0.00000000000E+00  0.14657993230E+04  0.14657993230E+04  0.25500000920E-02 0. -1.
        2   -1    0    0  501    0  0.00000000000E+00  0.00000000000E+00 -0.23353194427E+04  0.23353194427E+04  0.25500000920E-02 0.  1.
    10030    2    1    2    0    0  0.00000000000E+00  0.00000000000E+00 -0.86952011970E+03  0.38011187657E+04  0.37003295303E+04 0.  0.
        5    1    3    3  502    0 -0.32502002570E+03 -0.14847153082E+04  0.64899784309E+03  0.16526457133E+04  0.46999998093E+01 0. -1.
       -5    1    3    3    0  502  0.32502002570E+03  0.14847153082E+04 -0.15185179628E+04  0.21484730524E+04  0.46999998093E+01 0.  1.
</event>
<event>
 5   0  0.7254493E-08  0.3695315E+04  0.7818609E-02  0.8069001E-01
        2   -1    0    0  501    0  0.00000000000E+00  0.00000000000E+00  0.15897296006E+04  0.15897296006E+04  0.25500000920E-02 0.  1.
       -2   -1    0    0    0  501  0.00000000000E+00  0.00000000000E+00 -0.21474334983E+04  0.21474334983E+04  0.25500000920E-02 0. -1.
    10030    2    1    2    0    0  0.00000000000E+00  0.00000000000E+00 -0.55770389768E+03  0.37371630989E+04  0.36953151950E+04 0.  0.
        3    1    3    3  502    0  0.17335455756E+04 -0.36120542585E+03 -0.81226116293E+03  0.19481832125E+04  0.10100000352E+00 0. -1.
       -3    1    3    3    0  502 -0.17335455756E+04  0.36120542585E+03  0.25455726525E+03  0.17889798864E+04  0.10100000352E+00 0.  1.
</event>
<event>
 5   0  0.2282000E-08  0.3705010E+04  0.7818609E-02  0.8066853E-01
        1   -1    0    0  501    0  0.00000000000E+00  0.00000000000E+00  0.19562909583E+04  0.19562909583E+04  0.50400001928E-02 0.  1.
       -1   -1    0    0    0  501  0.00000000000E+00  0.00000000000E+00 -0.17542249282E+04  0.17542249282E+04  0.50400001928E-02 0. -1.
    10030    2    1    2    0    0  0.00000000000E+00  0.00000000000E+00  0.20206603011E+03  0.37105158866E+04  0.37050097792E+04 0.  0.
        5    1    3    3  502    0  0.11834450537E+04 -0.35634198884E+03 -0.12809563200E+04  0.17799980314E+04  0.46999998093E+01 0. -1.
       -5    1    3    3    0  502 -0.11834450537E+04  0.35634198884E+03  0.14830223501E+04  0.19305178551E+04  0.46999998093E+01 0.  1.
</event>
<event>
 5   0  0.2282000E-08  0.3694178E+04  0.7818609E-02  0.8069253E-01
       -1   -1    0    0    0  501  0.00000000000E+00  0.00000000000E+00  0.18369590467E+04  0.18369590467E+04  0.50400001928E-02 0. -1.
        1   -1    0    0  501    0  0.00000000000E+00  0.00000000000E+00 -0.18572750476E+04  0.18572750476E+04  0.50400001928E-02 0.  1.
    10030    2    1    2    0    0  0.00000000000E+00  0.00000000000E+00 -0.20316000891E+02  0.36942340944E+04  0.36941782312E+04 0.  0.
        1    1    3    3  502    0 -0.10581456698E+03 -0.18179854750E+04 -0.31914534424E+03  0.18488162863E+04  0.50400001928E-02 0.  1.
       -1    1    3    3    0  502  0.10581456698E+03  0.18179854750E+04  0.29882934335E+03  0.18454178080E+04  0.50400001928E-02 0. -1.
</event>
<event>
 5   0  0.7254493E-08  0.3700571E+04  0.7818609E-02  0.8067835E-01
       -2   -1    0    0    0  501  0.00000000000E+00  0.00000000000E+00  0.14874283931E+04  0.14874283931E+04  0.25500000920E-02 0. -1.
        2   -1    0    0  501    0  0.00000000000E+00  0.00000000000E+00 -0.23016619166E+04  0.23016619166E+04  0.25500000920E-02 0.  1.
    10030    2    1    2    0    0  0.00000000000E+00  0.00000000000E+00 -0.81423352353E+03  0.37890903097E+04  0.37005714618E+04 0.  0.
        3    1    3    3  502    0  0.85636796863E+03  0.15170479763E+04 -0.10455346649E+04  0.20317340884E+04  0.10100000352E+00 0.  1.
       -3    1    3    3    0  502 -0.85636796863E+03 -0.15170479763E+04  0.23130114140E+03  0.17573562213E+04  0.10100000352E+00 0. -1.
</event>
<event>
 5   0  0.2282000E-08  0.3704412E+04  0.7818609E-02  0.8066985E-01
        1   -1    0    0  501    0  0.00000000000E+00  0.00000000000E+00  0.19583320432E+04  0.19583320432E+04  0.50400001928E-02 0.  1.
       -1   -1    0    0    0  501  0.00000000000E+00  0.00000000000E+00 -0.17518313289E+04  0.17518313289E+04  0.50400001928E-02 0. -1.
    10030    2    1    2    0    0  0.00000000000E+00  0.00000000000E+00  0.20650071432E+03  0.37101633721E+04  0.37044121939E+04 0.  0.
        2    1    3    3  502    0  0.24877430909E+03  0.91530745156E+03 -0.14901284341E+04  0.17663972197E+04  0.25500000920E-02 0. -1.
       -2    1    3    3    0  502 -0.24877430909E+03 -0.91530745156E+03  0.16966291484E+04  0.19437661524E+04  0.25500000920E-02 0.  1.
</event>
<event>
 5   0  0.7203049E-08  0.3705880E+04  0.7818609E-02  0.8066660E-01
        2   -1    0    0  501    0  0.00000000000E+00  0.00000000000E+00  0.19594935831E+04  0.19594935831E+04  0.25500000920E-02 0. -1.
       -2   -1    0    0    0  501  0.00000000000E+00  0.00000000000E+00 -0.17521808769E+04  0.17521808769E+04  0.25500000920E-02 0.  1.
    10030    2    1    2    0    0  0.00000000000E+00  0.00000000000E+00  0.20731270622E+03  0.37116744600E+04  0.37058802920E+04 0.  0.
        4    1    3    3  502    0 -0.71910223912E+03  0.16090958656E+04  0.67646665757E+03  0.18878311065E+04  0.12699999809E+01 0. -1.
       -4    1    3    3    0  502  0.71910223912E+03 -0.16090958656E+04 -0.46915395135E+03  0.18238433535E+04  0.12699999809E+01 0.  1.
</event>
<event>
 5   0  0.2282000E-08  0.3700857E+04  0.7818609E-02  0.8067772E-01
       -1   -1    0    0    0  501  0.00000000000E+00  0.00000000000E+00  0.12615281800E+04  0.12615281800E+04  0.50400001928E-02 0.  1.
        1   -1    0    0  501    0  0.00000000000E+00  0.00000000000E+00 -0.27142358936E+04  0.27142358936E+04  0.50400001928E-02 0. -1.
    10030    2    1    2    0    0  0.00000000000E+00  0.00000000000E+00 -0.14527077136E+04  0.39757640736E+04  0.37008566937E+04 0.  0.
        4    1    3    3  502    0 -0.10402504927E+04  0.12888176648E+04 -0.16128230286E+04  0.23117897385E+04  0.12699999809E+01 0.  1.
       -4    1    3    3    0  502  0.10402504927E+04 -0.12888176648E+04  0.16011531499E+03  0.16639743350E+04  0.12699999809E+01 0. -1.
</event>
<event>
 5   0  0.7203049E-08  0.3721722E+04  0.7818609E-02  0.8063165E-01
       -2   -1    0    0    0  501  0.00000000000E+00  0.00000000000E+00  0.14448624579E+04  0.14448624579E+04  0.25500000920E-02 0.  1.
        2   -1    0    0  501    0  0.00000000000E+00  0.00000000000E+00 -0.23966324591E+04  0.23966324591E+04  0.25500000920E-02 0. -1.
    10030    2    1    2    0    0  0.00000000000E+00  0.00000000000E+00 -0.95177000117E+03  0.38414949170E+04  0.37217223247E+04 0.  0.
        4    1    3    3  502    0  0.18210953693E+04 -0.23105964814E+03 -0.16106821517E+03  0.18427483517E+04  0.12699999809E+01 0.  1.
       -4    1    3    3    0  502 -0.18210953693E+04  0.23105964814E+03 -0.79070178601E+03  0.19987465653E+04  0.12699999809E+01 0. -1.
</event>
<event>
 5   0  0.7362817E-08  0.3706865E+04  0.7818609E-02  0.8066442E-01
        2   -1    0    0  501    0  0.00000000000E+00  0.00000000000E+00  0.19802175525E+04  0.19802175525E+04  0.25500000920E-02 0. -1.
       -2   -1    0    0    0  501  0.00000000000E+00  0.00000000000E+00 -0.17347650076E+04  0.17347650076E+04  0.25500000920E-02 0.  1.
    10030    2    1    2    0    0  0.00000000000E+00  0.00000000000E+00  0.24545254491E+03  0.37149825601E+04  0.37068650461E+04 0.  0.
        1    1    3    3  502    0  0.11111742773E+04 -0.46836555869E+03  0.15333374425E+04  0.19506917449E+04  0.50400001928E-02 0. -1.
       -1    1    3    3    0  502 -0.11111742773E+04  0.46836555869E+03 -0.12878848976E+04  0.17642908152E+04  0.50400001928E-02 0.  1.
</event>
<event>
 5   0  0.7309833E-08  0.3769721E+04  0.7818609E-02  0.8052684E-01
        2   -1    0    0  501    0  0.00000000000E+00  0.00000000000E+00  0.21741352758E+04  0.21741352758E+04  0.25500000920E-02 0. -1.
       -2   -1    0    0    0  501  0.00000000000E+00  0.00000000000E+00 -0.16340745209E+04  0.16340745209E+04  0.25500000920E-02 0.  1.
    10030    2    1    2    0    0  0.00000000000E+00  0.00000000000E+00  0.54006075490E+03  0.38082097966E+04  0.37697209759E+04 0.  0.
        2    1    3    3  502    0  0.38453152671E+03 -0.15934538560E+04 -0.66992068779E+03  0.17708058657E+04  0.25500000920E-02 0.  1.
       -2    1    3    3    0  502 -0.38453152671E+03  0.15934538560E+04  0.12099814427E+04  0.20374039309E+04  0.25500000920E-02 0. -1.
</event>
<event>
 5   0  0.2282000E-08  0.3703526E+04  0.7818609E-02  0.8067181E-01
       -1   -1    0    0    0  501  0.00000000000E+00  0.00000000000E+00  0.29957767201E+04  0.29957767202E+04  0.50400001928E-02 0.  1.
        1   -1    0    0  501    0  0.00000000000E+00  0.00000000000E+00 -0.11446198591E+04  0.11446198591E+04  0.50400001928E-02 0. -1.
    10030    2    1    2    0    0  0.00000000000E+00  0.00000000000E+00  0.18511568610E+04  0.41403965793E+04  0.37035256324E+04 0.  0.
        3    1    3    3  502    0 -0.59560702674E+03 -0.88952355433E+03  0.26147819599E+04  0.28254352925E+04  0.10100000352E+00 0.  1.
       -3    1    3    3    0  502  0.59560702674E+03  0.88952355433E+03 -0.76362509887E+03  0.13149612868E+04  0.10100000352E+00 0. -1.
</event>
<event>
 5   0  0.2282000E-08  0.3702458E+04  0.7818609E-02  0.8067417E-01
        1   -1    0    0  501    0  0.00000000000E+00  0.00000000000E+00  0.21399019335E+04  0.21399019335E+04  0.50400001928E-02 0.  1.
       -1   -1    0    0    0  501  0.00000000000E+00  0.00000000000E+00 -0.16014981826E+04  0.16014981826E+04  0.50400001928E-02 0. -1.
    10030    2    1    2    0    0  0.00000000000E+00  0.00000000000E+00  0.53840375097E+03  0.37414001161E+04  0.37024581334E+04 0.  0.
        1    1    3    3  502    0  0.10982210629E+04 -0.62093276919E+03  0.16382212847E+04  0.20677079060E+04  0.50400001928E-02 0.  1.
       -1    1    3    3    0  502 -0.10982210629E+04  0.62093276919E+03 -0.10998175337E+04  0.16736922101E+04  0.50400001928E-02 0. -1.
</event>
<event>
 5   0  0.2282000E-08  0.3725102E+04  0.7818609E-02  0.8062422E-01
        1   -1    0    0  501    0  0.00000000000E+00  0.00000000000E+00  0.23020762306E+04  0.23020762306E+04  0.50400001928E-02 0.  1.
       -1   -1    0    0    0  501  0.00000000000E+00  0.00000000000E+00 -0.15069422063E+04  0.15069422063E+04  0.50400001928E-02 0. -1.
    10030    2    1    2    0    0  0.00000000000E+00  0.00000000000E+00  0.79513402433E+03  0.38090184369E+04  0.37251017887E+04 0.  0.
        2    1    3    3  502    0 -0.71715024225E+03  0.14401831984E+04 -0.56201032607E+03  0.17041970900E+04  0.25500000920E-02 0. -1.
       -2    1    3    3    0  502  0.71715024225E+03 -0.14401831984E+04  0.13571443504E+04  0.21048213470E+04  0.25500000920E-02 0.  1.
</event>
<event>
 5   0  0.7309833E-08  0.3702268E+04  0.7818609E-02  0.8067459E-01
        2   -1    0    0  501    0  0.00000000000E+00  0.00000000000E+00  0.13811093495E+04  0.13811093495E+04  0.25500000920E-02 0. -1.
       -2   -1    0    0    0  501  0.00000000000E+00  0.00000000000E+00 -0.24811197048E+04  0.24811197048E+04  0.25500000920E-02 0.  1.
    10030    2    1    2    0    0  0.00000000000E+00  0.00000000000E+00 -0.11000103552E+04  0.38622290543E+04  0.37022682893E+04 0.  0.
        2    1    3    3  502    0 -0.90969386710E+03 -0.11107561355E+04 -0.17689840875E+04  0.22782947189E+04  0.25500000920E-02 0.  1.
       -2    1    3    3    0  502  0.90969386710E+03  0.11107561355E+04  0.66897373223E+03  0.15839343354E+04  0.25500000920E-02 0. -1.
</event>
<event>
 5   0  0.7191801E-08  0.3690010E+04  0.7818609E-02  0.8070179E-01
        2   -1    0    0  501    0  0.00000000000E+00  0.00000000000E+00  0.19890506186E+04  0.19890506186E+04  0.25500000920E-02 0. -1.
       -2   -1    0    0    0  501  0.00000000000E+00  0.00000000000E+00 -0.17113912693E+04  0.17113912693E+04  0.25500000920E-02 0.  1.
    10030    2    1    2    0    0  0.00000000000E+00  0.00000000000E+00  0.27765934930E+03  0.37004418879E+04  0.36900102238E+04 0.  0.
        5    1    3    3  502    0  0.35970510662E+02  0.16285567217E+04  0.10076106605E+04  0.19154091486E+04  0.46999998093E+01 0. -1.
       -5    1    3    3    0  502 -0.35970510662E+02 -0.16285567217E+04 -0.72995131116E+03  0.17850327393E+04  0.46999998093E+01 0.  1.
</event>
<event>
 5   0  0.2282000E-08  0.3692893E+04  0.7818609E-02  0.8069539E-01
       -1   -1    0    0    0  501  0.00000000000E+00  0.00000000000E+00  0.14148841143E+04  0.14148841144E+04  0.50400001928E-02 0. -1.
        1   -1    0    0  501    0  0.00000000000E+00  0.00000000000E+00 -0.24096421720E+04  0.24096421720E+04  0.50400001928E-02 0.  1.
    10030    2    1    2    0    0  0.00000000000E+00  0.00000000000E+00 -0.99475805762E+03  0.38245262863E+04  0.36928928663E+04 0.  0.
        1    1    3    3  502    0  0.13228672277E+03  0.16508760816E+04  0.34809868010E+03  0.16923546629E+04  0.50400001928E-02 0. -1.
       -1    1    3    3    0  502 -0.13228672277E+03 -0.16508760816E+04 -0.13428567377E+04  0.21321716235E+04  0.50400001928E-02 0.  1.
</event>
<event>
 5   0  0.7362817E-08  0.3692612E+04  0.7818609E-02  0.8069601E-01
       -2   -1    0    0    0  501  0.00000000000E+00  0.00000000000E+00  0.22986098857E+04  0.22986098857E+04  0.25500000920E-02 0.  1.
        2   -1    0    0  501    0  0.00000000000E+00  0.00000000000E+00 -0.14830031399E+04  0.14830031399E+04  0.25500000920E-02 0. -1.
    10030    2    1    2    0    0  0.00000000000E+00  0.00000000000E+00  0.81560674586E+03  0.37816130256E+04  0.36926119092E+04 0.  0.
        1    1    3    3  502    0  0.10401349741E+04  0.96503329803E+03  0.16176649081E+04  0.21517457530E+04  0.50400001928E-02 0.  1.
       -1    1    3    3    0  502 -0.10401349741E+04 -0.96503329803E+03 -0.80205816225E+03  0.16298672726E+04  0.50400001928E-02 0. -1.
</event>
<event>
 5   0  0.2282000E-08  0.3739690E+04  0.7818609E-02  0.8059223E-01
        1   -1    0    0  501    0  0.00000000000E+00  0.00000000000E+00  0.27239234159E+04  0.27239234159E+04  0.50400001928E-02 0. -1.
       -1   -1    0    0    0  501  0.00000000000E+00  0.00000000000E+00 -0.12835601131E+04  0.12835601131E+04  0.50400001928E-02 0.  1.
    10030    2    1    2    0    0  0.00000000000E+00  0.00000000000E+00  0.14403633028E+04  0.40074835290E+04  0.37396895313E+04 0.  0.
        1    1    3    3  502    0 -0.14668478344E+03  0.15158259290E+04  0.18828028137E+04  0.24216091980E+04  0.50400001928E-02 0. -1.
       -1    1    3    3    0  502  0.14668478344E+03 -0.15158259290E+04 -0.44243951094E+03  0.15858743309E+04  0.50400001928E-02 0.  1.
</event>
<event>
 5   0  0.7191801E-08  0.3701077E+04  0.7818609E-02  0.8067723E-01
       -2   -1    0    0    0  501  0.00000000000E+00  0.00000000000E+00  0.14506501884E+04  0.14506501884E+04  0.25500000920E-02 0.  1.
        2   -1    0    0  501    0  0.00000000000E+00  0.00000000000E+00 -0.23606605743E+04  0.23606605743E+04  0.25500000920E-02 0. -1.
    10030    2    1    2    0    0  0.00000000000E+00  0.00000000000E+00 -0.91001038588E+03  0.38113107627E+04  0.37010769821E+04 0.  0.
        5    1    3    3  502    0  0.33726011725E+03  0.36946223173E+03  0.13796946371E+04  0.14675919422E+04  0.46999998093E+01 0.  1.
       -5    1    3    3    0  502 -0.33726011725E+03 -0.36946223173E+03 -0.22897050230E+04  0.23437188205E+04  0.46999998093E+01 0. -1.
</event>
<event>
 5   0  0.7362817E-08  0.3698537E+04  0.7818609E-02  0.8068286E-01
        2   -1    0    0  501    0  0.00000000000E+00  0.00000000000E+00  0.18744088759E+04  0.18744088759E+04  0.25500000920E-02 0. -1.
       -2   -1    0    0    0  501  0.00000000000E+00  0.00000000000E+00 -0.18244654196E+04  0.18244654196E+04  0.25500000920E-02 0.  1.
    10030    2    1    2    0    0  0.00000000000E+00  0.00000000000E+00  0.49943456249E+02  0.36988742955E+04  0.36985371033E+04 0.  0.
        1    1    3    3  502    0 -0.16740678728E+04 -0.71799072333E+03 -0.29408753581E+03  0.18451291013E+04  0.50400001928E-02 0. -1.
       -1    1    3    3    0  502  0.16740678728E+04  0.71799072333E+03  0.34403099206E+03  0.18537451942E+04  0.50400001928E-02 0.  1.
</event>
<event>
 5   0  0.7191801E-08  0.3701286E+04  0.7818609E-02  0.8067677E-01
        2   -1    0    0  501    0  0.00000000000E+00  0.00000000000E+00  0.22562646622E+04  0.22562646622E+04  0.25500000920E-02 0. -1.
       -2   -1    0    0    0  501  0.00000000000E+00  0.00000000000E+00 -0.15179423376E+04  0.15179423377E+04  0.25500000920E-02 0.  1.
    10030    2    1    2    0    0  0.00000000000E+00  0.00000000000E+00  0.73832232453E+03  0.37742069998E+04  0.37012860769E+04 0.  0.
        5    1    3    3  502    0  0.12619425950E+04  0.98709571739E+03  0.13136935014E+04  0.20718759070E+04  0.46999998093E+01 0. -1.
       -5    1    3    3    0  502 -0.12619425950E+04 -0.98709571739E+03 -0.57537117689E+03  0.17023310928E+04  0.46999998093E+01 0.  1.
</event>
<event>
 5   0  0.7191801E-08  0.3700223E+04  0.7818609E-02  0.8067912E-01
        2   -1    0    0  501    0  0.00000000000E+00  0.00000000000E+00  0.28364723105E+04  0.28364723105E+04  0.25500000920E-02 0.  1.
       -2   -1    0    0    0  501  0.00000000000E+00  0.00000000000E+00 -0.12067499399E+04  0.12067499399E+04  0.25500000920E-02 0. -1.
    10030    2    1    2    0    0  0.00000000000E+00  0.00000000000E+00  0.16297223705E+04  0.40432222504E+04  0.37002231231E+04 0.  0.
        5    1    3    3  502    0 -0.12445460402E+04  0.40139440626E+03  0.22449498564E+04  0.25980443151E+04  0.46999998093E+01 0.  1.
       -5    1    3    3    0  502  0.12445460402E+04 -0.40139440626E+03 -0.61522748583E+03  0.14451779353E+04  0.46999998093E+01 0. -1.
</event>
<event>
 5   0  0.2282000E-08  0.3749862E+04  0.7818609E-02  0.8057001E-01
        1   -1    0    0  501    0  0.00000000000E+00  0.00000000000E+00  0.30967520958E+04  0.30967520958E+04  0.50400001928E-02 0.  1.
       -1   -1    0    0    0  501  0.00000000000E+00  0.00000000000E+00 -0.11351782402E+04  0.11351782402E+04  0.50400001928E-02 0. -1.
    10030    2    1    2    0    0  0.00000000000E+00  0.00000000000E+00  0.19615738556E+04  0.42319303360E+04  0.37498616478E+04 0.  0.
        2    1    3    3  502    0  0.10703327270E+04 -0.21545601742E+03 -0.73941296650E+03  0.13186223785E+04  0.25500000920E-02 0. -1.
       -2    1    3    3    0  502 -0.10703327270E+04  0.21545601742E+03  0.27009868221E+04  0.29133079575E+04  0.25500000920E-02 0.  1.
</event>
<event>
 5   0  0.7362817E-08  0.3706032E+04  0.7818609E-02  0.8066626E-01
       -2   -1    0    0    0  501  0.00000000000E+00  0.00000000000E+00  0.14865539698E+04  0.14865539698E+04  0.25500000920E-02 0.  1.
        2   -1    0    0  501    0  0.00000000000E+00  0.00000000000E+00 -0.23098178356E+04  0.23098178356E+04  0.25500000920E-02 0. -1.
    10030    2    1    2    0    0  0.00000000000E+00  0.00000000000E+00 -0.82326386579E+03  0.37963718054E+04  0.37060323113E+04 0.  0.
        1    1    3    3  502    0  0.15709598792E+04 -0.90265579975E+03 -0.80964721020E+03  0.19844976795E+04  0.50400001928E-02 0. -1.
       -1    1    3    3    0  502 -0.15709598792E+04  0.90265579975E+03 -0.13616655598E+02  0.18118741259E+04  0.50400001928E-02 0.  1.
</event>
<event>
 5   0  0.2282000E-08  0.3672078E+04  0.7818609E-02  0.8074178E-01
        1   -1    0    0  501    0  0.00000000000E+00  0.00000000000E+00  0.15643026760E+04  0.15643026760E+04  0.50400001928E-02 0.  1.
       -1   -1    0    0    0  501  0.00000000000E+00  0.00000000000E+00 -0.21549787850E+04  0.21549787850E+04  0.50400001928E-02 0. -1.
    10030    2    1    2    0    0  0.00000000000E+00  0.00000000000E+00 -0.59067610901E+03  0.37192814611E+04  0.36720779296E+04 0.  0.
        2    1    3    3  502    0 -0.19127822014E+03 -0.12077127756E+04 -0.16825725029E+04  0.20799537815E+04  0.25500000920E-02 0. -1.
       -2    1    3    3    0  502  0.19127822014E+03  0.12077127756E+04  0.10918963939E+04  0.16393276795E+04  0.25500000920E-02 0.  1.
</event>
<event>
 5   0  0.7203049E-08  0.3697173E+04  0.7818609E-02  0.8068589E-01
       -2   -1    0    0    0  501  0.00000000000E+00  0.00000000000E+00  0.19028327113E+04  0.19028327113E+04  0.25500000920E-02 0.  1.
        2   -1    0    0  501    0  0.00000000000E+00  0.00000000000E+00 -0.17958868693E+04  0.17958868693E+04  0.25500000920E-02 0. -1.
    10030    2    1    2    0    0  0.00000000000E+00  0.00000000000E+00  0.10694584198E+03  0.36987195806E+04  0.36971731259E+04 0.  0.
        4    1    3    3  502    0  0.14771075990E+04 -0.67180822727E+03 -0.83239027215E+03  0.18237456871E+04  0.12699999809E+01 0. -1.
       -4    1    3    3    0  502 -0.14771075990E+04  0.67180822727E+03  0.93933611413E+03  0.18749738935E+04  0.12699999809E+01 0.  1.
</event>
<event>
 5   0  0.2282000E-08  0.3701035E+04  0.7818609E-02  0.8067732E-01
       -1   -1    0    0    0  501  0.00000000000E+00  0.00000000000E+00  0.26207686346E+04  0.26207686346E+04  0.50400001928E-02 0.  1.
        1   -1    0    0  501    0  0.00000000000E+00  0.00000000000E+00 -0.13066456039E+04  0.13066456039E+04  0.50400001928E-02 0. -1.
    10030    2    1    2    0    0  0.00000000000E+00  0.00000000000E+00  0.13141230307E+04  0.39274142385E+04  0.37010354309E+04 0.  0.
        3    1    3    3  502    0 -0.13345758127E+03 -0.11918015948E+04 -0.83847309864E+03  0.14632973432E+04  0.10100000352E+00 0. -1.
       -3    1    3    3    0  502  0.13345758127E+03  0.11918015948E+04  0.21525961293E+04  0.24641168953E+04  0.10100000352E+00 0.  1.
</event>
<event>
 5   0  0.7254493E-08  0.3708102E+04  0.7818609E-02  0.8066169E-01
       -2   -1    0    0    0  501  0.00000000000E+00  0.00000000000E+00  0.17294908003E+04  0.17294908003E+04  0.25500000920E-02 0. -1.
        2   -1    0    0  501    0  0.00000000000E+00  0.00000000000E+00 -0.19875819889E+04  0.19875819889E+04  0.25500000920E-02 0.  1.
    10030    2    1    2    0    0  0.00000000000E+00  0.00000000000E+00 -0.25809118865E+03  0.37170727892E+04  0.37081018134E+04 0.  0.
        3    1    3    3  502    0 -0.15972838445E+04 -0.84350547225E+03  0.28992201229E+03  0.18294458027E+04  0.10100000352E+00 0. -1.
       -3    1    3    3    0  502  0.15972838445E+04  0.84350547225E+03 -0.54801320094E+03  0.18876269865E+04  0.10100000352E+00 0.  1.
</event>
<event>
 5   0  0.2282000E-08  0.3700068E+04  0.7818609E-02  0.8067947E-01
        1   -1    0    0  501    0  0.00000000000E+00  0.00000000000E+00  0.16986034678E+04  0.16986034678E+04  0.50400001928E-02 0. -1.
       -1   -1    0    0    0  501  0.00000000000E+00  0.00000000000E+00 -0.20149642126E+04  0.20149642126E+04  0.50400001928E-02 0.  1.
    10030    2    1    2    0    0  0.00000000000E+00  0.00000000000E+00 -0.31636074483E+03  0.37135676804E+04  0.37000676745E+04 0.  0.
        4    1    3    3  502    0  0.76575780592E+03  0.30702942916E+03  0.15037512218E+04  0.17152030311E+04  0.12699999809E+01 0. -1.
       -4    1    3    3    0  502 -0.76575780592E+03 -0.30702942916E+03 -0.18201119667E+04  0.19983646494E+04  0.12699999809E+01 0.  1.
</event>
<event>
 5   0  0.7362817E-08  0.3675575E+04  0.7818609E-02  0.8073396E-01
       -2   -1    0    0    0  501  0.00000000000E+00  0.00000000000E+00  0.14176185004E+04  0.14176185004E+04  0.25500000920E-02 0. -1.
        2   -1    0    0  501    0  0.00000000000E+00  0.00000000000E+00 -0.23824909428E+04  0.23824909428E+04  0.25500000920E-02 0.  1.
    10030    2    1    2    0    0  0.00000000000E+00  0.00000000000E+00 -0.96487244242E+03  0.38001094432E+04  0.36755751863E+04 0.  0.
        1    1    3    3  502    0 -0.26091027548E+03  0.97619754084E+03 -0.20695126004E+04  0.23030237111E+04  0.50400001928E-02 0.  1.
       -1    1    3    3    0  502  0.26091027548E+03 -0.97619754084E+03  0.11046401580E+04  0.14970857321E+04  0.50400001928E-02 0. -1.
</event>
<event>
 5   0  0.2282000E-08  0.3695096E+04  0.7818609E-02  0.8069049E-01
       -1   -1    0    0    0  501  0.00000000000E+00  0.00000000000E+00  0.18934312009E+04  0.18934312009E+04  0.50400001928E-02 0. -1.
        1   -1    0    0  501    0  0.00000000000E+00  0.00000000000E+00 -0.18027769027E+04  0.18027769027E+04  0.50400001928E-02 0.  1.
    10030    2    1    2    0    0  0.00000000000E+00  0.00000000000E+00  0.90654298278E+02  0.36962081036E+04  0.36950962292E+04 0.  0.
        5    1    3    3  502    0  0.12924585838E+04  0.12684722587E+04 -0.32076232498E+03  0.18391252326E+04  0.46999998093E+01 0.  1.
       -5    1    3    3    0  502 -0.12924585838E+04 -0.12684722587E+04  0.41141662326E+03  0.18570828710E+04  0.46999998093E+01 0. -1.
</event>
<event>
 5   0  0.2282000E-08  0.3710476E+04  0.7818609E-02  0.8065644E-01
       -1   -1    0    0    0  501  0.00000000000E+00  0.00000000000E+00  0.13135155536E+04  0.13135155536E+04  0.50400001928E-02 0.  1.
        1   -1    0    0  501    0  0.00000000000E+00  0.00000000000E+00 -0.26203786630E+04  0.26203786630E+04  0.50400001928E-02 0. -1.
    10030    2    1    2    0    0  0.00000000000E+00  0.00000000000E+00 -0.13068631094E+04  0.39338942166E+04  0.37104760504E+04 0.  0.
        4    1    3    3  502    0  0.66764311986E+03 -0.16434300522E+04 -0.77298957100E+02  0.17755524249E+04  0.12699999809E+01 0.  1.
       -4    1    3    3    0  502 -0.66764311986E+03  0.16434300522E+04 -0.12295641523E+04  0.21583417916E+04  0.12699999809E+01 0. -1.
</event>
<event>
 5   0  0.7254493E-08  0.3687733E+04  0.7818609E-02  0.8070686E-01
       -2   -1    0    0    0  501  0.00000000000E+00  0.00000000000E+00  0.23902458951E+04  0.23902458951E+04  0.25500000920E-02 0.  1.
        2   -1    0    0  501    0  0.00000000000E+00  0.00000000000E+00 -0.14223820623E+04  0.14223820623E+04  0.25500000920E-02 0. -1.
    10030    2    1    2    0    0  0.00000000000E+00  0.00000000000E+00  0.96786383280E+03  0.38126279574E+04  0.36877325748E+04 0.  0.
        3    1    3    3  502    0  0.54712807128E+03 -0.93658043369E+03  0.20255084878E+04  0.22976546040E+04  0.10100000352E+00 0.  1.
       -3    1    3    3    0  502 -0.54712807128E+03  0.93658043369E+03 -0.10576446550E+04  0.15149733534E+04  0.10100000352E+00 0. -1.
</event>
<event>
 5   0  0.2282000E-08  0.3682199E+04  0.7818609E-02  0.8071918E-01
        3   -1    0    0  501    0  0.00000000000E+00  0.00000000000E+00  0.20008579502E+04  0.20008579527E+04  0.10100000352E+00 0. -1.
       -3   -1    0    0    0  501  0.00000000000E+00  0.00000000000E+00 -0.16940965555E+04  0.16940965585E+04  0.10100000352E+00 0.  1.
    10030    2    1    2    0    0  0.00000000000E+00  0.00000000000E+00  0.30676139470E+03  0.36949545112E+04  0.36821985669E+04 0.  0.
        2    1    3    3  502    0 -0.10270039788E+03  0.17656307534E+04  0.66666735181E+03  0.18900911848E+04  0.25500000920E-02 0.  1.
       -2    1    3    3    0  502  0.10270039788E+03 -0.17656307534E+04 -0.35990595711E+03  0.18048633264E+04  0.25500000920E-02 0. -1.
</event>
<event>
 5   0  0.2282000E-08  0.3702027E+04  0.7818609E-02  0.8067513E-01
        1   -1    0    0  501    0  0.00000000000E+00  0.00000000000E+00  0.11940640169E+04  0.11940640169E+04  0.50400001928E-02 0. -1.
       -1   -1    0    0    0  501  0.00000000000E+00  0.00000000000E+00 -0.28694023766E+04  0.28694023766E+04  0.50400001928E-02 0.  1.
    10030    2    1    2    0    0  0.00000000000E+00  0.00000000000E+00 -0.16753383598E+04  0.40634663935E+04  0.37020265412E+04 0.  0.
        3    1    3    3  502    0  0.35637868593E+03  0.12276971070E+04  0.63168553689E+03  0.14259286736E+04  0.10100000352E+00 0. -1.
       -3    1    3    3    0  502 -0.35637868593E+03 -0.12276971070E+04 -0.23070238966E+04  0.26375377200E+04  0.10100000352E+00 0.  1.
</event>
<event>
 5   0  0.2282000E-08  0.3700095E+04  0.7818609E-02  0.8067941E-01
       -1   -1    0    0    0  501  0.00000000000E+00  0.00000000000E+00  0.13457396631E+04  0.13457396631E+04  0.50400001928E-02 0. -1.
        1   -1    0    0  501    0  0.00000000000E+00  0.00000000000E+00 -0.25433416810E+04  0.25433416810E+04  0.50400001928E-02 0.  1.
    10030    2    1    2    0    0  0.00000000000E+00  0.00000000000E+00 -0.11976020179E+04  0.38890813441E+04  0.37000950133E+04 0.  0.
        2    1    3    3  502    0  0.14974164612E+04 -0.10752627028E+04 -0.76241084501E+03  0.19949226138E+04  0.25500000920E-02 0.  1.
       -2    1    3    3    0  502 -0.14974164612E+04  0.10752627028E+04 -0.43519117291E+03  0.18941587303E+04  0.25500000920E-02 0. -1.
</event>
<event>
 5   0  0.7309833E-08  0.3699681E+04  0.7818609E-02  0.8068032E-01
        2   -1    0    0  501    0  0.00000000000E+00  0.00000000000E+00  0.19423607772E+04  0.19423607772E+04  0.25500000920E-02 0. -1.
       -2   -1    0    0    0  501  0.00000000000E+00  0.00000000000E+00 -0.17617276497E+04  0.17617276497E+04  0.25500000920E-02 0.  1.
    10030    2    1    2    0    0  0.00000000000E+00  0.00000000000E+00  0.18063312756E+03  0.37040884269E+04  0.36996814387E+04 0.  0.
        2    1    3    3  502    0 -0.18930499721E+02 -0.18468338398E+04 -0.13523379134E+02  0.18469803674E+04  0.25500000920E-02 0. -1.
       -2    1    3    3    0  502  0.18930499721E+02  0.18468338398E+04  0.19415650670E+03  0.18571080595E+04  0.25500000920E-02 0.  1.
</event>
<event>
 5   0  0.2282000E-08  0.3712241E+04  0.7818609E-02  0.8065255E-01
       -1   -1    0    0    0  501  0.00000000000E+00  0.00000000000E+00  0.16116207468E+04  0.16116207468E+04  0.50400001928E-02 0.  1.
        1   -1    0    0  501    0  0.00000000000E+00  0.00000000000E+00 -0.21377130955E+04  0.21377130955E+04  0.50400001928E-02 0. -1.
    10030    2    1    2    0    0  0.00000000000E+00  0.00000000000E+00 -0.52609234871E+03  0.37493338423E+04  0.37122407117E+04 0.  0.
        4    1    3    3  502    0 -0.16935067814E+04  0.22984665941E+02 -0.10300337125E+04  0.19822877125E+04  0.12699999809E+01 0. -1.
       -4    1    3    3    0  502  0.16935067814E+04 -0.22984665941E+02  0.50394136377E+03  0.17670461297E+04  0.12699999809E+01 0.  1.
</event>
<event>
 5   0  0.2282000E-08  0.3696856E+04  0.7818609E-02  0.8068659E-01
       -1   -1    0    0    0  501  0.00000000000E+00  0.00000000000E+00  0.14734033506E+04  0.14734033506E+04  0.50400001928E-02 0. -1.
        1   -1    0    0  501    0  0.00000000000E+00  0.00000000000E+00 -0.23189070060E+04  0.23189070060E+04  0.50400001928E-02 0.  1.
    10030    2    1    2    0    0  0.00000000000E+00  0.00000000000E+00 -0.84550365543E+03  0.37923103566E+04  0.36968556111E+04 0.  0.
        2    1    3    3  502    0 -0.17962666911E+04 -0.42031067454E+03 -0.30378201446E+03  0.18696306055E+04  0.25500000920E-02 0. -1.
       -2    1    3    3    0  502  0.17962666911E+04  0.42031067454E+03 -0.54172164097E+03  0.19226797511E+04  0.25500000920E-02 0.  1.
</event>
<event>
 5   0  0.2282000E-08  0.3694139E+04  0.7818609E-02  0.8069262E-01
       -1   -1    0    0    0  501  0.00000000000E+00  0.00000000000E+00  0.36944877174E+04  0.36944877174E+04  0.50400001928E-02 0.  1.
        1   -1    0    0  501    0  0.00000000000E+00  0.00000000000E+00 -0.92344748380E+03  0.92344748381E+03  0.50400001928E-02 0. -1.
    10030    2    1    2    0    0  0.00000000000E+00  0.00000000000E+00  0.27710402336E+04  0.46179352012E+04  0.36941388098E+04 0.  0.
        3    1    3    3  502    0 -0.15411024690E+04 -0.30189372997E+02  0.11329608202E+03  0.15455562852E+04  0.10100000352E+00 0. -1.
       -3    1    3    3    0  502  0.15411024690E+04  0.30189372997E+02  0.26577441516E+04  0.30723789160E+04  0.10100000352E+00 0.  1.
</event>
<event>
 5   0  0.7362817E-08  0.3696123E+04  0.7818609E-02  0.8068821E-01
        2   -1    0    0  501    0  0.00000000000E+00  0.00000000000E+00  0.11106717271E+04  0.11106717271E+04  0.25500000920E-02 0. -1.
       -2   -1    0    0    0  501  0.00000000000E+00  0.00000000000E+00 -0.30750148893E+04  0.30750148893E+04  0.25500000920E-02 0.  1.
    10030    2    1    2    0    0  0.00000000000E+00  0.00000000000E+00 -0.19643431622E+04  0.41856866164E+04  0.36961234275E+04 0.  0.
        1    1    3    3  502    0 -0.34384649781E+03  0.17533072323E+04 -0.15169670302E+04  0.23438228678E+04  0.50400001928E-02 0. -1.
       -1    1    3    3    0  502  0.34384649781E+03 -0.17533072323E+04 -0.44737613200E+03  0.18418637486E+04  0.50400001928E-02 0.  1.
</event>
<event>
 5   0  0.7203049E-08  0.3696007E+04  0.7818609E-02  0.8068847E-01
       -2   -1    0    0    0  501  0.00000000000E+00  0.00000000000E+00  0.12193503693E+04  0.12193503693E+04  0.25500000920E-02 0.  1.
        2   -1    0    0  501    0  0.00000000000E+00  0.00000000000E+00 -0.28007680614E+04  0.28007680614E+04  0.25500000920E-02 0. -1.
    10030    2    1    2    0    0  0.00000000000E+00  0.00000000000E+00 -0.15814176921E+04  0.40201184306E+04  0.36960073430E+04 0.  0.
        4    1    3    3  502    0 -0.10902316397E+04  0.11317094430E+04 -0.18484830512E+04  0.24261620917E+04  0.12699999809E+01 0. -1.
       -4    1    3    3    0  502  0.10902316397E+04 -0.11317094430E+04  0.26706535913E+03  0.15939563390E+04  0.12699999809E+01 0.  1.
</event>
<event>
 5   0  0.2282000E-08  0.3701780E+04  0.7818609E-02  0.8067568E-01
        1   -1    0    0  501    0  0.00000000000E+00  0.00000000000E+00  0.27169967740E+04  0.27169967740E+04  0.50400001928E-02 0.  1.
       -1   -1    0    0    0  501  0.00000000000E+00  0.00000000000E+00 -0.12608749535E+04  0.12608749535E+04  0.50400001928E-02 0. -1.
    10030    2    1    2    0    0  0.00000000000E+00  0.00000000000E+00  0.14561218204E+04  0.39778717275E+04  0.37017796699E+04 0.  0.
        1    1    3    3  502    0 -0.14768575909E+04  0.93163694774E+03  0.68492880160E+02  0.17474973593E+04  0.50400001928E-02 0. -1.
       -1    1    3    3    0  502  0.14768575909E+04 -0.93163694774E+03  0.13876289403E+04  0.22303743682E+04  0.50400001928E-02 0.  1.
</event>
<event>
 5   0  0.7362817E-08  0.3671073E+04  0.7818609E-02  0.8074403E-01
        2   -1    0    0  501    0  0.00000000000E+00  0.00000000000E+00  0.14696847022E+04  0.14696847022E+04  0.25500000920E-02 0. -1.
       -2   -1    0    0    0  501  0.00000000000E+00  0.00000000000E+00 -0.22924611339E+04  0.22924611339E+04  0.25500000920E-02 0.  1.
    10030    2    1    2    0    0  0.00000000000E+00  0.00000000000E+00 -0.82277643176E+03  0.37621458361E+04  0.36710734446E+04 0.  0.
        1    1    3    3  502    0 -0.32229005185E+03 -0.17488335006E+04 -0.87754138704E+03  0.19830200141E+04  0.50400001928E-02 0.  1.
       -1    1    3    3    0  502  0.32229005185E+03  0.17488335006E+04  0.54764955281E+02  0.17791258220E+04  0.50400001928E-02 0. -1.
</event>
<event>
 5   0  0.7203049E-08  0.3714270E+04  0.7818609E-02  0.8064807E-01
        2   -1    0    0  501    0  0.00000000000E+00  0.00000000000E+00  0.19969398825E+04  0.19969398825E+04  0.25500000920E-02 0.  1.
       -2   -1    0    0    0  501  0.00000000000E+00  0.00000000000E+00 -0.17271181814E+04  0.17271181814E+04  0.25500000920E-02 0. -1.
    10030    2    1    2    0    0  0.00000000000E+00  0.00000000000E+00  0.26982170116E+03  0.37240580639E+04  0.37142704146E+04 0.  0.
        4    1    3    3  502    0 -0.17374186458E+03 -0.64894473703E+03 -0.16010192424E+04  0.17362545132E+04  0.12699999809E+01 0. -1.
       -4    1    3    3    0  502  0.17374186458E+03  0.64894473703E+03  0.18708409435E+04  0.19878035507E+04  0.12699999809E+01 0.  1.
</event>
<event>
 5   0  0.7191801E-08  0.3697367E+04  0.7818609E-02  0.8068546E-01
        2   -1    0    0  501    0  0.00000000000E+00  0.00000000000E+00  0.11360774870E+04  0.11360774870E+04  0.25500000920E-02 0. -1.
       -2   -1    0    0    0  501  0.00000000000E+00  0.00000000000E+00 -0.30082730055E+04  0.30082730055E+04  0.25500000920E-02 0.  1.
    10030    2    1    2    0    0  0.00000000000E+00  0.00000000000E+00 -0.18721955185E+04  0.41443504925E+04  0.36973672992E+04 0.  0.
        5    1    3    3  502    0 -0.23339280310E+03  0.14350649262E+04 -0.22159415874E+04  0.26503401201E+04  0.46999998093E+01 0.  1.
       -5    1    3    3    0  502  0.23339280310E+03 -0.14350649262E+04  0.34374606900E+03  0.14940103724E+04  0.46999998093E+01 0. -1.
</event>
<event>
 5   0  0.7362817E-08  0.3700675E+04  0.7818609E-02  0.8067812E-01
       -2   -1    0    0    0  501  0.00000000000E+00  0.00000000000E+00  0.14302512471E+04  0.14302512471E+04  0.25500000920E-02 0.  1.
        2   -1    0    0  501    0  0.00000000000E+00  0.00000000000E+00 -0.23938095433E+04  0.23938095433E+04  0.25500000920E-02 0. -1.
    10030    2    1    2    0    0  0.00000000000E+00  0.00000000000E+00 -0.96355829621E+03  0.38240607904E+04  0.37006751193E+04 0.  0.
        1    1    3    3  502    0  0.15019119148E+04  0.10366912706E+04 -0.16617683480E+03  0.18325072799E+04  0.50400001928E-02 0.  1.
       -1    1    3    3    0  502 -0.15019119148E+04 -0.10366912706E+04 -0.79738146141E+03  0.19915535105E+04  0.50400001928E-02 0. -1.
</event>
<event>
 5   0  0.7191801E-08  0.3699875E+04  0.7818609E-02  0.8067990E-01
        2   -1    0    0  501    0  0.00000000000E+00  0.00000000000E+00  0.20712282472E+04  0.20712282472E+04  0.25500000920E-02 0. -1.
       -2   -1    0    0    0  501  0.00000000000E+00  0.00000000000E+00 -0.16522896310E+04  0.16522896310E+04  0.25500000920E-02 0.  1.
    10030    2    1    2    0    0  0.00000000000E+00  0.00000000000E+00  0.41893861621E+03  0.37235178782E+04  0.36998751094E+04 0.  0.
        5    1    3    3  502    0  0.12075917267E+04 -0.12173652036E+04 -0.48922284420E+03  0.17831480305E+04  0.46999998093E+01 0.  1.
       -5    1    3    3    0  502 -0.12075917267E+04  0.12173652036E+04  0.90816146040E+03  0.19403698477E+04  0.46999998093E+01 0. -1.
</event>
<event>
 5   0  0.7362817E-08  0.3705643E+04  0.7818609E-02  0.8066712E-01
       -2   -1    0    0    0  501  0.00000000000E+00  0.00000000000E+00  0.17013030086E+04  0.17013030086E+04  0.25500000920E-02 0. -1.
        2   -1    0    0  501    0  0.00000000000E+00  0.00000000000E+00 -0.20178340889E+04  0.20178340889E+04  0.25500000920E-02 0.  1.
    10030    2    1    2    0    0  0.00000000000E+00  0.00000000000E+00 -0.31653108034E+03  0.37191370975E+04  0.37056428357E+04 0.  0.
        1    1    3    3  502    0  0.38687164271E+03  0.72068375889E+03  0.15102843639E+04  0.17175603652E+04  0.50400001928E-02 0. -1.
       -1    1    3    3    0  502 -0.38687164271E+03 -0.72068375889E+03 -0.18268154442E+04  0.20015767324E+04  0.50400001928E-02 0.  1.
</event>
<event>
 5   0  0.2282000E-08  0.3704728E+04  0.7818609E-02  0.8066915E-01
        1   -1    0    0  501    0  0.00000000000E+00  0.00000000000E+00  0.27706864538E+04  0.27706864538E+04  0.50400001928E-02 0. -1.
       -1   -1    0    0    0  501  0.00000000000E+00  0.00000000000E+00 -0.12384120751E+04  0.12384120751E+04  0.50400001928E-02 0.  1.
    10030    2    1    2    0    0  0.00000000000E+00  0.00000000000E+00  0.15322743787E+04  0.40090985289E+04  0.37047275531E+04 0.  0.
        4    1    3    3  502    0  0.10943909068E+04 -0.12070099247E+04  0.17198399992E+04  0.23690537459E+04  0.12699999809E+01 0. -1.
       -4    1    3    3    0  502 -0.10943909068E+04  0.12070099247E+04 -0.18756562053E+03  0.16400447830E+04  0.12699999809E+01 0.  1.
</event>
<event>
 5   0  0.2282000E-08  0.3680039E+04  0.7818609E-02  0.8072400E-01
        1   -1    0    0  501    0  0.00000000000E+00  0.00000000000E+00  0.16623762286E+04  0.16623762287E+04  0.50400001928E-02 0. -1.
       -1   -1    0    0    0  501  0.00000000000E+00  0.00000000000E+00 -0.20366455296E+04  0.20366455296E+04  0.50400001928E-02 0.  1.
    10030    2    1    2    0    0  0.00000000000E+00  0.00000000000E+00 -0.37426930099E+03  0.36990217583E+04  0.36800386491E+04 0.  0.
        3    1    3    3  502    0  0.10936045708E+04  0.14756180170E+04 -0.29839263209E+03  0.18607680303E+04  0.10100000352E+00 0.  1.
       -3    1    3    3    0  502 -0.10936045708E+04 -0.14756180170E+04 -0.75876668897E+02  0.18382537280E+04  0.10100000352E+00 0. -1.
</event>
<event>
 5   0  0.7362817E-08  0.3680775E+04  0.7818609E-02  0.8072236E-01
       -2   -1    0    0    0  501  0.00000000000E+00  0.00000000000E+00  0.16047693401E+04  0.16047693401E+04  0.25500000920E-02 0. -1.
        2   -1    0    0  501    0  0.00000000000E+00  0.00000000000E+00 -0.21106001091E+04  0.21106001091E+04  0.25500000920E-02 0.  1.
    10030    2    1    2    0    0  0.00000000000E+00  0.00000000000E+00 -0.50583076896E+03  0.37153694492E+04  0.36807751055E+04 0.  0.
        1    1    3    3  502    0 -0.10594375026E+03 -0.11310428207E+04  0.12086382430E+04  0.16587007997E+04  0.50400001928E-02 0. -1.
       -1    1    3    3    0  502  0.10594375026E+03  0.11310428207E+04 -0.17144690120E+04  0.20566686494E+04  0.50400001928E-02 0.  1.
</event>
<event>
 5   0  0.2282000E-08  0.3699992E+04  0.7818609E-02  0.8067964E-01
       -1   -1    0    0    0  501  0.00000000000E+00  0.00000000000E+00  0.11640548441E+04  0.11640548441E+04  0.50400001928E-02 0. -1.
        1   -1    0    0  501    0  0.00000000000E+00  0.00000000000E+00 -0.29401405048E+04  0.29401405048E+04  0.50400001928E-02 0.  1.
    10030    2    1    2    0    0  0.00000000000E+00  0.00000000000E+00 -0.17760856607E+04  0.41041953489E+04  0.36999917822E+04 0.  0.
        2    1    3    3  502    0  0.84098439735E+02  0.17897244003E+04 -0.13991371507E+04  0.22732731343E+04  0.25500000920E-02 0.  1.
       -2    1    3    3    0  502 -0.84098439735E+02 -0.17897244003E+04 -0.37694850992E+03  0.18309222146E+04  0.25500000920E-02 0. -1.
</event>
<event>
 5   0  0.7309833E-08  0.3702899E+04  0.7818609E-02  0.8067320E-01
       -2   -1    0    0    0  501  0.00000000000E+00  0.00000000000E+00  0.14198596841E+04  0.14198596841E+04  0.25500000920E-02 0.  1.
        2   -1    0    0  501    0  0.00000000000E+00  0.00000000000E+00 -0.24142280714E+04  0.24142280714E+04  0.25500000920E-02 0. -1.
    10030    2    1    2    0    0  0.00000000000E+00  0.00000000000E+00 -0.99436838727E+03  0.38340877555E+04  0.37028989221E+04 0.  0.
        2    1    3    3  502    0 -0.87951605691E+03  0.47573470595E+03 -0.21105911157E+04  0.23354800069E+04  0.25500000920E-02 0. -1.
       -2    1    3    3    0  502  0.87951605691E+03 -0.47573470595E+03  0.11162227284E+04  0.14986077486E+04  0.25500000920E-02 0.  1.
</event>
<event>
 5   0  0.2282000E-08  0.3692997E+04  0.7818609E-02  0.8069516E-01
       -1   -1    0    0    0  501  0.00000000000E+00  0.00000000000E+00  0.14801392390E+04  0.14801392390E+04  0.50400001928E-02 0. -1.
        1   -1    0    0  501    0  0.00000000000E+00  0.00000000000E+00 -0.23035376615E+04  0.23035376615E+04  0.50400001928E-02 0.  1.
    10030    2    1    2    0    0  0.00000000000E+00  0.00000000000E+00 -0.82339842244E+03  0.37836769005E+04  0.36929968759E+04 0.  0.
        4    1    3    3  502    0  0.62595924016E+02  0.14520280934E+04  0.75523699886E+03  0.16378914406E+04  0.12699999809E+01 0. -1.
       -4    1    3    3    0  502 -0.62595924016E+02 -0.14520280934E+04 -0.15786354213E+04  0.21457854599E+04  0.12699999809E+01 0.  1.
</event>
<event>
 5   0  0.7191801E-08  0.3710017E+04  0.7818609E-02  0.8065745E-01
        2   -1    0    0  501    0  0.00000000000E+00  0.00000000000E+00  0.22127888236E+04  0.22127888236E+04  0.25500000920E-02 0. -1.
       -2   -1    0    0    0  501  0.00000000000E+00  0.00000000000E+00 -0.15550771352E+04  0.15550771352E+04  0.25500000920E-02 0.  1.
    10030    2    1    2    0    0  0.00000000000E+00  0.00000000000E+00  0.65771168846E+03  0.37678659588E+04  0.37100174148E+04 0.  0.
        5    1    3    3  502    0 -0.54804496234E+03  0.42004947489E+03 -0.14196867062E+04  0.15787106372E+04  0.46999998093E+01 0.  1.
       -5    1    3    3    0  502  0.54804496234E+03 -0.42004947489E+03  0.20773983947E+04  0.21891553216E+04  0.46999998093E+01 0. -1.
</event>
<event>
 5   0  0.2282000E-08  0.3700173E+04  0.7818609E-02  0.8067923E-01
       -1   -1    0    0    0  501  0.00000000000E+00  0.00000000000E+00  0.19090705226E+04  0.19090705226E+04  0.50400001928E-02 0.  1.
        1   -1    0    0  501    0  0.00000000000E+00  0.00000000000E+00 -0.17929252932E+04  0.17929252932E+04  0.50400001928E-02 0. -1.
    10030    2    1    2    0    0  0.00000000000E+00  0.00000000000E+00  0.11614522940E+03  0.37019958158E+04  0.37001734156E+04 0.  0.
        1    1    3    3  502    0 -0.11116544673E+03  0.76048228814E+03 -0.16256495100E+04  0.17981733500E+04  0.50400001928E-02 0. -1.
       -1    1    3    3    0  502  0.11116544673E+03 -0.76048228814E+03  0.17417947394E+04  0.19038224658E+04  0.50400001928E-02 0.  1.
</event>
<event>
 5   0  0.7362817E-08  0.3701891E+04  0.7818609E-02  0.8067543E-01
        2   -1    0    0  501    0  0.00000000000E+00  0.00000000000E+00  0.28781030342E+04  0.28781030342E+04  0.25500000920E-02 0. -1.
       -2   -1    0    0    0  501  0.00000000000E+00  0.00000000000E+00 -0.11903671765E+04  0.11903671765E+04  0.25500000920E-02 0.  1.
    10030    2    1    2    0    0  0.00000000000E+00  0.00000000000E+00  0.16877358577E+04  0.40684702107E+04  0.37018910749E+04 0.  0.
        1    1    3    3  502    0  0.12544139169E+04  0.20711664288E+03  0.23222699067E+04  0.26475250893E+04  0.50400001928E-02 0. -1.
       -1    1    3    3    0  502 -0.12544139169E+04 -0.20711664288E+03 -0.63453404904E+03  0.14209451214E+04  0.50400001928E-02 0.  1.
</event>
<event>
 5   0  0.2282000E-08  0.3704131E+04  0.7818609E-02  0.8067047E-01
       -1   -1    0    0    0  501  0.00000000000E+00  0.00000000000E+00  0.16261131747E+04  0.16261131747E+04  0.50400001928E-02 0.  1.
        1   -1    0    0  501    0  0.00000000000E+00  0.00000000000E+00 -0.21094149076E+04  0.21094149076E+04  0.50400001928E-02 0. -1.
    10030    2    1    2    0    0  0.00000000000E+00  0.00000000000E+00 -0.48330173288E+03  0.37355280823E+04  0.37041314082E+04 0.  0.
        2    1    3    3  502    0  0.14415521633E+04  0.76874952079E+03 -0.11214553471E+04  0.19815929352E+04  0.25500000920E-02 0.  1.
       -2    1    3    3    0  502 -0.14415521633E+04 -0.76874952079E+03  0.63815361421E+03  0.17539351472E+04  0.25500000920E-02 0. -1.
</event>
<event>
 5   0  0.2282000E-08  0.3720021E+04  0.7818609E-02  0.8063539E-01
       -1   -1    0    0    0  501  0.00000000000E+00  0.00000000000E+00  0.31943823145E+04  0.31943823145E+04  0.50400001928E-02 0. -1.
        1   -1    0    0  501    0  0.00000000000E+00  0.00000000000E+00 -0.10830385415E+04  0.10830385415E+04  0.50400001928E-02 0.  1.
    10030    2    1    2    0    0  0.00000000000E+00  0.00000000000E+00  0.21113437730E+04  0.42774208560E+04  0.37200210553E+04 0.  0.
        2    1    3    3  502    0 -0.64732820345E+03  0.10512949325E+04 -0.54396052184E+03  0.13491285659E+04  0.25500000920E-02 0.  1.
       -2    1    3    3    0  502  0.64732820345E+03 -0.10512949325E+04  0.26553042949E+04  0.29282922901E+04  0.25500000920E-02 0. -1.
</event>
<event>
 5   0  0.2282000E-08  0.3702044E+04  0.7818609E-02  0.8067509E-01
       -1   -1    0    0    0  501  0.00000000000E+00  0.00000000000E+00  0.14446497673E+04  0.14446497673E+04  0.50400001928E-02 0. -1.
        1   -1    0    0  501    0  0.00000000000E+00  0.00000000000E+00 -0.23717039425E+04  0.23717039425E+04  0.50400001928E-02 0.  1.
    10030    2    1    2    0    0  0.00000000000E+00  0.00000000000E+00 -0.92705417514E+03  0.38163537098E+04  0.37020435160E+04 0.  0.
        5    1    3    3  502    0  0.10101656635E+04 -0.13401775073E+04 -0.12685025878E+04  0.21037184517E+04  0.46999998093E+01 0.  1.
       -5    1    3    3    0  502 -0.10101656635E+04  0.13401775073E+04  0.34144841269E+03  0.17126352581E+04  0.46999998093E+01 0. -1.
</event>
<event>
 5   0  0.2282000E-08  0.3702458E+04  0.7818609E-02  0.8067417E-01
        1   -1    0    0  501    0  0.00000000000E+00  0.00000000000E+00  0.20285238543E+04  0.20285238543E+04  0.50400001928E-02 0. -1.
       -1   -1    0    0    0  501  0.00000000000E+00  0.00000000000E+00 -0.16894295618E+04  0.16894295618E+04  0.50400001928E-02 0.  1.
    10030    2    1    2    0    0  0.00000000000E+00  0.00000000000E+00  0.33909429256E+03  0.37179534161E+04  0.37024576520E+04 0.  0.
        5    1    3    3  502    0 -0.18430884160E+04 -0.65266406609E+02  0.33081649583E+03  0.18736852076E+04  0.46999998093E+01 0. -1.
       -5    1    3    3    0  502  0.18430884160E+04  0.65266406609E+02  0.82777967323E+01  0.18442682085E+04  0.46999998093E+01 0.  1.
</event>
<event>
 5   0  0.2282000E-08  0.3698180E+04  0.7818609E-02  0.8068365E-01
       -1   -1    0    0    0  501  0.00000000000E+00  0.00000000000E+00  0.14122121109E+04  0.14122121110E+04  0.50400001928E-02 0.  1.
        1   -1    0    0  501    0  0.00000000000E+00  0.00000000000E+00 -0.24211188366E+04  0.24211188366E+04  0.50400001928E-02 0. -1.
    10030    2    1    2    0    0  0.00000000000E+00  0.00000000000E+00 -0.10089067257E+04  0.38333309476E+04  0.36981797377E+04 0.  0.
        4    1    3    3  502    0  0.17682211296E+04 -0.21093236581E+03  0.11776709176E+02  0.17807972175E+04  0.12699999809E+01 0. -1.
       -4    1    3    3    0  502 -0.17682211296E+04  0.21093236581E+03 -0.10206834349E+04  0.20525337301E+04  0.12699999809E+01 0.  1.
</event>
<event>
 5   0  0.7203049E-08  0.3703652E+04  0.7818609E-02  0.8067153E-01
        2   -1    0    0  501    0  0.00000000000E+00  0.00000000000E+00  0.21040899921E+04  0.21040899921E+04  0.25500000920E-02 0. -1.
       -2   -1    0    0    0  501  0.00000000000E+00  0.00000000000E+00 -0.16298062354E+04  0.16298062354E+04  0.25500000920E-02 0.  1.
    10030    2    1    2    0    0  0.00000000000E+00  0.00000000000E+00  0.47428375676E+03  0.37338962275E+04  0.37036517055E+04 0.  0.
        4    1    3    3  502    0  0.14632344759E+04 -0.57707577840E+03 -0.74817524888E+03  0.17417920086E+04  0.12699999809E+01 0.  1.
       -4    1    3    3    0  502 -0.14632344759E+04  0.57707577840E+03  0.12224590056E+04  0.19921042189E+04  0.12699999809E+01 0. -1.
</event>
<event>
 5   0  0.7362817E-08  0.3701137E+04  0.7818609E-02  0.8067710E-01
       -2   -1    0    0    0  501  0.00000000000E+00  0.00000000000E+00  0.34542939062E+04  0.34542939062E+04  0.25500000920E-02 0. -1.
        2   -1    0    0  501    0  0.00000000000E+00  0.00000000000E+00 -0.99140510653E+03  0.99140510653E+03  0.25500000920E-02 0.  1.
    10030    2    1    2    0    0  0.00000000000E+00  0.00000000000E+00  0.24628887997E+04  0.44456990128E+04  0.37011374566E+04 0.  0.
        1    1    3    3  502    0 -0.62132785744E+01  0.12532523951E+04  0.28669455632E+04  0.31289066834E+04  0.50400001928E-02 0. -1.
       -1    1    3    3    0  502  0.62132785744E+01 -0.12532523951E+04 -0.40405676353E+03  0.13167923294E+04  0.50400001928E-02 0.  1.
</event>
<event>
 5   0  0.7191801E-08  0.3716886E+04  0.7818609E-02  0.8064230E-01
       -2   -1    0    0    0  501  0.00000000000E+00  0.00000000000E+00  0.25848423077E+04  0.25848423077E+04  0.25500000920E-02 0.  1.
        2   -1    0    0  501    0  0.00000000000E+00  0.00000000000E+00 -0.13361780199E+04  0.13361780199E+04  0.25500000920E-02 0. -1.
    10030    2    1    2    0    0  0.00000000000E+00  0.00000000000E+00  0.12486642878E+04  0.39210203276E+04  0.37168855115E+04 0.  0.
        5    1    3    3  502    0  0.73672148028E+03 -0.11244149894E+04 -0.72939070938E+03  0.15294118166E+04  0.46999998093E+01 0. -1.
       -5    1    3    3    0  502 -0.73672148028E+03  0.11244149894E+04  0.19780549972E+04  0.23916085110E+04  0.46999998093E+01 0.  1.
</event>
<event>
 5   0  0.7309833E-08  0.3707165E+04  0.7818609E-02  0.8066376E-01
        2   -1    0    0  501    0  0.00000000000E+00  0.00000000000E+00  0.17203988612E+04  0.17203988612E+04  0.25500000920E-02 0. -1.
       -2   -1    0    0    0  501  0.00000000000E+00  0.00000000000E+00 -0.19970761484E+04  0.19970761484E+04  0.25500000920E-02 0.  1.
    10030    2    1    2    0    0  0.00000000000E+00  0.00000000000E+00 -0.27667728712E+03  0.37174750096E+04  0.37071647018E+04 0.  0.
        2    1    3    3  502    0 -0.12663927276E+04 -0.10283236499E+04 -0.10208814940E+04  0.19244217558E+04  0.25500000920E-02 0.  1.
       -2    1    3    3    0  502  0.12663927276E+04  0.10283236499E+04  0.74420420689E+03  0.17930532538E+04  0.25500000920E-02 0. -1.
</event>
<event>
 5   0  0.2282000E-08  0.3696034E+04  0.7818609E-02  0.8068841E-01
        1   -1    0    0  501    0  0.00000000000E+00  0.00000000000E+00  0.30618723444E+04  0.30618723444E+04  0.50400001928E-02 0.  1.
       -1   -1    0    0    0  501  0.00000000000E+00  0.00000000000E+00 -0.11153853694E+04  0.11153853694E+04  0.50400001928E-02 0. -1.
    10030    2    1    2    0    0  0.00000000000E+00  0.00000000000E+00  0.19464869750E+04  0.41772577138E+04  0.36960344240E+04 0.  0.
        2    1    3    3  502    0  0.45375030122E+03  0.14820178702E+04 -0.16422357350E+03  0.15586005535E+04  0.25500000920E-02 0. -1.
       -2    1    3    3    0  502 -0.45375030122E+03 -0.14820178702E+04  0.21107105485E+04  0.26186571602E+04  0.25500000920E-02 0.  1.
</event>
<event>
 5   0  0.2282000E-08  0.3696430E+04  0.7818609E-02  0.8068754E-01
       -1   -1    0    0    0  501  0.00000000000E+00  0.00000000000E+00  0.25065584025E+04  0.25065584025E+04  0.50400001928E-02 0.  1.
        1   -1    0    0  501    0  0.00000000000E+00  0.00000000000E+00 -0.13627840460E+04  0.13627840460E+04  0.50400001928E-02 0. -1.
    10030    2    1    2    0    0  0.00000000000E+00  0.00000000000E+00  0.11437743565E+04  0.38693424485E+04  0.36964295212E+04 0.  0.
        1    1    3    3  502    0  0.13774920217E+04 -0.51639295048E+03 -0.59926642543E+03  0.15884792091E+04  0.50400001928E-02 0. -1.
       -1    1    3    3    0  502 -0.13774920217E+04  0.51639295048E+03  0.17430407819E+04  0.22808632394E+04  0.50400001928E-02 0.  1.
</event>
<event>
 5   0  0.7191801E-08  0.3703591E+04  0.7818609E-02  0.8067166E-01
        2   -1    0    0  501    0  0.00000000000E+00  0.00000000000E+00  0.21859407241E+04  0.21859407241E+04  0.25500000920E-02 0.  1.
       -2   -1    0    0    0  501  0.00000000000E+00  0.00000000000E+00 -0.15687283664E+04  0.15687283664E+04  0.25500000920E-02 0. -1.
    10030    2    1    2    0    0  0.00000000000E+00  0.00000000000E+00  0.61721235774E+03  0.37546690905E+04  0.37035913496E+04 0.  0.
        5    1    3    3  502    0  0.12231648647E+04  0.60822236253E+03  0.15760718607E+04  0.20856872557E+04  0.46999998093E+01 0.  1.
       -5    1    3    3    0  502 -0.12231648647E+04 -0.60822236253E+03 -0.95885950296E+03  0.16689818348E+04  0.46999998093E+01 0. -1.
</event>
<event>
 5   0  0.7362817E-08  0.3688587E+04  0.7818609E-02  0.8070496E-01
       -2   -1    0    0    0  501  0.00000000000E+00  0.00000000000E+00  0.15304201785E+04  0.15304201785E+04  0.25500000920E-02 0.  1.
        2   -1    0    0  501    0  0.00000000000E+00  0.00000000000E+00 -0.22225385222E+04  0.22225385222E+04  0.25500000920E-02 0. -1.
    10030    2    1    2    0    0  0.00000000000E+00  0.00000000000E+00 -0.69211834373E+03  0.37529587007E+04  0.36885866138E+04 0.  0.
        1    1    3    3  502    0 -0.42951384436E+03  0.10044599786E+04 -0.18579238545E+04  0.21552965086E+04  0.50400001928E-02 0. -1.
       -1    1    3    3    0  502  0.42951384436E+03 -0.10044599786E+04  0.11658055108E+04  0.15976621921E+04  0.50400001928E-02 0.  1.
</event>
<event>
 5   0  0.2282000E-08  0.3699746E+04  0.7818609E-02  0.8068018E-01
        3   -1    0    0  501    0  0.00000000000E+00  0.00000000000E+00  0.19658496566E+04  0.19658496591E+04  0.10100000352E+00 0.  1.
       -3   -1    0    0    0  501  0.00000000000E+00  0.00000000000E+00 -0.17407380556E+04  0.17407380585E+04  0.10100000352E+00 0. -1.
    10030    2    1    2    0    0  0.00000000000E+00  0.00000000000E+00  0.22511160100E+03  0.37065877176E+04  0.36997455690E+04 0.  0.
        4    1    3    3  502    0  0.61505065144E+03  0.18973182742E+03  0.18500474690E+04  0.19588166634E+04  0.12699999809E+01 0.  1.
       -4    1    3    3    0  502 -0.61505065144E+03 -0.18973182742E+03 -0.16249358680E+04  0.17477710543E+04  0.12699999809E+01 0. -1.
</event>
<event>
 5   0  0.2282000E-08  0.3698797E+04  0.7818609E-02  0.8068229E-01
       -1   -1    0    0    0  501  0.00000000000E+00  0.00000000000E+00  0.28867603407E+04  0.28867603407E+04  0.50400001928E-02 0.  1.
        1   -1    0    0  501    0  0.00000000000E+00  0.00000000000E+00 -0.11848140525E+04  0.11848140525E+04  0.50400001928E-02 0. -1.
    10030    2    1    2    0    0  0.00000000000E+00  0.00000000000E+00  0.17019462881E+04  0.40715743932E+04  0.36987966789E+04 0.  0.
        3    1    3    3  502    0  0.16894764123E+04  0.52263954776E+03  0.14466094951E+04  0.22847673156E+04  0.10100000352E+00 0. -1.
       -3    1    3    3    0  502 -0.16894764123E+04 -0.52263954776E+03  0.25533679300E+03  0.17868070776E+04  0.10100000352E+00 0.  1.
</event>
<event>
 5   0  0.7191801E-08  0.3696965E+04  0.7818609E-02  0.8068635E-01
        2   -1    0    0  501    0  0.00000000000E+00  0.00000000000E+00  0.10250373347E+04  0.10250373347E+04  0.25500000920E-02 0. -1.
       -2   -1    0    0    0  501  0.00000000000E+00  0.00000000000E+00 -0.33334275598E+04  0.33334275598E+04  0.25500000920E-02 0.  1.
    10030    2    1    2    0    0  0.00000000000E+00  0.00000000000E+00 -0.23083902251E+04  0.43584648944E+04  0.36969650803E+04 0.  0.
        5    1    3    3  502    0  0.95252155768E+03 -0.15565900302E+04 -0.80726935448E+03  0.19954888476E+04  0.46999998093E+01 0.  1.
       -5    1    3    3    0  502 -0.95252155768E+03  0.15565900302E+04 -0.15011208706E+04  0.23629760469E+04  0.46999998093E+01 0. -1.
</event>
<event>
 5   0  0.2282000E-08  0.3700928E+04  0.7818609E-02  0.8067756E-01
       -1   -1    0    0    0  501  0.00000000000E+00  0.00000000000E+00  0.17682016944E+04  0.17682016944E+04  0.50400001928E-02 0. -1.
        1   -1    0    0  501    0  0.00000000000E+00  0.00000000000E+00 -0.19365533115E+04  0.19365533115E+04  0.50400001928E-02 0.  1.
    10030    2    1    2    0    0  0.00000000000E+00  0.00000000000E+00 -0.16835161710E+03  0.37047550059E+04  0.37009279089E+04 0.  0.
        3    1    3    3  502    0 -0.36445732953E+03 -0.12802421333E+04 -0.13709496568E+04  0.19108511288E+04  0.10100000352E+00 0.  1.
       -3    1    3    3    0  502  0.36445732953E+03  0.12802421333E+04  0.12025980397E+04  0.17939038771E+04  0.10100000352E+00 0. -1.
</event>
<event>
 5   0  0.7191801E-08  0.3711352E+04  0.7818609E-02  0.8065451E-01
        2   -1    0    0  501    0  0.00000000000E+00  0.00000000000E+00  0.13696582535E+04  0.13696582535E+04  0.25500000920E-02 0.  1.
       -2   -1    0    0    0  501  0.00000000000E+00  0.00000000000E+00 -0.25141549866E+04  0.25141549866E+04  0.25500000920E-02 0. -1.
    10030    2    1    2    0    0  0.00000000000E+00  0.00000000000E+00 -0.11444967330E+04  0.38838132401E+04  0.37113518443E+04 0.  0.
        5    1    3    3  502    0 -0.15925347864E+04 -0.66442479091E+03 -0.12865225653E+04  0.21523916348E+04  0.46999998093E+01 0. -1.
       -5    1    3    3    0  502  0.15925347864E+04  0.66442479091E+03  0.14202583221E+03  0.17314216054E+04  0.46999998093E+01 0.  1.
</event>
<event>
 5   0  0.2282000E-08  0.3691463E+04  0.7818609E-02  0.8069856E-01
       -1   -1    0    0    0  501  0.00000000000E+00  0.00000000000E+00  0.11443558639E+04  0.11443558639E+04  0.50400001928E-02 0. -1.
        1   -1    0    0  501    0  0.00000000000E+00  0.00000000000E+00 -0.29769795295E+04  0.29769795295E+04  0.50400001928E-02 0.  1.
    10030    2    1    2    0    0  0.00000000000E+00  0.00000000000E+00 -0.18326236656E+04  0.41213353934E+04  0.36914625727E+04 0.  0.
        2    1    3    3  502    0  0.24302413995E+03 -0.14295907774E+04 -0.21911856557E+04  0.26275625780E+04  0.25500000920E-02 0.  1.
       -2    1    3    3    0  502 -0.24302413995E+03  0.14295907774E+04  0.35856199017E+03  0.14937728154E+04  0.25500000920E-02 0. -1.
</event>
<event>
 5   0  0.7362817E-08  0.3700123E+04  0.7818609E-02  0.8067935E-01
        2   -1    0    0  501    0  0.00000000000E+00  0.00000000000E+00  0.18531139829E+04  0.18531139829E+04  0.25500000920E-02 0.  1.
       -2   -1    0    0    0  501  0.00000000000E+00  0.00000000000E+00 -0.18470142976E+04  0.18470142976E+04  0.25500000920E-02 0. -1.
    10030    2    1    2    0    0  0.00000000000E+00  0.00000000000E+00  0.60996852950E+01  0.37001282805E+04  0.37001232528E+04 0.  0.
        1    1    3    3  502    0 -0.76392095151E+03  0.16730810096E+04 -0.19683223590E+03  0.18497346334E+04  0.50400001928E-02 0. -1.
       -1    1    3    3    0  502  0.76392095151E+03 -0.16730810096E+04  0.20293192119E+03  0.18503936471E+04  0.50400001928E-02 0.  1.
</event>
<event>
 5   0  0.2282000E-08  0.3701942E+04  0.7818609E-02  0.8067532E-01
       -1   -1    0    0    0  501  0.00000000000E+00  0.00000000000E+00  0.17957398363E+04  0.17957398363E+04  0.50400001928E-02 0.  1.
        1   -1    0    0  501    0  0.00000000000E+00  0.00000000000E+00 -0.19079007213E+04  0.19079007213E+04  0.50400001928E-02 0. -1.
    10030    2    1    2    0    0  0.00000000000E+00  0.00000000000E+00 -0.11216088498E+03  0.37036405576E+04  0.37019418305E+04 0.  0.
        2    1    3    3  502    0  0.18329609002E+03  0.73837486027E+03  0.16320878381E+04  0.18006958661E+04  0.25500000920E-02 0.  1.
       -2    1    3    3    0  502 -0.18329609002E+03 -0.73837486027E+03 -0.17442487231E+04  0.19029446915E+04  0.25500000920E-02 0. -1.
</event>
<event>
 5   0  0.7203049E-08  0.3707799E+04  0.7818609E-02  0.8066236E-01
       -2   -1    0    0    0  501  0.00000000000E+00  0.00000000000E+00  0.14644510222E+04  0.14644510222E+04  0.25500000920E-02 0. -1.
        2   -1    0    0  501    0  0.00000000000E+00  0.00000000000E+00 -0.23469157387E+04  0.23469157387E+04  0.25500000920E-02 0.  1.
    10030    2    1    2    0    0  0.00000000000E+00  0.00000000000E+00 -0.88246471645E+03  0.38113667609E+04  0.37077988903E+04 0.  0.
        4    1    3    3  502    0  0.94972333143E+02  0.12475268227E+03 -0.23400877928E+04  0.23453348304E+04  0.12699999809E+01 0.  1.
       -4    1    3    3    0  502 -0.94972333143E+02 -0.12475268227E+03  0.14576230763E+04  0.14660319305E+04  0.12699999809E+01 0. -1.
</event>
<event>
 5   0  0.2282000E-08  0.3675800E+04  0.7818609E-02  0.8073346E-01
       -1   -1    0    0    0  501  0.00000000000E+00  0.00000000000E+00  0.22425396189E+04  0.22425396189E+04  0.50400001928E-02 0.  1.
        1   -1    0    0  501    0  0.00000000000E+00  0.00000000000E+00 -0.15062728342E+04  0.15062728343E+04  0.50400001928E-02 0. -1.
    10030    2    1    2    0    0  0.00000000000E+00  0.00000000000E+00  0.73626678470E+03  0.37488124532E+04  0.36758000532E+04 0.  0.
        4    1    3    3  502    0 -0.27091568318E+03  0.10886004477E+04  0.18528762162E+04  0.21660097247E+04  0.12699999809E+01 0.  1.
       -4    1    3    3    0  502  0.27091568318E+03 -0.10886004477E+04 -0.11166094315E+04  0.15828027285E+04  0.12699999809E+01 0. -1.
</event>
<event>
 5   0  0.2282000E-08  0.3702880E+04  0.7818609E-02  0.8067324E-01
       -1   -1    0    0    0  501  0.00000000000E+00  0.00000000000E+00  0.14547000564E+04  0.14547000565E+04  0.50400001928E-02 0. -1.
        1   -1    0    0  501    0  0.00000000000E+00  0.00000000000E+00 -0.23563828103E+04  0.23563828103E+04  0.50400001928E-02 0.  1.
    10030    2    1    2    0    0  0.00000000000E+00  0.00000000000E+00 -0.90168275390E+03  0.38110828668E+04  0.37028800722E+04 0.  0.
        2    1    3    3  502    0 -0.85035343886E+03  0.47900838532E+03 -0.20701175660E+04  0.22886539147E+04  0.25500000920E-02 0.  1.
       -2    1    3    3    0  502  0.85035343886E+03 -0.47900838532E+03  0.11684348121E+04  0.15224289521E+04  0.25500000920E-02 0. -1.
</event>
<event>
 5   0  0.2282000E-08  0.3699509E+04  0.7818609E-02  0.8068071E-01
        1   -1    0    0  501    0  0.00000000000E+00  0.00000000000E+00  0.14866280194E+04  0.14866280194E+04  0.50400001928E-02 0.  1.
       -1   -1    0    0    0  501  0.00000000000E+00  0.00000000000E+00 -0.23015787658E+04  0.23015787658E+04  0.50400001928E-02 0. -1.
    10030    2    1    2    0    0  0.00000000000E+00  0.00000000000E+00 -0.81495074638E+03  0.37882067852E+04  0.36995088767E+04 0.  0.
        5    1    3    3  502    0  0.18237348245E+04 -0.26608742193E+03 -0.24635560161E+03  0.18594419590E+04  0.46999998093E+01 0.  1.
       -5    1    3    3    0  502 -0.18237348245E+04  0.26608742193E+03 -0.56859514476E+03  0.19287648262E+04  0.46999998093E+01 0. -1.
</event>
<event>
 5   0  0.2282000E-08  0.3700856E+04  0.7818609E-02  0.8067772E-01
       -1   -1    0    0    0  501  0.00000000000E+00  0.00000000000E+00  0.22350381468E+04  0.22350381468E+04  0.50400001928E-02 0. -1.
        1   -1    0    0  501    0  0.00000000000E+00  0.00000000000E+00 -0.15320021889E+04  0.15320021889E+04  0.50400001928E-02 0.  1.
    10030    2    1    2    0    0  0.00000000000E+00  0.00000000000E+00  0.70303595787E+03  0.37670403357E+04  0.37008557568E+04 0.  0.
        2    1    3    3  502    0  0.14487313024E+04  0.22727581749E+03 -0.79720622224E+03  0.16691358377E+04  0.25500000920E-02 0.  1.
       -2    1    3    3    0  502 -0.14487313024E+04 -0.22727581749E+03  0.15002421801E+04  0.20979044980E+04  0.25500000920E-02 0. -1.
</event>
<event>
 5   0  0.2282000E-08  0.3705684E+04  0.7818609E-02  0.8066703E-01
        1   -1    0    0  501    0  0.00000000000E+00  0.00000000000E+00  0.22057101806E+04  0.22057101806E+04  0.50400001928E-02 0.  1.
       -1   -1    0    0    0  501  0.00000000000E+00  0.00000000000E+00 -0.15564255389E+04  0.15564255389E+04  0.50400001928E-02 0. -1.
    10030    2    1    2    0    0  0.00000000000E+00  0.00000000000E+00  0.64928464173E+03  0.37621357195E+04  0.37056840969E+04 0.  0.
        3    1    3    3  502    0 -0.91019250273E+03 -0.11868605228E+04  0.14348901106E+04  0.20726789265E+04  0.10100000352E+00 0.  1.
       -3    1    3    3    0  502  0.91019250273E+03  0.11868605228E+04 -0.78560546888E+03  0.16894567930E+04  0.10100000352E+00 0. -1.
</event>
<event>
 5   0  0.2282000E-08  0.3706386E+04  0.7818609E-02  0.8066548E-01
       -1   -1    0    0    0  501  0.00000000000E+00  0.00000000000E+00  0.27202683232E+04  0.27202683232E+04  0.50400001928E-02 0.  1.
        1   -1    0    0  501    0  0.00000000000E+00  0.00000000000E+00 -0.12624943466E+04  0.12624943466E+04  0.50400001928E-02 0. -1.
    10030    2    1    2    0    0  0.00000000000E+00  0.00000000000E+00  0.14577739766E+04  0.39827626699E+04  0.37063855058E+04 0.  0.
        5    1    3    3  502    0 -0.95508422842E+03 -0.10219754758E+04 -0.57735687131E+03  0.15132689131E+04  0.46999998093E+01 0. -1.
       -5    1    3    3    0  502  0.95508422842E+03  0.10219754758E+04  0.20351308479E+04  0.24694937568E+04  0.46999998093E+01 0.  1.
</event>
<event>
 5   0  0.2282000E-08  0.3690847E+04  0.7818609E-02  0.8069993E-01
        1   -1    0    0  501    0  0.00000000000E+00  0.00000000000E+00  0.26441079942E+04  0.26441079942E+04  0.50400001928E-02 0. -1.
       -1   -1    0    0    0  501  0.00000000000E+00  0.00000000000E+00 -0.12879910338E+04  0.12879910338E+04  0.50400001928E-02 0.  1.
    10030    2    1    2    0    0  0.00000000000E+00  0.00000000000E+00  0.13561169604E+04  0.39320990280E+04  0.36908467262E+04 0.  0.
        5    1    3    3  502    0  0.21087317249E+03 -0.86298812254E+03  0.24013005928E+04  0.25603676731E+04  0.46999998093E+01 0. -1.
       -5    1    3    3    0  502 -0.21087317249E+03  0.86298812254E+03 -0.10451836324E+04  0.13717313549E+04  0.46999998093E+01 0.  1.
</event>
<event>
 5   0  0.2282000E-08  0.3694024E+04  0.7818609E-02  0.8069287E-01
        1   -1    0    0  501    0  0.00000000000E+00  0.00000000000E+00  0.27845006179E+04  0.27845006179E+04  0.50400001928E-02 0. -1.
       -1   -1    0    0    0  501  0.00000000000E+00  0.00000000000E+00 -0.12251583624E+04  0.12251583624E+04  0.50400001928E-02 0.  1.
    10030    2    1    2    0    0  0.00000000000E+00  0.00000000000E+00  0.15593422555E+04  0.40096589804E+04  0.36940244814E+04 0.  0.
        5    1    3    3  502    0  0.93832253894E+02  0.73990051310E+03  0.26137754076E+04  0.27181061849E+04  0.46999998093E+01 0. -1.
       -5    1    3    3    0  502 -0.93832253894E+02 -0.73990051310E+03 -0.10544331521E+04  0.12915527954E+04  0.46999998093E+01 0.  1.
</event>
<event>
 5   0  0.7203049E-08  0.3682299E+04  0.7818609E-02  0.8071896E-01
       -2   -1    0    0    0  501  0.00000000000E+00  0.00000000000E+00  0.19683766736E+04  0.19683766736E+04  0.25500000920E-02 0. -1.
        2   -1    0    0  501    0  0.00000000000E+00  0.00000000000E+00 -0.17221455600E+04  0.17221455600E+04  0.25500000920E-02 0.  1.
    10030    2    1    2    0    0  0.00000000000E+00  0.00000000000E+00  0.24623111364E+03  0.36905222336E+04  0.36822988194E+04 0.  0.
        4    1    3    3  502    0 -0.22580130638E+03 -0.74898155556E+03  0.17935319796E+04  0.19567110607E+04  0.12699999809E+01 0. -1.
       -4    1    3    3    0  502  0.22580130638E+03  0.74898155556E+03 -0.15473008659E+04  0.17338111729E+04  0.12699999809E+01 0.  1.
</event>
<event>
 5   0  0.2282000E-08  0.3670118E+04  0.7818609E-02  0.8074617E-01
       -1   -1    0    0    0  501  0.00000000000E+00  0.00000000000E+00  0.19696260761E+04  0.19696260761E+04  0.50400001928E-02 0. -1.
        1   -1    0    0  501    0  0.00000000000E+00  0.00000000000E+00 -0.17096852391E+04  0.17096852391E+04  0.50400001928E-02 0.  1.
    10030    2    1    2    0    0  0.00000000000E+00  0.00000000000E+00  0.25994083704E+03  0.36793113152E+04  0.36701175070E+04 0.  0.
        4    1    3    3  502    0 -0.98854474221E+02 -0.18121731934E+04  0.40211892153E+03  0.18588827639E+04  0.12699999809E+01 0. -1.
       -4    1    3    3    0  502  0.98854474221E+02  0.18121731934E+04 -0.14217808449E+03  0.18204285513E+04  0.12699999809E+01 0.  1.
</event>
<event>
 5   0  0.7254493E-08  0.3703074E+04  0.7818609E-02  0.8067281E-01
        2   -1    0    0  501    0  0.00000000000E+00  0.00000000000E+00  0.28363049010E+04  0.28363049010E+04  0.25500000920E-02 0.  1.
       -2   -1    0    0    0  501  0.00000000000E+00  0.00000000000E+00 -0.12086817748E+04  0.12086817748E+04  0.25500000920E-02 0. -1.
    10030    2    1    2    0    0  0.00000000000E+00  0.00000000000E+00  0.16276231263E+04  0.40449866758E+04  0.37030744208E+04 0.  0.
        3    1    3    3  502    0  0.86914866206E+03  0.53743849243E+02  0.25986573889E+04  0.27406802136E+04  0.10100000352E+00 0.  1.
       -3    1    3    3    0  502 -0.86914866206E+03 -0.53743849243E+02 -0.97103426260E+03  0.13043064622E+04  0.10100000352E+00 0. -1.
</event>
<event>
 5   0  0.7362817E-08  0.3703115E+04  0.7818609E-02  0.8067272E-01
       -2   -1    0    0    0  501  0.00000000000E+00  0.00000000000E+00  0.16036395041E+04  0.16036395041E+04  0.25500000920E-02 0.  1.
        2   -1    0    0  501    0  0.00000000000E+00  0.00000000000E+00 -0.21378023221E+04  0.21378023221E+04  0.25500000920E-02 0. -1.
    10030    2    1    2    0    0  0.00000000000E+00  0.00000000000E+00 -0.53416281805E+03  0.37414418262E+04  0.37031145031E+04 0.  0.
        1    1    3    3  502    0 -0.10817540974E+04 -0.11655617019E+04  0.69117486833E+03  0.17339113896E+04  0.50400001928E-02 0.  1.
       -1    1    3    3    0  502  0.10817540974E+04  0.11655617019E+04 -0.12253376864E+04  0.20075304366E+04  0.50400001928E-02 0. -1.
</event>
<event>
 5   0  0.2282000E-08  0.3695674E+04  0.7818609E-02  0.8068921E-01
       -1   -1    0    0    0  501  0.00000000000E+00  0.00000000000E+00  0.16343871149E+04  0.16343871150E+04  0.50400001928E-02 0.  1.
        1   -1    0    0  501    0  0.00000000000E+00  0.00000000000E+00 -0.20891637489E+04  0.20891637489E+04  0.50400001928E-02 0. -1.
    10030    2    1    2    0    0  0.00000000000E+00  0.00000000000E+00 -0.45477663392E+03  0.37235508638E+04  0.36956743970E+04 0.  0.
        4    1    3    3  502    0 -0.24130015310E+03 -0.18306770268E+04 -0.15688507444E+03  0.18531645042E+04  0.12699999809E+01 0.  1.
       -4    1    3    3    0  502  0.24130015310E+03  0.18306770268E+04 -0.29789155948E+03  0.18703863596E+04  0.12699999809E+01 0. -1.
</event>
<event>
 5   0  0.7362817E-08  0.3704761E+04  0.7818609E-02  0.8066908E-01
       -2   -1    0    0    0  501  0.00000000000E+00  0.00000000000E+00  0.15152676963E+04  0.15152676963E+04  0.25500000920E-02 0. -1.
        2   -1    0    0  501    0  0.00000000000E+00  0.00000000000E+00 -0.22644930440E+04  0.22644930440E+04  0.25500000920E-02 0.  1.
    10030    2    1    2    0    0  0.00000000000E+00  0.00000000000E+00 -0.74922534774E+03  0.37797607403E+04  0.37047608064E+04 0.  0.
        1    1    3    3  502    0  0.75789014281E+03  0.16887087227E+04 -0.30119378936E+03  0.18753272561E+04  0.50400001928E-02 0. -1.
       -1    1    3    3    0  502 -0.75789014281E+03 -0.16887087227E+04 -0.44803155838E+03  0.19044334842E+04  0.50400001928E-02 0.  1.
</event>
<event>
 5   0  0.7254493E-08  0.3699236E+04  0.7818609E-02  0.8068131E-01
        2   -1    0    0  501    0  0.00000000000E+00  0.00000000000E+00  0.18381091835E+04  0.18381091835E+04  0.25500000920E-02 0.  1.
       -2   -1    0    0    0  501  0.00000000000E+00  0.00000000000E+00 -0.18611986276E+04  0.18611986276E+04  0.25500000920E-02 0. -1.
    10030    2    1    2    0    0  0.00000000000E+00  0.00000000000E+00 -0.23089444086E+02  0.36993078111E+04  0.36992357533E+04 0.  0.
        3    1    3    3  502    0  0.14488728252E+04 -0.37912880344E+03  0.10738865582E+04  0.18428791233E+04  0.10100000352E+00 0.  1.
       -3    1    3    3    0  502 -0.14488728252E+04  0.37912880344E+03 -0.10969760022E+04  0.18564286878E+04  0.10100000352E+00 0. -1.
</event>
<event>
 5   0  0.2282000E-08  0.3702511E+04  0.7818609E-02  0.8067406E-01
        1   -1    0    0  501    0  0.00000000000E+00  0.00000000000E+00  0.23612553613E+04  0.23612553613E+04  0.50400001928E-02 0.  1.
       -1   -1    0    0    0  501  0.00000000000E+00  0.00000000000E+00 -0.14514086202E+04  0.14514086202E+04  0.50400001928E-02 0. -1.
    10030    2    1    2    0    0  0.00000000000E+00  0.00000000000E+00  0.90984674109E+03  0.38126639815E+04  0.37025107081E+04 0.  0.
        2    1    3    3  502    0  0.55988813165E+03  0.17620024928E+04  0.35713019645E+03  0.18829948173E+04  0.25500000920E-02 0. -1.
       -2    1    3    3    0  502 -0.55988813165E+03 -0.17620024928E+04  0.55271654463E+03  0.19296691642E+04  0.25500000920E-02 0.  1.
</event>
<event>
 5   0  0.7254493E-08  0.3714512E+04  0.7818609E-02  0.8064753E-01
        2   -1    0    0  501    0  0.00000000000E+00  0.00000000000E+00  0.22896021497E+04  0.22896021497E+04  0.25500000920E-02 0. -1.
       -2   -1    0    0    0  501  0.00000000000E+00  0.00000000000E+00 -0.15065500614E+04  0.15065500614E+04  0.25500000920E-02 0.  1.
    10030    2    1    2    0    0  0.00000000000E+00  0.00000000000E+00  0.78305208836E+03  0.37961522111E+04  0.37145122206E+04 0.  0.
        3    1    3    3  502    0  0.12925414786E+04  0.12654103883E+04  0.82206095058E+03  0.19868847831E+04  0.10100000352E+00 0. -1.
       -3    1    3    3    0  502 -0.12925414786E+04 -0.12654103883E+04 -0.39008862219E+02  0.18092674280E+04  0.10100000352E+00 0.  1.
</event>
<event>
 5   0  0.2282000E-08  0.3708237E+04  0.7818609E-02  0.8066139E-01
        1   -1    0    0  501    0  0.00000000000E+00  0.00000000000E+00  0.23265684955E+04  0.23265684955E+04  0.50400001928E-02 0.  1.
       -1   -1    0    0    0  501  0.00000000000E+00  0.00000000000E+00 -0.14776078931E+04  0.14776078932E+04  0.50400001928E-02 0. -1.
    10030    2    1    2    0    0  0.00000000000E+00  0.00000000000E+00  0.84896060236E+03  0.38041763887E+04  0.37082373025E+04 0.  0.
        1    1    3    3  502    0  0.15679488060E+04  0.95834690099E+03  0.17139179819E+03  0.18456075935E+04  0.50400001928E-02 0. -1.
       -1    1    3    3    0  502 -0.15679488060E+04 -0.95834690099E+03  0.67756880417E+03  0.19585687951E+04  0.50400001928E-02 0.  1.
</event>
<event>
 5   0  0.2282000E-08  0.3698937E+04  0.7818609E-02  0.8068197E-01
        1   -1    0    0  501    0  0.00000000000E+00  0.00000000000E+00  0.16367169213E+04  0.16367169213E+04  0.50400001928E-02 0.  1.
       -1   -1    0    0    0  501  0.00000000000E+00  0.00000000000E+00 -0.20898753585E+04  0.20898753585E+04  0.50400001928E-02 0. -1.
    10030    2    1    2    0    0  0.00000000000E+00  0.00000000000E+00 -0.45315843716E+03  0.37265922798E+04  0.36989373407E+04 0.  0.
        2    1    3    3  502    0 -0.36246997393E+03  0.34988710602E+03  0.15662558878E+04  0.16452850741E+04  0.25500000920E-02 0.  1.
       -2    1    3    3    0  502  0.36246997393E+03 -0.34988710602E+03 -0.20194143249E+04  0.20813072057E+04  0.25500000920E-02 0. -1.
</event>
<event>
 5   0  0.2282000E-08  0.3726457E+04  0.7818609E-02  0.8062124E-01
        1   -1    0    0  501    0  0.00000000000E+00  0.00000000000E+00  0.26449133951E+04  0.26449133951E+04  0.50400001928E-02 0. -1.
       -1   -1    0    0    0  501  0.00000000000E+00  0.00000000000E+00 -0.13125651185E+04  0.13125651186E+04  0.50400001928E-02 0.  1.
    10030    2    1    2    0    0  0.00000000000E+00  0.00000000000E+00  0.13323482765E+04  0.39574785136E+04  0.37264573332E+04 0.  0.
        1    1    3    3  502    0  0.31760884560E+03 -0.63913279432E+03 -0.11616467241E+04  0.13633742037E+04  0.50400001928E-02 0.  1.
       -1    1    3    3    0  502 -0.31760884560E+03  0.63913279432E+03  0.24939950006E+04  0.25941043099E+04  0.50400001928E-02 0. -1.
</event>
<event>
 5   0  0.7362817E-08  0.3704195E+04  0.7818609E-02  0.8067033E-01
        2   -1    0    0  501    0  0.00000000000E+00  0.00000000000E+00  0.19591074657E+04  0.19591074657E+04  0.25500000920E-02 0.  1.
       -2   -1    0    0    0  501  0.00000000000E+00  0.00000000000E+00 -0.17509328124E+04  0.17509328124E+04  0.25500000920E-02 0. -1.
    10030    2    1    2    0    0  0.00000000000E+00  0.00000000000E+00  0.20817465325E+03  0.37100402781E+04  0.37041952134E+04 0.  0.
        1    1    3    3  502    0 -0.18277657380E+04  0.29326790931E+03  0.16361076793E+03  0.18583600682E+04  0.50400001928E-02 0. -1.
       -1    1    3    3    0  502  0.18277657380E+04 -0.29326790931E+03  0.44563885324E+02  0.18516802099E+04  0.50400001928E-02 0.  1.
</event>
<event>
 5   0  0.2282000E-08  0.3703242E+04  0.7818609E-02  0.8067244E-01
        1   -1    0    0  501    0  0.00000000000E+00  0.00000000000E+00  0.22530213168E+04  0.22530213168E+04  0.50400001928E-02 0.  1.
       -1   -1    0    0    0  501  0.00000000000E+00  0.00000000000E+00 -0.15217343726E+04  0.15217343726E+04  0.50400001928E-02 0. -1.
    10030    2    1    2    0    0  0.00000000000E+00  0.00000000000E+00  0.73128694427E+03  0.37747556894E+04  0.37032418122E+04 0.  0.
        1    1    3    3  502    0  0.33816439897E+03  0.84851997477E+02 -0.14879746224E+04  0.15282746805E+04  0.50400001928E-02 0. -1.
       -1    1    3    3    0  502 -0.33816439897E+03 -0.84851997477E+02  0.22192615666E+04  0.22464810089E+04  0.50400001928E-02 0.  1.
</event>
<event>
 5   0  0.2282000E-08  0.3697860E+04  0.7818609E-02  0.8068436E-01
       -1   -1    0    0    0  501  0.00000000000E+00  0.00000000000E+00  0.24769378307E+04  0.24769378307E+04  0.50400001928E-02 0.  1.
        1   -1    0    0  501    0  0.00000000000E+00  0.00000000000E+00 -0.13801487400E+04  0.13801487400E+04  0.50400001928E-02 0. -1.
    10030    2    1    2    0    0  0.00000000000E+00  0.00000000000E+00  0.10967890907E+04  0.38570865707E+04  0.36978602602E+04 0.  0.
        4    1    3    3  502    0 -0.11778611902E+04 -0.13647651492E+03 -0.93133761994E+03  0.15077712683E+04  0.12699999809E+01 0. -1.
       -4    1    3    3    0  502  0.11778611902E+04  0.13647651492E+03  0.20281267106E+04  0.23493153023E+04  0.12699999809E+01 0.  1.
</event>
<event>
 5   0  0.7309833E-08  0.3707022E+04  0.7818609E-02  0.8066407E-01
        2   -1    0    0  501    0  0.00000000000E+00  0.00000000000E+00  0.17714762319E+04  0.17714762319E+04  0.25500000920E-02 0.  1.
       -2   -1    0    0    0  501  0.00000000000E+00  0.00000000000E+00 -0.19393447180E+04  0.19393447180E+04  0.25500000920E-02 0. -1.
    10030    2    1    2    0    0  0.00000000000E+00  0.00000000000E+00 -0.16786848603E+03  0.37108209499E+04  0.37070220250E+04 0.  0.
        2    1    3    3  502    0  0.24475946452E+03 -0.17076446903E+04  0.59465830714E+03  0.18247126036E+04  0.25500000920E-02 0.  1.
       -2    1    3    3    0  502 -0.24475946452E+03  0.17076446903E+04 -0.76252679317E+03  0.18861083463E+04  0.25500000920E-02 0. -1.
</event>
<event>
 5   0  0.7309833E-08  0.3664930E+04  0.7818609E-02  0.8075778E-01
       -2   -1    0    0    0  501  0.00000000000E+00  0.00000000000E+00  0.12870345889E+04  0.12870345889E+04  0.25500000920E-02 0.  1.
        2   -1    0    0  501    0  0.00000000000E+00  0.00000000000E+00 -0.26090429901E+04  0.26090429901E+04  0.25500000920E-02 0. -1.
    10030    2    1    2    0    0  0.00000000000E+00  0.00000000000E+00 -0.13220084012E+04  0.38960775790E+04  0.36649303252E+04 0.  0.
        2    1    3    3  502    0  0.14005972916E+04 -0.59673913533E+03 -0.17452096172E+04  0.23159289663E+04  0.25500000920E-02 0. -1.
       -2    1    3    3    0  502 -0.14005972916E+04  0.59673913533E+03  0.42320121603E+03  0.15801486126E+04  0.25500000920E-02 0.  1.
</event>
<event>
 5   0  0.2282000E-08  0.3691555E+04  0.7818609E-02  0.8069836E-01
       -4   -1    0    0    0  501  0.00000000000E+00  0.00000000000E+00  0.19571008270E+04  0.19571012391E+04  0.12699999809E+01 0. -1.
        4   -1    0    0  501    0  0.00000000000E+00  0.00000000000E+00 -0.17407852524E+04  0.17407857157E+04  0.12699999809E+01 0.  1.
    10030    2    1    2    0    0  0.00000000000E+00  0.00000000000E+00  0.21631557464E+03  0.36978869548E+04  0.36915546187E+04 0.  0.
        4    1    3    3  502    0 -0.14091818819E+04  0.10651502878E+04 -0.42806742440E+03  0.18175758704E+04  0.12699999809E+01 0.  1.
       -4    1    3    3    0  502  0.14091818819E+04 -0.10651502878E+04  0.64438299905E+03  0.18803110844E+04  0.12699999809E+01 0. -1.
</event>
<event>
 5   0  0.7362817E-08  0.3699978E+04  0.7818609E-02  0.8067967E-01
        2   -1    0    0  501    0  0.00000000000E+00  0.00000000000E+00  0.17074189898E+04  0.17074189898E+04  0.25500000920E-02 0.  1.
       -2   -1    0    0    0  501  0.00000000000E+00  0.00000000000E+00 -0.20044640188E+04  0.20044640188E+04  0.25500000920E-02 0. -1.
    10030    2    1    2    0    0  0.00000000000E+00  0.00000000000E+00 -0.29704502902E+03  0.37118830085E+04  0.36999783404E+04 0.  0.
        1    1    3    3  502    0 -0.19949984930E+03  0.20595075715E+03 -0.19820363686E+04  0.20026692365E+04  0.50400001928E-02 0. -1.
       -1    1    3    3    0  502  0.19949984930E+03 -0.20595075715E+03  0.16849913396E+04  0.17092137721E+04  0.50400001928E-02 0.  1.
</event>
<event>
 5   0  0.2282000E-08  0.3698767E+04  0.7818609E-02  0.8068235E-01
       -1   -1    0    0    0  501  0.00000000000E+00  0.00000000000E+00  0.26383288389E+04  0.26383288389E+04  0.50400001928E-02 0. -1.
        1   -1    0    0  501    0  0.00000000000E+00  0.00000000000E+00 -0.12963584178E+04  0.12963584178E+04  0.50400001928E-02 0.  1.
    10030    2    1    2    0    0  0.00000000000E+00  0.00000000000E+00  0.13419704211E+04  0.39346872568E+04  0.36987672537E+04 0.  0.
        3    1    3    3  502    0 -0.80753443352E+03 -0.14634290639E+04  0.15129772101E+04  0.22545147006E+04  0.10100000352E+00 0. -1.
       -3    1    3    3    0  502  0.80753443352E+03  0.14634290639E+04 -0.17100678901E+03  0.16801725562E+04  0.10100000352E+00 0.  1.
</event>
<event>
 5   0  0.7203049E-08  0.3701981E+04  0.7818609E-02  0.8067523E-01
       -2   -1    0    0    0  501  0.00000000000E+00  0.00000000000E+00  0.26317841510E+04  0.26317841510E+04  0.25500000920E-02 0.  1.
        2   -1    0    0  501    0  0.00000000000E+00  0.00000000000E+00 -0.13018415855E+04  0.13018415855E+04  0.25500000920E-02 0. -1.
    10030    2    1    2    0    0  0.00000000000E+00  0.00000000000E+00  0.13299425656E+04  0.39336257365E+04  0.37019811193E+04 0.  0.
        4    1    3    3  502    0 -0.59222226512E+03 -0.13398211086E+04  0.18672842460E+04  0.23733099003E+04  0.12699999809E+01 0.  1.
       -4    1    3    3    0  502  0.59222226512E+03  0.13398211086E+04 -0.53734168045E+03  0.15603158362E+04  0.12699999809E+01 0. -1.
</event>
<event>
 5   0  0.7191801E-08  0.3619517E+04  0.7818609E-02  0.8086036E-01
       -2   -1    0    0    0  501  0.00000000000E+00  0.00000000000E+00  0.30247170582E+04  0.30247170582E+04  0.25500000920E-02 0. -1.
        2   -1    0    0  501    0  0.00000000000E+00  0.00000000000E+00 -0.10828207249E+04  0.10828207249E+04  0.25500000920E-02 0.  1.
    10030    2    1    2    0    0  0.00000000000E+00  0.00000000000E+00  0.19418963333E+04  0.41075377831E+04  0.36195172703E+04 0.  0.
        5    1    3    3  502    0 -0.15727845000E+04  0.29423494453E+03  0.19305201052E+04  0.25074200391E+04  0.46999998093E+01 0. -1.
       -5    1    3    3    0  502  0.15727845000E+04 -0.29423494453E+03  0.11376228053E+02  0.16001177440E+04  0.46999998093E+01 0.  1.
</event>
<event>
 5   0  0.7254493E-08  0.3702284E+04  0.7818609E-02  0.8067456E-01
       -2   -1    0    0    0  501  0.00000000000E+00  0.00000000000E+00  0.20934330291E+04  0.20934330291E+04  0.25500000920E-02 0.  1.
        2   -1    0    0  501    0  0.00000000000E+00  0.00000000000E+00 -0.16368938213E+04  0.16368938213E+04  0.25500000920E-02 0. -1.
    10030    2    1    2    0    0  0.00000000000E+00  0.00000000000E+00  0.45653920784E+03  0.37303268504E+04  0.37022844788E+04 0.  0.
        3    1    3    3  502    0 -0.21536058213E+03  0.16262727861E+04 -0.63588869183E+03  0.17594026810E+04  0.10100000352E+00 0. -1.
       -3    1    3    3    0  502  0.21536058213E+03 -0.16262727861E+04  0.10924278997E+04  0.19709241694E+04  0.10100000352E+00 0.  1.
</event>
<event>
 5   0  0.2282000E-08  0.3691898E+04  0.7818609E-02  0.8069760E-01
       -1   -1    0    0    0  501  0.00000000000E+00  0.00000000000E+00  0.21612294072E+04  0.21612294072E+04  0.50400001928E-02 0. -1.
        1   -1    0    0  501    0  0.00000000000E+00  0.00000000000E+00 -0.15766615897E+04  0.15766615897E+04  0.50400001928E-02 0.  1.
    10030    2    1    2    0    0  0.00000000000E+00  0.00000000000E+00  0.58456781754E+03  0.37378909969E+04  0.36918978278E+04 0.  0.
        1    1    3    3  502    0  0.17742314109E+04 -0.12580095620E+03  0.79220071803E+03  0.19471273605E+04  0.50400001928E-02 0. -1.
       -1    1    3    3    0  502 -0.17742314109E+04  0.12580095620E+03 -0.20763290049E+03  0.17907636364E+04  0.50400001928E-02 0.  1.
</event>
<event>
 5   0  0.2282000E-08  0.3702163E+04  0.7818609E-02  0.8067483E-01
        1   -1    0    0  501    0  0.00000000000E+00  0.00000000000E+00  0.12881410284E+04  0.12881410284E+04  0.50400001928E-02 0. -1.
       -1   -1    0    0    0  501  0.00000000000E+00  0.00000000000E+00 -0.26600367059E+04  0.26600367059E+04  0.50400001928E-02 0.  1.
    10030    2    1    2    0    0  0.00000000000E+00  0.00000000000E+00 -0.13718956775E+04  0.39481777343E+04  0.37021628370E+04 0.  0.
        2    1    3    3  502    0  0.11532381868E+04  0.71284783369E+03  0.65811642117E+03  0.15070592468E+04  0.25500000920E-02 0. -1.
       -2    1    3    3    0  502 -0.11532381868E+04 -0.71284783369E+03 -0.20300120987E+04  0.24411184875E+04  0.25500000920E-02 0.  1.
</event>
<event>
 5   0  0.2282000E-08  0.3699007E+04  0.7818609E-02  0.8068182E-01
        1   -1    0    0  501    0  0.00000000000E+00  0.00000000000E+00  0.15667988931E+04  0.15667988932E+04  0.50400001928E-02 0.  1.
       -1   -1    0    0    0  501  0.00000000000E+00  0.00000000000E+00 -0.21832174874E+04  0.21832174874E+04  0.50400001928E-02 0. -1.
    10030    2    1    2    0    0  0.00000000000E+00  0.00000000000E+00 -0.61641859425E+03  0.37500163806E+04  0.36990067547E+04 0.  0.
        2    1    3    3  502    0 -0.15183870549E+03  0.17872135756E+04 -0.76551222324E+03  0.19501785358E+04  0.25500000920E-02 0. -1.
       -2    1    3    3    0  502  0.15183870549E+03 -0.17872135756E+04  0.14909362900E+03  0.17998378448E+04  0.25500000920E-02 0.  1.
</event>
<event>
 5   0  0.7309833E-08  0.3724884E+04  0.7818609E-02  0.8062469E-01
       -2   -1    0    0    0  501  0.00000000000E+00  0.00000000000E+00  0.13994841762E+04  0.13994841762E+04  0.25500000920E-02 0. -1.
        2   -1    0    0  501    0  0.00000000000E+00  0.00000000000E+00 -0.24785491683E+04  0.24785491683E+04  0.25500000920E-02 0.  1.
    10030    2    1    2    0    0  0.00000000000E+00  0.00000000000E+00 -0.10790649921E+04  0.38780333446E+04  0.37248840740E+04 0.  0.
        2    1    3    3  502    0 -0.48610347603E+03 -0.70387707802E+03 -0.22619255838E+04  0.24182735323E+04  0.25500000920E-02 0.  1.
       -2    1    3    3    0  502  0.48610347603E+03  0.70387707802E+03  0.11828605917E+04  0.14597598123E+04  0.25500000920E-02 0. -1.
</event>
<event>
 5   0  0.7203049E-08  0.3745802E+04  0.7818609E-02  0.8057887E-01
        2   -1    0    0  501    0  0.00000000000E+00  0.00000000000E+00  0.24065700288E+04  0.24065700288E+04  0.25500000920E-02 0. -1.
       -2   -1    0    0    0  501  0.00000000000E+00  0.00000000000E+00 -0.14575754451E+04  0.14575754451E+04  0.25500000920E-02 0.  1.
    10030    2    1    2    0    0  0.00000000000E+00  0.00000000000E+00  0.94899458363E+03  0.38641454739E+04  0.37458015863E+04 0.  0.
        4    1    3    3  502    0 -0.11497648856E+04  0.14253218308E+04  0.69336759007E+02  0.18325694564E+04  0.12699999809E+01 0.  1.
       -4    1    3    3    0  502  0.11497648856E+04 -0.14253218308E+04  0.87965782463E+03  0.20315760175E+04  0.12699999809E+01 0. -1.
</event>
<event>
 5   0  0.7191801E-08  0.3702221E+04  0.7818609E-02  0.8067470E-01
        2   -1    0    0  501    0  0.00000000000E+00  0.00000000000E+00  0.21968840673E+04  0.21968840673E+04  0.25500000920E-02 0.  1.
       -2   -1    0    0    0  501  0.00000000000E+00  0.00000000000E+00 -0.15597589540E+04  0.15597589540E+04  0.25500000920E-02 0. -1.
    10030    2    1    2    0    0  0.00000000000E+00  0.00000000000E+00  0.63712511331E+03  0.37566430212E+04  0.37022207361E+04 0.  0.
        5    1    3    3  502    0 -0.12265679213E+04 -0.10216105204E+04  0.12695862629E+04  0.20396147405E+04  0.46999998093E+01 0.  1.
       -5    1    3    3    0  502  0.12265679213E+04  0.10216105204E+04 -0.63246114957E+03  0.17170282807E+04  0.46999998093E+01 0. -1.
</event>
<event>
 5   0  0.2282000E-08  0.3696200E+04  0.7818609E-02  0.8068804E-01
        1   -1    0    0  501    0  0.00000000000E+00  0.00000000000E+00  0.28308600784E+04  0.28308600784E+04  0.50400001928E-02 0. -1.
       -1   -1    0    0    0  501  0.00000000000E+00  0.00000000000E+00 -0.12065147718E+04  0.12065147718E+04  0.50400001928E-02 0.  1.
    10030    2    1    2    0    0  0.00000000000E+00  0.00000000000E+00  0.16243453066E+04  0.40373748503E+04  0.36962004825E+04 0.  0.
        1    1    3    3  502    0  0.26412709941E+03 -0.19768877876E+03 -0.11740886844E+04  0.12195606655E+04  0.50400001928E-02 0.  1.
       -1    1    3    3    0  502 -0.26412709941E+03  0.19768877876E+03  0.27984339910E+04  0.28178141848E+04  0.50400001928E-02 0. -1.
</event>
<event>
 5   0  0.2282000E-08  0.3702119E+04  0.7818609E-02  0.8067492E-01
       -1   -1    0    0    0  501  0.00000000000E+00  0.00000000000E+00  0.16504221615E+04  0.16504221615E+04  0.50400001928E-02 0. -1.
        1   -1    0    0  501    0  0.00000000000E+00  0.00000000000E+00 -0.20760874249E+04  0.20760874249E+04  0.50400001928E-02 0.  1.
    10030    2    1    2    0    0  0.00000000000E+00  0.00000000000E+00 -0.42566526339E+03  0.37265095863E+04  0.37021186881E+04 0.  0.
        4    1    3    3  502    0 -0.16652976669E+04 -0.54700561864E+03  0.38605582085E+03  0.17948460034E+04  0.12699999809E+01 0. -1.
       -4    1    3    3    0  502  0.16652976669E+04  0.54700561864E+03 -0.81172108424E+03  0.19316635829E+04  0.12699999809E+01 0.  1.
</event>
<event>
 5   0  0.7309833E-08  0.3693012E+04  0.7818609E-02  0.8069512E-01
        2   -1    0    0  501    0  0.00000000000E+00  0.00000000000E+00  0.30377240862E+04  0.30377240862E+04  0.25500000920E-02 0. -1.
       -2   -1    0    0    0  501  0.00000000000E+00  0.00000000000E+00 -0.11224142077E+04  0.11224142077E+04  0.25500000920E-02 0.  1.
    10030    2    1    2    0    0  0.00000000000E+00  0.00000000000E+00  0.19153098785E+04  0.41601382939E+04  0.36930121438E+04 0.  0.
        2    1    3    3  502    0 -0.51890929007E+03 -0.17413919944E+04  0.13276371832E+04  0.22504073897E+04  0.25500000920E-02 0. -1.
       -2    1    3    3    0  502  0.51890929007E+03  0.17413919944E+04  0.58767269531E+03  0.19097309042E+04  0.25500000920E-02 0.  1.
</event>
<event>
 5   0  0.7362817E-08  0.3691686E+04  0.7818609E-02  0.8069807E-01
       -2   -1    0    0    0  501  0.00000000000E+00  0.00000000000E+00  0.17209034607E+04  0.17209034607E+04  0.25500000920E-02 0.  1.
        2   -1    0    0  501    0  0.00000000000E+00  0.00000000000E+00 -0.19798538037E+04  0.19798538037E+04  0.25500000920E-02 0. -1.
    10030    2    1    2    0    0  0.00000000000E+00  0.00000000000E+00 -0.25895034299E+03  0.37007572645E+04  0.36916864778E+04 0.  0.
        1    1    3    3  502    0  0.10507102407E+03 -0.32298569178E+03  0.16893084363E+04  0.17231142360E+04  0.50400001928E-02 0.  1.
       -1    1    3    3    0  502 -0.10507102407E+03  0.32298569178E+03 -0.19482587793E+04  0.19776430285E+04  0.50400001928E-02 0. -1.
</event>
<event>
 5   0  0.7362817E-08  0.3696416E+04  0.7818609E-02  0.8068756E-01
        2   -1    0    0  501    0  0.00000000000E+00  0.00000000000E+00  0.21852193892E+04  0.21852193892E+04  0.25500000920E-02 0.  1.
       -2   -1    0    0    0  501  0.00000000000E+00  0.00000000000E+00 -0.15631719245E+04  0.15631719245E+04  0.25500000920E-02 0. -1.
    10030    2    1    2    0    0  0.00000000000E+00  0.00000000000E+00  0.62204746468E+03  0.37483913137E+04  0.36964164257E+04 0.  0.
        1    1    3    3  502    0 -0.20557059654E+03  0.83255751906E+03 -0.13492086618E+04  0.15986792379E+04  0.50400001928E-02 0. -1.
       -1    1    3    3    0  502  0.20557059654E+03 -0.83255751906E+03  0.19712561264E+04  0.21497120758E+04  0.50400001928E-02 0.  1.
</event>
<event>
 5   0  0.2282000E-08  0.3699524E+04  0.7818609E-02  0.8068067E-01
       -1   -1    0    0    0  501  0.00000000000E+00  0.00000000000E+00  0.14574662500E+04  0.14574662500E+04  0.50400001928E-02 0.  1.
        1   -1    0    0  501    0  0.00000000000E+00  0.00000000000E+00 -0.23476488642E+04  0.23476488642E+04  0.50400001928E-02 0. -1.
    10030    2    1    2    0    0  0.00000000000E+00  0.00000000000E+00 -0.89018261421E+03  0.38051151142E+04  0.36995237458E+04 0.  0.
        2    1    3    3  502    0  0.92807309231E+03 -0.10407780000E+04  0.80494912253E+03  0.16101185049E+04  0.25500000920E-02 0.  1.
       -2    1    3    3    0  502 -0.92807309231E+03  0.10407780000E+04 -0.16951317367E+04  0.21949966093E+04  0.25500000920E-02 0. -1.
</event>
<event>
 5   0  0.7191801E-08  0.3711190E+04  0.7818609E-02  0.8065487E-01
        2   -1    0    0  501    0  0.00000000000E+00  0.00000000000E+00  0.10261503068E+04  0.10261503068E+04  0.25500000920E-02 0. -1.
       -2   -1    0    0    0  501  0.00000000000E+00  0.00000000000E+00 -0.33554854017E+04  0.33554854017E+04  0.25500000920E-02 0.  1.
    10030    2    1    2    0    0  0.00000000000E+00  0.00000000000E+00 -0.23293350949E+04  0.43816357085E+04  0.37111897685E+04 0.  0.
        5    1    3    3  502    0  0.93189394540E+03 -0.18531273451E+03  0.71715143634E+03  0.11904181650E+04  0.46999998093E+01 0. -1.
       -5    1    3    3    0  502 -0.93189394540E+03  0.18531273451E+03 -0.30464865312E+04  0.31912175435E+04  0.46999998093E+01 0.  1.
</event>
<event>
 5   0  0.2282000E-08  0.3687748E+04  0.7818609E-02  0.8070682E-01
       -1   -1    0    0    0  501  0.00000000000E+00  0.00000000000E+00  0.13921814395E+04  0.13921814395E+04  0.50400001928E-02 0. -1.
        1   -1    0    0  501    0  0.00000000000E+00  0.00000000000E+00 -0.24421177427E+04  0.24421177427E+04  0.50400001928E-02 0.  1.
    10030    2    1    2    0    0  0.00000000000E+00  0.00000000000E+00 -0.10499363031E+04  0.38342991822E+04  0.36877478192E+04 0.  0.
        4    1    3    3  502    0  0.13317833781E+04  0.37900553523E+03 -0.17909673872E+04  0.22638149122E+04  0.12699999809E+01 0.  1.
       -4    1    3    3    0  502 -0.13317833781E+04 -0.37900553523E+03  0.74103108408E+03  0.15704842700E+04  0.12699999809E+01 0. -1.
</event>
<event>
 5   0  0.2282000E-08  0.3696271E+04  0.7818609E-02  0.8068789E-01
        1   -1    0    0  501    0  0.00000000000E+00  0.00000000000E+00  0.22718480915E+04  0.22718480915E+04  0.50400001928E-02 0.  1.
       -1   -1    0    0    0  501  0.00000000000E+00  0.00000000000E+00 -0.15034473695E+04  0.15034473695E+04  0.50400001928E-02 0. -1.
    10030    2    1    2    0    0  0.00000000000E+00  0.00000000000E+00  0.76840072196E+03  0.37752954610E+04  0.36962705729E+04 0.  0.
        1    1    3    3  502    0 -0.17813302655E+04  0.28079529680E+03 -0.28948043789E+02  0.18035580120E+04  0.50400001928E-02 0. -1.
       -1    1    3    3    0  502  0.17813302655E+04 -0.28079529680E+03  0.79734876575E+03  0.19717374490E+04  0.50400001928E-02 0.  1.
</event>
<event>
 5   0  0.2282000E-08  0.3697404E+04  0.7818609E-02  0.8068537E-01
       -1   -1    0    0    0  501  0.00000000000E+00  0.00000000000E+00  0.24977273543E+04  0.24977273543E+04  0.50400001928E-02 0. -1.
        1   -1    0    0  501    0  0.00000000000E+00  0.00000000000E+00 -0.13683234359E+04  0.13683234359E+04  0.50400001928E-02 0.  1.
    10030    2    1    2    0    0  0.00000000000E+00  0.00000000000E+00  0.11294039183E+04  0.38660507902E+04  0.36974038867E+04 0.  0.
        1    1    3    3  502    0  0.14398598542E+03 -0.15693641937E+04 -0.44585019516E+03  0.16378090038E+04  0.50400001928E-02 0.  1.
       -1    1    3    3    0  502 -0.14398598542E+03  0.15693641937E+04  0.15752541135E+04  0.22282417864E+04  0.50400001928E-02 0. -1.
</event>
<event>
 5   0  0.2282000E-08  0.3695648E+04  0.7818609E-02  0.8068927E-01
        1   -1    0    0  501    0  0.00000000000E+00  0.00000000000E+00  0.19901455763E+04  0.19901455763E+04  0.50400001928E-02 0. -1.
       -1   -1    0    0    0  501  0.00000000000E+00  0.00000000000E+00 -0.17156804368E+04  0.17156804368E+04  0.50400001928E-02 0.  1.
    10030    2    1    2    0    0  0.00000000000E+00  0.00000000000E+00  0.27446513954E+03  0.37058260131E+04  0.36956481605E+04 0.  0.
        2    1    3    3  502    0  0.16968113434E+04 -0.35428793288E+03 -0.50465936807E+03  0.18053724691E+04  0.25500000920E-02 0.  1.
       -2    1    3    3    0  502 -0.16968113434E+04  0.35428793288E+03  0.77912450761E+03  0.19004535440E+04  0.25500000920E-02 0. -1.
</event>
<event>
 5   0  0.2282000E-08  0.3675330E+04  0.7818609E-02  0.8073451E-01
        1   -1    0    0  501    0  0.00000000000E+00  0.00000000000E+00  0.19447774078E+04  0.19447774078E+04  0.50400001928E-02 0.  1.
       -1   -1    0    0    0  501  0.00000000000E+00  0.00000000000E+00 -0.17364520349E+04  0.17364520349E+04  0.50400001928E-02 0. -1.
    10030    2    1    2    0    0  0.00000000000E+00  0.00000000000E+00  0.20832537286E+03  0.36812294427E+04  0.36753300191E+04 0.  0.
        3    1    3    3  502    0  0.36818723564E+03 -0.15618339955E+04  0.10012148159E+04  0.18913800220E+04  0.10100000352E+00 0. -1.
       -3    1    3    3    0  502 -0.36818723564E+03  0.15618339955E+04 -0.79288944300E+03  0.17898494207E+04  0.10100000352E+00 0.  1.
</event>
<event>
 5   0  0.7254493E-08  0.3695391E+04  0.7818609E-02  0.8068984E-01
        2   -1    0    0  501    0  0.00000000000E+00  0.00000000000E+00  0.25183023429E+04  0.25183023429E+04  0.25500000920E-02 0. -1.
       -2   -1    0    0    0  501  0.00000000000E+00  0.00000000000E+00 -0.13556668618E+04  0.13556668618E+04  0.25500000920E-02 0.  1.
    10030    2    1    2    0    0  0.00000000000E+00  0.00000000000E+00  0.11626354811E+04  0.38739692046E+04  0.36953912021E+04 0.  0.
        3    1    3    3  502    0 -0.38957248431E+02  0.15674769561E+04 -0.44340397905E+03  0.16294504516E+04  0.10100000352E+00 0.  1.
       -3    1    3    3    0  502  0.38957248431E+02 -0.15674769561E+04  0.16060394601E+04  0.22445187531E+04  0.10100000352E+00 0. -1.
</event>
<event>
 5   0  0.2282000E-08  0.3694036E+04  0.7818609E-02  0.8069285E-01
       -1   -1    0    0    0  501  0.00000000000E+00  0.00000000000E+00  0.15409590959E+04  0.15409590959E+04  0.50400001928E-02 0. -1.
        1   -1    0    0  501    0  0.00000000000E+00  0.00000000000E+00 -0.22138654635E+04  0.22138654635E+04  0.50400001928E-02 0.  1.
    10030    2    1    2    0    0  0.00000000000E+00  0.00000000000E+00 -0.67290636762E+03  0.37548245594E+04  0.36940363415E+04 0.  0.
        3    1    3    3  502    0 -0.13910098704E+04  0.36035000301E+03 -0.15160305212E+04  0.20888056721E+04  0.10100000352E+00 0.  1.
       -3    1    3    3    0  502  0.13910098704E+04 -0.36035000301E+03  0.84312415361E+03  0.16660188873E+04  0.10100000352E+00 0. -1.
</event>
<event>
 5   0  0.7203049E-08  0.3700799E+04  0.7818609E-02  0.8067785E-01
        2   -1    0    0  501    0  0.00000000000E+00  0.00000000000E+00  0.25476466915E+04  0.25476466915E+04  0.25500000920E-02 0. -1.
       -2   -1    0    0    0  501  0.00000000000E+00  0.00000000000E+00 -0.13439772220E+04  0.13439772220E+04  0.25500000920E-02 0.  1.
    10030    2    1    2    0    0  0.00000000000E+00  0.00000000000E+00  0.12036694695E+04  0.38916239135E+04  0.37007994396E+04 0.  0.
        4    1    3    3  502    0  0.93007397320E+03  0.82974386264E+03 -0.83633488739E+03  0.15009897168E+04  0.12699999809E+01 0.  1.
       -4    1    3    3    0  502 -0.93007397320E+03 -0.82974386264E+03  0.20400043569E+04  0.23906341967E+04  0.12699999809E+01 0. -1.
</event>
<event>
 5   0  0.7254493E-08  0.3701265E+04  0.7818609E-02  0.8067682E-01
        2   -1    0    0  501    0  0.00000000000E+00  0.00000000000E+00  0.25663982470E+04  0.25663982470E+04  0.25500000920E-02 0. -1.
       -2   -1    0    0    0  501  0.00000000000E+00  0.00000000000E+00 -0.13344927737E+04  0.13344927737E+04  0.25500000920E-02 0.  1.
    10030    2    1    2    0    0  0.00000000000E+00  0.00000000000E+00  0.12319054733E+04  0.39008910207E+04  0.37012646028E+04 0.  0.
        3    1    3    3  502    0  0.83876340379E+02  0.48487006718E+03 -0.12642813576E+04  0.13566656125E+04  0.10100000352E+00 0.  1.
       -3    1    3    3    0  502 -0.83876340379E+02 -0.48487006718E+03  0.24961868310E+04  0.25442254082E+04  0.10100000352E+00 0. -1.
</event>
<event>
 5   0  0.7309833E-08  0.3700611E+04  0.7818609E-02  0.8067827E-01
        2   -1    0    0  501    0  0.00000000000E+00  0.00000000000E+00  0.31566621946E+04  0.31566621946E+04  0.25500000920E-02 0.  1.
       -2   -1    0    0    0  501  0.00000000000E+00  0.00000000000E+00 -0.10845727443E+04  0.10845727443E+04  0.25500000920E-02 0. -1.
    10030    2    1    2    0    0  0.00000000000E+00  0.00000000000E+00  0.20720894503E+04  0.42412349388E+04  0.37006106410E+04 0.  0.
        2    1    3    3  502    0  0.13401531315E+04 -0.10688880994E+04  0.18342847450E+04  0.25106040530E+04  0.25500000920E-02 0.  1.
       -2    1    3    3    0  502 -0.13401531315E+04  0.10688880994E+04  0.23780470530E+03  0.17306308858E+04  0.25500000920E-02 0. -1.
</event>
<event>
 5   0  0.2282000E-08  0.3701398E+04  0.7818609E-02  0.8067652E-01
        1   -1    0    0  501    0  0.00000000000E+00  0.00000000000E+00  0.22196058828E+04  0.22196058828E+04  0.50400001928E-02 0. -1.
       -1   -1    0    0    0  501  0.00000000000E+00  0.00000000000E+00 -0.15431060706E+04  0.15431060706E+04  0.50400001928E-02 0.  1.
    10030    2    1    2    0    0  0.00000000000E+00  0.00000000000E+00  0.67649981217E+03  0.37627119535E+04  0.37013982829E+04 0.  0.
        5    1    3    3  502    0 -0.84355697160E+03 -0.15297174071E+04  0.95947136680E+03  0.19930456853E+04  0.46999998093E+01 0. -1.
       -5    1    3    3    0  502  0.84355697160E+03  0.15297174071E+04 -0.28297155463E+03  0.17696662682E+04  0.46999998093E+01 0.  1.
</event>
<event>
 5   0  0.2282000E-08  0.3700534E+04  0.7818609E-02  0.8067843E-01
        1   -1    0    0  501    0  0.00000000000E+00  0.00000000000E+00  0.17432807843E+04  0.17432807843E+04  0.50400001928E-02 0.  1.
       -1   -1    0    0    0  501  0.00000000000E+00  0.00000000000E+00 -0.19638193287E+04  0.19638193287E+04  0.50400001928E-02 0. -1.
    10030    2    1    2    0    0  0.00000000000E+00  0.00000000000E+00 -0.22053854445E+03  0.37071001130E+04  0.37005342855E+04 0.  0.
        1    1    3    3  502    0 -0.10615241383E+04  0.76850563203E+03 -0.14187468391E+04  0.19313925019E+04  0.50400001928E-02 0. -1.
       -1    1    3    3    0  502  0.10615241383E+04 -0.76850563203E+03  0.11982082947E+04  0.17757076111E+04  0.50400001928E-02 0.  1.
</event>
<event>
 5   0  0.7203049E-08  0.3691950E+04  0.7818609E-02  0.8069748E-01
       -2   -1    0    0    0  501  0.00000000000E+00  0.00000000000E+00  0.15670359589E+04  0.15670359589E+04  0.25500000920E-02 0. -1.
        2   -1    0    0  501    0  0.00000000000E+00  0.00000000000E+00 -0.21745659582E+04  0.21745659582E+04  0.25500000920E-02 0.  1.
    10030    2    1    2    0    0  0.00000000000E+00  0.00000000000E+00 -0.60752999933E+03  0.37416019171E+04  0.36919496483E+04 0.  0.
        4    1    3    3  502    0  0.14512981336E+04  0.45249332261E+03  0.75750750515E+03  0.16984804128E+04  0.12699999809E+01 0. -1.
       -4    1    3    3    0  502 -0.14512981336E+04 -0.45249332261E+03 -0.13650375045E+04  0.20431215042E+04  0.12699999809E+01 0.  1.
</event>
<event>
 5   0  0.7203049E-08  0.3703795E+04  0.7818609E-02  0.8067121E-01
       -2   -1    0    0    0  501  0.00000000000E+00  0.00000000000E+00  0.24082094177E+04  0.24082094177E+04  0.25500000920E-02 0.  1.
        2   -1    0    0  501    0  0.00000000000E+00  0.00000000000E+00 -0.14240969882E+04  0.14240969882E+04  0.25500000920E-02 0. -1.
    10030    2    1    2    0    0  0.00000000000E+00  0.00000000000E+00  0.98411242948E+03  0.38323064059E+04  0.37037946912E+04 0.  0.
        4    1    3    3  502    0 -0.33854975922E+03 -0.47818222149E+03 -0.13256710870E+04  0.14493721469E+04  0.12699999809E+01 0. -1.
       -4    1    3    3    0  502  0.33854975922E+03  0.47818222149E+03  0.23097835165E+04  0.23829342589E+04  0.12699999809E+01 0.  1.
</event>
<event>
 5   0  0.7191801E-08  0.3698390E+04  0.7818609E-02  0.8068319E-01
        2   -1    0    0  501    0  0.00000000000E+00  0.00000000000E+00  0.19792800409E+04  0.19792800409E+04  0.25500000920E-02 0. -1.
       -2   -1    0    0    0  501  0.00000000000E+00  0.00000000000E+00 -0.17276595418E+04  0.17276595418E+04  0.25500000920E-02 0.  1.
    10030    2    1    2    0    0  0.00000000000E+00  0.00000000000E+00  0.25162049909E+03  0.37069395826E+04  0.36983899461E+04 0.  0.
        5    1    3    3  502    0  0.15805888977E+04 -0.34063838578E+03 -0.77359583163E+03  0.17924196981E+04  0.46999998093E+01 0.  1.
       -5    1    3    3    0  502 -0.15805888977E+04  0.34063838578E+03  0.10252163307E+04  0.19145198845E+04  0.46999998093E+01 0. -1.
</event>
<event>
 5   0  0.7254493E-08  0.3699348E+04  0.7818609E-02  0.8068106E-01
        2   -1    0    0  501    0  0.00000000000E+00  0.00000000000E+00  0.23834204366E+04  0.23834204366E+04  0.25500000920E-02 0.  1.
       -2   -1    0    0    0  501  0.00000000000E+00  0.00000000000E+00 -0.14354554075E+04  0.14354554075E+04  0.25500000920E-02 0. -1.
    10030    2    1    2    0    0  0.00000000000E+00  0.00000000000E+00  0.94796502911E+03  0.38188758441E+04  0.36993479177E+04 0.  0.
        3    1    3    3  502    0  0.59384169198E+03 -0.35092728225E+03 -0.12977149656E+04  0.14696469150E+04  0.10100000352E+00 0. -1.
       -3    1    3    3    0  502 -0.59384169198E+03  0.35092728225E+03  0.22456799947E+04  0.23492289291E+04  0.10100000352E+00 0.  1.
</event>
<event>
 5   0  0.7203049E-08  0.3690309E+04  0.7818609E-02  0.8070113E-01
       -2   -1    0    0    0  501  0.00000000000E+00  0.00000000000E+00  0.21373150954E+04  0.21373150954E+04  0.25500000920E-02 0.  1.
        2   -1    0    0  501    0  0.00000000000E+00  0.00000000000E+00 -0.15929304929E+04  0.15929304929E+04  0.25500000920E-02 0. -1.
    10030    2    1    2    0    0  0.00000000000E+00  0.00000000000E+00  0.54438460255E+03  0.37302455883E+04  0.36903085986E+04 0.  0.
        4    1    3    3  502    0 -0.38521712410E+03  0.13916119068E+04  0.14333699441E+04  0.20345827438E+04  0.12699999809E+01 0.  1.
       -4    1    3    3    0  502  0.38521712410E+03 -0.13916119068E+04 -0.88898534156E+03  0.16956628445E+04  0.12699999809E+01 0. -1.
</event>
<event>
 5   0  0.2282000E-08  0.3698473E+04  0.7818609E-02  0.8068300E-01
        1   -1    0    0  501    0  0.00000000000E+00  0.00000000000E+00  0.16994891361E+04  0.16994891361E+04  0.50400001928E-02 0. -1.
       -1   -1    0    0    0  501  0.00000000000E+00  0.00000000000E+00 -0.20121783494E+04  0.20121783494E+04  0.50400001928E-02 0.  1.
    10030    2    1    2    0    0  0.00000000000E+00  0.00000000000E+00 -0.31268921329E+03  0.37116674855E+04  0.36984727901E+04 0.  0.
        5    1    3    3  502    0  0.32904778286E+03 -0.17384999609E+02  0.16697840487E+04  0.17019916395E+04  0.46999998093E+01 0. -1.
       -5    1    3    3    0  502 -0.32904778286E+03  0.17384999609E+02 -0.19824732620E+04  0.20096758460E+04  0.46999998093E+01 0.  1.
</event>
<event>
 5   0  0.2282000E-08  0.3701823E+04  0.7818609E-02  0.8067558E-01
        1   -1    0    0  501    0  0.00000000000E+00  0.00000000000E+00  0.15078858708E+04  0.15078858708E+04  0.50400001928E-02 0.  1.
       -1   -1    0    0    0  501  0.00000000000E+00  0.00000000000E+00 -0.22719707173E+04  0.22719707174E+04  0.50400001928E-02 0. -1.
    10030    2    1    2    0    0  0.00000000000E+00  0.00000000000E+00 -0.76408484657E+03  0.37798565881E+04  0.37018225476E+04 0.  0.
        2    1    3    3  502    0 -0.12664395702E+04 -0.79511065814E+03  0.73173175877E+03  0.16647827217E+04  0.25500000920E-02 0.  1.
       -2    1    3    3    0  502  0.12664395702E+04  0.79511065814E+03 -0.14958166053E+04  0.21150738664E+04  0.25500000920E-02 0. -1.
</event>
<event>
 5   0  0.7203049E-08  0.3715433E+04  0.7818609E-02  0.8064550E-01
        2   -1    0    0  501    0  0.00000000000E+00  0.00000000000E+00  0.19158334128E+04  0.19158334128E+04  0.25500000920E-02 0. -1.
       -2   -1    0    0    0  501  0.00000000000E+00  0.00000000000E+00 -0.18013622165E+04  0.18013622165E+04  0.25500000920E-02 0.  1.
    10030    2    1    2    0    0  0.00000000000E+00  0.00000000000E+00  0.11447119624E+03  0.37171956293E+04  0.37154326386E+04 0.  0.
        4    1    3    3  502    0  0.99960804561E+02 -0.14475213805E+04 -0.11034002099E+04  0.18228559860E+04  0.12699999809E+01 0.  1.
       -4    1    3    3    0  502 -0.99960804561E+02  0.14475213805E+04  0.12178714062E+04  0.18943396433E+04  0.12699999809E+01 0. -1.
</event>
<event>
 5   0  0.7254493E-08  0.3697874E+04  0.7818609E-02  0.8068433E-01
        2   -1    0    0  501    0  0.00000000000E+00  0.00000000000E+00  0.29827918196E+04  0.29827918196E+04  0.25500000920E-02 0. -1.
       -2   -1    0    0    0  501  0.00000000000E+00  0.00000000000E+00 -0.11460964675E+04  0.11460964675E+04  0.25500000920E-02 0.  1.
    10030    2    1    2    0    0  0.00000000000E+00  0.00000000000E+00  0.18366953521E+04  0.41288882871E+04  0.36978735336E+04 0.  0.
        3    1    3    3  502    0 -0.13608369706E+04  0.36324955741E+03 -0.41907175732E+03  0.14695062605E+04  0.10100000352E+00 0.  1.
       -3    1    3    3    0  502  0.13608369706E+04 -0.36324955741E+03  0.22557671094E+04  0.26593820266E+04  0.10100000352E+00 0. -1.
</event>
<event>
 5   0  0.7309833E-08  0.3710648E+04  0.7818609E-02  0.8065606E-01
       -2   -1    0    0    0  501  0.00000000000E+00  0.00000000000E+00  0.29333639585E+04  0.29333639585E+04  0.25500000920E-02 0. -1.
        2   -1    0    0  501    0  0.00000000000E+00  0.00000000000E+00 -0.11734744615E+04  0.11734744615E+04  0.25500000920E-02 0.  1.
    10030    2    1    2    0    0  0.00000000000E+00  0.00000000000E+00  0.17598894970E+04  0.41068384201E+04  0.37106482947E+04 0.  0.
        2    1    3    3  502    0 -0.18250562529E+04  0.22626341144E+03  0.11515037028E+04  0.21697894449E+04  0.25500000920E-02 0.  1.
       -2    1    3    3    0  502  0.18250562529E+04 -0.22626341144E+03  0.60838579420E+03  0.19370489752E+04  0.25500000920E-02 0. -1.
</event>
<event>
 5   0  0.7203049E-08  0.3705357E+04  0.7818609E-02  0.8066776E-01
       -2   -1    0    0    0  501  0.00000000000E+00  0.00000000000E+00  0.13266645459E+04  0.13266645459E+04  0.25500000920E-02 0. -1.
        2   -1    0    0  501    0  0.00000000000E+00  0.00000000000E+00 -0.25872536175E+04  0.25872536175E+04  0.25500000920E-02 0.  1.
    10030    2    1    2    0    0  0.00000000000E+00  0.00000000000E+00 -0.12605890716E+04  0.39139181634E+04  0.37053570114E+04 0.  0.
        4    1    3    3  502    0 -0.17653037914E+04  0.77811400279E+02 -0.42118515438E+02  0.17675202042E+04  0.12699999809E+01 0. -1.
       -4    1    3    3    0  502  0.17653037914E+04 -0.77811400279E+02 -0.12184705562E+04  0.21463979592E+04  0.12699999809E+01 0.  1.
</event>
<event>
 5   0  0.2282000E-08  0.3701465E+04  0.7818609E-02  0.8067637E-01
       -1   -1    0    0    0  501  0.00000000000E+00  0.00000000000E+00  0.20873911350E+04  0.20873911350E+04  0.50400001928E-02 0.  1.
        1   -1    0    0  501    0  0.00000000000E+00  0.00000000000E+00 -0.16409054107E+04  0.16409054107E+04  0.50400001928E-02 0. -1.
    10030    2    1    2    0    0  0.00000000000E+00  0.00000000000E+00  0.44648572431E+03  0.37282965457E+04  0.37014653356E+04 0.  0.
        1    1    3    3  502    0 -0.21220008929E+03 -0.69656963617E+03 -0.14905528075E+04  0.16589110307E+04  0.50400001928E-02 0. -1.
       -1    1    3    3    0  502  0.21220008929E+03  0.69656963617E+03  0.19370385318E+04  0.20693855150E+04  0.50400001928E-02 0.  1.
</event>
<event>
 5   0  0.7309833E-08  0.3695858E+04  0.7818609E-02  0.8068880E-01
        2   -1    0    0  501    0  0.00000000000E+00  0.00000000000E+00  0.31630131285E+04  0.31630131285E+04  0.25500000920E-02 0. -1.
       -2   -1    0    0    0  501  0.00000000000E+00  0.00000000000E+00 -0.10796165709E+04  0.10796165709E+04  0.25500000920E-02 0.  1.
    10030    2    1    2    0    0  0.00000000000E+00  0.00000000000E+00  0.20833965575E+04  0.42426296994E+04  0.36958578910E+04 0.  0.
        2    1    3    3  502    0  0.99386449328E+03  0.14781821260E+04  0.16064720555E+04  0.23986541005E+04  0.25500000920E-02 0. -1.
       -2    1    3    3    0  502 -0.99386449328E+03 -0.14781821260E+04  0.47692450203E+03  0.18439755989E+04  0.25500000920E-02 0.  1.
</event>
<event>
 5   0  0.2282000E-08  0.3697773E+04  0.7818609E-02  0.8068456E-01
       -1   -1    0    0    0  501  0.00000000000E+00  0.00000000000E+00  0.14238749809E+04  0.14238749809E+04  0.50400001928E-02 0. -1.
        1   -1    0    0  501    0  0.00000000000E+00  0.00000000000E+00 -0.24007589612E+04  0.24007589612E+04  0.50400001928E-02 0.  1.
    10030    2    1    2    0    0  0.00000000000E+00  0.00000000000E+00 -0.97688398028E+03  0.38246339421E+04  0.36977726377E+04 0.  0.
        5    1    3    3  502    0  0.61339037523E+03 -0.16350217797E+04  0.13969402896E+03  0.17518791295E+04  0.46999998093E+01 0. -1.
       -5    1    3    3    0  502 -0.61339037523E+03  0.16350217797E+04 -0.11165780092E+04  0.20727548126E+04  0.46999998093E+01 0.  1.
</event>
<event>
 5   0  0.2282000E-08  0.3738636E+04  0.7818609E-02  0.8059453E-01
        1   -1    0    0  501    0  0.00000000000E+00  0.00000000000E+00  0.20812166617E+04  0.20812166617E+04  0.50400001928E-02 0.  1.
       -1   -1    0    0    0  501  0.00000000000E+00  0.00000000000E+00 -0.16789940724E+04  0.16789940724E+04  0.50400001928E-02 0. -1.
    10030    2    1    2    0    0  0.00000000000E+00  0.00000000000E+00  0.40222258934E+03  0.37602107341E+04  0.37386363494E+04 0.  0.
        3    1    3    3  502    0 -0.14157195130E+04 -0.11353517116E+04  0.65210179454E+03  0.19283469629E+04  0.10100000352E+00 0.  1.
       -3    1    3    3    0  502  0.14157195130E+04  0.11353517116E+04 -0.24987920520E+03  0.18318637712E+04  0.10100000352E+00 0. -1.
</event>
<event>
 5   0  0.7191801E-08  0.3700693E+04  0.7818609E-02  0.8067808E-01
        2   -1    0    0  501    0  0.00000000000E+00  0.00000000000E+00  0.14186556192E+04  0.14186556192E+04  0.25500000920E-02 0.  1.
       -2   -1    0    0    0  501  0.00000000000E+00  0.00000000000E+00 -0.24133985789E+04  0.24133985789E+04  0.25500000920E-02 0. -1.
    10030    2    1    2    0    0  0.00000000000E+00  0.00000000000E+00 -0.99474295967E+03  0.38320541981E+04  0.37006926138E+04 0.  0.
        5    1    3    3  502    0  0.93769617875E+03 -0.10068929487E+04  0.78373974759E+03  0.15834701184E+04  0.46999998093E+01 0.  1.
       -5    1    3    3    0  502 -0.93769617875E+03  0.10068929487E+04 -0.17784827073E+04  0.22485840798E+04  0.46999998093E+01 0. -1.
</event>
<event>
 5   0  0.2282000E-08  0.3618405E+04  0.7818609E-02  0.8086289E-01
       -1   -1    0    0    0  501  0.00000000000E+00  0.00000000000E+00  0.20927027083E+04  0.20927027083E+04  0.50400001928E-02 0.  1.
        1   -1    0    0  501    0  0.00000000000E+00  0.00000000000E+00 -0.15641084077E+04  0.15641084077E+04  0.50400001928E-02 0. -1.
    10030    2    1    2    0    0  0.00000000000E+00  0.00000000000E+00  0.52859430063E+03  0.36568111160E+04  0.36184051187E+04 0.  0.
        5    1    3    3  502    0 -0.71197023244E+03  0.81747412074E+03  0.17281276757E+04  0.20400031627E+04  0.46999998093E+01 0.  1.
       -5    1    3    3    0  502  0.71197023244E+03 -0.81747412074E+03 -0.11995333751E+04  0.16168079533E+04  0.46999998093E+01 0. -1.
</event>
<event>
 5   0  0.7254493E-08  0.3709982E+04  0.7818609E-02  0.8065753E-01
        2   -1    0    0  501    0  0.00000000000E+00  0.00000000000E+00  0.20144364662E+04  0.20144364662E+04  0.25500000920E-02 0.  1.
       -2   -1    0    0    0  501  0.00000000000E+00  0.00000000000E+00 -0.17081655505E+04  0.17081655505E+04  0.25500000920E-02 0. -1.
    10030    2    1    2    0    0  0.00000000000E+00  0.00000000000E+00  0.30627091568E+03  0.37226020168E+04  0.37099816578E+04 0.  0.
        3    1    3    3  502    0 -0.11992935616E+04 -0.14146439401E+04  0.19158605514E+03  0.18644644676E+04  0.10100000352E+00 0.  1.
       -3    1    3    3    0  502  0.11992935616E+04  0.14146439401E+04  0.11468486054E+03  0.18581375492E+04  0.10100000352E+00 0. -1.
</event>
<event>
 5   0  0.2282000E-08  0.3700642E+04  0.7818609E-02  0.8067820E-01
       -1   -1    0    0    0  501  0.00000000000E+00  0.00000000000E+00  0.94576126937E+03  0.94576126939E+03  0.50400001928E-02 0.  1.
        1   -1    0    0  501    0  0.00000000000E+00  0.00000000000E+00 -0.36200334156E+04  0.36200334156E+04  0.50400001928E-02 0. -1.
    10030    2    1    2    0    0  0.00000000000E+00  0.00000000000E+00 -0.26742721463E+04  0.45657946850E+04  0.37006417813E+04 0.  0.
        1    1    3    3  502    0  0.25053572345E+03  0.16041232531E+04 -0.24211641962E+03  0.16415236582E+04  0.50400001928E-02 0.  1.
       -1    1    3    3    0  502 -0.25053572345E+03 -0.16041232531E+04 -0.24321557266E+04  0.29242710268E+04  0.50400001928E-02 0. -1.
</event>
<event>
 5   0  0.2282000E-08  0.3669623E+04  0.7818609E-02  0.8074727E-01
        1   -1    0    0  501    0  0.00000000000E+00  0.00000000000E+00  0.13403130496E+04  0.13403130496E+04  0.50400001928E-02 0.  1.
       -1   -1    0    0    0  501  0.00000000000E+00  0.00000000000E+00 -0.25117512949E+04  0.25117512949E+04  0.50400001928E-02 0. -1.
    10030    2    1    2    0    0  0.00000000000E+00  0.00000000000E+00 -0.11714382453E+04  0.38520643445E+04  0.36696228896E+04 0.  0.
        5    1    3    3  502    0  0.78640256271E+03 -0.97884920427E+03 -0.19901192870E+04  0.23531195511E+04  0.46999998093E+01 0. -1.
       -5    1    3    3    0  502 -0.78640256271E+03  0.97884920427E+03  0.81868104178E+03  0.14989447933E+04  0.46999998093E+01 0.  1.
</event>
<event>
 5   0  0.7254493E-08  0.3741035E+04  0.7818609E-02  0.8058928E-01
       -2   -1    0    0    0  501  0.00000000000E+00  0.00000000000E+00  0.13930562845E+04  0.13930562845E+04  0.25500000920E-02 0. -1.
        2   -1    0    0  501    0  0.00000000000E+00  0.00000000000E+00 -0.25116258507E+04  0.25116258507E+04  0.25500000920E-02 0.  1.
    10030    2    1    2    0    0  0.00000000000E+00  0.00000000000E+00 -0.11185695663E+04  0.39046821352E+04  0.37410352448E+04 0.  0.
        3    1    3    3  502    0 -0.29915182635E+03 -0.17537333780E+04 -0.11622793016E+04  0.21250801777E+04  0.10100000352E+00 0.  1.
       -3    1    3    3    0  502  0.29915182635E+03  0.17537333780E+04  0.43709735385E+02  0.17796019576E+04  0.10100000352E+00 0. -1.
</event>
<event>
 5   0  0.7191801E-08  0.3702427E+04  0.7818609E-02  0.8067424E-01
       -2   -1    0    0    0  501  0.00000000000E+00  0.00000000000E+00  0.17011807304E+04  0.17011807304E+04  0.25500000920E-02 0.  1.
        2   -1    0    0  501    0  0.00000000000E+00  0.00000000000E+00 -0.20144778302E+04  0.20144778302E+04  0.25500000920E-02 0. -1.
    10030    2    1    2    0    0  0.00000000000E+00  0.00000000000E+00 -0.31329709978E+03  0.37156585606E+04  0.37024266996E+04 0.  0.
        5    1    3    3  502    0  0.97356218509E+03 -0.15675569141E+04 -0.80966730961E+01  0.18453036751E+04  0.46999998093E+01 0.  1.
       -5    1    3    3    0  502 -0.97356218509E+03  0.15675569141E+04 -0.30520042668E+03  0.18703548855E+04  0.46999998093E+01 0. -1.
</event>
<event>
 5   0  0.7191801E-08  0.3697548E+04  0.7818609E-02  0.8068505E-01
        2   -1    0    0  501    0  0.00000000000E+00  0.00000000000E+00  0.15243535580E+04  0.15243535580E+04  0.25500000920E-02 0. -1.
       -2   -1    0    0    0  501  0.00000000000E+00  0.00000000000E+00 -0.22422397977E+04  0.22422397977E+04  0.25500000920E-02 0.  1.
    10030    2    1    2    0    0  0.00000000000E+00  0.00000000000E+00 -0.71788623974E+03  0.37665933557E+04  0.36975484924E+04 0.  0.
        5    1    3    3  502    0  0.15379815067E+04 -0.10235006247E+04 -0.43099924896E+03  0.18970300700E+04  0.46999998093E+01 0.  1.
       -5    1    3    3    0  502 -0.15379815067E+04  0.10235006247E+04 -0.28688699078E+03  0.18695632857E+04  0.46999998093E+01 0. -1.
</event>
<event>
 5   0  0.2282000E-08  0.3711217E+04  0.7818609E-02  0.8065480E-01
       -1   -1    0    0    0  501  0.00000000000E+00  0.00000000000E+00  0.11524298334E+04  0.11524298334E+04  0.50400001928E-02 0.  1.
        1   -1    0    0  501    0  0.00000000000E+00  0.00000000000E+00 -0.29878466560E+04  0.29878466560E+04  0.50400001928E-02 0. -1.
    10030    2    1    2    0    0  0.00000000000E+00  0.00000000000E+00 -0.18354168226E+04  0.41402764894E+04  0.37112173873E+04 0.  0.
        4    1    3    3  502    0 -0.10397201246E+04  0.99738118672E+03  0.38688685599E+03  0.14918009992E+04  0.12699999809E+01 0.  1.
       -4    1    3    3    0  502  0.10397201246E+04 -0.99738118672E+03 -0.22223036786E+04  0.26484754902E+04  0.12699999809E+01 0. -1.
</event>
<event>
 5   0  0.2282000E-08  0.3698642E+04  0.7818609E-02  0.8068263E-01
       -3   -1    0    0    0  501  0.00000000000E+00  0.00000000000E+00  0.16126745511E+04  0.16126745543E+04  0.10100000352E+00 0. -1.
        3   -1    0    0  501    0  0.00000000000E+00  0.00000000000E+00 -0.21206932735E+04  0.21206932759E+04  0.10100000352E+00 0.  1.
    10030    2    1    2    0    0  0.00000000000E+00  0.00000000000E+00 -0.50801872236E+03  0.37333678301E+04  0.36986419579E+04 0.  0.
        5    1    3    3  502    0  0.18367600041E+04 -0.40750554672E+01 -0.36903754099E+02  0.18371412292E+04  0.46999998093E+01 0.  1.
       -5    1    3    3    0  502 -0.18367600041E+04  0.40750554672E+01 -0.47111496826E+03  0.18962266010E+04  0.46999998093E+01 0. -1.
</event>
<event>
 5   0  0.2282000E-08  0.3695771E+04  0.7818609E-02  0.8068900E-01
        1   -1    0    0  501    0  0.00000000000E+00  0.00000000000E+00  0.15769971404E+04  0.15769971404E+04  0.50400001928E-02 0. -1.
       -1   -1    0    0    0  501  0.00000000000E+00  0.00000000000E+00 -0.21653062002E+04  0.21653062002E+04  0.50400001928E-02 0.  1.
    10030    2    1    2    0    0  0.00000000000E+00  0.00000000000E+00 -0.58830905984E+03  0.37423033406E+04  0.36957714679E+04 0.  0.
        4    1    3    3  502    0  0.11084902173E+03  0.11798184135E+04 -0.17298997976E+04  0.20968581061E+04  0.12699999809E+01 0.  1.
       -4    1    3    3    0  502 -0.11084902173E+03 -0.11798184135E+04  0.11415907377E+04  0.16454452345E+04  0.12699999809E+01 0. -1.
</event>
<event>
 5   0  0.2282000E-08  0.3700552E+04  0.7818609E-02  0.8067839E-01
       -1   -1    0    0    0  501  0.00000000000E+00  0.00000000000E+00  0.25716511118E+04  0.25716511118E+04  0.50400001928E-02 0. -1.
        1   -1    0    0  501    0  0.00000000000E+00  0.00000000000E+00 -0.13312543778E+04  0.13312543778E+04  0.50400001928E-02 0.  1.
    10030    2    1    2    0    0  0.00000000000E+00  0.00000000000E+00  0.12403967340E+04  0.39029054896E+04  0.37005522835E+04 0.  0.
        3    1    3    3  502    0  0.17333519339E+04 -0.64265948892E+03  0.70190487312E+03  0.19774201897E+04  0.10100000352E+00 0. -1.
       -3    1    3    3    0  502 -0.17333519339E+04  0.64265948892E+03  0.53849186089E+03  0.19254852999E+04  0.10100000352E+00 0.  1.
</event>
<event>
 5   0  0.2282000E-08  0.3700714E+04  0.7818609E-02  0.8067804E-01
        1   -1    0    0  501    0  0.00000000000E+00  0.00000000000E+00  0.15241721987E+04  0.15241721987E+04  0.50400001928E-02 0. -1.
       -1   -1    0    0    0  501  0.00000000000E+00  0.00000000000E+00 -0.22463474583E+04  0.22463474583E+04  0.50400001928E-02 0.  1.
    10030    2    1    2    0    0  0.00000000000E+00  0.00000000000E+00 -0.72217525951E+03  0.37705196570E+04  0.37007136310E+04 0.  0.
        1    1    3    3  502    0  0.17518714305E+04  0.37026601295E+02 -0.96677213287E+03  0.20012678070E+04  0.50400001928E-02 0. -1.
       -1    1    3    3    0  502 -0.17518714305E+04 -0.37026601295E+02  0.24459687336E+03  0.17692518500E+04  0.50400001928E-02 0.  1.
</event>
<event>
 5   0  0.7254493E-08  0.3699252E+04  0.7818609E-02  0.8068128E-01
        2   -1    0    0  501    0  0.00000000000E+00  0.00000000000E+00  0.29323575787E+04  0.29323575787E+04  0.25500000920E-02 0.  1.
       -2   -1    0    0    0  501  0.00000000000E+00  0.00000000000E+00 -0.11666774607E+04  0.11666774607E+04  0.25500000920E-02 0. -1.
    10030    2    1    2    0    0  0.00000000000E+00  0.00000000000E+00  0.17656801180E+04  0.40990350394E+04  0.36992515425E+04 0.  0.
        3    1    3    3  502    0 -0.13772167876E+04  0.99818816345E+03  0.16880122304E+04  0.23963495133E+04  0.10100000352E+00 0. -1.
       -3    1    3    3    0  502  0.13772167876E+04 -0.99818816345E+03  0.77667887620E+02  0.17026855261E+04  0.10100000352E+00 0.  1.
</event>
<event>
 5   0  0.7191801E-08  0.3698225E+04  0.7818609E-02  0.8068355E-01
        2   -1    0    0  501    0  0.00000000000E+00  0.00000000000E+00  0.25296682420E+04  0.25296682420E+04  0.25500000920E-02 0. -1.
       -2   -1    0    0    0  501  0.00000000000E+00  0.00000000000E+00 -0.13516464605E+04  0.13516464605E+04  0.25500000920E-02 0.  1.
    10030    2    1    2    0    0  0.00000000000E+00  0.00000000000E+00  0.11780217815E+04  0.38813147025E+04  0.36982250475E+04 0.  0.
        5    1    3    3  502    0  0.61041779817E+03  0.44517669375E+03  0.23602868499E+04  0.24782591230E+04  0.46999998093E+01 0. -1.
       -5    1    3    3    0  502 -0.61041779817E+03 -0.44517669375E+03 -0.11822650684E+04  0.14030555794E+04  0.46999998093E+01 0.  1.
</event>
<event>
 5   0  0.7191801E-08  0.3703934E+04  0.7818609E-02  0.8067091E-01
       -2   -1    0    0    0  501  0.00000000000E+00  0.00000000000E+00  0.13352295748E+04  0.13352295748E+04  0.25500000920E-02 0. -1.
        2   -1    0    0  501    0  0.00000000000E+00  0.00000000000E+00 -0.25686834048E+04  0.25686834048E+04  0.25500000920E-02 0.  1.
    10030    2    1    2    0    0  0.00000000000E+00  0.00000000000E+00 -0.12334538300E+04  0.39039129797E+04  0.37039341520E+04 0.  0.
        5    1    3    3  502    0 -0.15908297482E+04  0.54436068805E+03  0.20152046940E+03  0.16934286037E+04  0.46999998093E+01 0. -1.
       -5    1    3    3    0  502  0.15908297482E+04 -0.54436068805E+03 -0.14349742994E+04  0.22104843759E+04  0.46999998093E+01 0.  1.
</event>
<event>
 5   0  0.2282000E-08  0.3713603E+04  0.7818609E-02  0.8064954E-01
        1   -1    0    0  501    0  0.00000000000E+00  0.00000000000E+00  0.20872377141E+04  0.20872377141E+04  0.50400001928E-02 0.  1.
       -1   -1    0    0    0  501  0.00000000000E+00  0.00000000000E+00 -0.16518063060E+04  0.16518063060E+04  0.50400001928E-02 0. -1.
    10030    2    1    2    0    0  0.00000000000E+00  0.00000000000E+00  0.43543140814E+03  0.37390440201E+04  0.37136033274E+04 0.  0.
        1    1    3    3  502    0  0.77819378013E+02  0.12340155626E+04  0.16124354662E+04  0.20319444867E+04  0.50400001928E-02 0.  1.
       -1    1    3    3    0  502 -0.77819378013E+02 -0.12340155626E+04 -0.11770040581E+04  0.17070995334E+04  0.50400001928E-02 0. -1.
</event>
<event>
 5   0  0.7362817E-08  0.3692562E+04  0.7818609E-02  0.8069612E-01
        2   -1    0    0  501    0  0.00000000000E+00  0.00000000000E+00  0.27338587434E+04  0.27338587434E+04  0.25500000920E-02 0. -1.
       -2   -1    0    0    0  501  0.00000000000E+00  0.00000000000E+00 -0.12468652440E+04  0.12468652440E+04  0.25500000920E-02 0.  1.
    10030    2    1    2    0    0  0.00000000000E+00  0.00000000000E+00  0.14869934994E+04  0.39807239873E+04  0.36925619556E+04 0.  0.
        1    1    3    3  502    0 -0.23897299382E+03  0.59813421319E+03 -0.11218154429E+04  0.12935774104E+04  0.50400001928E-02 0.  1.
       -1    1    3    3    0  502  0.23897299382E+03 -0.59813421319E+03  0.26088089423E+04  0.26871465770E+04  0.50400001928E-02 0. -1.
</event>
<event>
 5   0  0.7362817E-08  0.3699438E+04  0.7818609E-02  0.8068086E-01
       -2   -1    0    0    0  501  0.00000000000E+00  0.00000000000E+00  0.17463204192E+04  0.17463204192E+04  0.25500000920E-02 0. -1.
        2   -1    0    0  501    0  0.00000000000E+00  0.00000000000E+00 -0.19592399413E+04  0.19592399413E+04  0.25500000920E-02 0.  1.
    10030    2    1    2    0    0  0.00000000000E+00  0.00000000000E+00 -0.21291952209E+03  0.37055603606E+04  0.36994381821E+04 0.  0.
        1    1    3    3  502    0 -0.34324463582E+03  0.89942039808E+02 -0.19248301516E+04  0.19572627732E+04  0.50400001928E-02 0.  1.
       -1    1    3    3    0  502  0.34324463582E+03 -0.89942039808E+02  0.17119106296E+04  0.17482975874E+04  0.50400001928E-02 0. -1.
</event>
<event>
 5   0  0.2282000E-08  0.3701791E+04  0.7818609E-02  0.8067565E-01
       -1   -1    0    0    0  501  0.00000000000E+00  0.00000000000E+00  0.11685548073E+04  0.11685548073E+04  0.50400001928E-02 0.  1.
        1   -1    0    0  501    0  0.00000000000E+00  0.00000000000E+00 -0.29316671854E+04  0.29316671854E+04  0.50400001928E-02 0. -1.
    10030    2    1    2    0    0  0.00000000000E+00  0.00000000000E+00 -0.17631123782E+04  0.41002219927E+04  0.37017908006E+04 0.  0.
        3    1    3    3  502    0  0.85443169167E+01  0.71784436760E+02  0.11669905057E+04  0.11692274634E+04  0.10100000352E+00 0.  1.
       -3    1    3    3    0  502 -0.85443169167E+01 -0.71784436760E+02 -0.29301028838E+04  0.29309945293E+04  0.10100000352E+00 0. -1.
</event>
<event>
 5   0  0.7203049E-08  0.3705723E+04  0.7818609E-02  0.8066695E-01
        2   -1    0    0  501    0  0.00000000000E+00  0.00000000000E+00  0.29400391612E+04  0.29400391612E+04  0.25500000920E-02 0.  1.
       -2   -1    0    0    0  501  0.00000000000E+00  0.00000000000E+00 -0.11677038736E+04  0.11677038736E+04  0.25500000920E-02 0. -1.
    10030    2    1    2    0    0  0.00000000000E+00  0.00000000000E+00  0.17723352876E+04  0.41077430348E+04  0.37057226648E+04 0.  0.
        4    1    3    3  502    0  0.89391188335E+02  0.18445507132E+04  0.10533080754E+04  0.21259862729E+04  0.12699999809E+01 0. -1.
       -4    1    3    3    0  502 -0.89391188335E+02 -0.18445507132E+04  0.71902721226E+03  0.19817567618E+04  0.12699999809E+01 0.  1.
</event>
<event>
 5   0  0.2282000E-08  0.3696751E+04  0.7818609E-02  0.8068682E-01
       -1   -1    0    0    0  501  0.00000000000E+00  0.00000000000E+00  0.17217092425E+04  0.17217092425E+04  0.50400001928E-02 0. -1.
        1   -1    0    0  501    0  0.00000000000E+00  0.00000000000E+00 -0.19843604580E+04  0.19843604580E+04  0.50400001928E-02 0.  1.
    10030    2    1    2    0    0  0.00000000000E+00  0.00000000000E+00 -0.26265121548E+03  0.37060697006E+04  0.36967508659E+04 0.  0.
        2    1    3    3  502    0 -0.89317251101E+03  0.15311849194E+03  0.14837255766E+04  0.17385752770E+04  0.25500000920E-02 0. -1.
       -2    1    3    3    0  502  0.89317251101E+03 -0.15311849194E+03 -0.17463767921E+04  0.19674944236E+04  0.25500000920E-02 0.  1.
</event>
<event>
 5   0  0.7309833E-08  0.3601598E+04  0.7818609E-02  0.8090126E-01
       -2   -1    0    0    0  501  0.00000000000E+00  0.00000000000E+00  0.16778888241E+04  0.16778888241E+04  0.25500000920E-02 0. -1.
        2   -1    0    0  501    0  0.00000000000E+00  0.00000000000E+00 -0.19327121954E+04  0.19327121954E+04  0.25500000920E-02 0.  1.
    10030    2    1    2    0    0  0.00000000000E+00  0.00000000000E+00 -0.25482337126E+03  0.36106010195E+04  0.36015975304E+04 0.  0.
        2    1    3    3  502    0 -0.44127696660E+03 -0.12295170961E+04 -0.13700419225E+04  0.18930009298E+04  0.25500000920E-02 0.  1.
       -2    1    3    3    0  502  0.44127696660E+03  0.12295170961E+04  0.11152185513E+04  0.17176000896E+04  0.25500000920E-02 0. -1.
</event>
<event>
 5   0  0.2282000E-08  0.3696868E+04  0.7818609E-02  0.8068656E-01
       -1   -1    0    0    0  501  0.00000000000E+00  0.00000000000E+00  0.26103193204E+04  0.26103193204E+04  0.50400001928E-02 0. -1.
        1   -1    0    0  501    0  0.00000000000E+00  0.00000000000E+00 -0.13089234767E+04  0.13089234767E+04  0.50400001928E-02 0.  1.
    10030    2    1    2    0    0  0.00000000000E+00  0.00000000000E+00  0.13013958437E+04  0.39192427971E+04  0.36968679934E+04 0.  0.
        1    1    3    3  502    0  0.17470470659E+04  0.18586547202E+03  0.41697159724E+02  0.17574009438E+04  0.50400001928E-02 0.  1.
       -1    1    3    3    0  502 -0.17470470659E+04 -0.18586547202E+03  0.12596986840E+04  0.21618418533E+04  0.50400001928E-02 0. -1.
</event>
<event>
 5   0  0.7309833E-08  0.3697643E+04  0.7818609E-02  0.8068484E-01
       -2   -1    0    0    0  501  0.00000000000E+00  0.00000000000E+00  0.26098423616E+04  0.26098423616E+04  0.25500000920E-02 0.  1.
        2   -1    0    0  501    0  0.00000000000E+00  0.00000000000E+00 -0.13097113289E+04  0.13097113289E+04  0.25500000920E-02 0. -1.
    10030    2    1    2    0    0  0.00000000000E+00  0.00000000000E+00  0.13001310327E+04  0.39195536906E+04  0.36976425505E+04 0.  0.
        2    1    3    3  502    0 -0.88877816631E+03  0.16210690083E+04  0.63026993710E+03  0.19532105755E+04  0.25500000920E-02 0.  1.
       -2    1    3    3    0  502  0.88877816631E+03 -0.16210690083E+04  0.66986109562E+03  0.19663431151E+04  0.25500000920E-02 0. -1.
</event>
<event>
 5   0  0.7191801E-08  0.3632899E+04  0.7818609E-02  0.8082997E-01
       -2   -1    0    0    0  501  0.00000000000E+00  0.00000000000E+00  0.23630377080E+04  0.23630377080E+04  0.25500000920E-02 0. -1.
        2   -1    0    0  501    0  0.00000000000E+00  0.00000000000E+00 -0.13962911558E+04  0.13962911558E+04  0.25500000920E-02 0.  1.
    10030    2    1    2    0    0  0.00000000000E+00  0.00000000000E+00  0.96674655221E+03  0.37593288639E+04  0.36328989266E+04 0.  0.
        5    1    3    3  502    0 -0.12077815476E+04  0.13139164535E+04  0.83330425996E+03  0.19696524549E+04  0.46999998093E+01 0. -1.
       -5    1    3    3    0  502  0.12077815476E+04 -0.13139164535E+04  0.13344229225E+03  0.17896764090E+04  0.46999998093E+01 0.  1.
</event>
<event>
 5   0  0.7191801E-08  0.3695532E+04  0.7818609E-02  0.8068953E-01
        2   -1    0    0  501    0  0.00000000000E+00  0.00000000000E+00  0.30265612855E+04  0.30265612855E+04  0.25500000920E-02 0.  1.
       -2   -1    0    0    0  501  0.00000000000E+00  0.00000000000E+00 -0.11280918279E+04  0.11280918279E+04  0.25500000920E-02 0. -1.
    10030    2    1    2    0    0  0.00000000000E+00  0.00000000000E+00  0.18984694576E+04  0.41546531134E+04  0.36955319253E+04 0.  0.
        5    1    3    3  502    0  0.49106958102E+03  0.39144217284E+03 -0.10044290476E+04  0.11845995567E+04  0.46999998093E+01 0. -1.
       -5    1    3    3    0  502 -0.49106958102E+03 -0.39144217284E+03  0.29028985052E+04  0.29700535567E+04  0.46999998093E+01 0.  1.
</event>
<event>
 5   0  0.7191801E-08  0.3681489E+04  0.7818609E-02  0.8072076E-01
        2   -1    0    0  501    0  0.00000000000E+00  0.00000000000E+00  0.18142923641E+04  0.18142923641E+04  0.25500000920E-02 0.  1.
       -2   -1    0    0    0  501  0.00000000000E+00  0.00000000000E+00 -0.18675827543E+04  0.18675827543E+04  0.25500000920E-02 0. -1.
    10030    2    1    2    0    0  0.00000000000E+00  0.00000000000E+00 -0.53290390190E+02  0.36818751185E+04  0.36814894435E+04 0.  0.
        5    1    3    3  502    0 -0.86063697967E+02  0.97508513752E+03  0.15324026693E+04  0.18183723536E+04  0.46999998093E+01 0.  1.
       -5    1    3    3    0  502  0.86063697967E+02 -0.97508513752E+03 -0.15856930595E+04  0.18635027648E+04  0.46999998093E+01 0. -1.
</event>
<event>
 5   0  0.2282000E-08  0.3698755E+04  0.7818609E-02  0.8068238E-01
        1   -1    0    0  501    0  0.00000000000E+00  0.00000000000E+00  0.20501285505E+04  0.20501285505E+04  0.50400001928E-02 0. -1.
       -1   -1    0    0    0  501  0.00000000000E+00  0.00000000000E+00 -0.16682843158E+04  0.16682843158E+04  0.50400001928E-02 0.  1.
    10030    2    1    2    0    0  0.00000000000E+00  0.00000000000E+00  0.38184423473E+03  0.37184128663E+04  0.36987550912E+04 0.  0.
        3    1    3    3  502    0  0.13892871347E+04  0.11108240324E+04 -0.31787888780E+03  0.18069576008E+04  0.10100000352E+00 0. -1.
       -3    1    3    3    0  502 -0.13892871347E+04 -0.11108240324E+04  0.69972312253E+03  0.19114552655E+04  0.10100000352E+00 0.  1.
</event>
<event>
 5   0  0.2282000E-08  0.3704321E+04  0.7818609E-02  0.8067005E-01
       -1   -1    0    0    0  501  0.00000000000E+00  0.00000000000E+00  0.15170206866E+04  0.15170206866E+04  0.50400001928E-02 0. -1.
        1   -1    0    0  501    0  0.00000000000E+00  0.00000000000E+00 -0.22613387430E+04  0.22613387430E+04  0.50400001928E-02 0.  1.
    10030    2    1    2    0    0  0.00000000000E+00  0.00000000000E+00 -0.74431805641E+03  0.37783594297E+04  0.37043205329E+04 0.  0.
        3    1    3    3  502    0 -0.90086084633E+03 -0.15688356906E+04  0.32895272371E+02  0.18093860278E+04  0.10100000352E+00 0. -1.
       -3    1    3    3    0  502  0.90086084633E+03  0.15688356906E+04 -0.77721332878E+03  0.19689734018E+04  0.10100000352E+00 0.  1.
</event>
<event>
 5   0  0.2282000E-08  0.3699493E+04  0.7818609E-02  0.8068074E-01
        1   -1    0    0  501    0  0.00000000000E+00  0.00000000000E+00  0.31912797991E+04  0.31912797991E+04  0.50400001928E-02 0.  1.
       -1   -1    0    0    0  501  0.00000000000E+00  0.00000000000E+00 -0.10721601366E+04  0.10721601366E+04  0.50400001928E-02 0. -1.
    10030    2    1    2    0    0  0.00000000000E+00  0.00000000000E+00  0.21191196625E+04  0.42634399358E+04  0.36994934710E+04 0.  0.
        5    1    3    3  502    0  0.31548865440E+03  0.10903488112E+03  0.31562762708E+04  0.31738814855E+04  0.46999998093E+01 0.  1.
       -5    1    3    3    0  502 -0.31548865440E+03 -0.10903488112E+03 -0.10371566083E+04  0.10895584502E+04  0.46999998093E+01 0. -1.
</event>
<event>
 5   0  0.7362817E-08  0.3700827E+04  0.7818609E-02  0.8067779E-01
        2   -1    0    0  501    0  0.00000000000E+00  0.00000000000E+00  0.30363436470E+04  0.30363436470E+04  0.25500000920E-02 0.  1.
       -2   -1    0    0    0  501  0.00000000000E+00  0.00000000000E+00 -0.11276819937E+04  0.11276819937E+04  0.25500000920E-02 0. -1.
    10030    2    1    2    0    0  0.00000000000E+00  0.00000000000E+00  0.19086616533E+04  0.41640256407E+04  0.37008269657E+04 0.  0.
        1    1    3    3  502    0  0.34141773112E+03  0.31495256912E+03  0.29696785720E+04  0.30057864211E+04  0.50400001928E-02 0.  1.
       -1    1    3    3    0  502 -0.34141773112E+03 -0.31495256912E+03 -0.10610169188E+04  0.11582392196E+04  0.50400001928E-02 0. -1.
</event>
<event>
 5   0  0.2282000E-08  0.3699847E+04  0.7818609E-02  0.8067996E-01
       -1   -1    0    0    0  501  0.00000000000E+00  0.00000000000E+00  0.18902378189E+04  0.18902378189E+04  0.50400001928E-02 0. -1.
        1   -1    0    0  501    0  0.00000000000E+00  0.00000000000E+00 -0.18104689618E+04  0.18104689618E+04  0.50400001928E-02 0.  1.
    10030    2    1    2    0    0  0.00000000000E+00  0.00000000000E+00  0.79768857163E+02  0.37007067807E+04  0.36998469706E+04 0.  0.
        5    1    3    3  502    0 -0.68706028335E+03 -0.76791661674E+02 -0.16763948637E+04  0.18133589334E+04  0.46999998093E+01 0.  1.
       -5    1    3    3    0  502  0.68706028335E+03  0.76791661674E+02  0.17561637209E+04  0.18873478473E+04  0.46999998093E+01 0. -1.
</event>
<event>
 5   0  0.7362817E-08  0.3613284E+04  0.7818609E-02  0.8087456E-01
       -2   -1    0    0    0  501  0.00000000000E+00  0.00000000000E+00  0.22337499993E+04  0.22337499993E+04  0.25500000920E-02 0.  1.
        2   -1    0    0  501    0  0.00000000000E+00  0.00000000000E+00 -0.14611998244E+04  0.14611998244E+04  0.25500000920E-02 0. -1.
    10030    2    1    2    0    0  0.00000000000E+00  0.00000000000E+00  0.77255017495E+03  0.36949498237E+04  0.36132838840E+04 0.  0.
        1    1    3    3  502    0  0.74851543239E+03 -0.57964228413E+03 -0.11872341645E+04  0.15184813109E+04  0.50400001928E-02 0. -1.
       -1    1    3    3    0  502 -0.74851543239E+03  0.57964228413E+03  0.19597843394E+04  0.21764685128E+04  0.50400001928E-02 0.  1.
</event>
<event>
 5   0  0.7254493E-08  0.3699904E+04  0.7818609E-02  0.8067983E-01
       -2   -1    0    0    0  501  0.00000000000E+00  0.00000000000E+00  0.18002403056E+04  0.18002403056E+04  0.25500000920E-02 0. -1.
        2   -1    0    0  501    0  0.00000000000E+00  0.00000000000E+00 -0.19010363441E+04  0.19010363441E+04  0.25500000920E-02 0.  1.
    10030    2    1    2    0    0  0.00000000000E+00  0.00000000000E+00 -0.10079603848E+03  0.37012766498E+04  0.36999039172E+04 0.  0.
        3    1    3    3  502    0  0.11755846647E+04  0.10622890884E+04 -0.10056684471E+04  0.18766529906E+04  0.10100000352E+00 0.  1.
       -3    1    3    3    0  502 -0.11755846647E+04 -0.10622890884E+04  0.90487240866E+03  0.18246236592E+04  0.10100000352E+00 0. -1.
</event>
<event>
 5   0  0.7309833E-08  0.3701194E+04  0.7818609E-02  0.8067697E-01
       -2   -1    0    0    0  501  0.00000000000E+00  0.00000000000E+00  0.16919937487E+04  0.16919937487E+04  0.25500000920E-02 0. -1.
        2   -1    0    0  501    0  0.00000000000E+00  0.00000000000E+00 -0.20240668030E+04  0.20240668030E+04  0.25500000920E-02 0.  1.
    10030    2    1    2    0    0  0.00000000000E+00  0.00000000000E+00 -0.33207305430E+03  0.37160605517E+04  0.37011935252E+04 0.  0.
        2    1    3    3  502    0  0.23558779112E+03 -0.18217124524E+04  0.59745651911E+02  0.18378540229E+04  0.25500000920E-02 0.  1.
       -2    1    3    3    0  502 -0.23558779112E+03  0.18217124524E+04 -0.39181870621E+03  0.18782065289E+04  0.25500000920E-02 0. -1.
</event>
<event>
 5   0  0.2282000E-08  0.3701513E+04  0.7818609E-02  0.8067627E-01
       -1   -1    0    0    0  501  0.00000000000E+00  0.00000000000E+00  0.18642624388E+04  0.18642624388E+04  0.50400001928E-02 0.  1.
        1   -1    0    0  501    0  0.00000000000E+00  0.00000000000E+00 -0.18373486474E+04  0.18373486474E+04  0.50400001928E-02 0. -1.
    10030    2    1    2    0    0  0.00000000000E+00  0.00000000000E+00  0.26913791337E+02  0.37016110862E+04  0.37015132421E+04 0.  0.
        2    1    3    3  502    0 -0.13458715049E+04 -0.27553525480E+03 -0.12267413132E+04  0.18417882706E+04  0.25500000920E-02 0. -1.
       -2    1    3    3    0  502  0.13458715049E+04  0.27553525480E+03  0.12536551045E+04  0.18598228156E+04  0.25500000920E-02 0.  1.
</event>
<event>
 5   0  0.7191801E-08  0.3711412E+04  0.7818609E-02  0.8065438E-01
       -2   -1    0    0    0  501  0.00000000000E+00  0.00000000000E+00  0.14803476122E+04  0.14803476122E+04  0.25500000920E-02 0. -1.
        2   -1    0    0  501    0  0.00000000000E+00  0.00000000000E+00 -0.23262401070E+04  0.23262401070E+04  0.25500000920E-02 0.  1.
    10030    2    1    2    0    0  0.00000000000E+00  0.00000000000E+00 -0.84589249475E+03  0.38065877192E+04  0.37114115848E+04 0.  0.
        5    1    3    3  502    0 -0.16302625552E+04  0.84621407456E+03 -0.69389426365E+03  0.19635033991E+04  0.46999998093E+01 0.  1.
       -5    1    3    3    0  502  0.16302625552E+04 -0.84621407456E+03 -0.15199823110E+03  0.18430843202E+04  0.46999998093E+01 0. -1.
</event>
<event>
 5   0  0.7191801E-08  0.3638767E+04  0.7818609E-02  0.8081669E-01
       -2   -1    0    0    0  501  0.00000000000E+00  0.00000000000E+00  0.11540333273E+04  0.11540333273E+04  0.25500000920E-02 0.  1.
        2   -1    0    0  501    0  0.00000000000E+00  0.00000000000E+00 -0.28683374987E+04  0.28683374987E+04  0.25500000920E-02 0. -1.
    10030    2    1    2    0    0  0.00000000000E+00  0.00000000000E+00 -0.17143041714E+04  0.40223708261E+04  0.36387674109E+04 0.  0.
        5    1    3    3  502    0 -0.50769242388E+03 -0.15782071173E+04 -0.28715978598E+02  0.16581121795E+04  0.46999998093E+01 0.  1.
       -5    1    3    3    0  502  0.50769242388E+03  0.15782071173E+04 -0.16855881928E+04  0.23642586466E+04  0.46999998093E+01 0. -1.
</event>
<event>
 5   0  0.7362817E-08  0.3699073E+04  0.7818609E-02  0.8068167E-01
        2   -1    0    0  501    0  0.00000000000E+00  0.00000000000E+00  0.30473378067E+04  0.30473378067E+04  0.25500000920E-02 0.  1.
       -2   -1    0    0    0  501  0.00000000000E+00  0.00000000000E+00 -0.11225490125E+04  0.11225490125E+04  0.25500000920E-02 0. -1.
    10030    2    1    2    0    0  0.00000000000E+00  0.00000000000E+00  0.19247887941E+04  0.41698868192E+04  0.36990734222E+04 0.  0.
        1    1    3    3  502    0  0.74488370941E+03 -0.16913446200E+04  0.88042269392E+03  0.20471058801E+04  0.50400001928E-02 0. -1.
       -1    1    3    3    0  502 -0.74488370941E+03  0.16913446200E+04  0.10443661002E+04  0.21227809391E+04  0.50400001928E-02 0.  1.
</event>
<event>
 5   0  0.7203049E-08  0.3701301E+04  0.7818609E-02  0.8067674E-01
        2   -1    0    0  501    0  0.00000000000E+00  0.00000000000E+00  0.18966164015E+04  0.18966164015E+04  0.25500000920E-02 0. -1.
       -2   -1    0    0    0  501  0.00000000000E+00  0.00000000000E+00 -0.18057986726E+04  0.18057986726E+04  0.25500000920E-02 0.  1.
    10030    2    1    2    0    0  0.00000000000E+00  0.00000000000E+00  0.90817728945E+02  0.37024150741E+04  0.37013010579E+04 0.  0.
        4    1    3    3  502    0 -0.55423173672E+03  0.64729761136E+03 -0.15978694221E+04  0.18108990360E+04  0.12699999809E+01 0.  1.
       -4    1    3    3    0  502  0.55423173672E+03 -0.64729761136E+03  0.16886871510E+04  0.18915160382E+04  0.12699999809E+01 0. -1.
</event>
<event>
 5   0  0.2282000E-08  0.3696912E+04  0.7818609E-02  0.8068647E-01
       -1   -1    0    0    0  501  0.00000000000E+00  0.00000000000E+00  0.16005782102E+04  0.16005782102E+04  0.50400001928E-02 0.  1.
        1   -1    0    0  501    0  0.00000000000E+00  0.00000000000E+00 -0.21347217007E+04  0.21347217007E+04  0.50400001928E-02 0. -1.
    10030    2    1    2    0    0  0.00000000000E+00  0.00000000000E+00 -0.53414349056E+03  0.37352999109E+04  0.36969117052E+04 0.  0.
        2    1    3    3  502    0 -0.51477470685E+03  0.61963785091E+03 -0.19480313620E+04  0.21080252020E+04  0.25500000920E-02 0. -1.
       -2    1    3    3    0  502  0.51477470685E+03 -0.61963785091E+03  0.14138878714E+04  0.16272747089E+04  0.25500000920E-02 0.  1.
</event>
<event>
 5   0  0.2282000E-08  0.3701640E+04  0.7818609E-02  0.8067598E-01
        1   -1    0    0  501    0  0.00000000000E+00  0.00000000000E+00  0.21384314278E+04  0.21384314278E+04  0.50400001928E-02 0.  1.
       -1   -1    0    0    0  501  0.00000000000E+00  0.00000000000E+00 -0.16018913080E+04  0.16018913080E+04  0.50400001928E-02 0. -1.
    10030    2    1    2    0    0  0.00000000000E+00  0.00000000000E+00  0.53654011983E+03  0.37403227358E+04  0.37016400240E+04 0.  0.
        2    1    3    3  502    0  0.87169587324E+03 -0.27699510801E+03 -0.13575673909E+04  0.16369389744E+04  0.25500000920E-02 0. -1.
       -2    1    3    3    0  502 -0.87169587324E+03  0.27699510801E+03  0.18941075107E+04  0.21033837613E+04  0.25500000920E-02 0.  1.
</event>
<event>
 5   0  0.7191801E-08  0.3699893E+04  0.7818609E-02  0.8067986E-01
       -2   -1    0    0    0  501  0.00000000000E+00  0.00000000000E+00  0.15698319498E+04  0.15698319498E+04  0.25500000920E-02 0.  1.
        2   -1    0    0  501    0  0.00000000000E+00  0.00000000000E+00 -0.21800435620E+04  0.21800435620E+04  0.25500000920E-02 0. -1.
    10030    2    1    2    0    0  0.00000000000E+00  0.00000000000E+00 -0.61021161218E+03  0.37498755118E+04  0.36998929907E+04 0.  0.
        5    1    3    3  502    0 -0.79817995345E+03 -0.55946219920E+03  0.12884551327E+04  0.16156199768E+04  0.46999998093E+01 0.  1.
       -5    1    3    3    0  502  0.79817995345E+03  0.55946219920E+03 -0.18986667449E+04  0.21342555350E+04  0.46999998093E+01 0. -1.
</event>
<event>
 5   0  0.7254493E-08  0.3707362E+04  0.7818609E-02  0.8066332E-01
        2   -1    0    0  501    0  0.00000000000E+00  0.00000000000E+00  0.28413394888E+04  0.28413394888E+04  0.25500000920E-02 0. -1.
       -2   -1    0    0    0  501  0.00000000000E+00  0.00000000000E+00 -0.12093357246E+04  0.12093357246E+04  0.25500000920E-02 0.  1.
    10030    2    1    2    0    0  0.00000000000E+00  0.00000000000E+00  0.16320037642E+04  0.40506752134E+04  0.37073620539E+04 0.  0.
        3    1    3    3  502    0  0.13554892030E+04 -0.30438266558E+03 -0.52489124211E+03  0.14850961628E+04  0.10100000352E+00 0.  1.
       -3    1    3    3    0  502 -0.13554892030E+04  0.30438266558E+03  0.21568950063E+04  0.25655790506E+04  0.10100000352E+00 0. -1.
</event>
<event>
 5   0  0.2282000E-08  0.3684274E+04  0.7818609E-02  0.8071456E-01
        1   -1    0    0  501    0  0.00000000000E+00  0.00000000000E+00  0.18207653810E+04  0.18207653810E+04  0.50400001928E-02 0. -1.
       -1   -1    0    0    0  501  0.00000000000E+00  0.00000000000E+00 -0.18637591320E+04  0.18637591320E+04  0.50400001928E-02 0.  1.
    10030    2    1    2    0    0  0.00000000000E+00  0.00000000000E+00 -0.42993750981E+02  0.36845245130E+04  0.36842736630E+04 0.  0.
        2    1    3    3  502    0  0.46191394652E+03  0.70058855854E+03 -0.16615107487E+04  0.18613991486E+04  0.25500000920E-02 0.  1.
       -2    1    3    3    0  502 -0.46191394652E+03 -0.70058855854E+03  0.16185169977E+04  0.18231253644E+04  0.25500000920E-02 0. -1.
</event>
<event>
 5   0  0.7203049E-08  0.3705180E+04  0.7818609E-02  0.8066815E-01
       -2   -1    0    0    0  501  0.00000000000E+00  0.00000000000E+00  0.15536487555E+04  0.15536487555E+04  0.25500000920E-02 0. -1.
        2   -1    0    0  501    0  0.00000000000E+00  0.00000000000E+00 -0.22090513359E+04  0.22090513359E+04  0.25500000920E-02 0.  1.
    10030    2    1    2    0    0  0.00000000000E+00  0.00000000000E+00 -0.65540258039E+03  0.37627000915E+04  0.37051800814E+04 0.  0.
        4    1    3    3  502    0  0.11596389437E+04  0.13727253348E+04  0.12979312539E+03  0.18016617865E+04  0.12699999809E+01 0.  1.
       -4    1    3    3    0  502 -0.11596389437E+04 -0.13727253348E+04 -0.78519570578E+03  0.19610383050E+04  0.12699999809E+01 0. -1.
</event>
<event>
 5   0  0.2282000E-08  0.3696485E+04  0.7818609E-02  0.8068741E-01
        1   -1    0    0  501    0  0.00000000000E+00  0.00000000000E+00  0.16421628679E+04  0.16421628679E+04  0.50400001928E-02 0. -1.
       -1   -1    0    0    0  501  0.00000000000E+00  0.00000000000E+00 -0.20801837287E+04  0.20801837287E+04  0.50400001928E-02 0.  1.
    10030    2    1    2    0    0  0.00000000000E+00  0.00000000000E+00 -0.43802086081E+03  0.37223465966E+04  0.36964850752E+04 0.  0.
        4    1    3    3  502    0  0.14418405194E+04 -0.10033083508E+04  0.35987416044E+03  0.17930540299E+04  0.12699999809E+01 0. -1.
       -4    1    3    3    0  502 -0.14418405194E+04  0.10033083508E+04 -0.79789502125E+03  0.19292925667E+04  0.12699999809E+01 0.  1.
</event>
<event>
 5   0  0.2282000E-08  0.3706681E+04  0.7818609E-02  0.8066483E-01
       -1   -1    0    0    0  501  0.00000000000E+00  0.00000000000E+00  0.16678234636E+04  0.16678234636E+04  0.50400001928E-02 0.  1.
        1   -1    0    0  501    0  0.00000000000E+00  0.00000000000E+00 -0.20594929537E+04  0.20594929537E+04  0.50400001928E-02 0. -1.
    10030    2    1    2    0    0  0.00000000000E+00  0.00000000000E+00 -0.39166949011E+03  0.37273164173E+04  0.37066808178E+04 0.  0.
        3    1    3    3  502    0 -0.54442967610E+03  0.13768511606E+03 -0.19718809035E+04  0.20502866070E+04  0.10100000352E+00 0. -1.
       -3    1    3    3    0  502  0.54442967610E+03 -0.13768511606E+03  0.15802114133E+04  0.16770298103E+04  0.10100000352E+00 0.  1.
</event>
<event>
 5   0  0.7362817E-08  0.3709211E+04  0.7818609E-02  0.8065924E-01
       -2   -1    0    0    0  501  0.00000000000E+00  0.00000000000E+00  0.19734096979E+04  0.19734096979E+04  0.25500000920E-02 0. -1.
        2   -1    0    0  501    0  0.00000000000E+00  0.00000000000E+00 -0.17429539612E+04  0.17429539612E+04  0.25500000920E-02 0.  1.
    10030    2    1    2    0    0  0.00000000000E+00  0.00000000000E+00  0.23045573669E+03  0.37163636591E+04  0.37092113717E+04 0.  0.
        1    1    3    3  502    0  0.10542585452E+04  0.38267171127E+03 -0.13646657863E+04  0.17664120207E+04  0.50400001928E-02 0.  1.
       -1    1    3    3    0  502 -0.10542585452E+04 -0.38267171127E+03  0.15951215230E+04  0.19499516383E+04  0.50400001928E-02 0. -1.
</event>
<event>
 5   0  0.2282000E-08  0.3694579E+04  0.7818609E-02  0.8069164E-01
       -1   -1    0    0    0  501  0.00000000000E+00  0.00000000000E+00  0.13886478956E+04  0.13886478956E+04  0.50400001928E-02 0.  1.
        1   -1    0    0  501    0  0.00000000000E+00  0.00000000000E+00 -0.24574115042E+04  0.24574115042E+04  0.50400001928E-02 0. -1.
    10030    2    1    2    0    0  0.00000000000E+00  0.00000000000E+00 -0.10687636086E+04  0.38460593998E+04  0.36945794424E+04 0.  0.
        2    1    3    3  502    0 -0.16422049626E+04 -0.25111079424E+03 -0.13753308895E+04  0.21567171409E+04  0.25500000920E-02 0. -1.
       -2    1    3    3    0  502  0.16422049626E+04  0.25111079424E+03  0.30656728098E+03  0.16893422590E+04  0.25500000920E-02 0.  1.
</event>
<event>
 5   0  0.7362817E-08  0.3692005E+04  0.7818609E-02  0.8069736E-01
       -2   -1    0    0    0  501  0.00000000000E+00  0.00000000000E+00  0.21701743263E+04  0.21701743263E+04  0.25500000920E-02 0.  1.
        2   -1    0    0  501    0  0.00000000000E+00  0.00000000000E+00 -0.15702544493E+04  0.15702544493E+04  0.25500000920E-02 0. -1.
    10030    2    1    2    0    0  0.00000000000E+00  0.00000000000E+00  0.59991987698E+03  0.37404287756E+04  0.36920053584E+04 0.  0.
        1    1    3    3  502    0  0.13894871763E+04  0.11694262077E+04 -0.35278246153E+02  0.18164462071E+04  0.50400001928E-02 0. -1.
       -1    1    3    3    0  502 -0.13894871763E+04 -0.11694262077E+04  0.63519812313E+03  0.19239825686E+04  0.50400001928E-02 0.  1.
</event>
<event>
 5   0  0.7254493E-08  0.3688099E+04  0.7818609E-02  0.8070604E-01
        2   -1    0    0  501    0  0.00000000000E+00  0.00000000000E+00  0.22913141892E+04  0.22913141892E+04  0.25500000920E-02 0. -1.
       -2   -1    0    0    0  501  0.00000000000E+00  0.00000000000E+00 -0.14840905736E+04  0.14840905736E+04  0.25500000920E-02 0.  1.
    10030    2    1    2    0    0  0.00000000000E+00  0.00000000000E+00  0.80722361566E+03  0.37754047628E+04  0.36880985829E+04 0.  0.
        3    1    3    3  502    0 -0.67549878325E+03  0.16930300983E+04  0.68926641372E+03  0.19487785198E+04  0.10100000352E+00 0.  1.
       -3    1    3    3    0  502  0.67549878325E+03 -0.16930300983E+04  0.11795720193E+03  0.18266262430E+04  0.10100000352E+00 0. -1.
</event>
<event>
 5   0  0.2282000E-08  0.3641871E+04  0.7818609E-02  0.8080967E-01
       -1   -1    0    0    0  501  0.00000000000E+00  0.00000000000E+00  0.14214374659E+04  0.14214374659E+04  0.50400001928E-02 0.  1.
        1   -1    0    0  501    0  0.00000000000E+00  0.00000000000E+00 -0.23327133392E+04  0.23327133392E+04  0.50400001928E-02 0. -1.
    10030    2    1    2    0    0  0.00000000000E+00  0.00000000000E+00 -0.91127587337E+03  0.37541508051E+04  0.36418710233E+04 0.  0.
        1    1    3    3  502    0 -0.13991851554E+03  0.17249708747E+04  0.12812918456E+03  0.17353728123E+04  0.50400001928E-02 0.  1.
       -1    1    3    3    0  502  0.13991851554E+03 -0.17249708747E+04 -0.10394050579E+04  0.20187779928E+04  0.50400001928E-02 0. -1.
</event>
<event>
 5   0  0.2282000E-08  0.3701779E+04  0.7818609E-02  0.8067568E-01
        1   -1    0    0  501    0  0.00000000000E+00  0.00000000000E+00  0.10638668871E+04  0.10638668871E+04  0.50400001928E-02 0.  1.
       -1   -1    0    0    0  501  0.00000000000E+00  0.00000000000E+00 -0.32201313875E+04  0.32201313875E+04  0.50400001928E-02 0. -1.
    10030    2    1    2    0    0  0.00000000000E+00  0.00000000000E+00 -0.21562645004E+04  0.42839982746E+04  0.37017785754E+04 0.  0.
        1    1    3    3  502    0 -0.15090437488E+04 -0.51222938851E+03  0.11310767769E+02  0.15936498724E+04  0.50400001928E-02 0.  1.
       -1    1    3    3    0  502  0.15090437488E+04  0.51222938851E+03 -0.21675752682E+04  0.26903484023E+04  0.50400001928E-02 0. -1.
</event>
<event>
 5   0  0.7362817E-08  0.3700608E+04  0.7818609E-02  0.8067827E-01
        2   -1    0    0  501    0  0.00000000000E+00  0.00000000000E+00  0.23926577645E+04  0.23926577645E+04  0.25500000920E-02 0.  1.
       -2   -1    0    0    0  501  0.00000000000E+00  0.00000000000E+00 -0.14308879176E+04  0.14308879176E+04  0.25500000920E-02 0. -1.
    10030    2    1    2    0    0  0.00000000000E+00  0.00000000000E+00  0.96176984687E+03  0.38235456821E+04  0.37006081048E+04 0.  0.
        1    1    3    3  502    0 -0.13249024283E+04 -0.11695715346E+04  0.10471437791E+04  0.20542088777E+04  0.50400001928E-02 0.  1.
       -1    1    3    3    0  502  0.13249024283E+04  0.11695715346E+04 -0.85373932259E+02  0.17693368044E+04  0.50400001928E-02 0. -1.
</event>
<event>
 5   0  0.2282000E-08  0.3686472E+04  0.7818609E-02  0.8070966E-01
        1   -1    0    0  501    0  0.00000000000E+00  0.00000000000E+00  0.17584117208E+04  0.17584117208E+04  0.50400001928E-02 0.  1.
       -1   -1    0    0    0  501  0.00000000000E+00  0.00000000000E+00 -0.19321521258E+04  0.19321521258E+04  0.50400001928E-02 0. -1.
    10030    2    1    2    0    0  0.00000000000E+00  0.00000000000E+00 -0.17374040503E+03  0.36905638466E+04  0.36864719960E+04 0.  0.
        2    1    3    3  502    0 -0.45447852257E+03  0.17850584664E+04 -0.19456849910E+02  0.18421083098E+04  0.25500000920E-02 0.  1.
       -2    1    3    3    0  502  0.45447852257E+03 -0.17850584664E+04 -0.15428355512E+03  0.18484555368E+04  0.25500000920E-02 0. -1.
</event>
<event>
 5   0  0.2282000E-08  0.3678196E+04  0.7818609E-02  0.8072811E-01
       -1   -1    0    0    0  501  0.00000000000E+00  0.00000000000E+00  0.13451032253E+04  0.13451032253E+04  0.50400001928E-02 0. -1.
        1   -1    0    0  501    0  0.00000000000E+00  0.00000000000E+00 -0.25145147792E+04  0.25145147792E+04  0.50400001928E-02 0.  1.
    10030    2    1    2    0    0  0.00000000000E+00  0.00000000000E+00 -0.11694115538E+04  0.38596180045E+04  0.36781962643E+04 0.  0.
        1    1    3    3  502    0 -0.17690380581E+04  0.50226633563E+03 -0.56089707621E+03  0.19225952910E+04  0.50400001928E-02 0. -1.
       -1    1    3    3    0  502  0.17690380581E+04 -0.50226633563E+03 -0.60851447764E+03  0.19370227135E+04  0.50400001928E-02 0.  1.
</event>
<event>
 5   0  0.7254493E-08  0.3690463E+04  0.7818609E-02  0.8070079E-01
       -2   -1    0    0    0  501  0.00000000000E+00  0.00000000000E+00  0.31136662379E+04  0.31136662379E+04  0.25500000920E-02 0. -1.
        2   -1    0    0  501    0  0.00000000000E+00  0.00000000000E+00 -0.10935274816E+04  0.10935274816E+04  0.25500000920E-02 0.  1.
    10030    2    1    2    0    0  0.00000000000E+00  0.00000000000E+00  0.20201387563E+04  0.42071937195E+04  0.36904631687E+04 0.  0.
        3    1    3    3  502    0  0.13979684769E+04 -0.58129835223E+02  0.23814992592E+04  0.27621067452E+04  0.10100000352E+00 0. -1.
       -3    1    3    3    0  502 -0.13979684769E+04  0.58129835223E+02 -0.36136050298E+03  0.14450869743E+04  0.10100000352E+00 0.  1.
</event>
<event>
 5   0  0.2282000E-08  0.3692606E+04  0.7818609E-02  0.8069602E-01
        1   -1    0    0  501    0  0.00000000000E+00  0.00000000000E+00  0.16009585931E+04  0.16009585931E+04  0.50400001928E-02 0. -1.
       -1   -1    0    0    0  501  0.00000000000E+00  0.00000000000E+00 -0.21292458208E+04  0.21292458208E+04  0.50400001928E-02 0.  1.
    10030    2    1    2    0    0  0.00000000000E+00  0.00000000000E+00 -0.52828722767E+03  0.37302044139E+04  0.36926057973E+04 0.  0.
        4    1    3    3  502    0 -0.12327956082E+04  0.76968314737E+03  0.88614986767E+03  0.17021928093E+04  0.12699999809E+01 0. -1.
       -4    1    3    3    0  502  0.12327956082E+04 -0.76968314737E+03 -0.14144370953E+04  0.20280116046E+04  0.12699999809E+01 0.  1.
</event>
<event>
 5   0  0.2282000E-08  0.3704051E+04  0.7818609E-02  0.8067065E-01
       -1   -1    0    0    0  501  0.00000000000E+00  0.00000000000E+00  0.12281487438E+04  0.12281487439E+04  0.50400001928E-02 0.  1.
        1   -1    0    0  501    0  0.00000000000E+00  0.00000000000E+00 -0.27928199045E+04  0.27928199045E+04  0.50400001928E-02 0. -1.
    10030    2    1    2    0    0  0.00000000000E+00  0.00000000000E+00 -0.15646711606E+04  0.40209686483E+04  0.37040508946E+04 0.  0.
        1    1    3    3  502    0 -0.40091528377E+03  0.70092348719E+03  0.10269937823E+04  0.13064237554E+04  0.50400001928E-02 0.  1.
       -1    1    3    3    0  502  0.40091528377E+03 -0.70092348719E+03 -0.25916649429E+04  0.27145448930E+04  0.50400001928E-02 0. -1.
</event>
<event>
 5   0  0.2282000E-08  0.3699137E+04  0.7818609E-02  0.8068153E-01
        1   -1    0    0  501    0  0.00000000000E+00  0.00000000000E+00  0.24751216042E+04  0.24751216042E+04  0.50400001928E-02 0.  1.
       -1   -1    0    0    0  501  0.00000000000E+00  0.00000000000E+00 -0.13821153467E+04  0.13821153467E+04  0.50400001928E-02 0. -1.
    10030    2    1    2    0    0  0.00000000000E+00  0.00000000000E+00  0.10930062575E+04  0.38572369510E+04  0.36991369557E+04 0.  0.
        1    1    3    3  502    0 -0.12566858624E+04 -0.14445386461E+03  0.19535362485E+04  0.23273225281E+04  0.50400001928E-02 0.  1.
       -1    1    3    3    0  502  0.12566858624E+04  0.14445386461E+03 -0.86052999100E+03  0.15299144228E+04  0.50400001928E-02 0. -1.
</event>
<event>
 5   0  0.7309833E-08  0.3696276E+04  0.7818609E-02  0.8068788E-01
        2   -1    0    0  501    0  0.00000000000E+00  0.00000000000E+00  0.23057317873E+04  0.23057317873E+04  0.25500000920E-02 0.  1.
       -2   -1    0    0    0  501  0.00000000000E+00  0.00000000000E+00 -0.14813578065E+04  0.14813578065E+04  0.25500000920E-02 0. -1.
    10030    2    1    2    0    0  0.00000000000E+00  0.00000000000E+00  0.82437398085E+03  0.37870895938E+04  0.36962758462E+04 0.  0.
        2    1    3    3  502    0 -0.70307908915E+03  0.49566333512E+03  0.20881048420E+04  0.22583587356E+04  0.25500000920E-02 0.  1.
       -2    1    3    3    0  502  0.70307908915E+03 -0.49566333512E+03 -0.12637308612E+04  0.15287308582E+04  0.25500000920E-02 0. -1.
</event>
<event>
 5   0  0.7203049E-08  0.3705976E+04  0.7818609E-02  0.8066639E-01
        2   -1    0    0  501    0  0.00000000000E+00  0.00000000000E+00  0.21347391082E+04  0.21347391082E+04  0.25500000920E-02 0.  1.
       -2   -1    0    0    0  501  0.00000000000E+00  0.00000000000E+00 -0.16084236793E+04  0.16084236794E+04  0.25500000920E-02 0. -1.
    10030    2    1    2    0    0  0.00000000000E+00  0.00000000000E+00  0.52631542885E+03  0.37431627876E+04  0.37059762173E+04 0.  0.
        4    1    3    3  502    0  0.47855578492E+03  0.44313607969E+03 -0.14886557454E+04  0.16252639065E+04  0.12699999809E+01 0. -1.
       -4    1    3    3    0  502 -0.47855578492E+03 -0.44313607969E+03  0.20149711743E+04  0.21178988811E+04  0.12699999809E+01 0.  1.
</event>
<event>
 5   0  0.7254493E-08  0.3714777E+04  0.7818609E-02  0.8064695E-01
       -2   -1    0    0    0  501  0.00000000000E+00  0.00000000000E+00  0.19613397173E+04  0.19613397173E+04  0.25500000920E-02 0.  1.
        2   -1    0    0  501    0  0.00000000000E+00  0.00000000000E+00 -0.17589471609E+04  0.17589471609E+04  0.25500000920E-02 0. -1.
    10030    2    1    2    0    0  0.00000000000E+00  0.00000000000E+00  0.20239255646E+03  0.37202868782E+04  0.37147774778E+04 0.  0.
        3    1    3    3  502    0 -0.62533100334E+03  0.13357823186E+04 -0.10294331939E+04  0.17986344758E+04  0.10100000352E+00 0. -1.
       -3    1    3    3    0  502  0.62533100334E+03 -0.13357823186E+04  0.12318257503E+04  0.19216524025E+04  0.10100000352E+00 0.  1.
</event>
<event>
 5   0  0.2282000E-08  0.3732444E+04  0.7818609E-02  0.8060810E-01
       -1   -1    0    0    0  501  0.00000000000E+00  0.00000000000E+00  0.11879910709E+04  0.11879910709E+04  0.50400001928E-02 0. -1.
        1   -1    0    0  501    0  0.00000000000E+00  0.00000000000E+00 -0.29316592638E+04  0.29316592638E+04  0.50400001928E-02 0.  1.
    10030    2    1    2    0    0  0.00000000000E+00  0.00000000000E+00 -0.17436681929E+04  0.41196503347E+04  0.37324442546E+04 0.  0.
        3    1    3    3  502    0 -0.19788175258E+03  0.12673879608E+04 -0.23679444653E+04  0.26930633918E+04  0.10100000352E+00 0.  1.
       -3    1    3    3    0  502  0.19788175258E+03 -0.12673879608E+04  0.62427627245E+03  0.14265869429E+04  0.10100000352E+00 0. -1.
</event>
<event>
 5   0  0.7191801E-08  0.3690321E+04  0.7818609E-02  0.8070110E-01
       -2   -1    0    0    0  501  0.00000000000E+00  0.00000000000E+00  0.18236053647E+04  0.18236053647E+04  0.25500000920E-02 0. -1.
        2   -1    0    0  501    0  0.00000000000E+00  0.00000000000E+00 -0.18669706723E+04  0.18669706723E+04  0.25500000920E-02 0.  1.
    10030    2    1    2    0    0  0.00000000000E+00  0.00000000000E+00 -0.43365307597E+02  0.36905760371E+04  0.36903212510E+04 0.  0.
        5    1    3    3  502    0  0.17895101704E+03 -0.10990356576E+04  0.14497084292E+04  0.18279987590E+04  0.46999998093E+01 0. -1.
       -5    1    3    3    0  502 -0.17895101704E+03  0.10990356576E+04 -0.14930737368E+04  0.18625772781E+04  0.46999998093E+01 0.  1.
</event>
<event>
 5   0  0.7309833E-08  0.3699643E+04  0.7818609E-02  0.8068041E-01
        2   -1    0    0  501    0  0.00000000000E+00  0.00000000000E+00  0.14399415061E+04  0.14399415061E+04  0.25500000920E-02 0. -1.
       -2   -1    0    0    0  501  0.00000000000E+00  0.00000000000E+00 -0.23763738351E+04  0.23763738351E+04  0.25500000920E-02 0.  1.
    10030    2    1    2    0    0  0.00000000000E+00  0.00000000000E+00 -0.93643232894E+03  0.38163153412E+04  0.36996428580E+04 0.  0.
        2    1    3    3  502    0 -0.11445589881E+04 -0.13184620511E+04  0.16218819658E+03  0.17534715477E+04  0.25500000920E-02 0.  1.
       -2    1    3    3    0  502  0.11445589881E+04  0.13184620511E+04 -0.10986205255E+04  0.20628437935E+04  0.25500000920E-02 0. -1.
</event>
<event>
 5   0  0.2282000E-08  0.3703071E+04  0.7818609E-02  0.8067282E-01
        1   -1    0    0  501    0  0.00000000000E+00  0.00000000000E+00  0.22688969941E+04  0.22688969941E+04  0.50400001928E-02 0.  1.
       -1   -1    0    0    0  501  0.00000000000E+00  0.00000000000E+00 -0.15109471266E+04  0.15109471266E+04  0.50400001928E-02 0. -1.
    10030    2    1    2    0    0  0.00000000000E+00  0.00000000000E+00  0.75794986750E+03  0.37798441207E+04  0.37030708304E+04 0.  0.
        3    1    3    3  502    0  0.10401765765E+04 -0.15252116053E+04  0.23481792052E+03  0.18610151040E+04  0.10100000352E+00 0. -1.
       -3    1    3    3    0  502 -0.10401765765E+04  0.15252116053E+04  0.52313194699E+03  0.19188290167E+04  0.10100000352E+00 0.  1.
</event>
<event>
 5   0  0.7191801E-08  0.3711595E+04  0.7818609E-02  0.8065397E-01
        2   -1    0    0  501    0  0.00000000000E+00  0.00000000000E+00  0.27277765578E+04  0.27277765578E+04  0.25500000920E-02 0. -1.
       -2   -1    0    0    0  501  0.00000000000E+00  0.00000000000E+00 -0.12625610282E+04  0.12625610282E+04  0.25500000920E-02 0.  1.
    10030    2    1    2    0    0  0.00000000000E+00  0.00000000000E+00  0.14652155296E+04  0.39903375860E+04  0.37115950078E+04 0.  0.
        5    1    3    3  502    0  0.19463672548E+03 -0.13308857265E+04 -0.64201741706E+03  0.14904189766E+04  0.46999998093E+01 0.  1.
       -5    1    3    3    0  502 -0.19463672548E+03  0.13308857265E+04  0.21072329466E+04  0.24999186094E+04  0.46999998093E+01 0. -1.
</event>
<event>
 5   0  0.2282000E-08  0.3699269E+04  0.7818609E-02  0.8068124E-01
        3   -1    0    0  501    0  0.00000000000E+00  0.00000000000E+00  0.14794793183E+04  0.14794793218E+04  0.10100000352E+00 0. -1.
       -3   -1    0    0    0  501  0.00000000000E+00  0.00000000000E+00 -0.23124001472E+04  0.23124001494E+04  0.10100000352E+00 0.  1.
    10030    2    1    2    0    0  0.00000000000E+00  0.00000000000E+00 -0.83292082882E+03  0.37918794712E+04  0.36992692274E+04 0.  0.
        5    1    3    3  502    0 -0.57490359818E+03 -0.44995827602E+03  0.13255406693E+04  0.15132933468E+04  0.46999998093E+01 0. -1.
       -5    1    3    3    0  502  0.57490359818E+03  0.44995827602E+03 -0.21584614981E+04  0.22785861244E+04  0.46999998093E+01 0.  1.
</event>
<event>
 5   0  0.7191801E-08  0.3695627E+04  0.7818609E-02  0.8068932E-01
        2   -1    0    0  501    0  0.00000000000E+00  0.00000000000E+00  0.24035569031E+04  0.24035569031E+04  0.25500000920E-02 0.  1.
       -2   -1    0    0    0  501  0.00000000000E+00  0.00000000000E+00 -0.14205673501E+04  0.14205673501E+04  0.25500000920E-02 0. -1.
    10030    2    1    2    0    0  0.00000000000E+00  0.00000000000E+00  0.98298955300E+03  0.38241242532E+04  0.36956268538E+04 0.  0.
        5    1    3    3  502    0 -0.10031822824E+04  0.14584442324E+04 -0.56990102540E+02  0.17710743160E+04  0.46999998093E+01 0. -1.
       -5    1    3    3    0  502  0.10031822824E+04 -0.14584442324E+04  0.10399796555E+04  0.20530499372E+04  0.46999998093E+01 0.  1.
</event>
<event>
 5   0  0.7362817E-08  0.3697006E+04  0.7818609E-02  0.8068626E-01
       -2   -1    0    0    0  501  0.00000000000E+00  0.00000000000E+00  0.21421717250E+04  0.21421717250E+04  0.25500000920E-02 0. -1.
        2   -1    0    0  501    0  0.00000000000E+00  0.00000000000E+00 -0.15950930154E+04  0.15950930154E+04  0.25500000920E-02 0.  1.
    10030    2    1    2    0    0  0.00000000000E+00  0.00000000000E+00  0.54707870953E+03  0.37372647404E+04  0.36970059001E+04 0.  0.
        1    1    3    3  502    0  0.40010709321E+03  0.97526203025E+03  0.18085416266E+04  0.20933333535E+04  0.50400001928E-02 0. -1.
       -1    1    3    3    0  502 -0.40010709321E+03 -0.97526203025E+03 -0.12614629171E+04  0.16439313869E+04  0.50400001928E-02 0.  1.
</event>
<event>
 5   0  0.7203049E-08  0.3700040E+04  0.7818609E-02  0.8067953E-01
       -2   -1    0    0    0  501  0.00000000000E+00  0.00000000000E+00  0.17563412137E+04  0.17563412137E+04  0.25500000920E-02 0. -1.
        2   -1    0    0  501    0  0.00000000000E+00  0.00000000000E+00 -0.19486955038E+04  0.19486955038E+04  0.25500000920E-02 0.  1.
    10030    2    1    2    0    0  0.00000000000E+00  0.00000000000E+00 -0.19235429009E+03  0.37050367174E+04  0.37000401220E+04 0.  0.
        4    1    3    3  502    0  0.26693055211E+03  0.80572176487E+03  0.15498593276E+04  0.17670611281E+04  0.12699999809E+01 0. -1.
       -4    1    3    3    0  502 -0.26693055211E+03 -0.80572176487E+03 -0.17422136177E+04  0.19379755893E+04  0.12699999809E+01 0.  1.
</event>
<event>
 5   0  0.2282000E-08  0.3715130E+04  0.7818609E-02  0.8064617E-01
        1   -1    0    0  501    0  0.00000000000E+00  0.00000000000E+00  0.15242492069E+04  0.15242492069E+04  0.50400001928E-02 0.  1.
       -1   -1    0    0    0  501  0.00000000000E+00  0.00000000000E+00 -0.22637690955E+04  0.22637690955E+04  0.50400001928E-02 0. -1.
    10030    2    1    2    0    0  0.00000000000E+00  0.00000000000E+00 -0.73951988858E+03  0.37880183024E+04  0.37151302795E+04 0.  0.
        3    1    3    3  502    0  0.93889308793E+03 -0.80242272639E+03  0.10449578991E+04  0.16178193606E+04  0.10100000352E+00 0.  1.
       -3    1    3    3    0  502 -0.93889308793E+03  0.80242272639E+03 -0.17844777877E+04  0.21701989419E+04  0.10100000352E+00 0. -1.
</event>
<event>
 5   0  0.2282000E-08  0.3703547E+04  0.7818609E-02  0.8067176E-01
        1   -1    0    0  501    0  0.00000000000E+00  0.00000000000E+00  0.13946628362E+04  0.13946628362E+04  0.50400001928E-02 0.  1.
       -1   -1    0    0    0  501  0.00000000000E+00  0.00000000000E+00 -0.24587058116E+04  0.24587058116E+04  0.50400001928E-02 0. -1.
    10030    2    1    2    0    0  0.00000000000E+00  0.00000000000E+00 -0.10640429754E+04  0.38533686478E+04  0.37035472837E+04 0.  0.
        4    1    3    3  502    0  0.16467553426E+04 -0.80147867331E+02  0.34519690693E+03  0.16844552106E+04  0.12699999809E+01 0.  1.
       -4    1    3    3    0  502 -0.16467553426E+04  0.80147867331E+02 -0.14092398823E+04  0.21689134372E+04  0.12699999809E+01 0. -1.
</event>
<event>
 5   0  0.7362817E-08  0.3706927E+04  0.7818609E-02  0.8066429E-01
       -2   -1    0    0    0  501  0.00000000000E+00  0.00000000000E+00  0.19740067845E+04  0.19740067845E+04  0.25500000920E-02 0. -1.
        2   -1    0    0  501    0  0.00000000000E+00  0.00000000000E+00 -0.17402807838E+04  0.17402807838E+04  0.25500000920E-02 0.  1.
    10030    2    1    2    0    0  0.00000000000E+00  0.00000000000E+00  0.23372600068E+03  0.37142875684E+04  0.37069265298E+04 0.  0.
        1    1    3    3  502    0 -0.10226851276E+04 -0.40270104860E+03 -0.13785056760E+04  0.17630459165E+04  0.50400001928E-02 0.  1.
       -1    1    3    3    0  502  0.10226851276E+04  0.40270104860E+03  0.16122316767E+04  0.19512416519E+04  0.50400001928E-02 0. -1.
</event>
<event>
 5   0  0.2282000E-08  0.3684440E+04  0.7818609E-02  0.8071419E-01
        1   -1    0    0  501    0  0.00000000000E+00  0.00000000000E+00  0.19163872558E+04  0.19163872558E+04  0.50400001928E-02 0.  1.
       -1   -1    0    0    0  501  0.00000000000E+00  0.00000000000E+00 -0.17709233462E+04  0.17709233462E+04  0.50400001928E-02 0. -1.
    10030    2    1    2    0    0  0.00000000000E+00  0.00000000000E+00  0.14546390958E+03  0.36873106021E+04  0.36844402190E+04 0.  0.
        1    1    3    3  502    0 -0.24034593688E+03  0.98761727165E+03 -0.14648962281E+04  0.17829960751E+04  0.50400001928E-02 0. -1.
       -1    1    3    3    0  502  0.24034593688E+03 -0.98761727165E+03  0.16103601377E+04  0.19043145270E+04  0.50400001928E-02 0.  1.
</event>
<event>
 5   0  0.7203049E-08  0.3695093E+04  0.7818609E-02  0.8069050E-01
        2   -1    0    0  501    0  0.00000000000E+00  0.00000000000E+00  0.19329135985E+04  0.19329135985E+04  0.25500000920E-02 0.  1.
       -2   -1    0    0    0  501  0.00000000000E+00  0.00000000000E+00 -0.17659495680E+04  0.17659495680E+04  0.25500000920E-02 0. -1.
    10030    2    1    2    0    0  0.00000000000E+00  0.00000000000E+00  0.16696403059E+03  0.36988631665E+04  0.36950929267E+04 0.  0.
        4    1    3    3  502    0  0.14857771440E+04 -0.10883290304E+04 -0.63065862926E+02  0.18428165171E+04  0.12699999809E+01 0.  1.
       -4    1    3    3    0  502 -0.14857771440E+04  0.10883290304E+04  0.23002989352E+03  0.18560466494E+04  0.12699999809E+01 0. -1.
</event>
<event>
 5   0  0.7191801E-08  0.3699217E+04  0.7818609E-02  0.8068135E-01
       -2   -1    0    0    0  501  0.00000000000E+00  0.00000000000E+00  0.16636058728E+04  0.16636058728E+04  0.25500000920E-02 0.  1.
        2   -1    0    0  501    0  0.00000000000E+00  0.00000000000E+00 -0.20564072772E+04  0.20564072772E+04  0.25500000920E-02 0. -1.
    10030    2    1    2    0    0  0.00000000000E+00  0.00000000000E+00 -0.39280140434E+03  0.37200131500E+04  0.36992167945E+04 0.  0.
        5    1    3    3  502    0 -0.18328704612E+04  0.24675221697E+03 -0.16926103631E+03  0.18571408596E+04  0.46999998093E+01 0.  1.
       -5    1    3    3    0  502  0.18328704612E+04 -0.24675221697E+03 -0.22354036803E+03  0.18628722904E+04  0.46999998093E+01 0. -1.
</event>
<event>
 5   0  0.7191801E-08  0.3715432E+04  0.7818609E-02  0.8064551E-01
       -2   -1    0    0    0  501  0.00000000000E+00  0.00000000000E+00  0.15477140169E+04  0.15477140169E+04  0.25500000920E-02 0. -1.
        2   -1    0    0  501    0  0.00000000000E+00  0.00000000000E+00 -0.22298101223E+04  0.22298101223E+04  0.25500000920E-02 0.  1.
    10030    2    1    2    0    0  0.00000000000E+00  0.00000000000E+00 -0.68209610543E+03  0.37775241392E+04  0.37154318087E+04 0.  0.
        5    1    3    3  502    0  0.54509591691E+03  0.17304250561E+04  0.65110080897E+02  0.18154233242E+04  0.46999998093E+01 0.  1.
       -5    1    3    3    0  502 -0.54509591691E+03 -0.17304250561E+04 -0.74720618632E+03  0.19621008150E+04  0.46999998093E+01 0. -1.
</event>
<event>
 5   0  0.2282000E-08  0.3701481E+04  0.7818609E-02  0.8067634E-01
        1   -1    0    0  501    0  0.00000000000E+00  0.00000000000E+00  0.23766373740E+04  0.23766373740E+04  0.50400001928E-02 0.  1.
       -1   -1    0    0    0  501  0.00000000000E+00  0.00000000000E+00 -0.14412132079E+04  0.14412132079E+04  0.50400001928E-02 0. -1.
    10030    2    1    2    0    0  0.00000000000E+00  0.00000000000E+00  0.93542416616E+03  0.38178505819E+04  0.37014814190E+04 0.  0.
        4    1    3    3  502    0  0.16960402888E+04  0.21565602023E+03  0.11986370423E+04  0.20880116266E+04  0.12699999809E+01 0.  1.
       -4    1    3    3    0  502 -0.16960402888E+04 -0.21565602023E+03 -0.26321287619E+03  0.17298389554E+04  0.12699999809E+01 0. -1.
</event>
<event>
 5   0  0.2282000E-08  0.3696679E+04  0.7818609E-02  0.8068698E-01
        1   -1    0    0  501    0  0.00000000000E+00  0.00000000000E+00  0.26414596590E+04  0.26414596590E+04  0.50400001928E-02 0. -1.
       -1   -1    0    0    0  501  0.00000000000E+00  0.00000000000E+00 -0.12933602018E+04  0.12933602018E+04  0.50400001928E-02 0.  1.
    10030    2    1    2    0    0  0.00000000000E+00  0.00000000000E+00  0.13480994572E+04  0.39348198608E+04  0.36966789406E+04 0.  0.
        4    1    3    3  502    0 -0.20879364109E+03 -0.13419395646E+04 -0.66049750811E+03  0.15101838135E+04  0.12699999809E+01 0.  1.
       -4    1    3    3    0  502  0.20879364109E+03  0.13419395646E+04  0.20085969653E+04  0.24246360472E+04  0.12699999809E+01 0. -1.
</event>
<event>
 5   0  0.2282000E-08  0.3699940E+04  0.7818609E-02  0.8067975E-01
       -1   -1    0    0    0  501  0.00000000000E+00  0.00000000000E+00  0.15224826654E+04  0.15224826654E+04  0.50400001928E-02 0. -1.
        1   -1    0    0  501    0  0.00000000000E+00  0.00000000000E+00 -0.22479007228E+04  0.22479007228E+04  0.50400001928E-02 0.  1.
    10030    2    1    2    0    0  0.00000000000E+00  0.00000000000E+00 -0.72541805741E+03  0.37703833881E+04  0.36999404773E+04 0.  0.
        1    1    3    3  502    0 -0.81537048938E+03  0.92796986307E+03 -0.17660380378E+04  0.21551908159E+04  0.50400001928E-02 0.  1.
       -1    1    3    3    0  502  0.81537048938E+03 -0.92796986307E+03  0.10406199804E+04  0.16151925722E+04  0.50400001928E-02 0. -1.
</event>
<event>
 5   0  0.7191801E-08  0.3699046E+04  0.7818609E-02  0.8068173E-01
       -2   -1    0    0    0  501  0.00000000000E+00  0.00000000000E+00  0.15475357616E+04  0.15475357616E+04  0.25500000920E-02 0. -1.
        2   -1    0    0  501    0  0.00000000000E+00  0.00000000000E+00 -0.22104404859E+04  0.22104404859E+04  0.25500000920E-02 0.  1.
    10030    2    1    2    0    0  0.00000000000E+00  0.00000000000E+00 -0.66290472436E+03  0.37579762475E+04  0.36990462018E+04 0.  0.
        5    1    3    3  502    0  0.17644745457E+04  0.47946348361E+02  0.22965472975E+03  0.17800091740E+04  0.46999998093E+01 0. -1.
       -5    1    3    3    0  502 -0.17644745457E+04 -0.47946348361E+02 -0.89255945411E+03  0.19779670735E+04  0.46999998093E+01 0.  1.
</event>
<event>
 5   0  0.7203049E-08  0.3699340E+04  0.7818609E-02  0.8068108E-01
        2   -1    0    0  501    0  0.00000000000E+00  0.00000000000E+00  0.12561392096E+04  0.12561392096E+04  0.25500000920E-02 0.  1.
       -2   -1    0    0    0  501  0.00000000000E+00  0.00000000000E+00 -0.27236469252E+04  0.27236469252E+04  0.25500000920E-02 0. -1.
    10030    2    1    2    0    0  0.00000000000E+00  0.00000000000E+00 -0.14675077156E+04  0.39797861348E+04  0.36993403173E+04 0.  0.
        4    1    3    3  502    0 -0.65626734498E+03 -0.68510548465E+03 -0.24419627164E+04  0.26197785926E+04  0.12699999809E+01 0. -1.
       -4    1    3    3    0  502  0.65626734498E+03  0.68510548465E+03  0.97445500085E+03  0.13600075422E+04  0.12699999809E+01 0.  1.
</event>
<event>
 5   0  0.7362817E-08  0.3713573E+04  0.7818609E-02  0.8064961E-01
       -2   -1    0    0    0  501  0.00000000000E+00  0.00000000000E+00  0.12993227671E+04  0.12993227671E+04  0.25500000920E-02 0. -1.
        2   -1    0    0  501    0  0.00000000000E+00  0.00000000000E+00 -0.26534251785E+04  0.26534251785E+04  0.25500000920E-02 0.  1.
    10030    2    1    2    0    0  0.00000000000E+00  0.00000000000E+00 -0.13541024114E+04  0.39527479456E+04  0.37135728054E+04 0.  0.
        1    1    3    3  502    0  0.10650414168E+04  0.12977678915E+04 -0.15213208643E+04  0.22655974691E+04  0.50400001928E-02 0.  1.
       -1    1    3    3    0  502 -0.10650414168E+04 -0.12977678915E+04  0.16721845292E+03  0.16871504766E+04  0.50400001928E-02 0. -1.
</event>
<event>
 5   0  0.7362817E-08  0.3703403E+04  0.7818609E-02  0.8067208E-01
        2   -1    0    0  501    0  0.00000000000E+00  0.00000000000E+00  0.12139154042E+04  0.12139154042E+04  0.25500000920E-02 0.  1.
       -2   -1    0    0    0  501  0.00000000000E+00  0.00000000000E+00 -0.28245776113E+04  0.28245776113E+04  0.25500000920E-02 0. -1.
    10030    2    1    2    0    0  0.00000000000E+00  0.00000000000E+00 -0.16106622071E+04  0.40384930155E+04  0.37034029070E+04 0.  0.
        1    1    3    3  502    0  0.98717156734E+03 -0.11852565596E+04  0.31179137830E+03  0.15737073041E+04  0.50400001928E-02 0.  1.
       -1    1    3    3    0  502 -0.98717156734E+03  0.11852565596E+04 -0.19224535853E+04  0.24647857114E+04  0.50400001928E-02 0. -1.
</event>
<event>
 5   0  0.2282000E-08  0.3708651E+04  0.7818609E-02  0.8066047E-01
       -1   -1    0    0    0  501  0.00000000000E+00  0.00000000000E+00  0.13470018126E+04  0.13470018126E+04  0.50400001928E-02 0. -1.
        1   -1    0    0  501    0  0.00000000000E+00  0.00000000000E+00 -0.25527237185E+04  0.25527237185E+04  0.50400001928E-02 0.  1.
    10030    2    1    2    0    0  0.00000000000E+00  0.00000000000E+00 -0.12057219060E+04  0.38997255311E+04  0.37086512243E+04 0.  0.
        2    1    3    3  502    0  0.18418005979E+04  0.21231924843E+03 -0.63950718456E+03  0.19611930922E+04  0.25500000920E-02 0.  1.
       -2    1    3    3    0  502 -0.18418005979E+04 -0.21231924843E+03 -0.56621472142E+03  0.19385324389E+04  0.25500000920E-02 0. -1.
</event>
<event>
 5   0  0.2282000E-08  0.3713127E+04  0.7818609E-02  0.8065059E-01
        1   -1    0    0  501    0  0.00000000000E+00  0.00000000000E+00  0.30879546105E+04  0.30879546105E+04  0.50400001928E-02 0. -1.
       -1   -1    0    0    0  501  0.00000000000E+00  0.00000000000E+00 -0.11162169735E+04  0.11162169735E+04  0.50400001928E-02 0.  1.
    10030    2    1    2    0    0  0.00000000000E+00  0.00000000000E+00  0.19717376370E+04  0.42041715841E+04  0.37131266338E+04 0.  0.
        5    1    3    3  502    0  0.16112041351E+04 -0.48982779912E+03  0.10090801413E+03  0.16870431397E+04  0.46999998093E+01 0.  1.
       -5    1    3    3    0  502 -0.16112041351E+04  0.48982779912E+03  0.18708296229E+04  0.25171284444E+04  0.46999998093E+01 0. -1.
</event>
<event>
 5   0  0.7191801E-08  0.3697876E+04  0.7818609E-02  0.8068433E-01
        2   -1    0    0  501    0  0.00000000000E+00  0.00000000000E+00  0.25888388242E+04  0.25888388242E+04  0.25500000920E-02 0. -1.
       -2   -1    0    0    0  501  0.00000000000E+00  0.00000000000E+00 -0.13205036016E+04  0.13205036016E+04  0.25500000920E-02 0.  1.
    10030    2    1    2    0    0  0.00000000000E+00  0.00000000000E+00  0.12683352226E+04  0.39093424258E+04  0.36978756016E+04 0.  0.
        5    1    3    3  502    0  0.51329803785E+02  0.14014491203E+03 -0.13141185571E+04  0.13225751461E+04  0.46999998093E+01 0.  1.
       -5    1    3    3    0  502 -0.51329803785E+02 -0.14014491203E+03  0.25824537796E+04  0.25867672797E+04  0.46999998093E+01 0. -1.
</event>
<event>
 5   0  0.2282000E-08  0.3696565E+04  0.7818609E-02  0.8068723E-01
        1   -1    0    0  501    0  0.00000000000E+00  0.00000000000E+00  0.26110487011E+04  0.26110487011E+04  0.50400001928E-02 0. -1.
       -1   -1    0    0    0  501  0.00000000000E+00  0.00000000000E+00 -0.13083433736E+04  0.13083433736E+04  0.50400001928E-02 0.  1.
    10030    2    1    2    0    0  0.00000000000E+00  0.00000000000E+00  0.13027053275E+04  0.39193920747E+04  0.36965650360E+04 0.  0.
        4    1    3    3  502    0  0.70322249302E+03  0.70590541914E+03  0.23018922685E+04  0.25082930380E+04  0.12699999809E+01 0. -1.
       -4    1    3    3    0  502 -0.70322249302E+03 -0.70590541914E+03 -0.99918694105E+03  0.14110990368E+04  0.12699999809E+01 0.  1.
</event>
<event>
 5   0  0.7309833E-08  0.3699806E+04  0.7818609E-02  0.8068005E-01
        2   -1    0    0  501    0  0.00000000000E+00  0.00000000000E+00  0.15783295425E+04  0.15783295425E+04  0.25500000920E-02 0. -1.
       -2   -1    0    0    0  501  0.00000000000E+00  0.00000000000E+00 -0.21682043829E+04  0.21682043829E+04  0.25500000920E-02 0.  1.
    10030    2    1    2    0    0  0.00000000000E+00  0.00000000000E+00 -0.58987484038E+03  0.37465339254E+04  0.36998059580E+04 0.  0.
        2    1    3    3  502    0  0.17697631760E+03 -0.15122365517E+04  0.76902819521E+03  0.17057503834E+04  0.25500000920E-02 0. -1.
       -2    1    3    3    0  502 -0.17697631760E+03  0.15122365517E+04 -0.13589030356E+04  0.20407835421E+04  0.25500000920E-02 0.  1.
</event>
<event>
 5   0  0.2282000E-08  0.3700255E+04  0.7818609E-02  0.8067905E-01
        1   -1    0    0  501    0  0.00000000000E+00  0.00000000000E+00  0.11785455416E+04  0.11785455416E+04  0.50400001928E-02 0. -1.
       -1   -1    0    0    0  501  0.00000000000E+00  0.00000000000E+00 -0.29044032149E+04  0.29044032149E+04  0.50400001928E-02 0.  1.
    10030    2    1    2    0    0  0.00000000000E+00  0.00000000000E+00 -0.17258576733E+04  0.40829487565E+04  0.37002548344E+04 0.  0.
        1    1    3    3  502    0  0.17152718084E+04 -0.62779206864E+03 -0.53804372750E+03  0.19041458218E+04  0.50400001928E-02 0.  1.
       -1    1    3    3    0  502 -0.17152718084E+04  0.62779206864E+03 -0.11878139458E+04  0.21788029346E+04  0.50400001928E-02 0. -1.
</event>
<event>
 5   0  0.7254493E-08  0.3698179E+04  0.7818609E-02  0.8068366E-01
       -2   -1    0    0    0  501  0.00000000000E+00  0.00000000000E+00  0.14819057267E+04  0.14819057267E+04  0.25500000920E-02 0. -1.
        2   -1    0    0  501    0  0.00000000000E+00  0.00000000000E+00 -0.23072530007E+04  0.23072530007E+04  0.25500000920E-02 0.  1.
    10030    2    1    2    0    0  0.00000000000E+00  0.00000000000E+00 -0.82534727408E+03  0.37891587274E+04  0.36981787056E+04 0.  0.
        3    1    3    3  502    0 -0.67954491034E+02  0.77102842225E+02  0.14789770152E+04  0.14825436530E+04  0.10100000352E+00 0. -1.
       -3    1    3    3    0  502  0.67954491034E+02 -0.77102842225E+02 -0.23043242893E+04  0.23066150744E+04  0.10100000352E+00 0.  1.
</event>
<event>
 5   0  0.7191801E-08  0.3678692E+04  0.7818609E-02  0.8072700E-01
       -2   -1    0    0    0  501  0.00000000000E+00  0.00000000000E+00  0.13090967801E+04  0.13090967801E+04  0.25500000920E-02 0.  1.
        2   -1    0    0  501    0  0.00000000000E+00  0.00000000000E+00 -0.25843724817E+04  0.25843724817E+04  0.25500000920E-02 0. -1.
    10030    2    1    2    0    0  0.00000000000E+00  0.00000000000E+00 -0.12752757015E+04  0.38934692618E+04  0.36786919928E+04 0.  0.
        5    1    3    3  502    0  0.17265755067E+04  0.34502253190E+03 -0.12007420557E+04  0.21311750519E+04  0.46999998093E+01 0. -1.
       -5    1    3    3    0  502 -0.17265755067E+04 -0.34502253190E+03 -0.74533645841E+02  0.17622942099E+04  0.46999998093E+01 0.  1.
</event>
<event>
 5   0  0.2282000E-08  0.3686986E+04  0.7818609E-02  0.8070852E-01
        1   -1    0    0  501    0  0.00000000000E+00  0.00000000000E+00  0.22369011022E+04  0.22369011022E+04  0.50400001928E-02 0. -1.
       -1   -1    0    0    0  501  0.00000000000E+00  0.00000000000E+00 -0.15192743772E+04  0.15192743772E+04  0.50400001928E-02 0.  1.
    10030    2    1    2    0    0  0.00000000000E+00  0.00000000000E+00  0.71762672504E+03  0.37561754795E+04  0.36869860477E+04 0.  0.
        1    1    3    3  502    0 -0.72055271962E+03  0.24846582034E+03  0.20688642815E+04  0.22047972471E+04  0.50400001928E-02 0. -1.
       -1    1    3    3    0  502  0.72055271962E+03 -0.24846582034E+03 -0.13512375565E+04  0.15513782323E+04  0.50400001928E-02 0.  1.
</event>
<event>
 5   0  0.2282000E-08  0.3698852E+04  0.7818609E-02  0.8068216E-01
        1   -1    0    0  501    0  0.00000000000E+00  0.00000000000E+00  0.25125961293E+04  0.25125961293E+04  0.50400001928E-02 0.  1.
       -1   -1    0    0    0  501  0.00000000000E+00  0.00000000000E+00 -0.13612917454E+04  0.13612917454E+04  0.50400001928E-02 0. -1.
    10030    2    1    2    0    0  0.00000000000E+00  0.00000000000E+00  0.11513043840E+04  0.38738878747E+04  0.36988519139E+04 0.  0.
        4    1    3    3  502    0  0.94910677578E+02  0.34566214224E+03  0.24758656526E+04  0.25016799747E+04  0.12699999809E+01 0.  1.
       -4    1    3    3    0  502 -0.94910677578E+02 -0.34566214224E+03 -0.13245612687E+04  0.13722078999E+04  0.12699999809E+01 0. -1.
</event>
<event>
 5   0  0.2282000E-08  0.3705204E+04  0.7818609E-02  0.8066810E-01
        3   -1    0    0  501    0  0.00000000000E+00  0.00000000000E+00  0.25300664608E+04  0.25300664629E+04  0.10100000352E+00 0.  1.
       -3   -1    0    0    0  501  0.00000000000E+00  0.00000000000E+00 -0.13565390501E+04  0.13565390538E+04  0.10100000352E+00 0. -1.
    10030    2    1    2    0    0  0.00000000000E+00  0.00000000000E+00  0.11735274108E+04  0.38866055167E+04  0.37052038889E+04 0.  0.
        5    1    3    3  502    0 -0.43116810368E+03 -0.13920300440E+04 -0.61311762059E+03  0.15810088184E+04  0.46999998093E+01 0. -1.
       -5    1    3    3    0  502  0.43116810368E+03  0.13920300440E+04  0.17866450314E+04  0.23055966983E+04  0.46999998093E+01 0.  1.
</event>
<event>
 5   0  0.2282000E-08  0.3697171E+04  0.7818609E-02  0.8068589E-01
       -1   -1    0    0    0  501  0.00000000000E+00  0.00000000000E+00  0.13854658308E+04  0.13854658308E+04  0.50400001928E-02 0. -1.
        1   -1    0    0  501    0  0.00000000000E+00  0.00000000000E+00 -0.24665123849E+04  0.24665123849E+04  0.50400001928E-02 0.  1.
    10030    2    1    2    0    0  0.00000000000E+00  0.00000000000E+00 -0.10810465541E+04  0.38519782157E+04  0.36971711513E+04 0.  0.
        5    1    3    3  502    0  0.38272213405E+03  0.13944661303E+04 -0.17403663007E+04  0.22627215849E+04  0.46999998093E+01 0.  1.
       -5    1    3    3    0  502 -0.38272213405E+03 -0.13944661303E+04  0.65931974653E+03  0.15892566308E+04  0.46999998093E+01 0. -1.
</event>
<event>
 5   0  0.7191801E-08  0.3699764E+04  0.7818609E-02  0.8068014E-01
        2   -1    0    0  501    0  0.00000000000E+00  0.00000000000E+00  0.18346935024E+04  0.18346935024E+04  0.25500000920E-02 0.  1.
       -2   -1    0    0    0  501  0.00000000000E+00  0.00000000000E+00 -0.18651959969E+04  0.18651959969E+04  0.25500000920E-02 0. -1.
    10030    2    1    2    0    0  0.00000000000E+00  0.00000000000E+00 -0.30502494516E+02  0.36998894993E+04  0.36997637634E+04 0.  0.
        5    1    3    3  502    0  0.59049655020E+03 -0.87174741715E+03 -0.15362931256E+04  0.18624844678E+04  0.46999998093E+01 0. -1.
       -5    1    3    3    0  502 -0.59049655020E+03  0.87174741715E+03  0.15057906311E+04  0.18374050315E+04  0.46999998093E+01 0.  1.
</event>
<event>
 5   0  0.7191801E-08  0.3685099E+04  0.7818609E-02  0.8071272E-01
        2   -1    0    0  501    0  0.00000000000E+00  0.00000000000E+00  0.21780795202E+04  0.21780795202E+04  0.25500000920E-02 0.  1.
       -2   -1    0    0    0  501  0.00000000000E+00  0.00000000000E+00 -0.15587071419E+04  0.15587071419E+04  0.25500000920E-02 0. -1.
    10030    2    1    2    0    0  0.00000000000E+00  0.00000000000E+00  0.61937237836E+03  0.37367866621E+04  0.36850986982E+04 0.  0.
        5    1    3    3  502    0  0.39205731659E+03 -0.13008046678E+04 -0.95242587728E+03  0.16591982597E+04  0.46999998093E+01 0. -1.
       -5    1    3    3    0  502 -0.39205731659E+03  0.13008046678E+04  0.15717982556E+04  0.20775884024E+04  0.46999998093E+01 0.  1.
</event>
<event>
 5   0  0.7254493E-08  0.3698604E+04  0.7818609E-02  0.8068271E-01
        2   -1    0    0  501    0  0.00000000000E+00  0.00000000000E+00  0.32084926808E+04  0.32084926808E+04  0.25500000920E-02 0.  1.
       -2   -1    0    0    0  501  0.00000000000E+00  0.00000000000E+00 -0.10658953344E+04  0.10658953344E+04  0.25500000920E-02 0. -1.
    10030    2    1    2    0    0  0.00000000000E+00  0.00000000000E+00  0.21425973465E+04  0.42743880152E+04  0.36986037251E+04 0.  0.
        3    1    3    3  502    0  0.18898844317E+03 -0.17270910778E+04  0.18034513266E+04  0.25041958630E+04  0.10100000352E+00 0. -1.
       -3    1    3    3    0  502 -0.18898844317E+03  0.17270910778E+04  0.33914601986E+03  0.17701921522E+04  0.10100000352E+00 0.  1.
</event>
<event>
 5   0  0.7191801E-08  0.3699768E+04  0.7818609E-02  0.8068013E-01
        2   -1    0    0  501    0  0.00000000000E+00  0.00000000000E+00  0.21751382872E+04  0.21751382872E+04  0.25500000920E-02 0. -1.
       -2   -1    0    0    0  501  0.00000000000E+00  0.00000000000E+00 -0.15732659224E+04  0.15732659224E+04  0.25500000920E-02 0.  1.
    10030    2    1    2    0    0  0.00000000000E+00  0.00000000000E+00  0.60187236485E+03  0.37484042096E+04  0.36997680704E+04 0.  0.
        5    1    3    3  502    0  0.12701034334E+04  0.12192645523E+04  0.87609614126E+03  0.19665541739E+04  0.46999998093E+01 0. -1.
       -5    1    3    3    0  502 -0.12701034334E+04 -0.12192645523E+04 -0.27422377641E+03  0.17818500357E+04  0.46999998093E+01 0.  1.
</event>
<event>
 5   0  0.2282000E-08  0.3705371E+04  0.7818609E-02  0.8066773E-01
       -1   -1    0    0    0  501  0.00000000000E+00  0.00000000000E+00  0.17478341456E+04  0.17478341456E+04  0.50400001928E-02 0.  1.
        1   -1    0    0  501    0  0.00000000000E+00  0.00000000000E+00 -0.19638263583E+04  0.19638263583E+04  0.50400001928E-02 0. -1.
    10030    2    1    2    0    0  0.00000000000E+00  0.00000000000E+00 -0.21599221271E+03  0.37116605039E+04  0.37053705699E+04 0.  0.
        2    1    3    3  502    0  0.12979643512E+04 -0.84757866786E+03 -0.11242831369E+04  0.19149709207E+04  0.25500000920E-02 0. -1.
       -2    1    3    3    0  502 -0.12979643512E+04  0.84757866786E+03  0.90829092422E+03  0.17966895832E+04  0.25500000920E-02 0.  1.
</event>
<event>
 5   0  0.7254493E-08  0.3643669E+04  0.7818609E-02  0.8080561E-01
       -2   -1    0    0    0  501  0.00000000000E+00  0.00000000000E+00  0.12343710087E+04  0.12343710087E+04  0.25500000920E-02 0. -1.
        2   -1    0    0  501    0  0.00000000000E+00  0.00000000000E+00 -0.26888851184E+04  0.26888851184E+04  0.25500000920E-02 0.  1.
    10030    2    1    2    0    0  0.00000000000E+00  0.00000000000E+00 -0.14545141097E+04  0.39232561271E+04  0.36436694888E+04 0.  0.
        3    1    3    3  502    0  0.13174657116E+04  0.68433953579E+03 -0.18642399892E+04  0.23831548941E+04  0.10100000352E+00 0.  1.
       -3    1    3    3    0  502 -0.13174657116E+04 -0.68433953579E+03  0.40972587950E+03  0.15401012331E+04  0.10100000352E+00 0. -1.
</event>
<event>
 5   0  0.7203049E-08  0.3713746E+04  0.7818609E-02  0.8064922E-01
       -2   -1    0    0    0  501  0.00000000000E+00  0.00000000000E+00  0.13390459218E+04  0.13390459218E+04  0.25500000920E-02 0. -1.
        2   -1    0    0  501    0  0.00000000000E+00  0.00000000000E+00 -0.25749509699E+04  0.25749509699E+04  0.25500000920E-02 0.  1.
    10030    2    1    2    0    0  0.00000000000E+00  0.00000000000E+00 -0.12359050481E+04  0.39139968916E+04  0.37137461383E+04 0.  0.
        4    1    3    3  502    0  0.64470446616E+03 -0.12881708516E+04 -0.18528625201E+04  0.23469403748E+04  0.12699999809E+01 0.  1.
       -4    1    3    3    0  502 -0.64470446616E+03  0.12881708516E+04  0.61695747199E+03  0.15670565168E+04  0.12699999809E+01 0. -1.
</event>
<event>
 5   0  0.7254493E-08  0.3693058E+04  0.7818609E-02  0.8069502E-01
        2   -1    0    0  501    0  0.00000000000E+00  0.00000000000E+00  0.16438863559E+04  0.16438863559E+04  0.25500000920E-02 0. -1.
       -2   -1    0    0    0  501  0.00000000000E+00  0.00000000000E+00 -0.20741516573E+04  0.20741516573E+04  0.25500000920E-02 0.  1.
    10030    2    1    2    0    0  0.00000000000E+00  0.00000000000E+00 -0.43026530143E+03  0.37180380133E+04  0.36930581418E+04 0.  0.
        3    1    3    3  502    0 -0.97958286215E+03  0.59572305134E+03  0.12421390572E+04  0.16903780599E+04  0.10100000352E+00 0. -1.
       -3    1    3    3    0  502  0.97958286215E+03 -0.59572305134E+03 -0.16724043586E+04  0.20276599534E+04  0.10100000352E+00 0.  1.
</event>
<event>
 5   0  0.2282000E-08  0.3708271E+04  0.7818609E-02  0.8066131E-01
       -1   -1    0    0    0  501  0.00000000000E+00  0.00000000000E+00  0.25892351649E+04  0.25892351649E+04  0.50400001928E-02 0.  1.
        1   -1    0    0  501    0  0.00000000000E+00  0.00000000000E+00 -0.13277349171E+04  0.13277349171E+04  0.50400001928E-02 0. -1.
    10030    2    1    2    0    0  0.00000000000E+00  0.00000000000E+00  0.12615002478E+04  0.39169700820E+04  0.37082707221E+04 0.  0.
        2    1    3    3  502    0  0.79344201378E+03  0.34010999345E+03 -0.11025116950E+04  0.14002703576E+04  0.25500000920E-02 0. -1.
       -2    1    3    3    0  502 -0.79344201378E+03 -0.34010999345E+03  0.23640119428E+04  0.25166997244E+04  0.25500000920E-02 0.  1.
</event>
<event>
 5   0  0.7309833E-08  0.3703502E+04  0.7818609E-02  0.8067186E-01
        2   -1    0    0  501    0  0.00000000000E+00  0.00000000000E+00  0.12289579974E+04  0.12289579974E+04  0.25500000920E-02 0. -1.
       -2   -1    0    0    0  501  0.00000000000E+00  0.00000000000E+00 -0.27901542136E+04  0.27901542136E+04  0.25500000920E-02 0.  1.
    10030    2    1    2    0    0  0.00000000000E+00  0.00000000000E+00 -0.15611962162E+04  0.40191122110E+04  0.37035023072E+04 0.  0.
        2    1    3    3  502    0 -0.91866298987E+03  0.24218118665E+03  0.94431656247E+03  0.13395249853E+04  0.25500000920E-02 0. -1.
       -2    1    3    3    0  502  0.91866298987E+03 -0.24218118665E+03 -0.25055127786E+04  0.26795872257E+04  0.25500000920E-02 0.  1.
</event>
<event>
 5   0  0.2282000E-08  0.3691775E+04  0.7818609E-02  0.8069787E-01
       -1   -1    0    0    0  501  0.00000000000E+00  0.00000000000E+00  0.26375730342E+04  0.26375730342E+04  0.50400001928E-02 0.  1.
        1   -1    0    0  501    0  0.00000000000E+00  0.00000000000E+00 -0.12918316756E+04  0.12918316756E+04  0.50400001928E-02 0. -1.
    10030    2    1    2    0    0  0.00000000000E+00  0.00000000000E+00  0.13457413586E+04  0.39294047099E+04  0.36917748536E+04 0.  0.
        4    1    3    3  502    0  0.82287914603E+03 -0.45135156303E+03 -0.10189212437E+04  0.13852979594E+04  0.12699999809E+01 0. -1.
       -4    1    3    3    0  502 -0.82287914603E+03  0.45135156303E+03  0.23646626023E+04  0.25441067505E+04  0.12699999809E+01 0.  1.
</event>
<event>
 5   0  0.2282000E-08  0.3700724E+04  0.7818609E-02  0.8067801E-01
       -1   -1    0    0    0  501  0.00000000000E+00  0.00000000000E+00  0.15417660767E+04  0.15417660767E+04  0.50400001928E-02 0. -1.
        1   -1    0    0  501    0  0.00000000000E+00  0.00000000000E+00 -0.22207255268E+04  0.22207255268E+04  0.50400001928E-02 0.  1.
    10030    2    1    2    0    0  0.00000000000E+00  0.00000000000E+00 -0.67895945013E+03  0.37624916036E+04  0.37007238659E+04 0.  0.
        4    1    3    3  502    0 -0.25668155575E+03  0.35344021985E+03  0.14885947199E+04  0.15513611002E+04  0.12699999809E+01 0. -1.
       -4    1    3    3    0  502  0.25668155575E+03 -0.35344021985E+03 -0.21675541700E+04  0.22111305034E+04  0.12699999809E+01 0.  1.
</event>
<event>
 5   0  0.7203049E-08  0.3684663E+04  0.7818609E-02  0.8071369E-01
        2   -1    0    0  501    0  0.00000000000E+00  0.00000000000E+00  0.14554155091E+04  0.14554155091E+04  0.25500000920E-02 0. -1.
       -2   -1    0    0    0  501  0.00000000000E+00  0.00000000000E+00 -0.23321073867E+04  0.23321073867E+04  0.25500000920E-02 0.  1.
    10030    2    1    2    0    0  0.00000000000E+00  0.00000000000E+00 -0.87669187766E+03  0.37875228958E+04  0.36846629477E+04 0.  0.
        4    1    3    3  502    0 -0.18300470508E+04 -0.11159287761E+03 -0.62410730902E+03  0.19367593357E+04  0.12699999809E+01 0. -1.
       -4    1    3    3    0  502  0.18300470508E+04  0.11159287761E+03 -0.25258456863E+03  0.18507635601E+04  0.12699999809E+01 0.  1.
</event>
<event>
 5   0  0.2282000E-08  0.3701509E+04  0.7818609E-02  0.8067628E-01
       -1   -1    0    0    0  501  0.00000000000E+00  0.00000000000E+00  0.21730933943E+04  0.21730933943E+04  0.50400001928E-02 0.  1.
        1   -1    0    0  501    0  0.00000000000E+00  0.00000000000E+00 -0.15762286441E+04  0.15762286441E+04  0.50400001928E-02 0. -1.
    10030    2    1    2    0    0  0.00000000000E+00  0.00000000000E+00  0.59686475015E+03  0.37493220384E+04  0.37015089109E+04 0.  0.
        5    1    3    3  502    0 -0.12808186423E+04  0.13356984794E+04  0.32490697743E+03  0.18788755830E+04  0.46999998093E+01 0.  1.
       -5    1    3    3    0  502  0.12808186423E+04 -0.13356984794E+04  0.27195777272E+03  0.18704464554E+04  0.46999998093E+01 0. -1.
</event>
<event>
 5   0  0.2282000E-08  0.3733302E+04  0.7818609E-02  0.8060621E-01
        1   -1    0    0  501    0  0.00000000000E+00  0.00000000000E+00  0.21262398864E+04  0.21262398864E+04  0.50400001928E-02 0. -1.
       -1   -1    0    0    0  501  0.00000000000E+00  0.00000000000E+00 -0.16387549785E+04  0.16387549785E+04  0.50400001928E-02 0.  1.
    10030    2    1    2    0    0  0.00000000000E+00  0.00000000000E+00  0.48748490793E+03  0.37649948649E+04  0.37333021304E+04 0.  0.
        2    1    3    3  502    0  0.88670159464E+03  0.15404078679E+04  0.81892627425E+03  0.19569712210E+04  0.25500000920E-02 0. -1.
       -2    1    3    3    0  502 -0.88670159464E+03 -0.15404078679E+04 -0.33144136632E+03  0.18080236438E+04  0.25500000920E-02 0.  1.
</event>
<event>
 5   0  0.7254493E-08  0.3697616E+04  0.7818609E-02  0.8068490E-01
        2   -1    0    0  501    0  0.00000000000E+00  0.00000000000E+00  0.12874394516E+04  0.12874394516E+04  0.25500000920E-02 0.  1.
       -2   -1    0    0    0  501  0.00000000000E+00  0.00000000000E+00 -0.26549525683E+04  0.26549525683E+04  0.25500000920E-02 0. -1.
    10030    2    1    2    0    0  0.00000000000E+00  0.00000000000E+00 -0.13675131167E+04  0.39423920198E+04  0.36976158148E+04 0.  0.
        3    1    3    3  502    0 -0.14929137438E+03  0.64679118547E+03  0.11560038767E+04  0.13330310294E+04  0.10100000352E+00 0.  1.
       -3    1    3    3    0  502  0.14929137438E+03 -0.64679118547E+03 -0.25235169934E+04  0.26093609904E+04  0.10100000352E+00 0. -1.
</event>
<event>
 5   0  0.7254493E-08  0.3620436E+04  0.7818609E-02  0.8085827E-01
       -2   -1    0    0    0  501  0.00000000000E+00  0.00000000000E+00  0.16807848215E+04  0.16807848215E+04  0.25500000920E-02 0. -1.
        2   -1    0    0  501    0  0.00000000000E+00  0.00000000000E+00 -0.19496186469E+04  0.19496186469E+04  0.25500000920E-02 0.  1.
    10030    2    1    2    0    0  0.00000000000E+00  0.00000000000E+00 -0.26883382541E+03  0.36304034684E+04  0.36204361226E+04 0.  0.
        3    1    3    3  502    0  0.64811842562E+03  0.27009487147E+03  0.15386731243E+04  0.16913082885E+04  0.10100000352E+00 0. -1.
       -3    1    3    3    0  502 -0.64811842562E+03 -0.27009487147E+03 -0.18075069497E+04  0.19390951799E+04  0.10100000352E+00 0.  1.
</event>
<event>
 5   0  0.7203049E-08  0.3708637E+04  0.7818609E-02  0.8066050E-01
       -2   -1    0    0    0  501  0.00000000000E+00  0.00000000000E+00  0.10591644534E+04  0.10591644534E+04  0.25500000920E-02 0. -1.
        2   -1    0    0  501    0  0.00000000000E+00  0.00000000000E+00 -0.32464240421E+04  0.32464240421E+04  0.25500000920E-02 0.  1.
    10030    2    1    2    0    0  0.00000000000E+00  0.00000000000E+00 -0.21872595887E+04  0.43055884956E+04  0.37086369174E+04 0.  0.
        4    1    3    3  502    0  0.27107055906E+03  0.10054036253E+04 -0.28749336262E+04  0.30577051306E+04  0.12699999809E+01 0.  1.
       -4    1    3    3    0  502 -0.27107055906E+03 -0.10054036253E+04  0.68767403753E+03  0.12478833650E+04  0.12699999809E+01 0. -1.
</event>
<event>
 5   0  0.2282000E-08  0.3704854E+04  0.7818609E-02  0.8066887E-01
       -1   -1    0    0    0  501  0.00000000000E+00  0.00000000000E+00  0.17880270239E+04  0.17880270240E+04  0.50400001928E-02 0. -1.
        1   -1    0    0  501    0  0.00000000000E+00  0.00000000000E+00 -0.19191467507E+04  0.19191467507E+04  0.50400001928E-02 0.  1.
    10030    2    1    2    0    0  0.00000000000E+00  0.00000000000E+00 -0.13111972675E+03  0.37071737747E+04  0.37048542499E+04 0.  0.
        1    1    3    3  502    0  0.13668754173E+03 -0.51795130632E+03 -0.18399521205E+04  0.19163457009E+04  0.50400001928E-02 0.  1.
       -1    1    3    3    0  502 -0.13668754173E+03  0.51795130632E+03  0.17088323937E+04  0.17908280737E+04  0.50400001928E-02 0. -1.
</event>
<event>
 5   0  0.7203049E-08  0.3684413E+04  0.7818609E-02  0.8071425E-01
       -2   -1    0    0    0  501  0.00000000000E+00  0.00000000000E+00  0.18116640592E+04  0.18116640592E+04  0.25500000920E-02 0. -1.
        2   -1    0    0  501    0  0.00000000000E+00  0.00000000000E+00 -0.18732636958E+04  0.18732636958E+04  0.25500000920E-02 0.  1.
    10030    2    1    2    0    0  0.00000000000E+00  0.00000000000E+00 -0.61599636623E+02  0.36849277550E+04  0.36844128493E+04 0.  0.
        4    1    3    3  502    0 -0.57378387263E+03 -0.11299488717E+04 -0.13680395956E+04  0.18648180429E+04  0.12699999809E+01 0.  1.
       -4    1    3    3    0  502  0.57378387263E+03  0.11299488717E+04  0.13064399589E+04  0.18201097121E+04  0.12699999809E+01 0. -1.
</event>
<event>
 5   0  0.2282000E-08  0.3701739E+04  0.7818609E-02  0.8067577E-01
        1   -1    0    0  501    0  0.00000000000E+00  0.00000000000E+00  0.24690372856E+04  0.24690372856E+04  0.50400001928E-02 0.  1.
       -1   -1    0    0    0  501  0.00000000000E+00  0.00000000000E+00 -0.13874709299E+04  0.13874709299E+04  0.50400001928E-02 0. -1.
    10030    2    1    2    0    0  0.00000000000E+00  0.00000000000E+00  0.10815663557E+04  0.38565082156E+04  0.37017387583E+04 0.  0.
        3    1    3    3  502    0  0.26812108018E+03  0.25164660505E+03  0.24305995567E+04  0.24582573385E+04  0.10100000352E+00 0.  1.
       -3    1    3    3    0  502 -0.26812108018E+03 -0.25164660505E+03 -0.13490332010E+04  0.13982508770E+04  0.10100000352E+00 0. -1.
</event>
<event>
 5   0  0.7254493E-08  0.3730755E+04  0.7818609E-02  0.8061180E-01
       -2   -1    0    0    0  501  0.00000000000E+00  0.00000000000E+00  0.15264283755E+04  0.15264283755E+04  0.25500000920E-02 0.  1.
        2   -1    0    0  501    0  0.00000000000E+00  0.00000000000E+00 -0.22795916096E+04  0.22795916096E+04  0.25500000920E-02 0. -1.
    10030    2    1    2    0    0  0.00000000000E+00  0.00000000000E+00 -0.75316323414E+03  0.38060199850E+04  0.37307550535E+04 0.  0.
        3    1    3    3  502    0  0.50702848498E+03 -0.84068025614E+03 -0.19947116992E+04  0.22232174772E+04  0.10100000352E+00 0. -1.
       -3    1    3    3    0  502 -0.50702848498E+03  0.84068025614E+03  0.12415484651E+04  0.15828025079E+04  0.10100000352E+00 0.  1.
</event>
<event>
 5   0  0.7254493E-08  0.3694302E+04  0.7818609E-02  0.8069226E-01
       -2   -1    0    0    0  501  0.00000000000E+00  0.00000000000E+00  0.17460457321E+04  0.17460457321E+04  0.25500000920E-02 0.  1.
        2   -1    0    0  501    0  0.00000000000E+00  0.00000000000E+00 -0.19541103925E+04  0.19541103925E+04  0.25500000920E-02 0. -1.
    10030    2    1    2    0    0  0.00000000000E+00  0.00000000000E+00 -0.20806466035E+03  0.37001561246E+04  0.36943016179E+04 0.  0.
        3    1    3    3  502    0  0.16908237090E+04  0.74270134342E+03 -0.65552697676E+02  0.18479143018E+04  0.10100000352E+00 0.  1.
       -3    1    3    3    0  502 -0.16908237090E+04 -0.74270134342E+03 -0.14251196267E+03  0.18522418228E+04  0.10100000352E+00 0. -1.
</event>
<event>
 5   0  0.2282000E-08  0.3685537E+04  0.7818609E-02  0.8071175E-01
       -1   -1    0    0    0  501  0.00000000000E+00  0.00000000000E+00  0.16321113116E+04  0.16321113116E+04  0.50400001928E-02 0. -1.
        1   -1    0    0  501    0  0.00000000000E+00  0.00000000000E+00 -0.20806149274E+04  0.20806149274E+04  0.50400001928E-02 0.  1.
    10030    2    1    2    0    0  0.00000000000E+00  0.00000000000E+00 -0.44850361588E+03  0.37127262390E+04  0.36855366817E+04 0.  0.
        1    1    3    3  502    0  0.16236766350E+04  0.76984514467E+03 -0.63568598183E+03  0.19060650643E+04  0.50400001928E-02 0.  1.
       -1    1    3    3    0  502 -0.16236766350E+04 -0.76984514467E+03  0.18718236595E+03  0.18066611747E+04  0.50400001928E-02 0. -1.
</event>
<event>
 5   0  0.2282000E-08  0.3709818E+04  0.7818609E-02  0.8065789E-01
       -1   -1    0    0    0  501  0.00000000000E+00  0.00000000000E+00  0.20134497694E+04  0.20134497694E+04  0.50400001928E-02 0.  1.
        1   -1    0    0  501    0  0.00000000000E+00  0.00000000000E+00 -0.17088522656E+04  0.17088522656E+04  0.50400001928E-02 0. -1.
    10030    2    1    2    0    0  0.00000000000E+00  0.00000000000E+00  0.30459750379E+03  0.37223020350E+04  0.37098184323E+04 0.  0.
        1    1    3    3  502    0  0.11385955805E+04  0.14445759219E+04 -0.88276105326E+02  0.18414646782E+04  0.50400001928E-02 0. -1.
       -1    1    3    3    0  502 -0.11385955805E+04 -0.14445759219E+04  0.39287360911E+03  0.18808373569E+04  0.50400001928E-02 0.  1.
</event>
<event>
 5   0  0.7362817E-08  0.3699886E+04  0.7818609E-02  0.8067987E-01
        2   -1    0    0  501    0  0.00000000000E+00  0.00000000000E+00  0.11098899783E+04  0.11098899783E+04  0.25500000920E-02 0.  1.
       -2   -1    0    0    0  501  0.00000000000E+00  0.00000000000E+00 -0.30834489663E+04  0.30834489663E+04  0.25500000920E-02 0. -1.
    10030    2    1    2    0    0  0.00000000000E+00  0.00000000000E+00 -0.19735589880E+04  0.41933389445E+04  0.36998860016E+04 0.  0.
        1    1    3    3  502    0  0.15636993761E+04 -0.61934422700E+03 -0.18599495840E+04  0.25076194818E+04  0.50400001928E-02 0. -1.
       -1    1    3    3    0  502 -0.15636993761E+04  0.61934422700E+03 -0.11360940405E+03  0.16857194628E+04  0.50400001928E-02 0.  1.
</event>
<event>
 5   0  0.2282000E-08  0.3699110E+04  0.7818609E-02  0.8068159E-01
       -1   -1    0    0    0  501  0.00000000000E+00  0.00000000000E+00  0.16067134017E+04  0.16067134017E+04  0.50400001928E-02 0. -1.
        1   -1    0    0  501    0  0.00000000000E+00  0.00000000000E+00 -0.21290996158E+04  0.21290996158E+04  0.50400001928E-02 0.  1.
    10030    2    1    2    0    0  0.00000000000E+00  0.00000000000E+00 -0.52238621411E+03  0.37358130175E+04  0.36991095611E+04 0.  0.
        4    1    3    3  502    0  0.11654132326E+04 -0.80381294543E+03  0.94080445590E+03  0.16998287829E+04  0.12699999809E+01 0. -1.
       -4    1    3    3    0  502 -0.11654132326E+04  0.80381294543E+03 -0.14631906700E+04  0.20359842346E+04  0.12699999809E+01 0.  1.
</event>
<event>
 5   0  0.7191801E-08  0.3694287E+04  0.7818609E-02  0.8069229E-01
        2   -1    0    0  501    0  0.00000000000E+00  0.00000000000E+00  0.35319338897E+04  0.35319338897E+04  0.25500000920E-02 0.  1.
       -2   -1    0    0    0  501  0.00000000000E+00  0.00000000000E+00 -0.96602592729E+03  0.96602592729E+03  0.25500000920E-02 0. -1.
    10030    2    1    2    0    0  0.00000000000E+00  0.00000000000E+00  0.25659079624E+04  0.44979598169E+04  0.36942873255E+04 0.  0.
        5    1    3    3  502    0  0.16479798693E+04 -0.35603278316E+03  0.36427588552E+03  0.17249104333E+04  0.46999998093E+01 0. -1.
       -5    1    3    3    0  502 -0.16479798693E+04  0.35603278316E+03  0.22016320768E+04  0.27730493836E+04  0.46999998093E+01 0.  1.
</event>
<event>
 5   0  0.2282000E-08  0.3696279E+04  0.7818609E-02  0.8068787E-01
       -1   -1    0    0    0  501  0.00000000000E+00  0.00000000000E+00  0.25838344794E+04  0.25838344794E+04  0.50400001928E-02 0. -1.
        1   -1    0    0  501    0  0.00000000000E+00  0.00000000000E+00 -0.13219187129E+04  0.13219187129E+04  0.50400001928E-02 0.  1.
    10030    2    1    2    0    0  0.00000000000E+00  0.00000000000E+00  0.12619157665E+04  0.39057531923E+04  0.36962787499E+04 0.  0.
        2    1    3    3  502    0  0.39067019803E+03  0.17983802003E+04  0.81035759072E+03  0.20108391217E+04  0.25500000920E-02 0. -1.
       -2    1    3    3    0  502 -0.39067019803E+03 -0.17983802003E+04  0.45155817581E+03  0.18949140705E+04  0.25500000920E-02 0.  1.
</event>
<event>
 5   0  0.2282000E-08  0.3698892E+04  0.7818609E-02  0.8068207E-01
        1   -1    0    0  501    0  0.00000000000E+00  0.00000000000E+00  0.15790333164E+04  0.15790333164E+04  0.50400001928E-02 0. -1.
       -1   -1    0    0    0  501  0.00000000000E+00  0.00000000000E+00 -0.21661677946E+04  0.21661677946E+04  0.50400001928E-02 0.  1.
    10030    2    1    2    0    0  0.00000000000E+00  0.00000000000E+00 -0.58713447821E+03  0.37452011110E+04  0.36988923296E+04 0.  0.
        5    1    3    3  502    0 -0.56805297192E+03  0.48124641729E+03  0.14205979215E+04  0.16038712036E+04  0.46999998093E+01 0. -1.
       -5    1    3    3    0  502  0.56805297192E+03 -0.48124641729E+03 -0.20077323998E+04  0.21413299073E+04  0.46999998093E+01 0.  1.
</event>
<event>
 5   0  0.2282000E-08  0.3709800E+04  0.7818609E-02  0.8065793E-01
        1   -1    0    0  501    0  0.00000000000E+00  0.00000000000E+00  0.13346567320E+04  0.13346567321E+04  0.50400001928E-02 0. -1.
       -1   -1    0    0    0  501  0.00000000000E+00  0.00000000000E+00 -0.25779324586E+04  0.25779324586E+04  0.50400001928E-02 0.  1.
    10030    2    1    2    0    0  0.00000000000E+00  0.00000000000E+00 -0.12432757265E+04  0.39125891906E+04  0.37098004855E+04 0.  0.
        3    1    3    3  502    0 -0.76803863160E+02 -0.18527843828E+04 -0.57511182712E+03  0.19415103467E+04  0.10100000352E+00 0. -1.
       -3    1    3    3    0  502  0.76803863160E+02  0.18527843828E+04 -0.66816389939E+03  0.19710788439E+04  0.10100000352E+00 0.  1.
</event>
<event>
 5   0  0.7191801E-08  0.3698659E+04  0.7818609E-02  0.8068259E-01
        2   -1    0    0  501    0  0.00000000000E+00  0.00000000000E+00  0.20863390628E+04  0.20863390628E+04  0.25500000920E-02 0.  1.
       -2   -1    0    0    0  501  0.00000000000E+00  0.00000000000E+00 -0.16392446807E+04  0.16392446807E+04  0.25500000920E-02 0. -1.
    10030    2    1    2    0    0  0.00000000000E+00  0.00000000000E+00  0.44709438214E+03  0.37255837436E+04  0.36986593306E+04 0.  0.
        5    1    3    3  502    0 -0.57973119464E+03 -0.92950989410E+03 -0.12772388416E+04  0.16826877458E+04  0.46999998093E+01 0. -1.
       -5    1    3    3    0  502  0.57973119464E+03  0.92950989410E+03  0.17243332237E+04  0.20428959978E+04  0.46999998093E+01 0.  1.
</event>
<event>
 5   0  0.2282000E-08  0.3707907E+04  0.7818609E-02  0.8066212E-01
        1   -1    0    0  501    0  0.00000000000E+00  0.00000000000E+00  0.11050154443E+04  0.11050154443E+04  0.50400001928E-02 0. -1.
       -1   -1    0    0    0  501  0.00000000000E+00  0.00000000000E+00 -0.31104941335E+04  0.31104941335E+04  0.50400001928E-02 0.  1.
    10030    2    1    2    0    0  0.00000000000E+00  0.00000000000E+00 -0.20054786892E+04  0.42155095778E+04  0.37079072572E+04 0.  0.
        2    1    3    3  502    0 -0.15186597270E+04 -0.10032710292E+04 -0.60197067366E+03  0.19170938465E+04  0.25500000920E-02 0.  1.
       -2    1    3    3    0  502  0.15186597270E+04  0.10032710292E+04 -0.14035080156E+04  0.22984157313E+04  0.25500000920E-02 0. -1.
</event>
<event>
 5   0  0.2282000E-08  0.3761727E+04  0.7818609E-02  0.8054418E-01
        1   -1    0    0  501    0  0.00000000000E+00  0.00000000000E+00  0.18556556628E+04  0.18556556628E+04  0.50400001928E-02 0. -1.
       -1   -1    0    0    0  501  0.00000000000E+00  0.00000000000E+00 -0.19064137573E+04  0.19064137573E+04  0.50400001928E-02 0.  1.
    10030    2    1    2    0    0  0.00000000000E+00  0.00000000000E+00 -0.50758094450E+02  0.37620694201E+04  0.37617269887E+04 0.  0.
        3    1    3    3  502    0  0.16407197880E+04  0.29783875046E+03 -0.89550314906E+03  0.18927744832E+04  0.10100000352E+00 0.  1.
       -3    1    3    3    0  502 -0.16407197880E+04 -0.29783875046E+03  0.84474505461E+03  0.18692949370E+04  0.10100000352E+00 0. -1.
</event>
<event>
 5   0  0.7254493E-08  0.3710920E+04  0.7818609E-02  0.8065546E-01
        2   -1    0    0  501    0  0.00000000000E+00  0.00000000000E+00  0.13348211311E+04  0.13348211311E+04  0.25500000920E-02 0. -1.
       -2   -1    0    0    0  501  0.00000000000E+00  0.00000000000E+00 -0.25791705594E+04  0.25791705594E+04  0.25500000920E-02 0.  1.
    10030    2    1    2    0    0  0.00000000000E+00  0.00000000000E+00 -0.12443494283E+04  0.39139916904E+04  0.37109197584E+04 0.  0.
        3    1    3    3  502    0 -0.10503725976E+04 -0.19302728733E+03 -0.22225021256E+04  0.24657773289E+04  0.10100000352E+00 0.  1.
       -3    1    3    3    0  502  0.10503725976E+04  0.19302728733E+03  0.97815269729E+03  0.14482143615E+04  0.10100000352E+00 0. -1.
</event>
<event>
 5   0  0.7191801E-08  0.3703184E+04  0.7818609E-02  0.8067256E-01
        2   -1    0    0  501    0  0.00000000000E+00  0.00000000000E+00  0.18722786525E+04  0.18722786525E+04  0.25500000920E-02 0.  1.
       -2   -1    0    0    0  501  0.00000000000E+00  0.00000000000E+00 -0.18311343081E+04  0.18311343081E+04  0.25500000920E-02 0. -1.
    10030    2    1    2    0    0  0.00000000000E+00  0.00000000000E+00  0.41144344392E+02  0.37034129606E+04  0.37031843999E+04 0.  0.
        5    1    3    3  502    0 -0.10975033005E+04  0.67837585047E+03  0.13486843698E+04  0.18664616011E+04  0.46999998093E+01 0.  1.
       -5    1    3    3    0  502  0.10975033005E+04 -0.67837585047E+03 -0.13075400254E+04  0.18369513595E+04  0.46999998093E+01 0. -1.
</event>
<event>
 5   0  0.7362817E-08  0.3686261E+04  0.7818609E-02  0.8071013E-01
       -2   -1    0    0    0  501  0.00000000000E+00  0.00000000000E+00  0.13900586054E+04  0.13900586054E+04  0.25500000920E-02 0. -1.
        2   -1    0    0  501    0  0.00000000000E+00  0.00000000000E+00 -0.24438753491E+04  0.24438753491E+04  0.25500000920E-02 0.  1.
    10030    2    1    2    0    0  0.00000000000E+00  0.00000000000E+00 -0.10538167437E+04  0.38339339545E+04  0.36862609563E+04 0.  0.
        1    1    3    3  502    0  0.61456177461E+03 -0.35479579383E+03 -0.22961008195E+04  0.24032572071E+04  0.50400001928E-02 0.  1.
       -1    1    3    3    0  502 -0.61456177461E+03  0.35479579383E+03  0.12422840759E+04  0.14306767473E+04  0.50400001928E-02 0. -1.
</event>
<event>
 5   0  0.2282000E-08  0.3701899E+04  0.7818609E-02  0.8067541E-01
       -1   -1    0    0    0  501  0.00000000000E+00  0.00000000000E+00  0.17787870930E+04  0.17787870930E+04  0.50400001928E-02 0.  1.
        1   -1    0    0  501    0  0.00000000000E+00  0.00000000000E+00 -0.19260394494E+04  0.19260394494E+04  0.50400001928E-02 0. -1.
    10030    2    1    2    0    0  0.00000000000E+00  0.00000000000E+00 -0.14725235642E+03  0.37048265424E+04  0.37018990333E+04 0.  0.
        4    1    3    3  502    0 -0.30000622035E+03 -0.24188666728E+02  0.17541323271E+04  0.17797670235E+04  0.12699999809E+01 0.  1.
       -4    1    3    3    0  502  0.30000622035E+03  0.24188666728E+02 -0.19013846835E+04  0.19250595190E+04  0.12699999809E+01 0. -1.
</event>
<event>
 5   0  0.2282000E-08  0.3696848E+04  0.7818609E-02  0.8068661E-01
        1   -1    0    0  501    0  0.00000000000E+00  0.00000000000E+00  0.16915027208E+04  0.16915027208E+04  0.50400001928E-02 0. -1.
       -1   -1    0    0    0  501  0.00000000000E+00  0.00000000000E+00 -0.20199028400E+04  0.20199028400E+04  0.50400001928E-02 0.  1.
    10030    2    1    2    0    0  0.00000000000E+00  0.00000000000E+00 -0.32840011911E+03  0.37114055608E+04  0.36968479274E+04 0.  0.
        5    1    3    3  502    0 -0.67206247012E+03  0.15333683024E+04 -0.95071520499E+03  0.19252968097E+04  0.46999998093E+01 0.  1.
       -5    1    3    3    0  502  0.67206247012E+03 -0.15333683024E+04  0.62231508587E+03  0.17861087511E+04  0.46999998093E+01 0. -1.
</event>
<event>
 5   0  0.2282000E-08  0.3697014E+04  0.7818609E-02  0.8068624E-01
       -1   -1    0    0    0  501  0.00000000000E+00  0.00000000000E+00  0.23821228132E+04  0.23821228132E+04  0.50400001928E-02 0.  1.
        1   -1    0    0  501    0  0.00000000000E+00  0.00000000000E+00 -0.14344255906E+04  0.14344255906E+04  0.50400001928E-02 0. -1.
    10030    2    1    2    0    0  0.00000000000E+00  0.00000000000E+00  0.94769722256E+03  0.38165484038E+04  0.36970138886E+04 0.  0.
        3    1    3    3  502    0  0.13961761288E+04 -0.89895752458E+03  0.13122308579E+04  0.21164551137E+04  0.10100000352E+00 0.  1.
       -3    1    3    3    0  502 -0.13961761288E+04  0.89895752458E+03 -0.36453363533E+03  0.17000932901E+04  0.10100000352E+00 0. -1.
</event>
<event>
 5   0  0.7309833E-08  0.3699430E+04  0.7818609E-02  0.8068088E-01
        2   -1    0    0  501    0  0.00000000000E+00  0.00000000000E+00  0.23867021510E+04  0.23867021510E+04  0.25500000920E-02 0. -1.
       -2   -1    0    0    0  501  0.00000000000E+00  0.00000000000E+00 -0.14335453029E+04  0.14335453029E+04  0.25500000920E-02 0.  1.
    10030    2    1    2    0    0  0.00000000000E+00  0.00000000000E+00  0.95315684807E+03  0.38202474539E+04  0.36994300415E+04 0.  0.
        2    1    3    3  502    0 -0.61227215505E+02  0.11647119754E+04 -0.10059762807E+04  0.15402243457E+04  0.25500000920E-02 0.  1.
       -2    1    3    3    0  502  0.61227215505E+02 -0.11647119754E+04  0.19591331288E+04  0.22800231082E+04  0.25500000920E-02 0. -1.
</event>
<event>
 5   0  0.2282000E-08  0.3697487E+04  0.7818609E-02  0.8068519E-01
        1   -1    0    0  501    0  0.00000000000E+00  0.00000000000E+00  0.18496739274E+04  0.18496739274E+04  0.50400001928E-02 0. -1.
       -1   -1    0    0    0  501  0.00000000000E+00  0.00000000000E+00 -0.18478137656E+04  0.18478137656E+04  0.50400001928E-02 0.  1.
    10030    2    1    2    0    0  0.00000000000E+00  0.00000000000E+00  0.18601618377E+01  0.36974876930E+04  0.36974872251E+04 0.  0.
        3    1    3    3  502    0 -0.10865438706E+04 -0.37670707008E+03  0.14484685660E+04  0.18494720858E+04  0.10100000352E+00 0. -1.
       -3    1    3    3    0  502  0.10865438706E+04  0.37670707008E+03 -0.14466084041E+04  0.18480156072E+04  0.10100000352E+00 0.  1.
</event>
<event>
 5   0  0.2282000E-08  0.3697913E+04  0.7818609E-02  0.8068424E-01
        1   -1    0    0  501    0  0.00000000000E+00  0.00000000000E+00  0.26938969670E+04  0.26938969671E+04  0.50400001928E-02 0.  1.
       -1   -1    0    0    0  501  0.00000000000E+00  0.00000000000E+00 -0.12690318118E+04  0.12690318118E+04  0.50400001928E-02 0. -1.
    10030    2    1    2    0    0  0.00000000000E+00  0.00000000000E+00  0.14248651553E+04  0.39629287789E+04  0.36979134381E+04 0.  0.
        2    1    3    3  502    0  0.34561130565E+03  0.12653647690E+04  0.21089109799E+04  0.24835661244E+04  0.25500000920E-02 0.  1.
       -2    1    3    3    0  502 -0.34561130565E+03 -0.12653647690E+04 -0.68404582463E+03  0.14793626545E+04  0.25500000920E-02 0. -1.
</event>
<event>
 5   0  0.2282000E-08  0.3702439E+04  0.7818609E-02  0.8067421E-01
        1   -1    0    0  501    0  0.00000000000E+00  0.00000000000E+00  0.11171120682E+04  0.11171120682E+04  0.50400001928E-02 0. -1.
       -1   -1    0    0    0  501  0.00000000000E+00  0.00000000000E+00 -0.30677442687E+04  0.30677442687E+04  0.50400001928E-02 0.  1.
    10030    2    1    2    0    0  0.00000000000E+00  0.00000000000E+00 -0.19506322005E+04  0.41848563369E+04  0.37024392741E+04 0.  0.
        4    1    3    3  502    0 -0.17086659294E+03  0.28036856132E+03  0.10839383556E+04  0.11325748957E+04  0.12699999809E+01 0. -1.
       -4    1    3    3    0  502  0.17086659294E+03 -0.28036856132E+03 -0.30345705561E+04  0.30522814411E+04  0.12699999809E+01 0.  1.
</event>
<event>
 5   0  0.7254493E-08  0.3702204E+04  0.7818609E-02  0.8067474E-01
       -2   -1    0    0    0  501  0.00000000000E+00  0.00000000000E+00  0.11300861722E+04  0.11300861722E+04  0.25500000920E-02 0. -1.
        2   -1    0    0  501    0  0.00000000000E+00  0.00000000000E+00 -0.30321389601E+04  0.30321389601E+04  0.25500000920E-02 0.  1.
    10030    2    1    2    0    0  0.00000000000E+00  0.00000000000E+00 -0.19020527879E+04  0.41622251323E+04  0.37022038361E+04 0.  0.
        3    1    3    3  502    0 -0.15149068676E+04  0.24999359101E+02 -0.21466612354E+04  0.26274935309E+04  0.10100000352E+00 0.  1.
       -3    1    3    3    0  502  0.15149068676E+04 -0.24999359101E+02  0.24460844748E+03  0.15347316013E+04  0.10100000352E+00 0. -1.
</event>
<event>
 5   0  0.7254493E-08  0.3704294E+04  0.7818609E-02  0.8067011E-01
        2   -1    0    0  501    0  0.00000000000E+00  0.00000000000E+00  0.18509777498E+04  0.18509777498E+04  0.25500000920E-02 0.  1.
       -2   -1    0    0    0  501  0.00000000000E+00  0.00000000000E+00 -0.18533172847E+04  0.18533172847E+04  0.25500000920E-02 0. -1.
    10030    2    1    2    0    0  0.00000000000E+00  0.00000000000E+00 -0.23395349541E+01  0.37042950345E+04  0.37042942957E+04 0.  0.
        3    1    3    3  502    0  0.12818425233E+04 -0.12586279985E+04  0.44959007446E+03  0.18518628292E+04  0.10100000352E+00 0. -1.
       -3    1    3    3    0  502 -0.12818425233E+04  0.12586279985E+04 -0.45192960941E+03  0.18524322053E+04  0.10100000352E+00 0.  1.
</event>
<event>
 5   0  0.2282000E-08  0.3701817E+04  0.7818609E-02  0.8067559E-01
        1   -1    0    0  501    0  0.00000000000E+00  0.00000000000E+00  0.11279208513E+04  0.11279208513E+04  0.50400001928E-02 0.  1.
       -1   -1    0    0    0  501  0.00000000000E+00  0.00000000000E+00 -0.30373245649E+04  0.30373245649E+04  0.50400001928E-02 0. -1.
    10030    2    1    2    0    0  0.00000000000E+00  0.00000000000E+00 -0.19094037136E+04  0.41652454162E+04  0.37018166940E+04 0.  0.
        2    1    3    3  502    0  0.13063094512E+04 -0.24079426348E+03 -0.24050338317E+04  0.27474741111E+04  0.25500000920E-02 0. -1.
       -2    1    3    3    0  502 -0.13063094512E+04  0.24079426348E+03  0.49563011812E+03  0.14177713051E+04  0.25500000920E-02 0.  1.
</event>
<event>
 5   0  0.2282000E-08  0.3692002E+04  0.7818609E-02  0.8069737E-01
       -1   -1    0    0    0  501  0.00000000000E+00  0.00000000000E+00  0.13525538117E+04  0.13525538118E+04  0.50400001928E-02 0.  1.
        1   -1    0    0  501    0  0.00000000000E+00  0.00000000000E+00 -0.25194700535E+04  0.25194700535E+04  0.50400001928E-02 0. -1.
    10030    2    1    2    0    0  0.00000000000E+00  0.00000000000E+00 -0.11669162418E+04  0.38720238653E+04  0.36920015300E+04 0.  0.
        5    1    3    3  502    0  0.10890800968E+04  0.14582244875E+04 -0.25989800395E+03  0.18385002517E+04  0.46999998093E+01 0. -1.
       -5    1    3    3    0  502 -0.10890800968E+04 -0.14582244875E+04 -0.90701823781E+03  0.20335236135E+04  0.46999998093E+01 0.  1.
</event>
<event>
 5   0  0.7191801E-08  0.3774779E+04  0.7818609E-02  0.8051589E-01
       -2   -1    0    0    0  501  0.00000000000E+00  0.00000000000E+00  0.19185234105E+04  0.19185234105E+04  0.25500000920E-02 0. -1.
        2   -1    0    0  501    0  0.00000000000E+00  0.00000000000E+00 -0.18567608293E+04  0.18567608293E+04  0.25500000920E-02 0.  1.
    10030    2    1    2    0    0  0.00000000000E+00  0.00000000000E+00  0.61762581199E+02  0.37752842398E+04  0.37747789968E+04 0.  0.
        5    1    3    3  502    0 -0.15935433351E+04  0.60136298716E+03 -0.78236912376E+03  0.18743375734E+04  0.46999998093E+01 0.  1.
       -5    1    3    3    0  502  0.15935433351E+04 -0.60136298716E+03  0.84413170496E+03  0.19009466664E+04  0.46999998093E+01 0. -1.
</event>
<event>
 5   0  0.7362817E-08  0.3696330E+04  0.7818609E-02  0.8068776E-01
       -2   -1    0    0    0  501  0.00000000000E+00  0.00000000000E+00  0.27343040268E+04  0.27343040268E+04  0.25500000920E-02 0. -1.
        2   -1    0    0  501    0  0.00000000000E+00  0.00000000000E+00 -0.12492077480E+04  0.12492077480E+04  0.25500000920E-02 0.  1.
    10030    2    1    2    0    0  0.00000000000E+00  0.00000000000E+00  0.14850962788E+04  0.39835117748E+04  0.36963299505E+04 0.  0.
        1    1    3    3  502    0 -0.12071154429E+04  0.10970064127E+04 -0.19396899907E+03  0.16426121680E+04  0.50400001928E-02 0.  1.
       -1    1    3    3    0  502  0.12071154429E+04 -0.10970064127E+04  0.16790652779E+04  0.23408996068E+04  0.50400001928E-02 0. -1.
</event>
<event>
 5   0  0.2282000E-08  0.3699857E+04  0.7818609E-02  0.8067993E-01
        3   -1    0    0  501    0  0.00000000000E+00  0.00000000000E+00  0.23840329411E+04  0.23840329433E+04  0.10100000352E+00 0. -1.
       -3   -1    0    0    0  501  0.00000000000E+00  0.00000000000E+00 -0.14354818390E+04  0.14354818426E+04  0.10100000352E+00 0.  1.
    10030    2    1    2    0    0  0.00000000000E+00  0.00000000000E+00  0.94855110211E+03  0.38195147859E+04  0.36998572954E+04 0.  0.
        5    1    3    3  502    0 -0.13066275020E+03 -0.85608319725E+03 -0.12132983424E+04  0.14906596367E+04  0.46999998093E+01 0.  1.
       -5    1    3    3    0  502  0.13066275020E+03  0.85608319725E+03  0.21618494445E+04  0.23288551491E+04  0.46999998093E+01 0. -1.
</event>
<event>
 5   0  0.2282000E-08  0.3698442E+04  0.7818609E-02  0.8068307E-01
       -1   -1    0    0    0  501  0.00000000000E+00  0.00000000000E+00  0.17133127831E+04  0.17133127831E+04  0.50400001928E-02 0. -1.
        1   -1    0    0  501    0  0.00000000000E+00  0.00000000000E+00 -0.19959095860E+04  0.19959095860E+04  0.50400001928E-02 0.  1.
    10030    2    1    2    0    0  0.00000000000E+00  0.00000000000E+00 -0.28259680292E+03  0.37092223691E+04  0.36984415137E+04 0.  0.
        4    1    3    3  502    0  0.12418616681E+04  0.92073544489E+03  0.87637204400E+03  0.17770773013E+04  0.12699999809E+01 0. -1.
       -4    1    3    3    0  502 -0.12418616681E+04 -0.92073544489E+03 -0.11589688469E+04  0.19321450679E+04  0.12699999809E+01 0.  1.
</event>
<event>
 5   0  0.7203049E-08  0.3709093E+04  0.7818609E-02  0.8065950E-01
       -2   -1    0    0    0  501  0.00000000000E+00  0.00000000000E+00  0.18073851596E+04  0.18073851596E+04  0.25500000920E-02 0.  1.
        2   -1    0    0  501    0  0.00000000000E+00  0.00000000000E+00 -0.19029382656E+04  0.19029382656E+04  0.25500000920E-02 0. -1.
    10030    2    1    2    0    0  0.00000000000E+00  0.00000000000E+00 -0.95553105975E+02  0.37103234253E+04  0.37090928168E+04 0.  0.
        4    1    3    3  502    0 -0.15307402613E+04  0.10165825553E+04 -0.29832907111E+03  0.18616142691E+04  0.12699999809E+01 0. -1.
       -4    1    3    3    0  502  0.15307402613E+04 -0.10165825553E+04  0.20277596514E+03  0.18487091562E+04  0.12699999809E+01 0.  1.
</event>
<event>
 5   0  0.7254493E-08  0.3698695E+04  0.7818609E-02  0.8068251E-01
       -2   -1    0    0    0  501  0.00000000000E+00  0.00000000000E+00  0.13509162718E+04  0.13509162718E+04  0.25500000920E-02 0.  1.
        2   -1    0    0  501    0  0.00000000000E+00  0.00000000000E+00 -0.25316794276E+04  0.25316794276E+04  0.25500000920E-02 0. -1.
    10030    2    1    2    0    0  0.00000000000E+00  0.00000000000E+00 -0.11807631558E+04  0.38825956994E+04  0.36986954099E+04 0.  0.
        3    1    3    3  502    0 -0.34341385297E+03  0.10769277074E+04 -0.21268438850E+04  0.24085620778E+04  0.10100000352E+00 0. -1.
       -3    1    3    3    0  502  0.34341385297E+03 -0.10769277074E+04  0.94608072919E+03  0.14740336216E+04  0.10100000352E+00 0.  1.
</event>
<event>
 5   0  0.7191801E-08  0.3708780E+04  0.7818609E-02  0.8066019E-01
        2   -1    0    0  501    0  0.00000000000E+00  0.00000000000E+00  0.13677109896E+04  0.13677109896E+04  0.25500000920E-02 0.  1.
       -2   -1    0    0    0  501  0.00000000000E+00  0.00000000000E+00 -0.25142466113E+04  0.25142466113E+04  0.25500000920E-02 0. -1.
    10030    2    1    2    0    0  0.00000000000E+00  0.00000000000E+00 -0.11465356217E+04  0.38819576009E+04  0.37087802420E+04 0.  0.
        5    1    3    3  502    0 -0.19542516528E+03 -0.12781890143E+03 -0.24987897233E+04  0.25096814217E+04  0.46999998093E+01 0. -1.
       -5    1    3    3    0  502  0.19542516528E+03  0.12781890143E+03  0.13522541016E+04  0.13722761793E+04  0.46999998093E+01 0.  1.
</event>
<event>
 5   0  0.7191801E-08  0.3702127E+04  0.7818609E-02  0.8067491E-01
       -2   -1    0    0    0  501  0.00000000000E+00  0.00000000000E+00  0.18115795405E+04  0.18115795405E+04  0.25500000920E-02 0.  1.
        2   -1    0    0  501    0  0.00000000000E+00  0.00000000000E+00 -0.18914080651E+04  0.18914080651E+04  0.25500000920E-02 0. -1.
    10030    2    1    2    0    0  0.00000000000E+00  0.00000000000E+00 -0.79828524542E+02  0.37029876056E+04  0.37021270392E+04 0.  0.
        5    1    3    3  502    0  0.26034124124E+03  0.86562565161E+03 -0.16556314284E+04  0.18863252231E+04  0.46999998093E+01 0. -1.
       -5    1    3    3    0  502 -0.26034124124E+03 -0.86562565161E+03  0.15758029038E+04  0.18166623826E+04  0.46999998093E+01 0.  1.
</event>
<event>
 5   0  0.7191801E-08  0.3651370E+04  0.7818609E-02  0.8078825E-01
       -2   -1    0    0    0  501  0.00000000000E+00  0.00000000000E+00  0.24485416104E+04  0.24485416104E+04  0.25500000920E-02 0. -1.
        2   -1    0    0  501    0  0.00000000000E+00  0.00000000000E+00 -0.13612694761E+04  0.13612694761E+04  0.25500000920E-02 0.  1.
    10030    2    1    2    0    0  0.00000000000E+00  0.00000000000E+00  0.10872721343E+04  0.38098110865E+04  0.36513695815E+04 0.  0.
        5    1    3    3  502    0  0.52224788392E+03  0.18712046679E+03 -0.12711906719E+04  0.13869768331E+04  0.46999998093E+01 0.  1.
       -5    1    3    3    0  502 -0.52224788392E+03 -0.18712046679E+03  0.23584628061E+04  0.24228342534E+04  0.46999998093E+01 0. -1.
</event>
<event>
 5   0  0.2282000E-08  0.3705481E+04  0.7818609E-02  0.8066748E-01
       -1   -1    0    0    0  501  0.00000000000E+00  0.00000000000E+00  0.22686458285E+04  0.22686458286E+04  0.50400001928E-02 0.  1.
        1   -1    0    0  501    0  0.00000000000E+00  0.00000000000E+00 -0.15130819467E+04  0.15130819467E+04  0.50400001928E-02 0. -1.
    10030    2    1    2    0    0  0.00000000000E+00  0.00000000000E+00  0.75556388185E+03  0.37817277753E+04  0.37054808307E+04 0.  0.
        5    1    3    3  502    0  0.11504945868E+04 -0.11669120175E+04 -0.50447320920E+03  0.17145952174E+04  0.46999998093E+01 0. -1.
       -5    1    3    3    0  502 -0.11504945868E+04  0.11669120175E+04  0.12600370910E+04  0.20671325578E+04  0.46999998093E+01 0.  1.
</event>
<event>
 5   0  0.7362817E-08  0.3697854E+04  0.7818609E-02  0.8068438E-01
       -2   -1    0    0    0  501  0.00000000000E+00  0.00000000000E+00  0.29653746456E+04  0.29653746456E+04  0.25500000920E-02 0. -1.
        2   -1    0    0  501    0  0.00000000000E+00  0.00000000000E+00 -0.11528159308E+04  0.11528159308E+04  0.25500000920E-02 0.  1.
    10030    2    1    2    0    0  0.00000000000E+00  0.00000000000E+00  0.18125587147E+04  0.41181905764E+04  0.36978540438E+04 0.  0.
        1    1    3    3  502    0 -0.85336460040E+03 -0.13701429943E+04  0.19104421587E+04  0.25010622159E+04  0.50400001928E-02 0. -1.
       -1    1    3    3    0  502  0.85336460040E+03  0.13701429943E+04 -0.97883443933E+02  0.16171283606E+04  0.50400001928E-02 0.  1.
</event>
<event>
 5   0  0.2282000E-08  0.3694195E+04  0.7818609E-02  0.8069250E-01
        1   -1    0    0  501    0  0.00000000000E+00  0.00000000000E+00  0.26008785785E+04  0.26008785785E+04  0.50400001928E-02 0. -1.
       -1   -1    0    0    0  501  0.00000000000E+00  0.00000000000E+00 -0.13117755343E+04  0.13117755343E+04  0.50400001928E-02 0.  1.
    10030    2    1    2    0    0  0.00000000000E+00  0.00000000000E+00  0.12891030442E+04  0.39126541128E+04  0.36941948443E+04 0.  0.
        2    1    3    3  502    0 -0.89970564427E+03 -0.13108823292E+04  0.16403004005E+04  0.22843966668E+04  0.25500000920E-02 0. -1.
       -2    1    3    3    0  502  0.89970564427E+03  0.13108823292E+04 -0.35119735632E+03  0.16282574460E+04  0.25500000920E-02 0.  1.
</event>
<event>
 5   0  0.2282000E-08  0.3701745E+04  0.7818609E-02  0.8067575E-01
       -1   -1    0    0    0  501  0.00000000000E+00  0.00000000000E+00  0.16005889532E+04  0.16005889532E+04  0.50400001928E-02 0.  1.
        1   -1    0    0  501    0  0.00000000000E+00  0.00000000000E+00 -0.21402932476E+04  0.21402932476E+04  0.50400001928E-02 0. -1.
    10030    2    1    2    0    0  0.00000000000E+00  0.00000000000E+00 -0.53970429443E+03  0.37408822008E+04  0.37017453877E+04 0.  0.
        4    1    3    3  502    0 -0.67694772805E+03  0.49439063273E+03 -0.19374645653E+04  0.21110307622E+04  0.12699999809E+01 0. -1.
       -4    1    3    3    0  502  0.67694772805E+03 -0.49439063273E+03  0.13977602709E+04  0.16298514386E+04  0.12699999809E+01 0.  1.
</event>
<event>
 5   0  0.2282000E-08  0.3702763E+04  0.7818609E-02  0.8067350E-01
       -1   -1    0    0    0  501  0.00000000000E+00  0.00000000000E+00  0.14708886939E+04  0.14708886940E+04  0.50400001928E-02 0. -1.
        1   -1    0    0  501    0  0.00000000000E+00  0.00000000000E+00 -0.23303012254E+04  0.23303012255E+04  0.50400001928E-02 0.  1.
    10030    2    1    2    0    0  0.00000000000E+00  0.00000000000E+00 -0.85941253150E+03  0.38011899194E+04  0.37027631445E+04 0.  0.
        3    1    3    3  502    0  0.14606748817E+04  0.86617930392E+03  0.32730729987E+03  0.17294414634E+04  0.10100000352E+00 0. -1.
       -3    1    3    3    0  502 -0.14606748817E+04 -0.86617930392E+03 -0.11867198314E+04  0.20717484560E+04  0.10100000352E+00 0.  1.
</event>
<event>
 5   0  0.7362817E-08  0.3698327E+04  0.7818609E-02  0.8068333E-01
       -2   -1    0    0    0  501  0.00000000000E+00  0.00000000000E+00  0.21033504870E+04  0.21033504870E+04  0.25500000920E-02 0. -1.
        2   -1    0    0  501    0  0.00000000000E+00  0.00000000000E+00 -0.16256947936E+04  0.16256947936E+04  0.25500000920E-02 0.  1.
    10030    2    1    2    0    0  0.00000000000E+00  0.00000000000E+00  0.47765569341E+03  0.37290452807E+04  0.36983271548E+04 0.  0.
        1    1    3    3  502    0 -0.52792852687E+03  0.17085869140E+04 -0.23564215562E+03  0.18037474872E+04  0.50400001928E-02 0.  1.
       -1    1    3    3    0  502  0.52792852687E+03 -0.17085869140E+04  0.71329784902E+03  0.19252977935E+04  0.50400001928E-02 0. -1.
</event>
<event>
 5   0  0.2282000E-08  0.3708212E+04  0.7818609E-02  0.8066144E-01
       -1   -1    0    0    0  501  0.00000000000E+00  0.00000000000E+00  0.32102602961E+04  0.32102602961E+04  0.50400001928E-02 0.  1.
        1   -1    0    0  501    0  0.00000000000E+00  0.00000000000E+00 -0.10708504614E+04  0.10708504615E+04  0.50400001928E-02 0. -1.
    10030    2    1    2    0    0  0.00000000000E+00  0.00000000000E+00  0.21394098346E+04  0.42811107575E+04  0.37082118167E+04 0.  0.
        4    1    3    3  502    0 -0.36509993164E+03  0.16884053077E+04  0.18473379900E+04  0.25291638352E+04  0.12699999809E+01 0. -1.
       -4    1    3    3    0  502  0.36509993164E+03 -0.16884053077E+04  0.29207184466E+03  0.17519469223E+04  0.12699999809E+01 0.  1.
</event>
<event>
 5   0  0.2282000E-08  0.3686931E+04  0.7818609E-02  0.8070864E-01
        1   -1    0    0  501    0  0.00000000000E+00  0.00000000000E+00  0.19112103745E+04  0.19112103745E+04  0.50400001928E-02 0.  1.
       -1   -1    0    0    0  501  0.00000000000E+00  0.00000000000E+00 -0.17781214730E+04  0.17781214730E+04  0.50400001928E-02 0. -1.
    10030    2    1    2    0    0  0.00000000000E+00  0.00000000000E+00  0.13308890158E+03  0.36893318475E+04  0.36869305425E+04 0.  0.
        4    1    3    3  502    0 -0.75733494057E+03 -0.99527227248E+03 -0.12886786122E+04  0.17957776274E+04  0.12699999809E+01 0. -1.
       -4    1    3    3    0  502  0.75733494057E+03  0.99527227248E+03  0.14217675137E+04  0.18935542201E+04  0.12699999809E+01 0.  1.
</event>
<event>
 5   0  0.2282000E-08  0.3693043E+04  0.7818609E-02  0.8069505E-01
       -1   -1    0    0    0  501  0.00000000000E+00  0.00000000000E+00  0.17977104600E+04  0.17977104600E+04  0.50400001928E-02 0. -1.
        1   -1    0    0  501    0  0.00000000000E+00  0.00000000000E+00 -0.18966575680E+04  0.18966575680E+04  0.50400001928E-02 0.  1.
    10030    2    1    2    0    0  0.00000000000E+00  0.00000000000E+00 -0.98947107954E+02  0.36943680280E+04  0.36930427287E+04 0.  0.
        5    1    3    3  502    0 -0.89419681770E+03 -0.56263046233E+03  0.14654932644E+04  0.18066083095E+04  0.46999998093E+01 0. -1.
       -5    1    3    3    0  502  0.89419681770E+03  0.56263046233E+03 -0.15644403724E+04  0.18877597185E+04  0.46999998093E+01 0.  1.
</event>
<event>
 5   0  0.7309833E-08  0.3677522E+04  0.7818609E-02  0.8072962E-01
        2   -1    0    0  501    0  0.00000000000E+00  0.00000000000E+00  0.16056035013E+04  0.16056035013E+04  0.25500000920E-02 0.  1.
       -2   -1    0    0    0  501  0.00000000000E+00  0.00000000000E+00 -0.21057764187E+04  0.21057764187E+04  0.25500000920E-02 0. -1.
    10030    2    1    2    0    0  0.00000000000E+00  0.00000000000E+00 -0.50017291745E+03  0.37113799200E+04  0.36775219868E+04 0.  0.
        2    1    3    3  502    0  0.62172571109E+02  0.11833491248E+04  0.11688673163E+04  0.16644612891E+04  0.25500000920E-02 0.  1.
       -2    1    3    3    0  502 -0.62172571109E+02 -0.11833491248E+04 -0.16690402338E+04  0.20469186309E+04  0.25500000920E-02 0. -1.
</event>
<event>
 5   0  0.7203049E-08  0.3698676E+04  0.7818609E-02  0.8068255E-01
       -2   -1    0    0    0  501  0.00000000000E+00  0.00000000000E+00  0.29332651675E+04  0.29332651675E+04  0.25500000920E-02 0. -1.
        2   -1    0    0  501    0  0.00000000000E+00  0.00000000000E+00 -0.11659533019E+04  0.11659533019E+04  0.25500000920E-02 0.  1.
    10030    2    1    2    0    0  0.00000000000E+00  0.00000000000E+00  0.17673118656E+04  0.40992184694E+04  0.36986755508E+04 0.  0.
        4    1    3    3  502    0 -0.47729839790E+03  0.14620442881E+04  0.20218369558E+04  0.25403176081E+04  0.12699999809E+01 0. -1.
       -4    1    3    3    0  502  0.47729839790E+03 -0.14620442881E+04 -0.25452509023E+03  0.15589008614E+04  0.12699999809E+01 0.  1.
</event>
<event>
 5   0  0.7191801E-08  0.3683772E+04  0.7818609E-02  0.8071568E-01
        2   -1    0    0  501    0  0.00000000000E+00  0.00000000000E+00  0.23889563784E+04  0.23889563784E+04  0.25500000920E-02 0.  1.
       -2   -1    0    0    0  501  0.00000000000E+00  0.00000000000E+00 -0.14200949489E+04  0.14200949489E+04  0.25500000920E-02 0. -1.
    10030    2    1    2    0    0  0.00000000000E+00  0.00000000000E+00  0.96886142952E+03  0.38090513273E+04  0.36837724610E+04 0.  0.
        5    1    3    3  502    0  0.84400784159E+03  0.31987148438E+03  0.21446036802E+04  0.23268033948E+04  0.46999998093E+01 0.  1.
       -5    1    3    3    0  502 -0.84400784159E+03 -0.31987148438E+03 -0.11757422507E+04  0.14822479324E+04  0.46999998093E+01 0. -1.
</event>
<event>
 5   0  0.7254493E-08  0.3696182E+04  0.7818609E-02  0.8068808E-01
       -2   -1    0    0    0  501  0.00000000000E+00  0.00000000000E+00  0.27814329274E+04  0.27814329274E+04  0.25500000920E-02 0. -1.
        2   -1    0    0  501    0  0.00000000000E+00  0.00000000000E+00 -0.12279427625E+04  0.12279427625E+04  0.25500000920E-02 0.  1.
    10030    2    1    2    0    0  0.00000000000E+00  0.00000000000E+00  0.15534901648E+04  0.40093756899E+04  0.36961820478E+04 0.  0.
        3    1    3    3  502    0  0.14561607455E+04 -0.45150751025E+03 -0.35636226476E+03  0.15656491378E+04  0.10100000352E+00 0.  1.
       -3    1    3    3    0  502 -0.14561607455E+04  0.45150751025E+03  0.19098524296E+04  0.24437265521E+04  0.10100000352E+00 0. -1.
</event>
<event>
 5   0  0.7191801E-08  0.3694515E+04  0.7818609E-02  0.8069178E-01
       -2   -1    0    0    0  501  0.00000000000E+00  0.00000000000E+00  0.13547014470E+04  0.13547014470E+04  0.25500000920E-02 0. -1.
        2   -1    0    0  501    0  0.00000000000E+00  0.00000000000E+00 -0.25189025440E+04  0.25189025440E+04  0.25500000920E-02 0.  1.
    10030    2    1    2    0    0  0.00000000000E+00  0.00000000000E+00 -0.11642010970E+04  0.38736039910E+04  0.36945153518E+04 0.  0.
        5    1    3    3  502    0  0.88452416135E+03  0.14840681988E+04  0.10342633922E+03  0.17307687622E+04  0.46999998093E+01 0.  1.
       -5    1    3    3    0  502 -0.88452416135E+03 -0.14840681988E+04 -0.12676274362E+04  0.21428352288E+04  0.46999998093E+01 0. -1.
</event>
<event>
 5   0  0.7309833E-08  0.3684458E+04  0.7818609E-02  0.8071415E-01
       -2   -1    0    0    0  501  0.00000000000E+00  0.00000000000E+00  0.16741457614E+04  0.16741457614E+04  0.25500000920E-02 0. -1.
        2   -1    0    0  501    0  0.00000000000E+00  0.00000000000E+00 -0.20271879201E+04  0.20271879201E+04  0.25500000920E-02 0.  1.
    10030    2    1    2    0    0  0.00000000000E+00  0.00000000000E+00 -0.35304215871E+03  0.37013336815E+04  0.36844582038E+04 0.  0.
        2    1    3    3  502    0  0.96380720487E+03  0.56287016182E+03  0.12958182108E+04  0.17102315582E+04  0.25500000920E-02 0. -1.
       -2    1    3    3    0  502 -0.96380720487E+03 -0.56287016182E+03 -0.16488603695E+04  0.19911021233E+04  0.25500000920E-02 0.  1.
</event>
<event>
 5   0  0.2282000E-08  0.3692631E+04  0.7818609E-02  0.8069597E-01
       -1   -1    0    0    0  501  0.00000000000E+00  0.00000000000E+00  0.13971651820E+04  0.13971651820E+04  0.50400001928E-02 0.  1.
        1   -1    0    0  501    0  0.00000000000E+00  0.00000000000E+00 -0.24398556439E+04  0.24398556439E+04  0.50400001928E-02 0. -1.
    10030    2    1    2    0    0  0.00000000000E+00  0.00000000000E+00 -0.10426904619E+04  0.38370208259E+04  0.36926312325E+04 0.  0.
        1    1    3    3  502    0 -0.10656815976E+04  0.45730260612E+03  0.97152244183E+03  0.15128313839E+04  0.50400001928E-02 0.  1.
       -1    1    3    3    0  502  0.10656815976E+04 -0.45730260612E+03 -0.20142129037E+04  0.23241894421E+04  0.50400001928E-02 0. -1.
</event>
<event>
 5   0  0.2282000E-08  0.3727987E+04  0.7818609E-02  0.8061788E-01
       -1   -1    0    0    0  501  0.00000000000E+00  0.00000000000E+00  0.19515531623E+04  0.19515531623E+04  0.50400001928E-02 0. -1.
        1   -1    0    0  501    0  0.00000000000E+00  0.00000000000E+00 -0.17803622514E+04  0.17803622514E+04  0.50400001928E-02 0.  1.
    10030    2    1    2    0    0  0.00000000000E+00  0.00000000000E+00  0.17119091090E+03  0.37319154137E+04  0.37279869001E+04 0.  0.
        4    1    3    3  502    0 -0.60556272397E+03  0.17615922482E+04  0.18022417432E+02  0.18628579876E+04  0.12699999809E+01 0. -1.
       -4    1    3    3    0  502  0.60556272397E+03 -0.17615922482E+04  0.15316849347E+03  0.18690574261E+04  0.12699999809E+01 0.  1.
</event>
<event>
 5   0  0.7203049E-08  0.3709972E+04  0.7818609E-02  0.8065756E-01
       -2   -1    0    0    0  501  0.00000000000E+00  0.00000000000E+00  0.23366456105E+04  0.23366456105E+04  0.25500000920E-02 0. -1.
        2   -1    0    0  501    0  0.00000000000E+00  0.00000000000E+00 -0.14726120659E+04  0.14726120659E+04  0.25500000920E-02 0.  1.
    10030    2    1    2    0    0  0.00000000000E+00  0.00000000000E+00  0.86403354461E+03  0.38092576764E+04  0.37099717086E+04 0.  0.
        4    1    3    3  502    0 -0.27127639834E+03  0.18181322254E+04  0.68721458731E+03  0.19625139936E+04  0.12699999809E+01 0.  1.
       -4    1    3    3    0  502  0.27127639834E+03 -0.18181322254E+04  0.17681895731E+03  0.18467436828E+04  0.12699999809E+01 0. -1.
</event>
<event>
 5   0  0.7203049E-08  0.3698780E+04  0.7818609E-02  0.8068232E-01
        2   -1    0    0  501    0  0.00000000000E+00  0.00000000000E+00  0.21552392432E+04  0.21552392432E+04  0.25500000920E-02 0. -1.
       -2   -1    0    0    0  501  0.00000000000E+00  0.00000000000E+00 -0.15869437918E+04  0.15869437918E+04  0.25500000920E-02 0.  1.
    10030    2    1    2    0    0  0.00000000000E+00  0.00000000000E+00  0.56829545145E+03  0.37421830350E+04  0.36987800891E+04 0.  0.
        4    1    3    3  502    0 -0.95964292742E+03  0.15755083812E+04  0.15184351480E+03  0.18509995336E+04  0.12699999809E+01 0.  1.
       -4    1    3    3    0  502  0.95964292742E+03 -0.15755083812E+04  0.41645193665E+03  0.18911835014E+04  0.12699999809E+01 0. -1.
</event>
<event>
 5   0  0.2282000E-08  0.3699657E+04  0.7818609E-02  0.8068038E-01
        1   -1    0    0  501    0  0.00000000000E+00  0.00000000000E+00  0.12882872356E+04  0.12882872356E+04  0.50400001928E-02 0.  1.
       -1   -1    0    0    0  501  0.00000000000E+00  0.00000000000E+00 -0.26561348654E+04  0.26561348654E+04  0.50400001928E-02 0. -1.
    10030    2    1    2    0    0  0.00000000000E+00  0.00000000000E+00 -0.13678476298E+04  0.39444221010E+04  0.36996565480E+04 0.  0.
        2    1    3    3  502    0 -0.47016760727E+03  0.69127260203E+03  0.10753836625E+04  0.13621179871E+04  0.25500000920E-02 0.  1.
       -2    1    3    3    0  502  0.47016760727E+03 -0.69127260203E+03 -0.24432312923E+04  0.25823041139E+04  0.25500000920E-02 0. -1.
</event>
<event>
 5   0  0.2282000E-08  0.3693538E+04  0.7818609E-02  0.8069395E-01
        1   -1    0    0  501    0  0.00000000000E+00  0.00000000000E+00  0.18109302534E+04  0.18109302534E+04  0.50400001928E-02 0. -1.
       -1   -1    0    0    0  501  0.00000000000E+00  0.00000000000E+00 -0.18833173037E+04  0.18833173037E+04  0.50400001928E-02 0.  1.
    10030    2    1    2    0    0  0.00000000000E+00  0.00000000000E+00 -0.72387050288E+02  0.36942475572E+04  0.36935382939E+04 0.  0.
        2    1    3    3  502    0  0.12734686878E+04 -0.10023539135E+04  0.84948225682E+03  0.18297693765E+04  0.25500000920E-02 0. -1.
       -2    1    3    3    0  502 -0.12734686878E+04  0.10023539135E+04 -0.92186930711E+03  0.18644781806E+04  0.25500000920E-02 0.  1.
</event>
<event>
 5   0  0.7309833E-08  0.3697729E+04  0.7818609E-02  0.8068465E-01
       -2   -1    0    0    0  501  0.00000000000E+00  0.00000000000E+00  0.13103534083E+04  0.13103534083E+04  0.25500000920E-02 0.  1.
        2   -1    0    0  501    0  0.00000000000E+00  0.00000000000E+00 -0.26086850369E+04  0.26086850369E+04  0.25500000920E-02 0. -1.
    10030    2    1    2    0    0  0.00000000000E+00  0.00000000000E+00 -0.12983316287E+04  0.39190384452E+04  0.36977286700E+04 0.  0.
        2    1    3    3  502    0  0.13742286750E+03  0.16377504415E+04  0.24838888005E+03  0.16621698435E+04  0.25500000920E-02 0.  1.
       -2    1    3    3    0  502 -0.13742286750E+03 -0.16377504415E+04 -0.15467205087E+04  0.22568686017E+04  0.25500000920E-02 0. -1.
</event>
<event>
 5   0  0.7254493E-08  0.3696318E+04  0.7818609E-02  0.8068778E-01
        2   -1    0    0  501    0  0.00000000000E+00  0.00000000000E+00  0.22126819323E+04  0.22126819323E+04  0.25500000920E-02 0. -1.
       -2   -1    0    0    0  501  0.00000000000E+00  0.00000000000E+00 -0.15436888346E+04  0.15436888346E+04  0.25500000920E-02 0.  1.
    10030    2    1    2    0    0  0.00000000000E+00  0.00000000000E+00  0.66899309772E+03  0.37563707668E+04  0.36963183809E+04 0.  0.
        3    1    3    3  502    0  0.17612542311E+04  0.75678201895E+02 -0.22945044540E+03  0.17777489063E+04  0.10100000352E+00 0.  1.
       -3    1    3    3    0  502 -0.17612542311E+04 -0.75678201895E+02  0.89844354312E+03  0.19786218606E+04  0.10100000352E+00 0. -1.
</event>
<event>
 5   0  0.7309833E-08  0.3695789E+04  0.7818609E-02  0.8068896E-01
       -2   -1    0    0    0  501  0.00000000000E+00  0.00000000000E+00  0.26429733400E+04  0.26429733400E+04  0.25500000920E-02 0.  1.
        2   -1    0    0  501    0  0.00000000000E+00  0.00000000000E+00 -0.12919974210E+04  0.12919974210E+04  0.25500000920E-02 0. -1.
    10030    2    1    2    0    0  0.00000000000E+00  0.00000000000E+00  0.13509759190E+04  0.39349707610E+04  0.36957893550E+04 0.  0.
        2    1    3    3  502    0 -0.10028356766E+04 -0.64207609524E+03  0.21800105602E+04  0.24840263986E+04  0.25500000920E-02 0.  1.
       -2    1    3    3    0  502  0.10028356766E+04  0.64207609524E+03 -0.82903464126E+03  0.14509443624E+04  0.25500000920E-02 0. -1.
</event>
<event>
 5   0  0.7362817E-08  0.3691616E+04  0.7818609E-02  0.8069822E-01
        2   -1    0    0  501    0  0.00000000000E+00  0.00000000000E+00  0.18602868128E+04  0.18602868129E+04  0.25500000920E-02 0.  1.
       -2   -1    0    0    0  501  0.00000000000E+00  0.00000000000E+00 -0.18314419096E+04  0.18314419096E+04  0.25500000920E-02 0. -1.
    10030    2    1    2    0    0  0.00000000000E+00  0.00000000000E+00  0.28844903286E+02  0.36917287224E+04  0.36916160325E+04 0.  0.
        1    1    3    3  502    0  0.36554022642E+03 -0.99889029084E+03  0.15229796082E+04  0.18576513013E+04  0.50400001928E-02 0.  1.
       -1    1    3    3    0  502 -0.36554022642E+03  0.99889029084E+03 -0.14941347049E+04  0.18340774211E+04  0.50400001928E-02 0. -1.
</event>
<event>
 5   0  0.2282000E-08  0.3706411E+04  0.7818609E-02  0.8066542E-01
       -1   -1    0    0    0  501  0.00000000000E+00  0.00000000000E+00  0.20060898520E+04  0.20060898520E+04  0.50400001928E-02 0.  1.
        1   -1    0    0  501    0  0.00000000000E+00  0.00000000000E+00 -0.17119728778E+04  0.17119728778E+04  0.50400001928E-02 0. -1.
    10030    2    1    2    0    0  0.00000000000E+00  0.00000000000E+00  0.29411697414E+03  0.37180627298E+04  0.37064114273E+04 0.  0.
        5    1    3    3  502    0  0.16137648935E+04  0.76297129720E+03  0.64660684963E+03  0.18985480873E+04  0.46999998093E+01 0.  1.
       -5    1    3    3    0  502 -0.16137648935E+04 -0.76297129720E+03 -0.35248987549E+03  0.18195146425E+04  0.46999998093E+01 0. -1.
</event>
<event>
 5   0  0.7191801E-08  0.3700753E+04  0.7818609E-02  0.8067795E-01
        2   -1    0    0  501    0  0.00000000000E+00  0.00000000000E+00  0.22141124978E+04  0.22141124978E+04  0.25500000920E-02 0. -1.
       -2   -1    0    0    0  501  0.00000000000E+00  0.00000000000E+00 -0.15463951880E+04  0.15463951880E+04  0.25500000920E-02 0.  1.
    10030    2    1    2    0    0  0.00000000000E+00  0.00000000000E+00  0.66771730982E+03  0.37605076858E+04  0.37007528489E+04 0.  0.
        5    1    3    3  502    0 -0.80292728785E+03  0.16633095501E+04  0.44782997162E+03  0.19004906373E+04  0.46999998093E+01 0. -1.
       -5    1    3    3    0  502  0.80292728785E+03 -0.16633095501E+04  0.21988733820E+03  0.18600170485E+04  0.46999998093E+01 0.  1.
</event>
<event>
 5   0  0.7203049E-08  0.3705827E+04  0.7818609E-02  0.8066672E-01
       -2   -1    0    0    0  501  0.00000000000E+00  0.00000000000E+00  0.13592492566E+04  0.13592492566E+04  0.25500000920E-02 0. -1.
        2   -1    0    0  501    0  0.00000000000E+00  0.00000000000E+00 -0.25258705631E+04  0.25258705631E+04  0.25500000920E-02 0.  1.
    10030    2    1    2    0    0  0.00000000000E+00  0.00000000000E+00 -0.11666213065E+04  0.38851198196E+04  0.37058265934E+04 0.  0.
        4    1    3    3  502    0  0.15790438588E+04  0.57752798994E+03 -0.13996814400E+04  0.21876992100E+04  0.12699999809E+01 0.  1.
       -4    1    3    3    0  502 -0.15790438588E+04 -0.57752798994E+03  0.23306013350E+03  0.16974206096E+04  0.12699999809E+01 0. -1.
</event>
<event>
 5   0  0.7309833E-08  0.3697403E+04  0.7818609E-02  0.8068538E-01
       -2   -1    0    0    0  501  0.00000000000E+00  0.00000000000E+00  0.12550184806E+04  0.12550184806E+04  0.25500000920E-02 0. -1.
        2   -1    0    0  501    0  0.00000000000E+00  0.00000000000E+00 -0.27232248428E+04  0.27232248428E+04  0.25500000920E-02 0.  1.
    10030    2    1    2    0    0  0.00000000000E+00  0.00000000000E+00 -0.14682063621E+04  0.39782433234E+04  0.36974031452E+04 0.  0.
        2    1    3    3  502    0 -0.18171472549E+04 -0.33860815233E+03 -0.69977566736E+03  0.19764527850E+04  0.25500000920E-02 0. -1.
       -2    1    3    3    0  502  0.18171472549E+04  0.33860815233E+03 -0.76843069476E+03  0.20017905384E+04  0.25500000920E-02 0.  1.
</event>
<event>
 5   0  0.2282000E-08  0.3692363E+04  0.7818609E-02  0.8069656E-01
        1   -1    0    0  501    0  0.00000000000E+00  0.00000000000E+00  0.11745935187E+04  0.11745935188E+04  0.50400001928E-02 0. -1.
       -1   -1    0    0    0  501  0.00000000000E+00  0.00000000000E+00 -0.29017576455E+04  0.29017576455E+04  0.50400001928E-02 0.  1.
    10030    2    1    2    0    0  0.00000000000E+00  0.00000000000E+00 -0.17271641268E+04  0.40763511643E+04  0.36923627793E+04 0.  0.
        5    1    3    3  502    0 -0.15434972959E+04 -0.63752171771E+03  0.53862308846E+01  0.16699907019E+04  0.46999998093E+01 0. -1.
       -5    1    3    3    0  502  0.15434972959E+04  0.63752171771E+03 -0.17325503576E+04  0.24063604624E+04  0.46999998093E+01 0.  1.
</event>
<event>
 5   0  0.2282000E-08  0.3698378E+04  0.7818609E-02  0.8068321E-01
       -1   -1    0    0    0  501  0.00000000000E+00  0.00000000000E+00  0.14875661420E+04  0.14875661420E+04  0.50400001928E-02 0.  1.
        1   -1    0    0  501    0  0.00000000000E+00  0.00000000000E+00 -0.22987206906E+04  0.22987206906E+04  0.50400001928E-02 0. -1.
    10030    2    1    2    0    0  0.00000000000E+00  0.00000000000E+00 -0.81115454864E+03  0.37862868326E+04  0.36983775195E+04 0.  0.
        5    1    3    3  502    0  0.11812053266E+04  0.14211519516E+04 -0.47469565097E+03  0.19079509806E+04  0.46999998093E+01 0.  1.
       -5    1    3    3    0  502 -0.11812053266E+04 -0.14211519516E+04 -0.33645889767E+03  0.18783358520E+04  0.46999998093E+01 0. -1.
</event>
<event>
 5   0  0.7362817E-08  0.3709942E+04  0.7818609E-02  0.8065762E-01
       -2   -1    0    0    0  501  0.00000000000E+00  0.00000000000E+00  0.25689492934E+04  0.25689492934E+04  0.25500000920E-02 0. -1.
        2   -1    0    0  501    0  0.00000000000E+00  0.00000000000E+00 -0.13394261912E+04  0.13394261912E+04  0.25500000920E-02 0.  1.
    10030    2    1    2    0    0  0.00000000000E+00  0.00000000000E+00  0.12295231022E+04  0.39083754845E+04  0.37099423000E+04 0.  0.
        1    1    3    3  502    0 -0.46443080966E+02 -0.11197469311E+04  0.21719733021E+04  0.24440659104E+04  0.50400001928E-02 0. -1.
       -1    1    3    3    0  502  0.46443080966E+02  0.11197469311E+04 -0.94245019988E+03  0.14643095741E+04  0.50400001928E-02 0.  1.
</event>
<event>
 5   0  0.7191801E-08  0.3701055E+04  0.7818609E-02  0.8067728E-01
        2   -1    0    0  501    0  0.00000000000E+00  0.00000000000E+00  0.11179512624E+04  0.11179512624E+04  0.25500000920E-02 0.  1.
       -2   -1    0    0    0  501  0.00000000000E+00  0.00000000000E+00 -0.30631495027E+04  0.30631495027E+04  0.25500000920E-02 0. -1.
    10030    2    1    2    0    0  0.00000000000E+00  0.00000000000E+00 -0.19451982403E+04  0.41811007651E+04  0.37010549055E+04 0.  0.
        5    1    3    3  502    0 -0.57440234860E+03  0.13657296772E+04 -0.22251329989E+04  0.26732741277E+04  0.46999998093E+01 0. -1.
       -5    1    3    3    0  502  0.57440234860E+03 -0.13657296772E+04  0.27993475862E+03  0.15078266373E+04  0.46999998093E+01 0.  1.
</event>
<event>
 5   0  0.7191801E-08  0.3697558E+04  0.7818609E-02  0.8068503E-01
       -2   -1    0    0    0  501  0.00000000000E+00  0.00000000000E+00  0.15696680592E+04  0.15696680592E+04  0.25500000920E-02 0.  1.
        2   -1    0    0  501    0  0.00000000000E+00  0.00000000000E+00 -0.21775197572E+04  0.21775197572E+04  0.25500000920E-02 0. -1.
    10030    2    1    2    0    0  0.00000000000E+00  0.00000000000E+00 -0.60785169799E+03  0.37471878164E+04  0.36975576864E+04 0.  0.
        5    1    3    3  502    0  0.14301375575E+04  0.82125484199E+03 -0.11507299780E+04  0.20109586075E+04  0.46999998093E+01 0.  1.
       -5    1    3    3    0  502 -0.14301375575E+04 -0.82125484199E+03  0.54287828003E+03  0.17362292089E+04  0.46999998093E+01 0. -1.
</event>
<event>
 5   0  0.2282000E-08  0.3697717E+04  0.7818609E-02  0.8068468E-01
       -1   -1    0    0    0  501  0.00000000000E+00  0.00000000000E+00  0.16991822031E+04  0.16991822031E+04  0.50400001928E-02 0.  1.
        1   -1    0    0  501    0  0.00000000000E+00  0.00000000000E+00 -0.20117192850E+04  0.20117192850E+04  0.50400001928E-02 0. -1.
    10030    2    1    2    0    0  0.00000000000E+00  0.00000000000E+00 -0.31253708188E+03  0.37109014881E+04  0.36977169209E+04 0.  0.
        4    1    3    3  502    0  0.79266536514E+03 -0.58570920656E+03 -0.17261038127E+04  0.19876643683E+04  0.12699999809E+01 0. -1.
       -4    1    3    3    0  502 -0.79266536514E+03  0.58570920656E+03  0.14135667309E+04  0.17232371198E+04  0.12699999809E+01 0.  1.
</event>
<event>
 5   0  0.2282000E-08  0.3701370E+04  0.7818609E-02  0.8067658E-01
       -1   -1    0    0    0  501  0.00000000000E+00  0.00000000000E+00  0.21041686125E+04  0.21041686125E+04  0.50400001928E-02 0. -1.
        1   -1    0    0  501    0  0.00000000000E+00  0.00000000000E+00 -0.16277381244E+04  0.16277381244E+04  0.50400001928E-02 0.  1.
    10030    2    1    2    0    0  0.00000000000E+00  0.00000000000E+00  0.47643048808E+03  0.37319067370E+04  0.37013702711E+04 0.  0.
        4    1    3    3  502    0  0.16902725420E+04  0.28162210510E+03  0.94305456110E+03  0.19559360405E+04  0.12699999809E+01 0.  1.
       -4    1    3    3    0  502 -0.16902725420E+04 -0.28162210510E+03 -0.46662407303E+03  0.17759706965E+04  0.12699999809E+01 0. -1.
</event>
<event>
 5   0  0.2282000E-08  0.3707583E+04  0.7818609E-02  0.8066283E-01
        1   -1    0    0  501    0  0.00000000000E+00  0.00000000000E+00  0.14269415057E+04  0.14269415057E+04  0.50400001928E-02 0. -1.
       -1   -1    0    0    0  501  0.00000000000E+00  0.00000000000E+00 -0.24083282458E+04  0.24083282458E+04  0.50400001928E-02 0.  1.
    10030    2    1    2    0    0  0.00000000000E+00  0.00000000000E+00 -0.98138674011E+03  0.38352697515E+04  0.37075833279E+04 0.  0.
        2    1    3    3  502    0 -0.66918279327E+03  0.33588084606E+03 -0.22449516888E+04  0.23665226892E+04  0.25500000920E-02 0.  1.
       -2    1    3    3    0  502  0.66918279327E+03 -0.33588084606E+03  0.12635649487E+04  0.14687470623E+04  0.25500000920E-02 0. -1.
</event>
<event>
 5   0  0.7362817E-08  0.3700169E+04  0.7818609E-02  0.8067924E-01
       -2   -1    0    0    0  501  0.00000000000E+00  0.00000000000E+00  0.13000078762E+04  0.13000078762E+04  0.25500000920E-02 0. -1.
        2   -1    0    0  501    0  0.00000000000E+00  0.00000000000E+00 -0.26329167749E+04  0.26329167749E+04  0.25500000920E-02 0.  1.
    10030    2    1    2    0    0  0.00000000000E+00  0.00000000000E+00 -0.13329088988E+04  0.39329246511E+04  0.37001689392E+04 0.  0.
        1    1    3    3  502    0  0.90130713109E+03 -0.16124598127E+04 -0.55789581207E+03  0.19296706790E+04  0.50400001928E-02 0. -1.
       -1    1    3    3    0  502 -0.90130713109E+03  0.16124598127E+04 -0.77501308671E+03  0.20032539721E+04  0.50400001928E-02 0.  1.
</event>
<event>
 5   0  0.7191801E-08  0.3702742E+04  0.7818609E-02  0.8067355E-01
        2   -1    0    0  501    0  0.00000000000E+00  0.00000000000E+00  0.12217194421E+04  0.12217194421E+04  0.25500000920E-02 0.  1.
       -2   -1    0    0    0  501  0.00000000000E+00  0.00000000000E+00 -0.28055326969E+04  0.28055326969E+04  0.25500000920E-02 0. -1.
    10030    2    1    2    0    0  0.00000000000E+00  0.00000000000E+00 -0.15838132548E+04  0.40272521390E+04  0.37027416012E+04 0.  0.
        5    1    3    3  502    0  0.21926421993E+03  0.65295552081E+03 -0.26609796104E+04  0.27486837372E+04  0.46999998093E+01 0. -1.
       -5    1    3    3    0  502 -0.21926421993E+03 -0.65295552081E+03  0.10771663556E+04  0.12785684018E+04  0.46999998093E+01 0.  1.
</event>
<event>
 5   0  0.7254493E-08  0.3700657E+04  0.7818609E-02  0.8067816E-01
       -2   -1    0    0    0  501  0.00000000000E+00  0.00000000000E+00  0.34609332750E+04  0.34609332750E+04  0.25500000920E-02 0.  1.
        2   -1    0    0  501    0  0.00000000000E+00  0.00000000000E+00 -0.98924637270E+03  0.98924637270E+03  0.25500000920E-02 0. -1.
    10030    2    1    2    0    0  0.00000000000E+00  0.00000000000E+00  0.24716869023E+04  0.44501796477E+04  0.37006570705E+04 0.  0.
        3    1    3    3  502    0 -0.11773116068E+03 -0.15572291043E+04  0.42423946673E+02  0.15622493114E+04  0.10100000352E+00 0. -1.
       -3    1    3    3    0  502  0.11773116068E+03  0.15572291043E+04  0.24292629556E+04  0.28879303363E+04  0.10100000352E+00 0.  1.
</event>
<event>
 5   0  0.2282000E-08  0.3697125E+04  0.7818609E-02  0.8068599E-01
       -1   -1    0    0    0  501  0.00000000000E+00  0.00000000000E+00  0.11337244829E+04  0.11337244829E+04  0.50400001928E-02 0.  1.
        1   -1    0    0  501    0  0.00000000000E+00  0.00000000000E+00 -0.30141221030E+04  0.30141221030E+04  0.50400001928E-02 0. -1.
    10030    2    1    2    0    0  0.00000000000E+00  0.00000000000E+00 -0.18803976200E+04  0.41478465859E+04  0.36971253821E+04 0.  0.
        1    1    3    3  502    0  0.17742687793E+04  0.27222695092E+03 -0.44471675495E+03  0.18492999233E+04  0.50400001928E-02 0.  1.
       -1    1    3    3    0  502 -0.17742687793E+04 -0.27222695092E+03 -0.14356808651E+04  0.22985466627E+04  0.50400001928E-02 0. -1.
</event>
<event>
 5   0  0.7362817E-08  0.3704385E+04  0.7818609E-02  0.8066991E-01
        2   -1    0    0  501    0  0.00000000000E+00  0.00000000000E+00  0.17151105914E+04  0.17151105914E+04  0.25500000920E-02 0. -1.
       -2   -1    0    0    0  501  0.00000000000E+00  0.00000000000E+00 -0.20002303194E+04  0.20002303194E+04  0.25500000920E-02 0.  1.
    10030    2    1    2    0    0  0.00000000000E+00  0.00000000000E+00 -0.28511972804E+03  0.37153409107E+04  0.37043845405E+04 0.  0.
        1    1    3    3  502    0  0.33861336739E+03  0.94200313418E+03  0.14204418901E+04  0.17377238217E+04  0.50400001928E-02 0. -1.
       -1    1    3    3    0  502 -0.33861336739E+03 -0.94200313418E+03 -0.17055616182E+04  0.19776170890E+04  0.50400001928E-02 0.  1.
</event>
<event>
 5   0  0.2282000E-08  0.3697304E+04  0.7818609E-02  0.8068560E-01
        1   -1    0    0  501    0  0.00000000000E+00  0.00000000000E+00  0.22416401288E+04  0.22416401288E+04  0.50400001928E-02 0.  1.
       -1   -1    0    0    0  501  0.00000000000E+00  0.00000000000E+00 -0.15245596717E+04  0.15245596717E+04  0.50400001928E-02 0. -1.
    10030    2    1    2    0    0  0.00000000000E+00  0.00000000000E+00  0.71708045711E+03  0.37661998005E+04  0.36973039577E+04 0.  0.
        4    1    3    3  502    0 -0.11387792743E+04 -0.63794590634E+02 -0.11234321661E+04  0.16009339243E+04  0.12699999809E+01 0. -1.
       -4    1    3    3    0  502  0.11387792743E+04  0.63794590634E+02  0.18405126233E+04  0.21652658762E+04  0.12699999809E+01 0.  1.
</event>
<event>
 5   0  0.7254493E-08  0.3714913E+04  0.7818609E-02  0.8064665E-01
       -2   -1    0    0    0  501  0.00000000000E+00  0.00000000000E+00  0.14996868578E+04  0.14996868578E+04  0.25500000920E-02 0.  1.
        2   -1    0    0  501    0  0.00000000000E+00  0.00000000000E+00 -0.23005771762E+04  0.23005771762E+04  0.25500000920E-02 0. -1.
    10030    2    1    2    0    0  0.00000000000E+00  0.00000000000E+00 -0.80089031838E+03  0.38002640341E+04  0.37149133808E+04 0.  0.
        3    1    3    3  502    0 -0.95294857851E+03 -0.13811193272E+04  0.41443898493E+03  0.17283984702E+04  0.10100000352E+00 0.  1.
       -3    1    3    3    0  502  0.95294857851E+03  0.13811193272E+04 -0.12153293033E+04  0.20718655639E+04  0.10100000352E+00 0. -1.
</event>
<event>
 5   0  0.7203049E-08  0.3695766E+04  0.7818609E-02  0.8068901E-01
        2   -1    0    0  501    0  0.00000000000E+00  0.00000000000E+00  0.21119898024E+04  0.21119898024E+04  0.25500000920E-02 0.  1.
       -2   -1    0    0    0  501  0.00000000000E+00  0.00000000000E+00 -0.16168027879E+04  0.16168027879E+04  0.25500000920E-02 0. -1.
    10030    2    1    2    0    0  0.00000000000E+00  0.00000000000E+00  0.49518701453E+03  0.37287925903E+04  0.36957656855E+04 0.  0.
        4    1    3    3  502    0 -0.13278748844E+04 -0.10726464680E+04 -0.46643645779E+03  0.17695724727E+04  0.12699999809E+01 0.  1.
       -4    1    3    3    0  502  0.13278748844E+04  0.10726464680E+04  0.96162347233E+03  0.19592201176E+04  0.12699999809E+01 0. -1.
</event>
<event>
 5   0  0.2282000E-08  0.3697630E+04  0.7818609E-02  0.8068487E-01
       -1   -1    0    0    0  501  0.00000000000E+00  0.00000000000E+00  0.22169036604E+04  0.22169036604E+04  0.50400001928E-02 0. -1.
        1   -1    0    0  501    0  0.00000000000E+00  0.00000000000E+00 -0.15418431744E+04  0.15418431744E+04  0.50400001928E-02 0.  1.
    10030    2    1    2    0    0  0.00000000000E+00  0.00000000000E+00  0.67506048599E+03  0.37587468349E+04  0.36976304722E+04 0.  0.
        1    1    3    3  502    0  0.12917932262E+04 -0.10036232272E+04  0.12132378259E+04  0.20366480657E+04  0.50400001928E-02 0. -1.
       -1    1    3    3    0  502 -0.12917932262E+04  0.10036232272E+04 -0.53817733991E+03  0.17220987691E+04  0.50400001928E-02 0.  1.
</event>
<event>
 5   0  0.7362817E-08  0.3699322E+04  0.7818609E-02  0.8068112E-01
       -2   -1    0    0    0  501  0.00000000000E+00  0.00000000000E+00  0.16865904553E+04  0.16865904553E+04  0.25500000920E-02 0.  1.
        2   -1    0    0  501    0  0.00000000000E+00  0.00000000000E+00 -0.20284984282E+04  0.20284984282E+04  0.25500000920E-02 0. -1.
    10030    2    1    2    0    0  0.00000000000E+00  0.00000000000E+00 -0.34190797286E+03  0.37150888836E+04  0.36993221475E+04 0.  0.
        1    1    3    3  502    0 -0.42577189790E+03 -0.10815564902E+03 -0.19753495957E+04  0.20236070218E+04  0.50400001928E-02 0. -1.
       -1    1    3    3    0  502  0.42577189790E+03  0.10815564902E+03  0.16334416228E+04  0.16914818618E+04  0.50400001928E-02 0.  1.
</event>
<event>
 5   0  0.2282000E-08  0.3700646E+04  0.7818609E-02  0.8067819E-01
       -1   -1    0    0    0  501  0.00000000000E+00  0.00000000000E+00  0.13230039855E+04  0.13230039855E+04  0.50400001928E-02 0. -1.
        1   -1    0    0  501    0  0.00000000000E+00  0.00000000000E+00 -0.25878196074E+04  0.25878196074E+04  0.50400001928E-02 0.  1.
    10030    2    1    2    0    0  0.00000000000E+00  0.00000000000E+00 -0.12648156218E+04  0.39108235929E+04  0.37006462432E+04 0.  0.
        5    1    3    3  502    0  0.95937342655E+03  0.79603159479E+03 -0.20774021768E+04  0.24227433966E+04  0.46999998093E+01 0.  1.
       -5    1    3    3    0  502 -0.95937342655E+03 -0.79603159479E+03  0.81258655496E+03  0.14880801964E+04  0.46999998093E+01 0. -1.
</event>
<event>
 5   0  0.2282000E-08  0.3699127E+04  0.7818609E-02  0.8068155E-01
        1   -1    0    0  501    0  0.00000000000E+00  0.00000000000E+00  0.11638736761E+04  0.11638736761E+04  0.50400001928E-02 0.  1.
       -1   -1    0    0    0  501  0.00000000000E+00  0.00000000000E+00 -0.29392232873E+04  0.29392232873E+04  0.50400001928E-02 0. -1.
    10030    2    1    2    0    0  0.00000000000E+00  0.00000000000E+00 -0.17753496112E+04  0.41030969634E+04  0.36991267144E+04 0.  0.
        5    1    3    3  502    0  0.15675256079E+04 -0.43490670615E+03 -0.18638916870E+04  0.24739431451E+04  0.46999998093E+01 0. -1.
       -5    1    3    3    0  502 -0.15675256079E+04  0.43490670615E+03  0.88542075787E+02  0.16291538183E+04  0.46999998093E+01 0.  1.
</event>
<event>
 5   0  0.2282000E-08  0.3693929E+04  0.7818609E-02  0.8069308E-01
       -1   -1    0    0    0  501  0.00000000000E+00  0.00000000000E+00  0.13336283046E+04  0.13336283046E+04  0.50400001928E-02 0.  1.
        1   -1    0    0  501    0  0.00000000000E+00  0.00000000000E+00 -0.25578931918E+04  0.25578931918E+04  0.50400001928E-02 0. -1.
    10030    2    1    2    0    0  0.00000000000E+00  0.00000000000E+00 -0.12242648872E+04  0.38915214964E+04  0.36939294853E+04 0.  0.
        1    1    3    3  502    0  0.11415871574E+04 -0.39122107087E+03 -0.20851387742E+04  0.24091655966E+04  0.50400001928E-02 0. -1.
       -1    1    3    3    0  502 -0.11415871574E+04  0.39122107087E+03  0.86087388702E+03  0.14823558997E+04  0.50400001928E-02 0.  1.
</event>
<event>
 5   0  0.2282000E-08  0.3704484E+04  0.7818609E-02  0.8066969E-01
        1   -1    0    0  501    0  0.00000000000E+00  0.00000000000E+00  0.25838893035E+04  0.25838893035E+04  0.50400001928E-02 0. -1.
       -1   -1    0    0    0  501  0.00000000000E+00  0.00000000000E+00 -0.13277661698E+04  0.13277661698E+04  0.50400001928E-02 0.  1.
    10030    2    1    2    0    0  0.00000000000E+00  0.00000000000E+00  0.12561231337E+04  0.39116554733E+04  0.37044842036E+04 0.  0.
        3    1    3    3  502    0 -0.10986272279E+04 -0.77379205461E+03  0.19741332845E+04  0.23880825289E+04  0.10100000352E+00 0. -1.
       -3    1    3    3    0  502  0.10986272279E+04  0.77379205461E+03 -0.71801015084E+03  0.15235729443E+04  0.10100000352E+00 0.  1.
</event>
<event>
 5   0  0.2282000E-08  0.3700791E+04  0.7818609E-02  0.8067787E-01
        1   -1    0    0  501    0  0.00000000000E+00  0.00000000000E+00  0.27888255200E+04  0.27888255200E+04  0.50400001928E-02 0. -1.
       -1   -1    0    0    0  501  0.00000000000E+00  0.00000000000E+00 -0.12277437448E+04  0.12277437448E+04  0.50400001928E-02 0.  1.
    10030    2    1    2    0    0  0.00000000000E+00  0.00000000000E+00  0.15610817752E+04  0.40165692648E+04  0.37007907736E+04 0.  0.
        3    1    3    3  502    0  0.25043603127E+03  0.58602805107E+03  0.26659565304E+04  0.27410711984E+04  0.10100000352E+00 0. -1.
       -3    1    3    3    0  502 -0.25043603127E+03 -0.58602805107E+03 -0.11048747552E+04  0.12754980664E+04  0.10100000352E+00 0.  1.
</event>
<event>
 5   0  0.2282000E-08  0.3697113E+04  0.7818609E-02  0.8068602E-01
        1   -1    0    0  501    0  0.00000000000E+00  0.00000000000E+00  0.24203046317E+04  0.24203046317E+04  0.50400001928E-02 0. -1.
       -1   -1    0    0    0  501  0.00000000000E+00  0.00000000000E+00 -0.14118720024E+04  0.14118720024E+04  0.50400001928E-02 0.  1.
    10030    2    1    2    0    0  0.00000000000E+00  0.00000000000E+00  0.10084326294E+04  0.38321766341E+04  0.36971125743E+04 0.  0.
        4    1    3    3  502    0  0.18368711203E+04  0.28595532767E+02  0.29117042610E+03  0.18600255501E+04  0.12699999809E+01 0.  1.
       -4    1    3    3    0  502 -0.18368711203E+04 -0.28595532767E+02  0.71726220325E+03  0.19721510840E+04  0.12699999809E+01 0. -1.
</event>
<event>
 5   0  0.2282000E-08  0.3707646E+04  0.7818609E-02  0.8066270E-01
       -1   -1    0    0    0  501  0.00000000000E+00  0.00000000000E+00  0.14124792655E+04  0.14124792656E+04  0.50400001928E-02 0. -1.
        1   -1    0    0  501    0  0.00000000000E+00  0.00000000000E+00 -0.24330685161E+04  0.24330685161E+04  0.50400001928E-02 0.  1.
    10030    2    1    2    0    0  0.00000000000E+00  0.00000000000E+00 -0.10205892505E+04  0.38455477816E+04  0.37076455228E+04 0.  0.
        3    1    3    3  502    0  0.41362340851E+03  0.15438577019E+04 -0.14844169014E+04  0.21813010969E+04  0.10100000352E+00 0.  1.
       -3    1    3    3    0  502 -0.41362340851E+03 -0.15438577019E+04  0.46382765092E+03  0.16642466847E+04  0.10100000352E+00 0. -1.
</event>
<event>
 5   0  0.2282000E-08  0.3698105E+04  0.7818609E-02  0.8068382E-01
        1   -1    0    0  501    0  0.00000000000E+00  0.00000000000E+00  0.11073284929E+04  0.11073284929E+04  0.50400001928E-02 0.  1.
       -1   -1    0    0    0  501  0.00000000000E+00  0.00000000000E+00 -0.30876069009E+04  0.30876069009E+04  0.50400001928E-02 0. -1.
    10030    2    1    2    0    0  0.00000000000E+00  0.00000000000E+00 -0.19802784080E+04  0.41949353938E+04  0.36981049721E+04 0.  0.
        1    1    3    3  502    0  0.17308357498E+04  0.64577837613E+03 -0.10792630478E+04  0.21395398641E+04  0.50400001928E-02 0.  1.
       -1    1    3    3    0  502 -0.17308357498E+04 -0.64577837613E+03 -0.90101536024E+03  0.20553955296E+04  0.50400001928E-02 0. -1.
</event>
<event>
 5   0  0.2282000E-08  0.3699855E+04  0.7818609E-02  0.8067994E-01
       -1   -1    0    0    0  501  0.00000000000E+00  0.00000000000E+00  0.29471059203E+04  0.29471059203E+04  0.50400001928E-02 0. -1.
        1   -1    0    0  501    0  0.00000000000E+00  0.00000000000E+00 -0.11612177086E+04  0.11612177086E+04  0.50400001928E-02 0.  1.
    10030    2    1    2    0    0  0.00000000000E+00  0.00000000000E+00  0.17858882116E+04  0.41083236289E+04  0.36998549073E+04 0.  0.
        5    1    3    3  502    0  0.10390284836E+04  0.13281836886E+04  0.48340019793E+02  0.16870124326E+04  0.46999998093E+01 0.  1.
       -5    1    3    3    0  502 -0.10390284836E+04 -0.13281836886E+04  0.17375481918E+04  0.24213111963E+04  0.46999998093E+01 0. -1.
</event>
<event>
 5   0  0.7254493E-08  0.3706398E+04  0.7818609E-02  0.8066545E-01
        2   -1    0    0  501    0  0.00000000000E+00  0.00000000000E+00  0.26847771757E+04  0.26847771757E+04  0.25500000920E-02 0.  1.
       -2   -1    0    0    0  501  0.00000000000E+00  0.00000000000E+00 -0.12791922313E+04  0.12791922313E+04  0.25500000920E-02 0. -1.
    10030    2    1    2    0    0  0.00000000000E+00  0.00000000000E+00  0.14055849444E+04  0.39639694069E+04  0.37063977692E+04 0.  0.
        3    1    3    3  502    0 -0.16962000144E+04  0.53660948349E+03  0.12577988220E+04  0.21787845496E+04  0.10100000352E+00 0. -1.
       -3    1    3    3    0  502  0.16962000144E+04 -0.53660948349E+03  0.14778612236E+03  0.17851848573E+04  0.10100000352E+00 0.  1.
</event>
<event>
 5   0  0.7309833E-08  0.3692529E+04  0.7818609E-02  0.8069619E-01
        2   -1    0    0  501    0  0.00000000000E+00  0.00000000000E+00  0.15720667735E+04  0.15720667735E+04  0.25500000920E-02 0. -1.
       -2   -1    0    0    0  501  0.00000000000E+00  0.00000000000E+00 -0.21682874507E+04  0.21682874507E+04  0.25500000920E-02 0.  1.
    10030    2    1    2    0    0  0.00000000000E+00  0.00000000000E+00 -0.59622067718E+03  0.37403542241E+04  0.36925290285E+04 0.  0.
        2    1    3    3  502    0  0.10923318162E+04  0.49113938561E+03  0.11251811233E+04  0.16433013275E+04  0.25500000920E-02 0. -1.
       -2    1    3    3    0  502 -0.10923318162E+04 -0.49113938561E+03 -0.17214018004E+04  0.20970528966E+04  0.25500000920E-02 0.  1.
</event>
<event>
 5   0  0.2282000E-08  0.3695443E+04  0.7818609E-02  0.8068972E-01
        1   -1    0    0  501    0  0.00000000000E+00  0.00000000000E+00  0.14253291153E+04  0.14253291153E+04  0.50400001928E-02 0.  1.
       -1   -1    0    0    0  501  0.00000000000E+00  0.00000000000E+00 -0.23952890293E+04  0.23952890293E+04  0.50400001928E-02 0. -1.
    10030    2    1    2    0    0  0.00000000000E+00  0.00000000000E+00 -0.96995991396E+03  0.38206181446E+04  0.36954432443E+04 0.  0.
        5    1    3    3  502    0 -0.48589208289E+03  0.13754585779E+04 -0.16574462370E+04  0.22079690972E+04  0.46999998093E+01 0. -1.
       -5    1    3    3    0  502  0.48589208289E+03 -0.13754585779E+04  0.68748632300E+03  0.16126490474E+04  0.46999998093E+01 0.  1.
</event>
<event>
 5   0  0.7254493E-08  0.3704462E+04  0.7818609E-02  0.8066974E-01
       -2   -1    0    0    0  501  0.00000000000E+00  0.00000000000E+00  0.11972409488E+04  0.11972409488E+04  0.25500000920E-02 0.  1.
        2   -1    0    0  501    0  0.00000000000E+00  0.00000000000E+00 -0.28655547039E+04  0.28655547039E+04  0.25500000920E-02 0. -1.
    10030    2    1    2    0    0  0.00000000000E+00  0.00000000000E+00 -0.16683137550E+04  0.40627956527E+04  0.37044618679E+04 0.  0.
        3    1    3    3  502    0 -0.77921702615E+03 -0.12922261464E+04 -0.20121758597E+04  0.25151300737E+04  0.10100000352E+00 0. -1.
       -3    1    3    3    0  502  0.77921702615E+03  0.12922261464E+04  0.34386210466E+03  0.15476655790E+04  0.10100000352E+00 0.  1.
</event>
<event>
 5   0  0.7362817E-08  0.3692733E+04  0.7818609E-02  0.8069574E-01
        2   -1    0    0  501    0  0.00000000000E+00  0.00000000000E+00  0.10765852559E+04  0.10765852559E+04  0.25500000920E-02 0. -1.
       -2   -1    0    0    0  501  0.00000000000E+00  0.00000000000E+00 -0.31665571021E+04  0.31665571021E+04  0.25500000920E-02 0.  1.
    10030    2    1    2    0    0  0.00000000000E+00  0.00000000000E+00 -0.20899718461E+04  0.42431423580E+04  0.36927326944E+04 0.  0.
        1    1    3    3  502    0 -0.11355728172E+04 -0.10272262037E+03  0.62370962587E+03  0.12996504366E+04  0.50400001928E-02 0. -1.
       -1    1    3    3    0  502  0.11355728172E+04  0.10272262037E+03 -0.27136814720E+04  0.29434919214E+04  0.50400001928E-02 0.  1.
</event>
<event>
 5   0  0.7203049E-08  0.3701857E+04  0.7818609E-02  0.8067550E-01
        2   -1    0    0  501    0  0.00000000000E+00  0.00000000000E+00  0.27028034916E+04  0.27028034916E+04  0.25500000920E-02 0.  1.
       -2   -1    0    0    0  501  0.00000000000E+00  0.00000000000E+00 -0.12675491778E+04  0.12675491778E+04  0.25500000920E-02 0. -1.
    10030    2    1    2    0    0  0.00000000000E+00  0.00000000000E+00  0.14352543139E+04  0.39703526694E+04  0.37018570170E+04 0.  0.
        4    1    3    3  502    0 -0.16123379219E+04 -0.83227956455E+03  0.11096686067E+04  0.21268965366E+04  0.12699999809E+01 0.  1.
       -4    1    3    3    0  502  0.16123379219E+04  0.83227956455E+03  0.32558570720E+03  0.18434561328E+04  0.12699999809E+01 0. -1.
</event>
<event>
 5   0  0.7309833E-08  0.3699459E+04  0.7818609E-02  0.8068082E-01
        2   -1    0    0  501    0  0.00000000000E+00  0.00000000000E+00  0.20133622170E+04  0.20133622170E+04  0.25500000920E-02 0.  1.
       -2   -1    0    0    0  501  0.00000000000E+00  0.00000000000E+00 -0.16993961928E+04  0.16993961928E+04  0.25500000920E-02 0. -1.
    10030    2    1    2    0    0  0.00000000000E+00  0.00000000000E+00  0.31396602428E+03  0.37127584098E+04  0.36994594666E+04 0.  0.
        2    1    3    3  502    0  0.55789784954E+03 -0.15214072938E+04 -0.73817065459E+03  0.17806813526E+04  0.25500000920E-02 0. -1.
       -2    1    3    3    0  502 -0.55789784954E+03  0.15214072938E+04  0.10521366789E+04  0.19320770572E+04  0.25500000920E-02 0.  1.
</event>
<event>
 5   0  0.2282000E-08  0.3696016E+04  0.7818609E-02  0.8068845E-01
       -1   -1    0    0    0  501  0.00000000000E+00  0.00000000000E+00  0.15739687714E+04  0.15739687715E+04  0.50400001928E-02 0. -1.
        1   -1    0    0  501    0  0.00000000000E+00  0.00000000000E+00 -0.21697590139E+04  0.21697590139E+04  0.50400001928E-02 0.  1.
    10030    2    1    2    0    0  0.00000000000E+00  0.00000000000E+00 -0.59579024247E+03  0.37437277854E+04  0.36960156545E+04 0.  0.
        5    1    3    3  502    0 -0.16821830246E+04  0.34683364921E+03  0.39287435686E+03  0.17619323650E+04  0.46999998093E+01 0. -1.
       -5    1    3    3    0  502  0.16821830246E+04 -0.34683364921E+03 -0.98866459933E+03  0.19817954204E+04  0.46999998093E+01 0.  1.
</event>
<event>
 5   0  0.7309833E-08  0.3712584E+04  0.7818609E-02  0.8065179E-01
       -2   -1    0    0    0  501  0.00000000000E+00  0.00000000000E+00  0.12989177393E+04  0.12989177393E+04  0.25500000920E-02 0.  1.
        2   -1    0    0  501    0  0.00000000000E+00  0.00000000000E+00 -0.26528397992E+04  0.26528397992E+04  0.25500000920E-02 0. -1.
    10030    2    1    2    0    0  0.00000000000E+00  0.00000000000E+00 -0.13539220599E+04  0.39517575385E+04  0.37125843692E+04 0.  0.
        2    1    3    3  502    0  0.89373373436E+03  0.15611066226E+04 -0.11647484960E+04  0.21430009179E+04  0.25500000920E-02 0. -1.
       -2    1    3    3    0  502 -0.89373373436E+03 -0.15611066226E+04 -0.18917356390E+03  0.18087566206E+04  0.25500000920E-02 0.  1.
</event>
<event>
 5   0  0.2282000E-08  0.3697563E+04  0.7818609E-02  0.8068502E-01
       -1   -1    0    0    0  501  0.00000000000E+00  0.00000000000E+00  0.19752391558E+04  0.19752391558E+04  0.50400001928E-02 0.  1.
        1   -1    0    0  501    0  0.00000000000E+00  0.00000000000E+00 -0.17304195330E+04  0.17304195331E+04  0.50400001928E-02 0. -1.
    10030    2    1    2    0    0  0.00000000000E+00  0.00000000000E+00  0.24481962272E+03  0.37056586888E+04  0.36975626662E+04 0.  0.
        5    1    3    3  502    0 -0.60815263404E+03 -0.69300694433E+03  0.17283734927E+04  0.19589296239E+04  0.46999998093E+01 0.  1.
       -5    1    3    3    0  502  0.60815263404E+03  0.69300694433E+03 -0.14835538700E+04  0.17467290649E+04  0.46999998093E+01 0. -1.
</event>
<event>
 5   0  0.2282000E-08  0.3699805E+04  0.7818609E-02  0.8068005E-01
        1   -1    0    0  501    0  0.00000000000E+00  0.00000000000E+00  0.21349004905E+04  0.21349004905E+04  0.50400001928E-02 0. -1.
       -1   -1    0    0    0  501  0.00000000000E+00  0.00000000000E+00 -0.16029505971E+04  0.16029505971E+04  0.50400001928E-02 0.  1.
    10030    2    1    2    0    0  0.00000000000E+00  0.00000000000E+00  0.53194989335E+03  0.37378510876E+04  0.36998054089E+04 0.  0.
        4    1    3    3  502    0  0.11290767376E+03  0.15064142846E+03 -0.15932473158E+04  0.16043315134E+04  0.12699999809E+01 0.  1.
       -4    1    3    3    0  502 -0.11290767376E+03 -0.15064142846E+03  0.21251972091E+04  0.21335195742E+04  0.12699999809E+01 0. -1.
</event>
<event>
 5   0  0.2282000E-08  0.3711119E+04  0.7818609E-02  0.8065502E-01
        1   -1    0    0  501    0  0.00000000000E+00  0.00000000000E+00  0.18693764626E+04  0.18693764626E+04  0.50400001928E-02 0.  1.
       -1   -1    0    0    0  501  0.00000000000E+00  0.00000000000E+00 -0.18418446633E+04  0.18418446633E+04  0.50400001928E-02 0. -1.
    10030    2    1    2    0    0  0.00000000000E+00  0.00000000000E+00  0.27531799326E+02  0.37112211259E+04  0.37111190018E+04 0.  0.
        2    1    3    3  502    0 -0.12620846007E+04 -0.43846104744E+03 -0.12739012483E+04  0.18460579676E+04  0.25500000920E-02 0. -1.
       -2    1    3    3    0  502  0.12620846007E+04  0.43846104744E+03  0.13014330476E+04  0.18651631583E+04  0.25500000920E-02 0.  1.
</event>
<event>
 5   0  0.2282000E-08  0.3697513E+04  0.7818609E-02  0.8068513E-01
        1   -1    0    0  501    0  0.00000000000E+00  0.00000000000E+00  0.19532039181E+04  0.19532039181E+04  0.50400001928E-02 0. -1.
       -1   -1    0    0    0  501  0.00000000000E+00  0.00000000000E+00 -0.17498945422E+04  0.17498945422E+04  0.50400001928E-02 0.  1.
    10030    2    1    2    0    0  0.00000000000E+00  0.00000000000E+00  0.20330937586E+03  0.37030984603E+04  0.36975131514E+04 0.  0.
        4    1    3    3  502    0  0.16657530680E+04 -0.59700329399E+03 -0.43464748015E+03  0.18221048986E+04  0.12699999809E+01 0.  1.
       -4    1    3    3    0  502 -0.16657530680E+04  0.59700329399E+03  0.63795685601E+03  0.18809935618E+04  0.12699999809E+01 0. -1.
</event>
<event>
 5   0  0.7362817E-08  0.3696162E+04  0.7818609E-02  0.8068813E-01
        2   -1    0    0  501    0  0.00000000000E+00  0.00000000000E+00  0.14447063678E+04  0.14447063678E+04  0.25500000920E-02 0.  1.
       -2   -1    0    0    0  501  0.00000000000E+00  0.00000000000E+00 -0.23640813516E+04  0.23640813516E+04  0.25500000920E-02 0. -1.
    10030    2    1    2    0    0  0.00000000000E+00  0.00000000000E+00 -0.91937498380E+03  0.38087877195E+04  0.36961620001E+04 0.  0.
        1    1    3    3  502    0  0.12427471299E+04  0.25181666429E+03  0.92573901171E+03  0.15699760441E+04  0.50400001928E-02 0.  1.
       -1    1    3    3    0  502 -0.12427471299E+04 -0.25181666429E+03 -0.18451139955E+04  0.22388116754E+04  0.50400001928E-02 0. -1.
</event>
<event>
 5   0  0.7203049E-08  0.3701291E+04  0.7818609E-02  0.8067676E-01
       -2   -1    0    0    0  501  0.00000000000E+00  0.00000000000E+00  0.16894720402E+04  0.16894720402E+04  0.25500000920E-02 0.  1.
        2   -1    0    0  501    0  0.00000000000E+00  0.00000000000E+00 -0.20271947030E+04  0.20271947030E+04  0.25500000920E-02 0. -1.
    10030    2    1    2    0    0  0.00000000000E+00  0.00000000000E+00 -0.33772266287E+03  0.37166667432E+04  0.37012910022E+04 0.  0.
        4    1    3    3  502    0  0.12867608564E+04  0.93873054861E+03 -0.11150701041E+04  0.19443126020E+04  0.12699999809E+01 0. -1.
       -4    1    3    3    0  502 -0.12867608564E+04 -0.93873054861E+03  0.77734744123E+03  0.17723541412E+04  0.12699999809E+01 0.  1.
</event>
<event>
 5   0  0.2282000E-08  0.3702081E+04  0.7818609E-02  0.8067501E-01
        1   -1    0    0  501    0  0.00000000000E+00  0.00000000000E+00  0.17199151518E+04  0.17199151518E+04  0.50400001928E-02 0.  1.
       -1   -1    0    0    0  501  0.00000000000E+00  0.00000000000E+00 -0.19921623565E+04  0.19921623565E+04  0.50400001928E-02 0. -1.
    10030    2    1    2    0    0  0.00000000000E+00  0.00000000000E+00 -0.27224720471E+03  0.37120775082E+04  0.37020806159E+04 0.  0.
        3    1    3    3  502    0 -0.13271912075E+04  0.15870714784E+02 -0.14298253800E+04  0.19509200415E+04  0.10100000352E+00 0. -1.
       -3    1    3    3    0  502  0.13271912075E+04 -0.15870714784E+02  0.11575781752E+04  0.17611574668E+04  0.10100000352E+00 0.  1.
</event>
<event>
 5   0  0.7254493E-08  0.3699811E+04  0.7818609E-02  0.8068004E-01
       -2   -1    0    0    0  501  0.00000000000E+00  0.00000000000E+00  0.13048782348E+04  0.13048782348E+04  0.25500000920E-02 0. -1.
        2   -1    0    0  501    0  0.00000000000E+00  0.00000000000E+00 -0.26225823550E+04  0.26225823550E+04  0.25500000920E-02 0.  1.
    10030    2    1    2    0    0  0.00000000000E+00  0.00000000000E+00 -0.13177041203E+04  0.39274605898E+04  0.36998111486E+04 0.  0.
        3    1    3    3  502    0  0.10738458478E+03 -0.76072622526E+03 -0.24452259795E+04  0.25630774354E+04  0.10100000352E+00 0.  1.
       -3    1    3    3    0  502 -0.10738458478E+03  0.76072622526E+03  0.11275218592E+04  0.13643831544E+04  0.10100000352E+00 0. -1.
</event>
<event>
 5   0  0.2282000E-08  0.3699010E+04  0.7818609E-02  0.8068181E-01
        1   -1    0    0  501    0  0.00000000000E+00  0.00000000000E+00  0.16834266093E+04  0.16834266093E+04  0.50400001928E-02 0.  1.
       -1   -1    0    0    0  501  0.00000000000E+00  0.00000000000E+00 -0.20319683872E+04  0.20319683872E+04  0.50400001928E-02 0. -1.
    10030    2    1    2    0    0  0.00000000000E+00  0.00000000000E+00 -0.34854177789E+03  0.37153949964E+04  0.36990104905E+04 0.  0.
        3    1    3    3  502    0  0.78848587505E+02 -0.12946968949E+04 -0.14985235745E+04  0.19819258470E+04  0.10100000352E+00 0. -1.
       -3    1    3    3    0  502 -0.78848587505E+02  0.12946968949E+04  0.11499817966E+04  0.17334691495E+04  0.10100000352E+00 0.  1.
</event>
<event>
 5   0  0.2282000E-08  0.3694124E+04  0.7818609E-02  0.8069265E-01
        1   -1    0    0  501    0  0.00000000000E+00  0.00000000000E+00  0.23505103974E+04  0.23505103974E+04  0.50400001928E-02 0. -1.
       -1   -1    0    0    0  501  0.00000000000E+00  0.00000000000E+00 -0.14514458281E+04  0.14514458282E+04  0.50400001928E-02 0.  1.
    10030    2    1    2    0    0  0.00000000000E+00  0.00000000000E+00  0.89906456929E+03  0.38019562256E+04  0.36941242591E+04 0.  0.
        2    1    3    3  502    0 -0.99516062859E+03 -0.67665589975E+03  0.18916589034E+04  0.22420038560E+04  0.25500000920E-02 0. -1.
       -2    1    3    3    0  502  0.99516062859E+03  0.67665589975E+03 -0.99259433412E+03  0.15599523696E+04  0.25500000920E-02 0.  1.
</event>
<event>
 5   0  0.7309833E-08  0.3706759E+04  0.7818609E-02  0.8066466E-01
        2   -1    0    0  501    0  0.00000000000E+00  0.00000000000E+00  0.28573236131E+04  0.28573236131E+04  0.25500000920E-02 0. -1.
       -2   -1    0    0    0  501  0.00000000000E+00  0.00000000000E+00 -0.12021792804E+04  0.12021792804E+04  0.25500000920E-02 0.  1.
    10030    2    1    2    0    0  0.00000000000E+00  0.00000000000E+00  0.16551443327E+04  0.40595028935E+04  0.37067588242E+04 0.  0.
        2    1    3    3  502    0 -0.40514487824E+03 -0.14016020863E+04 -0.42416754024E+03  0.15193909579E+04  0.25500000920E-02 0.  1.
       -2    1    3    3    0  502  0.40514487824E+03  0.14016020863E+04  0.20793118729E+04  0.25401119356E+04  0.25500000920E-02 0. -1.
</event>
<event>
 5   0  0.2282000E-08  0.3696436E+04  0.7818609E-02  0.8068752E-01
       -3   -1    0    0    0  501  0.00000000000E+00  0.00000000000E+00  0.15288677921E+04  0.15288677954E+04  0.10100000352E+00 0. -1.
        3   -1    0    0  501    0  0.00000000000E+00  0.00000000000E+00 -0.22342744692E+04  0.22342744715E+04  0.10100000352E+00 0.  1.
    10030    2    1    2    0    0  0.00000000000E+00  0.00000000000E+00 -0.70540667711E+03  0.37631422669E+04  0.36964362758E+04 0.  0.
        3    1    3    3  502    0  0.69708311682E+03 -0.15241748498E+04  0.44037766808E+03  0.17329069061E+04  0.10100000352E+00 0. -1.
       -3    1    3    3    0  502 -0.69708311682E+03  0.15241748498E+04 -0.11457843452E+04  0.20302353608E+04  0.10100000352E+00 0.  1.
</event>
<event>
 5   0  0.2282000E-08  0.3702338E+04  0.7818609E-02  0.8067444E-01
       -1   -1    0    0    0  501  0.00000000000E+00  0.00000000000E+00  0.20630489106E+04  0.20630489106E+04  0.50400001928E-02 0.  1.
        1   -1    0    0  501    0  0.00000000000E+00  0.00000000000E+00 -0.16610500877E+04  0.16610500877E+04  0.50400001928E-02 0. -1.
    10030    2    1    2    0    0  0.00000000000E+00  0.00000000000E+00  0.40199882283E+03  0.37240989983E+04  0.37023384902E+04 0.  0.
        1    1    3    3  502    0  0.83824149158E+03 -0.13499686003E+04 -0.75419425624E+03  0.17589408734E+04  0.50400001928E-02 0. -1.
       -1    1    3    3    0  502 -0.83824149158E+03  0.13499686003E+04  0.11561930791E+04  0.19651581249E+04  0.50400001928E-02 0.  1.
</event>
<event>
 5   0  0.7203049E-08  0.3708827E+04  0.7818609E-02  0.8066008E-01
       -2   -1    0    0    0  501  0.00000000000E+00  0.00000000000E+00  0.20257945324E+04  0.20257945324E+04  0.25500000920E-02 0.  1.
        2   -1    0    0  501    0  0.00000000000E+00  0.00000000000E+00 -0.16975313792E+04  0.16975313792E+04  0.25500000920E-02 0. -1.
    10030    2    1    2    0    0  0.00000000000E+00  0.00000000000E+00  0.32826315326E+03  0.37233259116E+04  0.37088271929E+04 0.  0.
        4    1    3    3  502    0  0.92872960243E+03  0.10412281600E+03  0.17721008662E+04  0.20034278944E+04  0.12699999809E+01 0.  1.
       -4    1    3    3    0  502 -0.92872960243E+03 -0.10412281600E+03 -0.14438377130E+04  0.17198980172E+04  0.12699999809E+01 0. -1.
</event>
<event>
 5   0  0.2282000E-08  0.3711696E+04  0.7818609E-02  0.8065375E-01
        1   -1    0    0  501    0  0.00000000000E+00  0.00000000000E+00  0.17094623075E+04  0.17094623075E+04  0.50400001928E-02 0.  1.
       -1   -1    0    0    0  501  0.00000000000E+00  0.00000000000E+00 -0.20147693207E+04  0.20147693207E+04  0.50400001928E-02 0. -1.
    10030    2    1    2    0    0  0.00000000000E+00  0.00000000000E+00 -0.30530701315E+03  0.37242316282E+04  0.37116962225E+04 0.  0.
        1    1    3    3  502    0  0.12876982357E+04  0.91925560801E+03 -0.11259680390E+04  0.19419067032E+04  0.50400001928E-02 0. -1.
       -1    1    3    3    0  502 -0.12876982357E+04 -0.91925560801E+03  0.82066102581E+03  0.17823249250E+04  0.50400001928E-02 0.  1.
</event>
<event>
 5   0  0.7203049E-08  0.3711544E+04  0.7818609E-02  0.8065408E-01
       -2   -1    0    0    0  501  0.00000000000E+00  0.00000000000E+00  0.16793410186E+04  0.16793410186E+04  0.25500000920E-02 0. -1.
        2   -1    0    0  501    0  0.00000000000E+00  0.00000000000E+00 -0.20507382360E+04  0.20507382360E+04  0.25500000920E-02 0.  1.
    10030    2    1    2    0    0  0.00000000000E+00  0.00000000000E+00 -0.37139721744E+03  0.37300792546E+04  0.37115435269E+04 0.  0.
        4    1    3    3  502    0  0.93181851690E+03  0.17401794360E+03 -0.17890718484E+04  0.20246845890E+04  0.12699999809E+01 0.  1.
       -4    1    3    3    0  502 -0.93181851690E+03 -0.17401794360E+03  0.14176746310E+04  0.17053946656E+04  0.12699999809E+01 0. -1.
</event>
<event>
 5   0  0.7191801E-08  0.3696821E+04  0.7818609E-02  0.8068667E-01
       -2   -1    0    0    0  501  0.00000000000E+00  0.00000000000E+00  0.19503153477E+04  0.19503153477E+04  0.25500000920E-02 0. -1.
        2   -1    0    0  501    0  0.00000000000E+00  0.00000000000E+00 -0.17518301800E+04  0.17518301800E+04  0.25500000920E-02 0.  1.
    10030    2    1    2    0    0  0.00000000000E+00  0.00000000000E+00  0.19848516770E+03  0.37021455278E+04  0.36968209514E+04 0.  0.
        5    1    3    3  502    0 -0.16086859201E+04  0.90804056384E+03  0.34410313508E+02  0.18475968757E+04  0.46999998093E+01 0. -1.
       -5    1    3    3    0  502  0.16086859201E+04 -0.90804056384E+03  0.16407485419E+03  0.18545486521E+04  0.46999998093E+01 0.  1.
</event>
<event>
 5   0  0.2282000E-08  0.3692157E+04  0.7818609E-02  0.8069702E-01
        1   -1    0    0  501    0  0.00000000000E+00  0.00000000000E+00  0.10814704872E+04  0.10814704872E+04  0.50400001928E-02 0.  1.
       -1   -1    0    0    0  501  0.00000000000E+00  0.00000000000E+00 -0.31512709545E+04  0.31512709545E+04  0.50400001928E-02 0. -1.
    10030    2    1    2    0    0  0.00000000000E+00  0.00000000000E+00 -0.20698004673E+04  0.42327414417E+04  0.36921573826E+04 0.  0.
        4    1    3    3  502    0  0.93919705486E+03 -0.13193368186E+04 -0.20507966468E+04  0.26131416433E+04  0.12699999809E+01 0. -1.
       -4    1    3    3    0  502 -0.93919705486E+03  0.13193368186E+04 -0.19003820488E+02  0.16195997984E+04  0.12699999809E+01 0.  1.
</event>
<event>
 5   0  0.7191801E-08  0.3695302E+04  0.7818609E-02  0.8069004E-01
        2   -1    0    0  501    0  0.00000000000E+00  0.00000000000E+00  0.11898951329E+04  0.11898951329E+04  0.25500000920E-02 0. -1.
       -2   -1    0    0    0  501  0.00000000000E+00  0.00000000000E+00 -0.28690043358E+04  0.28690043358E+04  0.25500000920E-02 0.  1.
    10030    2    1    2    0    0  0.00000000000E+00  0.00000000000E+00 -0.16791092029E+04  0.40588994687E+04  0.36953020420E+04 0.  0.
        5    1    3    3  502    0 -0.23383852701E+03 -0.67681842850E+03  0.10312755267E+04  0.12555138167E+04  0.46999998093E+01 0. -1.
       -5    1    3    3    0  502  0.23383852701E+03  0.67681842850E+03 -0.27103847296E+04  0.28033856520E+04  0.46999998093E+01 0.  1.
</event>
<event>
 5   0  0.2282000E-08  0.3690635E+04  0.7818609E-02  0.8070040E-01
        1   -1    0    0  501    0  0.00000000000E+00  0.00000000000E+00  0.23440674120E+04  0.23440674120E+04  0.50400001928E-02 0. -1.
       -1   -1    0    0    0  501  0.00000000000E+00  0.00000000000E+00 -0.14526874675E+04  0.14526874675E+04  0.50400001928E-02 0.  1.
    10030    2    1    2    0    0  0.00000000000E+00  0.00000000000E+00  0.89137994450E+03  0.37967548794E+04  0.36906353666E+04 0.  0.
        2    1    3    3  502    0  0.41535161989E+03 -0.74498279853E+03 -0.12377236617E+04  0.15031554148E+04  0.25500000920E-02 0.  1.
       -2    1    3    3    0  502 -0.41535161989E+03  0.74498279853E+03  0.21291036062E+04  0.22935994646E+04  0.25500000920E-02 0. -1.
</event>
<event>
 5   0  0.7309833E-08  0.3691617E+04  0.7818609E-02  0.8069822E-01
        2   -1    0    0  501    0  0.00000000000E+00  0.00000000000E+00  0.14049873852E+04  0.14049873852E+04  0.25500000920E-02 0. -1.
       -2   -1    0    0    0  501  0.00000000000E+00  0.00000000000E+00 -0.24249395546E+04  0.24249395546E+04  0.25500000920E-02 0.  1.
    10030    2    1    2    0    0  0.00000000000E+00  0.00000000000E+00 -0.10199521693E+04  0.38299269398E+04  0.36916172522E+04 0.  0.
        2    1    3    3  502    0 -0.25652940854E+03  0.66392351903E+03  0.12568888335E+04  0.14444276778E+04  0.25500000920E-02 0. -1.
       -2    1    3    3    0  502  0.25652940854E+03 -0.66392351903E+03 -0.22768410029E+04  0.23854992620E+04  0.25500000920E-02 0.  1.
</event>
<event>
 5   0  0.2282000E-08  0.3697545E+04  0.7818609E-02  0.8068506E-01
        1   -1    0    0  501    0  0.00000000000E+00  0.00000000000E+00  0.17655504480E+04  0.17655504481E+04  0.50400001928E-02 0.  1.
       -1   -1    0    0    0  501  0.00000000000E+00  0.00000000000E+00 -0.19359171811E+04  0.19359171811E+04  0.50400001928E-02 0. -1.
    10030    2    1    2    0    0  0.00000000000E+00  0.00000000000E+00 -0.17036673306E+03  0.37014676292E+04  0.36975448322E+04 0.  0.
        5    1    3    3  502    0  0.38378771918E+03  0.15010093839E+03  0.17189811719E+04  0.17676938831E+04  0.46999998093E+01 0.  1.
       -5    1    3    3    0  502 -0.38378771918E+03 -0.15010093839E+03 -0.18893479049E+04  0.19337737461E+04  0.46999998093E+01 0. -1.
</event>
</LesHouchesEvents>
